Membrane in water
40155
    1TCq1    O1    1   3.908   2.237  11.036 -0.2990 -0.7170 -0.2110
    1TCq1    C1    2   3.889   2.347  10.959 -0.6634 -0.0709  0.6011
    1TCq1    O2    3   3.895   2.348  10.839  0.4883 -0.3278 -0.4396
    1TCq1    C2    4   3.885   2.464  11.049  0.8070  0.3754  0.1149
    1TCq1    C3    5   3.834   2.579  11.005  0.3244 -0.1896  0.7770
    1TCq1    C4    6   3.844   2.694  11.070 -0.8379  0.1208  0.1902
    1TCq1    C5    7   3.906   2.698  11.186 -0.2889 -0.4096 -0.0282
    1TCq1    C6    8   3.956   2.585  11.239 -0.0326  0.0276 -0.4390
    1TCq1    C7    9   3.958   2.466  11.163 -0.7388 -0.1473 -0.0763
    1TCq1    C8   10   4.001   2.596  11.384 -0.3037 -0.0481  0.0850
    1TCq1    O4   11   3.965   2.694  11.442 -0.2907 -0.0547  0.5917
    1TCq1    C9   12   3.796   2.810  11.005  0.3130  0.2042 -0.4746
    1TCq1    O5   13   3.699   2.794  10.928 -0.1958 -0.2164  0.2194
    1TCq1    O6   14   3.833   2.916  11.055  0.4764  0.1478  0.3921
    1TCq1    H1   15   3.881   2.260  11.127  0.2075 -0.6060 -0.0924
    1TCq1    H2   16   3.777   2.586  10.913  1.7963 -2.0721 -0.2935
    1TCq1    H3   17   3.897   2.787  11.247 -1.2146 -0.0996 -0.6146
    1TCq1    H4   18   3.995   2.370  11.197 -1.6725 -0.4096  0.2060
    2MPD2     C   19   4.144   2.435  11.855 -0.1084 -0.2077  0.6528
    2MPD2    C1   20   4.085   2.549  11.816 -0.1493  0.1439  0.6363
    2MPD2    C2   21   4.056   2.564  11.679  0.1038  0.2992  0.0652
    2MPD2    C3   22   4.087   2.467  11.582 -0.5063  0.0613  0.1832
    2MPD2    C4   23   4.152   2.351  11.628  0.4276  0.1796 -0.0509
    2MPD2    C5   24   4.168   2.332  11.765 -0.1612 -0.8755 -0.5308
    2MPD2     H   25   4.011   2.661  11.664  0.5822  0.2899 -1.3871
    2MPD2    H1   26   4.184   2.268  11.565  3.0765  2.3206 -1.5255
    2MPD2    H2   27   4.151   2.400  11.957  1.6696 -1.4433  0.1103
    2MPD2    H3   28   4.206   2.234  11.792 -0.0436 -0.6737  0.0324
    2MPD2     N   29   4.052   2.477  11.448 -0.4703 -0.8062 -0.5302
    2MPD2    H5   30   4.067   2.396  11.389  0.9681 -1.4108  0.6773
    2MPD2    N1   31   4.033   2.641  11.910  0.4813  0.0941 -0.7106
    2MPD2    H7   32   3.977   2.721  11.882 -0.8879 -0.3101  0.8436
    3TCq1    O1   33   3.878   4.229  10.338  0.1575  0.5643 -0.5330
    3TCq1    C1   34   3.901   4.355  10.290 -0.1226  0.6050  0.0585
    3TCq1    O2   35   4.010   4.414  10.299  0.1342 -0.3923 -0.1761
    3TCq1    C2   36   3.781   4.435  10.277  0.2167  0.4092  0.4458
    3TCq1    C3   37   3.786   4.549  10.201  0.2910  0.0169 -0.4593
    3TCq1    C4   38   3.669   4.617  10.173  0.7286  0.1640 -0.0685
    3TCq1    C5   39   3.552   4.566  10.216  0.0131 -0.0850  0.1521
    3TCq1    C6   40   3.546   4.462  10.302  0.1104 -0.2805  0.2620
    3TCq1    C7   41   3.662   4.392  10.333 -0.7281  0.3358  0.6802
    3TCq1    C8   42   3.437   4.436  10.391 -0.1011  0.0070 -0.0136
    3TCq1    O4   43   3.415   4.325  10.439 -0.3192  0.5514 -0.1971
    3TCq1    C9   44   3.668   0.017  10.100 -0.2173 -0.4250 -0.0551
    3TCq1    O5   45   3.775   0.078  10.096  0.4540  0.2783  0.0377
    3TCq1    O6   46   3.559   0.052  10.054 -0.0558 -0.2961 -0.4217
    3TCq1    H1   47   3.795   4.193  10.299 -1.4360  1.1010  2.3979
    3TCq1    H2   48   3.880   4.582  10.158  0.0226  0.5652 -0.6295
    3TCq1    H3   49   3.459   4.616  10.193 -0.2883 -0.8990 -0.3927
    3TCq1    H4   50   3.670   4.313  10.407 -1.9308  2.6227  3.2759
    4MPD2     C   51   2.945   4.572  10.464 -0.1646 -0.4758 -0.2762
    4MPD2    C1   52   3.020   4.687  10.457  0.4128  0.1132 -0.7348
    4MPD2    C2   53   3.154   4.669  10.432 -0.8352 -0.2567 -0.6796
    4MPD2    C3   54   3.217   4.546  10.421 -0.2878 -0.3101  0.2020
    4MPD2    C4   55   3.135   4.439  10.420 -0.4862  0.6225  0.2786
    4MPD2    C5   56   2.998   4.452  10.442  0.3026 -0.8883  0.5459
    4MPD2     H   57   3.205   0.042  10.428 -3.8941  1.3864 -0.1230
    4MPD2    H1   58   3.168   4.336  10.407  2.1236  1.2928  1.7021
    4MPD2    H2   59   2.839   4.571  10.488  0.0661  1.4196  0.8776
    4MPD2    H3   60   2.942   4.359  10.442  0.1358 -0.7798 -0.8459
    4MPD2     N   61   3.353   4.544  10.401  0.1798  0.1162 -0.3932
    4MPD2    H5   62   3.388   4.636  10.376  1.8120 -0.1760  0.8679
    4MPD2    N1   63   2.964   0.091  10.472  0.9496 -0.3679 -0.3120
    4MPD2    H7   64   3.031   0.164  10.446 -0.1366  0.7034 -0.1273
    5TCq1    O1   65   3.272   1.364  11.217  0.1329 -0.1092 -0.1574
    5TCq1    C1   66   3.203   1.417  11.113 -0.2723  0.1534 -0.3502
    5TCq1    O2   67   3.230   1.528  11.068 -0.4752 -0.2654 -0.8531
    5TCq1    C2   68   3.148   1.310  11.026 -0.5231 -0.6744 -0.0924
    5TCq1    C3   69   3.060   1.227  11.091  0.5315  0.1800 -0.0525
    5TCq1    C4   70   3.041   1.109  11.033 -0.1788 -0.0546 -0.3203
    5TCq1    C5   71   3.089   1.084  10.908  0.3072  0.6282  0.2619
    5TCq1    C6   72   3.165   1.174  10.844  0.5706 -0.1877  0.3141
    5TCq1    C7   73   3.202   1.289  10.906 -0.2799 -0.4220 -0.2666
    5TCq1    C8   74   3.220   1.148  10.713 -0.3524 -0.2814  0.5516
    5TCq1    O4   75   3.200   1.032  10.679 -0.0624 -0.7237 -0.2777
    5TCq1    C9   76   2.963   1.015  11.103  0.0104 -0.6744  0.2345
    5TCq1    O5   77   2.906   1.065  11.205  0.2800 -0.5203 -0.1351
    5TCq1    O6   78   2.973   0.893  11.074 -0.3322 -0.2739  0.5723
    5TCq1    H1   79   3.265   1.266  11.212 -3.3638  0.0410  2.0433
    5TCq1    H2   80   3.025   1.256  11.189  0.4296 -0.1166 -0.0021
    5TCq1    H3   81   3.069   0.985  10.867  0.7204  0.2915  0.8713
    5TCq1    H4   82   3.280   1.357  10.873 -1.6095  1.5112  0.5524
    6MPD2     C   83   3.402   1.354  10.468 -0.1842  1.1500  0.5639
    6MPD2    C1   84   3.364   1.243  10.536 -0.9717  0.4229 -0.0749
    6MPD2    C2   85   3.426   1.122  10.506 -0.1649  0.5036  0.3392
    6MPD2    C3   86   3.508   1.113  10.402  0.6009  0.5089 -0.4855
    6MPD2    C4   87   3.543   1.220  10.337 -0.2259 -0.0622 -0.6811
    6MPD2    C5   88   3.498   1.343  10.376  0.1005  0.0482  0.5342
    6MPD2     H   89   3.412   1.031  10.563  1.0288  0.6442  0.8514
    6MPD2    H1   90   3.618   1.215  10.258 -0.7098 -2.6017 -0.9619
    6MPD2    H2   91   3.349   1.446  10.492 -1.6457  0.6424 -0.7149
    6MPD2    H3   92   3.515   1.431  10.315 -0.0960  0.4465  1.0539
    6MPD2     N   93   3.559   0.981  10.375 -0.5352  0.1022 -0.3967
    6MPD2    H5   94   3.523   0.903  10.428  0.3078  0.6217  0.9347
    6MPD2    N1   95   3.275   1.257  10.641 -0.1091 -0.2264 -0.8714
    6MPD2    H7   96   3.252   1.353  10.664 -0.4528 -0.7391  0.9493
    7TCq1    O1   97   1.013   1.478  12.851 -0.3605 -0.4171 -0.4953
    7TCq1    C1   98   1.079   1.392  12.932 -0.2652  0.2947 -0.5704
    7TCq1    O2   99   1.165   1.416  13.015  0.3699  0.5450  0.2239
    7TCq1    C2  100   1.026   1.250  12.907  0.0607  0.0974  0.0389
    7TCq1    C3  101   0.931   1.221  12.814 -0.0620  0.0825  0.2009
    7TCq1    C4  102   0.874   1.097  12.807  0.8244  0.3543 -0.7802
    7TCq1    C5  103   0.921   1.003  12.887 -0.1334  0.2941 -0.4952
    7TCq1    C6  104   1.027   1.028  12.982  0.2091  0.5297 -0.3735
    7TCq1    C7  105   1.079   1.154  12.986  0.2526  0.2309 -0.4762
    7TCq1    C8  106   1.043   0.932  13.081  1.3489 -1.0662  0.2180
    7TCq1    O4  107   0.974   0.831  13.076  0.3452  0.2652 -0.1430
    7TCq1    C9  108   0.786   1.062  12.698 -0.2475 -0.1549  0.3791
    7TCq1    O5  109   0.792   1.127  12.591  0.0882 -0.0688 -0.2071
    7TCq1    O6  110   0.753   0.945  12.693 -0.2843 -0.4670  0.0613
    7TCq1    H1  111   0.945   1.447  12.788 -1.5473 -0.6623  0.9267
    7TCq1    H2  112   0.915   1.297  12.738 -1.7023 -0.5578 -0.1168
    7TCq1    H3  113   0.869   0.909  12.870 -0.0509 -0.2090  1.9800
    7TCq1    H4  114   1.139   1.182  13.073 -0.8540  1.1865 -0.0280
    8MPD2     C  115   1.326   0.708  13.458  0.1613  0.1459  0.1292
    8MPD2    C1  116   1.196   0.670  13.422 -0.1727 -0.0741 -0.2695
    8MPD2    C2  117   1.141   0.749  13.317 -0.6949 -0.1762 -0.2582
    8MPD2    C3  118   1.194   0.875  13.274 -0.2533  0.0420  1.3050
    8MPD2    C4  119   1.307   0.919  13.342  0.5085 -1.0855  0.0562
    8MPD2    C5  120   1.374   0.827  13.418  0.6899 -1.0033  1.0893
    8MPD2     H  121   1.054   0.705  13.271 -0.3906  1.9792 -2.9312
    8MPD2    H1  122   1.353   1.018  13.342 -0.4211 -0.6606 -0.6647
    8MPD2    H2  123   1.390   0.647  13.520 -1.3541 -0.7016  0.8475
    8MPD2    H3  124   1.465   0.860  13.467  0.7158  0.5804  0.0074
    8MPD2     N  125   1.143   0.957  13.170  0.7260 -0.1335 -0.0851
    8MPD2    H5  126   1.207   1.034  13.154  1.4561 -0.9155 -0.9060
    8MPD2    N1  127   1.150   0.539  13.462 -0.3177 -0.5670  0.0143
    8MPD2    H7  128   1.203   0.498  13.538 -1.1335 -0.8914  0.4098
    9TCq1    O1  129   3.233   4.152  10.575  0.5308  0.6964 -0.2218
    9TCq1    C1  130   3.290   4.069  10.668 -0.3847 -0.4340 -0.5693
    9TCq1    O2  131   3.268   4.069  10.783  0.1160  0.1929 -0.7466
    9TCq1    C2  132   3.427   4.046  10.614 -0.2407  0.4564 -0.0190
    9TCq1    C3  133   3.437   4.031  10.485  0.7992 -0.0346  0.7714
    9TCq1    C4  134   3.560   4.039  10.437  0.4009  0.2870 -0.9325
    9TCq1    C5  135   3.674   4.039  10.514  0.0070 -0.4497 -0.0499
    9TCq1    C6  136   3.657   4.050  10.650 -0.6789 -0.3005  0.7251
    9TCq1    C7  137   3.530   4.056  10.699 -1.2464  0.3828 -0.1995
    9TCq1    C8  138   3.770   4.051  10.739  0.3978  0.2752  0.2450
    9TCq1    O4  139   3.879   4.060  10.680  0.3283 -0.0616 -0.5196
    9TCq1    C9  140   3.578   4.038  10.300  0.1082  0.4293 -0.4060
    9TCq1    O5  141   3.678   4.102  10.256 -0.0477  0.4301 -0.3212
    9TCq1    O6  142   3.496   3.971  10.234  0.1616  0.0075 -0.5454
    9TCq1    H1  143   3.287   4.177  10.496  1.6851  3.5344  1.4775
    9TCq1    H2  144   3.354   4.012  10.418  0.4973 -0.8801  1.3929
    9TCq1    H3  145   3.774   4.042  10.471 -0.1742 -0.8779 -0.5028
    9TCq1    H4  146   3.498   4.094  10.796 -1.5560 -0.2722 -0.0486
   10MPD2     C  147   3.978   4.035  10.945  1.3299  0.8130 -0.0484
   10MPD2    C1  148   3.847   4.015  10.969  0.2315  0.1618 -0.4974
   10MPD2    C2  149   3.814   3.939  11.083  0.3148 -0.7884 -0.4320
   10MPD2    C3  150   3.908   3.903  11.175 -0.7718  0.2385  0.0810
   10MPD2    C4  151   4.040   3.941  11.155 -0.4016 -0.5198  0.1117
   10MPD2    C5  152   4.074   3.998  11.033 -0.5089  1.1257 -0.2267
   10MPD2     H  153   3.709   3.921  11.103  0.0289 -0.3376 -1.5182
   10MPD2    H1  154   4.116   3.923  11.230 -0.4385 -0.1318  0.2411
   10MPD2    H2  155   4.008   4.071  10.847 -2.3278  4.2246  0.0653
   10MPD2    H3  156   4.177   4.009  11.002  0.3703 -0.3514  2.1856
   10MPD2     N  157   3.871   3.856  11.306  0.6232 -0.5464  0.0915
   10MPD2    H5  158   3.941   3.857  11.380  2.4763  0.0472 -1.6581
   10MPD2    N1  159   3.749   4.038  10.877  0.0414  0.5725  0.1097
   10MPD2    H7  160   3.656   4.031  10.917  0.3647 -0.1538  0.7292
   11TCq1    O1  161   4.080   0.156  13.646  0.6786  0.4696 -0.0951
   11TCq1    C1  162   4.192   0.121  13.587 -0.7767 -0.0859 -0.3958
   11TCq1    O2  163   4.289   0.196  13.576 -0.5686  0.0686 -0.1516
   11TCq1    C2  164   4.201   4.699  13.589 -0.1939 -0.8302 -0.0624
   11TCq1    C3  165   4.310   4.641  13.645 -0.8441 -0.0917 -0.5536
   11TCq1    C4  166   4.328   4.502  13.641 -0.8997  0.5344  0.3390
   11TCq1    C5  167   4.229   4.423  13.584 -0.1516  0.4299 -0.1890
   11TCq1    C6  168   4.120   4.488  13.530 -0.3204 -0.2377  0.4134
   11TCq1    C7  169   4.104   4.622  13.530  0.1627 -0.6149 -0.5879
   11TCq1    C8  170   4.021   4.408  13.461 -0.0826 -0.3208  0.5808
   11TCq1    O4  171   3.910   4.455  13.435 -0.0803 -0.5298 -0.0578
   11TCq1    C9  172   4.448   4.435  13.682  0.9298 -0.5740  0.3315
   11TCq1    O5  173   4.514   4.502  13.760  0.1916  0.3125 -0.0642
   11TCq1    O6  174   4.488   4.319  13.649 -0.0204 -0.3516 -0.2583
   11TCq1    H1  175   4.001   0.100  13.634  0.1379  1.4362 -1.0282
   11TCq1    H2  176   4.392   4.702  13.680 -1.0447  2.0209 -3.8356
   11TCq1    H3  177   4.240   4.315  13.588 -0.3186  0.4273  0.2213
   11TCq1    H4  178   4.027   4.677  13.479 -1.1159 -1.5468  0.3388
   12MPD2     C  179   3.862   4.204  13.318  0.4587 -0.0860  0.3137
   12MPD2    C1  180   3.985   4.185  13.378 -0.0041  0.4148 -1.1556
   12MPD2    C2  181   4.050   4.061  13.358 -0.2304  0.1466 -0.4144
   12MPD2    C3  182   3.988   3.949  13.295  0.6249 -0.0901  0.7411
   12MPD2    C4  183   3.878   3.984  13.225 -0.4245 -0.1706 -0.1906
   12MPD2    C5  184   3.817   4.102  13.238 -0.2539  0.2764 -0.0379
   12MPD2     H  185   4.150   4.064  13.401 -0.0210  2.2016 -1.0471
   12MPD2    H1  186   3.820   3.922  13.159  2.6854 -3.0878 -0.2109
   12MPD2    H2  187   3.806   4.297  13.325  0.4767 -0.0761  0.3264
   12MPD2    H3  188   3.736   4.119  13.168 -1.4279 -0.5589  1.1064
   12MPD2     N  189   4.046   3.823  13.280  0.1167  0.3962  0.0409
   12MPD2    H5  190   3.986   3.751  13.242 -0.9740  0.2417  2.0501
   12MPD2    N1  191   4.050   4.273  13.460 -0.0446 -0.1458  0.1496
   12MPD2    H7  192   4.143   4.254  13.496  1.0568  2.1387 -1.4965
   13TCq1    O1  193   4.065   3.871  10.662  0.1126  0.1513  0.1931
   13TCq1    C1  194   4.060   3.777  10.563  0.1347 -0.5320  0.6431
   13TCq1    O2  195   4.157   3.740  10.495  0.6570  0.0458  0.7412
   13TCq1    C2  196   3.926   3.733  10.544  0.3509 -0.2436  0.4591
   13TCq1    C3  197   3.880   3.703  10.419  0.5792 -0.1440  0.1494
   13TCq1    C4  198   3.753   3.666  10.404 -0.2970  0.3526 -1.4607
   13TCq1    C5  199   3.664   3.668  10.513  0.3949 -0.0658  0.2287
   13TCq1    C6  200   3.716   3.699  10.635  0.5927 -0.4994  0.0647
   13TCq1    C7  201   3.848   3.736  10.648  0.3187  0.9223  0.2360
   13TCq1    C8  202   3.630   3.695  10.756  0.3081 -0.1811 -0.8863
   13TCq1    O4  203   3.687   3.719  10.861 -0.0883 -0.2782 -0.3722
   13TCq1    C9  204   3.694   3.655  10.270  1.0576  0.8200  0.5169
   13TCq1    O5  205   3.579   3.616  10.259 -0.3412 -0.0697 -0.0775
   13TCq1    O6  206   3.762   3.680  10.163 -0.5144 -0.0617  0.3799
   13TCq1    H1  207   3.980   3.915  10.682 -0.1066 -0.2765  0.2187
   13TCq1    H2  208   3.941   3.700  10.329  0.2160  0.2127 -0.1110
   13TCq1    H3  209   3.563   3.635  10.493 -1.0402  2.9160  2.6201
   13TCq1    H4  210   3.886   3.742  10.750 -0.5366  2.5533  0.4591
   14MPD2     C  211   3.266   3.710  10.789 -0.1605  0.7881 -0.7977
   14MPD2    C1  212   3.395   3.720  10.832  0.5286  0.1907 -0.2643
   14MPD2    C2  213   3.421   3.748  10.968 -0.5065 -0.6248 -0.4308
   14MPD2    C3  214   3.313   3.769  11.057 -0.9640  0.6465 -0.6951
   14MPD2    C4  215   3.190   3.766  11.005 -0.1636  0.3143 -0.0537
   14MPD2    C5  216   3.164   3.730  10.881  0.2802  0.4794 -0.6444
   14MPD2     H  217   3.518   3.733  11.015  0.2885 -0.1777 -1.9287
   14MPD2    H1  218   3.107   3.788  11.071  0.2952  0.1886  0.5632
   14MPD2    H2  219   3.240   3.688  10.687 -0.1704  3.3502 -1.3497
   14MPD2    H3  220   3.060   3.720  10.849  0.4477  0.3158 -1.1446
   14MPD2     N  221   3.343   3.808  11.188  0.0421  0.5125 -0.6592
   14MPD2    H5  222   3.440   3.819  11.216 -0.3895 -1.9096  1.8676
   14MPD2    N1  223   3.492   3.708  10.729  0.2517 -0.1872  0.5749
   14MPD2    H7  224   3.454   3.687  10.638  1.6489 -0.8664  0.1444
   15TCq1    O1  225   0.772   4.214   1.788 -0.0263  0.0788  0.0915
   15TCq1    C1  226   0.820   4.097   1.841 -0.0350  0.1072  0.1663
   15TCq1    O2  227   0.933   4.055   1.828 -0.1408 -0.4927  0.3915
   15TCq1    C2  228   0.705   4.010   1.861 -0.0378 -0.7679  0.1562
   15TCq1    C3  229   0.588   4.050   1.922 -0.2928 -0.6720  0.8290
   15TCq1    C4  230   0.485   3.968   1.935  0.6983 -0.3666 -1.1112
   15TCq1    C5  231   0.497   3.835   1.895  0.0800  0.8011  0.9069
   15TCq1    C6  232   0.616   3.793   1.831  0.0079  0.9826 -0.1206
   15TCq1    C7  233   0.719   3.881   1.805  0.0056 -0.5383 -0.1580
   15TCq1    C8  234   0.636   3.662   1.778 -0.1284 -0.9950 -0.6439
   15TCq1    O4  235   0.750   3.622   1.757 -0.6220  0.2631 -0.1573
   15TCq1    C9  236   0.365   4.006   2.005 -0.2459 -0.0923  0.1867
   15TCq1    O5  237   0.267   3.928   2.009 -0.2232 -0.3703  0.2131
   15TCq1    O6  238   0.357   4.119   2.055  0.6259 -0.2943  0.4238
   15TCq1    H1  239   0.676   4.221   1.806 -0.3937 -3.7336 -0.2905
   15TCq1    H2  240   0.587   4.146   1.974  0.9905  0.2104 -0.7587
   15TCq1    H3  241   0.413   3.772   1.920  0.9949 -1.4335 -1.5649
   15TCq1    H4  242   0.806   3.847   1.751 -0.5056 -0.5662 -0.9621
   16MPD2     C  243   0.346   3.458   1.668 -0.2330 -0.2402 -0.0763
   16MPD2    C1  244   0.477   3.481   1.696  0.1359 -0.4232 -0.0059
   16MPD2    C2  245   0.575   3.386   1.681  0.0484 -0.2168  0.8636
   16MPD2    C3  246   0.545   3.265   1.627  0.3540  1.0665 -0.1139
   16MPD2    C4  247   0.410   3.238   1.593  0.1140  0.3677 -0.1819
   16MPD2    C5  248   0.313   3.333   1.621  0.1719 -0.6833  0.4588
   16MPD2     H  249   0.676   3.404   1.716  0.6100 -1.9264  0.1426
   16MPD2    H1  250   0.386   3.152   1.532  0.2015 -1.3029  2.1206
   16MPD2    H2  251   0.270   3.534   1.685  2.4559  2.3434  0.3512
   16MPD2    H3  252   0.207   3.324   1.598  0.4497 -1.8202 -0.3306
   16MPD2     N  253   0.648   3.167   1.603 -0.1872  0.1369 -0.3076
   16MPD2    H5  254   0.739   3.186   1.644 -0.8292 -2.3846  2.2799
   16MPD2    N1  255   0.510   3.607   1.747 -0.0210 -0.2887 -0.3601
   16MPD2    H7  256   0.436   3.666   1.783  1.0242  2.4046 -2.5688
   17TCq1    O1  257   2.693   2.153   9.712  0.3929  0.3278  0.0263
   17TCq1    C1  258   2.743   2.141   9.589 -1.1038  0.1482  0.4034
   17TCq1    O2  259   2.700   2.074   9.499 -0.0816 -1.1607 -0.3274
   17TCq1    C2  260   2.856   2.229   9.576  0.6249 -0.3835  0.0235
   17TCq1    C3  261   2.903   2.266   9.457  0.0156  0.7451 -0.0469
   17TCq1    C4  262   2.981   2.379   9.439 -0.5137  0.2654  0.3905
   17TCq1    C5  263   3.044   2.423   9.547  1.0622  0.3938 -0.3555
   17TCq1    C6  264   3.010   2.372   9.671  0.3980  0.0986  0.1297
   17TCq1    C7  265   2.907   2.286   9.691 -0.4217  0.0967  0.4100
   17TCq1    C8  266   3.071   2.429   9.789 -0.8544  0.0833 -0.6266
   17TCq1    O4  267   3.024   2.406   9.900 -0.8273 -1.0165 -0.2609
   17TCq1    C9  268   3.016   2.428   9.307 -0.6699 -0.2831  0.4927
   17TCq1    O5  269   3.084   2.534   9.315 -0.2660  0.4237 -0.5320
   17TCq1    O6  270   2.954   2.382   9.204 -0.1986  0.0770 -0.2558
   17TCq1    H1  271   2.733   2.229   9.760  1.4546 -1.4312  1.9273
   17TCq1    H2  272   2.852   2.218   9.374 -0.6181  0.2411  0.6318
   17TCq1    H3  273   3.096   2.517   9.534  1.2512  0.5117  1.1725
   17TCq1    H4  274   2.893   2.242   9.789 -1.9454  0.7341  0.4707
   18MPD2     C  275   3.264   2.532   9.987 -0.1356 -0.0366 -0.0005
   18MPD2    C1  276   3.262   2.572   9.854 -0.4968  0.7538  1.1867
   18MPD2    C2  277   3.337   2.680   9.815  0.2267  0.3775 -0.1317
   18MPD2    C3  278   3.425   2.741   9.908 -0.2647 -0.3040 -0.2588
   18MPD2    C4  279   3.449   2.682  10.030 -0.0218 -0.8464  0.2345
   18MPD2    C5  280   3.353   2.590  10.078  0.1157 -0.1723  0.0936
   18MPD2     H  281   3.337   2.712   9.711  2.8237 -2.7604 -1.0815
   18MPD2    H1  282   3.516   2.720  10.106 -0.1278  1.1800 -0.6945
   18MPD2    H2  283   3.214   2.446  10.031  1.1001 -0.2195  1.0529
   18MPD2    H3  284   3.355   2.557  10.181 -4.2982  2.4377  1.0329
   18MPD2     N  285   3.523   2.839   9.880  0.0258  0.8074  0.1462
   18MPD2    H5  286   3.593   2.853   9.952 -1.8860  3.4421  1.4778
   18MPD2    N1  287   3.172   2.512   9.757  0.4231  0.8745 -0.3772
   18MPD2    H7  288   3.170   2.543   9.661  2.1570  1.7961 -0.1170
   19TMC2    C1  289   0.370   4.229  13.951 -0.4735 -0.1590 -0.0329
   19TMC2    C2  290   0.279   4.271  13.855 -0.2786  0.8727 -0.8240
   19TMC2    C3  291   0.150   4.237  13.873  0.3316  0.1899  0.7032
   19TMC2    C4  292   0.337   4.139  14.046  0.0318  0.5386  0.4714
   19TMC2    C5  293   0.207   4.100  14.054  1.3274  1.0818  0.0037
   19TMC2    C6  294   0.113   4.139  13.961  0.0898 -0.2191  0.2499
   19TMC2     C  295   0.503   4.281  13.930  0.5038 -0.0235 -0.2171
   19TMC2     O  296   0.518   4.377  13.856 -0.1675  0.2645  0.3176
   19TMC2     H  297   0.302   4.348  13.782 -0.9192  3.7531  1.9906
   19TMC2    H1  298   0.404   4.094  14.119 -1.1238 -0.5752  0.8437
   19TMC2    H2  299   0.009   4.135  13.993  0.2720 -0.2012  0.8479
   19TMC2    C7  300   0.159   4.004  14.149 -0.0280 -0.0291  0.4411
   19TMC2    C8  301   0.051   4.313  13.805  0.2810 -0.2366 -0.1333
   19TMC2    O1  302   0.064   3.942  14.108  0.0785  0.2003  0.4748
   19TMC2    O2  303   0.070   4.415  13.737 -0.3015  0.9077  0.0763
   19TMC2    O5  304   4.652   4.252  13.823  0.1630 -0.1081  0.9590
   19TMC2    H5  305   4.583   4.282  13.759  1.4915  2.2429  0.6200
   20MPD2     C  306   0.796   4.304  13.909  0.0336 -0.5596 -0.2842
   20MPD2    C1  307   0.730   4.221  13.997  1.1924 -0.0392  0.4889
   20MPD2    C2  308   0.806   4.145  14.085 -0.2060 -0.4103 -0.0226
   20MPD2    C3  309   0.946   4.147  14.089 -0.5003 -0.3736 -0.2827
   20MPD2    C4  310   1.008   4.231  13.996 -0.2291  0.1263  0.0871
   20MPD2    C5  311   0.934   4.304  13.909  0.6457 -0.7105 -0.2298
   20MPD2     H  312   0.753   4.095  14.166 -1.0063  0.6450  0.1103
   20MPD2    H1  313   1.116   4.231  13.987 -0.2444  2.1550  0.1007
   20MPD2    H2  314   0.751   4.378  13.843  0.7471  0.2535  0.1378
   20MPD2    H3  315   0.987   4.362  13.835  1.2745  0.9858  1.5411
   20MPD2     N  316   1.013   4.061  14.180 -1.3791 -0.3621 -0.3464
   20MPD2    H5  317   1.114   4.058  14.171 -1.2334  0.2027  1.2244
   20MPD2    N1  318   0.594   4.206  14.000 -0.8737  0.5071 -0.5008
   20MPD2    H7  319   0.546   4.142  14.063  1.1987  0.9682  1.5590
   21MPD2     C  320   2.787   4.309  14.130  0.4870  0.1309 -0.0421
   21MPD2    C1  321   2.852   4.231  14.232  0.3243  0.3918  0.6530
   21MPD2    C2  322   2.798   4.236  14.359 -0.3966 -0.2500 -0.1352
   21MPD2    C3  323   2.688   4.312  14.398  0.4454 -0.0907  0.0308
   21MPD2    C4  324   2.621   4.381  14.292 -0.0420 -1.0707  0.3013
   21MPD2    C5  325   2.672   4.372  14.167 -0.5862 -0.0552  0.1024
   21MPD2     H  326   2.855   4.172  14.426  0.0933  1.6960  1.2996
   21MPD2    H1  327   2.542   4.454  14.304  0.7521 -0.2592  0.5500
   21MPD2    H2  328   2.814   4.314  14.025 -0.6348  1.0790 -0.2818
   21MPD2    H3  329   2.609   4.414  14.089 -0.7414  0.1270  0.3249
   21MPD2     N  330   2.655   4.337  14.537 -0.3189  0.1396 -0.3722
   21MPD2    H5  331   2.580   4.401  14.562  0.7340  1.3562 -0.3398
   21MPD2    N1  332   2.971   4.153  14.208 -0.2743  0.3667  0.1095
   21MPD2    H7  333   2.989   4.077  14.273  1.3087 -1.5232 -2.5636
   22TCq2    C1  334   2.730   4.278  14.643  0.2476 -0.8041 -0.7106
   22TCq2    O2  335   2.815   4.185  14.640 -0.0236 -0.2538 -1.4268
   22TCq2    C2  336   2.686   4.315  14.776  0.8012  0.0873  0.3596
   22TCq2    C3  337   2.736   4.236  14.880 -0.2080  0.9261  0.1002
   22TCq2    C4  338   2.701   4.283  15.009 -0.0096  0.2157  0.0634
   22TCq2    C5  339   2.627   4.392  15.028  0.8452  0.3638 -0.4564
   22TCq2    C6  340   2.579   4.461  14.927 -0.7139 -0.2513  0.4967
   22TCq2    C7  341   2.608   4.423  14.797 -0.5862  0.0129  0.0589
   22TCq2    C8  342   2.495   4.572  14.963  0.2116 -0.5126  0.2659
   22TCq2    O4  343   2.518   4.621  15.071  0.1711  0.0907 -0.0646
   22TCq2    C9  344   2.777   4.225  15.121  0.5975 -0.3096 -0.3328
   22TCq2    O5  345   2.856   4.128  15.099  0.0224  0.0314  0.1934
   22TCq2    O6  346   2.764   4.279  15.234 -0.0270 -0.0817  0.0381
   22TCq2    H2  347   2.817   4.167  14.860 -1.3926 -0.0596 -1.3581
   22TCq2    H3  348   2.615   4.430  15.129 -1.4026  0.5720 -0.8095
   22TCq2    H4  349   2.573   4.483  14.714  2.4240  2.7283  0.7953
   23MPD2     C  350   4.424   0.881  14.866 -0.4145  0.1712 -0.2380
   23MPD2    C1  351   4.305   0.808  14.886  0.5509 -0.2450 -0.2181
   23MPD2    C2  352   4.221   0.791  14.779  0.0989  0.3923 -0.3701
   23MPD2    C3  353   4.228   0.869  14.665 -0.1644 -1.2781 -0.5516
   23MPD2    C4  354   4.327   0.957  14.659 -0.2407 -0.6332 -0.8217
   23MPD2    C5  355   4.425   0.958  14.753 -0.4940  0.7301  0.0648
   23MPD2     H  356   4.137   0.723  14.791 -0.6798  1.7151  1.7578
   23MPD2    H1  357   4.338   1.022  14.573  0.4306 -1.1492 -1.1359
   23MPD2    H2  358   4.481   0.914  14.952 -1.4276  2.0361 -0.2815
   23MPD2    H3  359   4.510   1.025  14.750  0.9366 -1.0813  0.1675
   23MPD2     N  360   4.136   0.861  14.560  0.1629  0.2203  0.6135
   23MPD2    H5  361   4.148   0.935  14.492 -3.0930 -1.7410 -2.0882
   23MPD2    N1  362   4.292   0.748  15.015  0.3719 -0.0589 -0.0027
   23MPD2    H7  363   4.364   0.769  15.083 -1.1355  2.1269  0.9020
   24TCq2    C1  364   4.054   0.757  14.538  0.3222  0.2910  0.4144
   24TCq2    O2  365   4.050   0.650  14.596  0.1525 -0.2843  0.0796
   24TCq2    C2  366   3.945   0.788  14.446  0.3465  0.6884 -0.8274
   24TCq2    C3  367   3.904   0.914  14.397 -0.6680 -0.6008  0.2308
   24TCq2    C4  368   3.800   0.919  14.316  0.9058 -0.1056 -0.0161
   24TCq2    C5  369   3.741   0.802  14.269 -0.6895  0.0031 -0.6708
   24TCq2    C6  370   3.782   0.679  14.316 -0.0077  0.5894 -0.7251
   24TCq2    C7  371   3.879   0.673  14.410  0.2799  0.0034  0.3740
   24TCq2    C8  372   3.684   0.572  14.336 -0.1135  0.2763  0.2762
   24TCq2    O4  373   3.718   0.465  14.386 -0.1979 -0.2406 -0.5331
   24TCq2    C9  374   3.754   1.048  14.274  0.0456  0.3261  0.1204
   24TCq2    O5  375   3.657   1.062  14.194 -0.0320  0.6297  0.0947
   24TCq2    O6  376   3.807   1.144  14.337  0.0565  0.4217 -0.9921
   24TCq2    H2  377   3.953   1.005  14.428  2.0265 -1.6337 -0.9711
   24TCq2    H3  378   3.663   0.804  14.194 -0.8428  0.7073 -0.4958
   24TCq2    H4  379   3.899   0.577  14.456  4.3795  0.8258  0.3001
   25TMC2    C1  380   3.665   2.466  11.393  0.0189 -0.1462  0.0042
   25TMC2    C2  381   3.618   2.589  11.352  0.1362 -0.1644  0.1835
   25TMC2    C3  382   3.629   2.695  11.438  0.5603  0.1283 -0.1500
   25TMC2    C4  383   3.691   2.450  11.524  0.1724  0.0278  0.0156
   25TMC2    C5  384   3.687   2.552  11.610 -0.0372  0.0636  0.2215
   25TMC2    C6  385   3.650   2.678  11.569 -0.2308 -0.3209 -0.1219
   25TMC2     C  386   3.667   2.354  11.299  0.1378 -0.4638 -0.2365
   25TMC2     O  387   3.773   2.288  11.280 -0.5177  0.3287  0.1608
   25TMC2     H  388   3.592   2.602  11.247 -0.2198  1.0577  0.4281
   25TMC2    H1  389   3.718   2.349  11.550 -0.5744 -0.1651  0.0409
   25TMC2    H2  390   3.673   2.765  11.629 -2.1894 -0.0277  0.2134
   25TMC2    C7  391   3.711   2.539  11.753  0.0553  0.4930 -0.1842
   25TMC2    C8  392   3.580   2.821  11.397  0.4043  0.4310 -0.1024
   25TMC2    O1  393   3.681   2.629  11.827  0.6409  0.0222 -0.3205
   25TMC2    O2  394   3.571   2.848  11.278  0.1277  0.1277 -0.0556
   25TMC2    O5  395   3.477   2.827  11.484  0.8079 -0.1113 -0.0174
   25TMC2    H5  396   3.500   2.786  11.570  0.0205 -1.0942 -0.2672
   26MPD2     C  397   3.371   2.029  11.024 -1.1399  0.5815  0.0923
   26MPD2    C1  398   3.309   2.149  11.037  0.6118  0.6358 -0.1587
   26MPD2    C2  399   3.364   2.254  11.106  0.2894  0.0707  0.1126
   26MPD2    C3  400   3.496   2.240  11.160 -0.3170  0.7382  0.0005
   26MPD2    C4  401   3.567   2.128  11.132  0.2819 -0.1181 -0.0647
   26MPD2    C5  402   3.497   2.019  11.072 -0.5470 -0.0175 -0.1089
   26MPD2     H  403   3.313   2.347  11.127  0.3648  0.2108 -0.3231
   26MPD2    H1  404   3.672   2.120  11.155  0.5846  1.5520 -0.9332
   26MPD2    H2  405   3.334   1.940  10.974  0.6603 -1.0991  1.7409
   26MPD2    H3  406   3.549   1.927  11.047  0.8615  0.9257 -0.6401
   26MPD2     N  407   3.545   2.345  11.230 -0.0680 -0.0236  0.0370
   26MPD2    H5  408   3.473   2.413  11.252 -2.7222 -2.8727  0.2438
   26MPD2    N1  409   3.178   2.148  10.977  0.0087 -0.1754 -0.3593
   26MPD2    H7  410   3.146   2.060  10.937 -1.5028 -0.6063  1.7715
   27TMC2    C1  411   2.144   4.509  11.901 -0.0253  0.4634 -0.1876
   27TMC2    C2  412   2.272   4.553  11.918  0.5426  0.3018  0.1227
   27TMC2    C3  413   2.299   4.691  11.909 -0.2835  0.5873  0.6618
   27TMC2    C4  414   2.044   4.591  11.866 -0.3885  0.3583 -0.1444
   27TMC2    C5  415   2.071   0.002  11.873  0.7607 -0.1248 -0.0361
   27TMC2    C6  416   2.200   0.058  11.878 -0.4489  0.7605  0.2850
   27TMC2     C  417   2.117   4.395  11.979 -0.3103 -0.7552  0.2993
   27TMC2     O  418   2.199   4.303  11.980 -0.3520  0.1600  0.3597
   27TMC2     H  419   2.358   4.496  11.952 -1.3903 -2.6912 -0.0449
   27TMC2    H1  420   1.945   4.547  11.869 -0.6910  1.0466 -0.0896
   27TMC2    H2  421   2.217   0.164  11.866 -1.0474  0.7621 -0.5753
   27TMC2    C7  422   1.998   0.056  11.981  0.0360 -0.2271  0.1637
   27TMC2    C8  423   2.422   0.011  11.965 -0.1337  0.6871  0.1523
   27TMC2    O1  424   1.945   4.695  12.059 -0.3106  0.1465 -0.2139
   27TMC2    O2  425   2.470   4.690  12.067  0.0525 -0.1866 -1.0587
   27TMC2    O5  426   2.457   0.130  11.902 -0.0414 -1.2038  0.0001
   27TMC2    H5  427   2.425   0.141  11.810  1.6120  0.2335 -0.3949
   28MPD2     C  428   1.869   4.201  12.384  0.0324 -0.3057 -0.5168
   28MPD2    C1  429   1.815   4.327  12.373 -0.3492  0.0170 -0.5936
   28MPD2    C2  430   1.859   4.395  12.256  0.2518 -0.3326  0.2224
   28MPD2    C3  431   1.967   4.343  12.175  0.1860 -0.1890  0.9792
   28MPD2    C4  432   2.025   4.222  12.204 -0.2962  0.3748 -0.6154
   28MPD2    C5  433   1.970   4.158  12.305  0.1765  0.9367  0.4793
   28MPD2     H  434   1.809   4.485  12.222  2.3090  0.8459  0.3197
   28MPD2    H1  435   2.093   4.174  12.134 -0.3700 -2.3654  1.1804
   28MPD2    H2  436   1.842   4.140  12.469  0.7147  0.5123  0.2802
   28MPD2    H3  437   2.017   4.064  12.334 -2.2861  0.0452  1.6222
   28MPD2     N  438   2.012   4.421  12.066  0.9904  0.1355 -0.2937
   28MPD2    H5  439   1.970   4.512  12.051  1.9023  0.8333  1.4221
   28MPD2    N1  440   1.715   4.372  12.455  0.1640  0.1267 -0.0388
   28MPD2    H7  441   1.685   4.315  12.533  0.5028 -1.2718 -0.9349
   29MPD2     C  442   1.396   2.539  14.175 -0.2952 -0.8731 -0.9672
   29MPD2    C1  443   1.528   2.531  14.188  0.1630 -0.7136 -0.2551
   29MPD2    C2  444   1.605   2.642  14.208 -0.6837 -0.2765 -1.1201
   29MPD2    C3  445   1.539   2.764  14.236 -0.4188  0.0761  0.0292
   29MPD2    C4  446   1.408   2.778  14.209  0.1729 -0.8325  0.3277
   29MPD2    C5  447   1.342   2.666  14.174  0.0142 -0.2735  1.3542
   29MPD2     H  448   1.713   2.631  14.216 -0.8465  1.4195  3.7382
   29MPD2    H1  449   1.354   2.868  14.237  0.0845 -0.9837  0.6519
   29MPD2    H2  450   1.330   2.458  14.146  1.0960 -1.4226 -2.5504
   29MPD2    H3  451   1.239   2.674  14.141  0.3213  0.1442  0.5023
   29MPD2     N  452   1.604   2.876  14.300 -0.5669 -0.9221  0.0253
   29MPD2    H5  453   1.544   2.958  14.312 -0.4855 -0.9910  0.8837
   29MPD2    N1  454   1.597   2.407  14.175  0.2844  0.6726  0.1473
   29MPD2    H7  455   1.698   2.403  14.163  0.3695 -0.4184  1.1566
   30TCq2    C1  456   1.725   2.865  14.367  0.0013 -0.2003  0.3428
   30TCq2    O2  457   1.794   2.768  14.385  0.0538  0.2518  0.4751
   30TCq2    C2  458   1.761   2.990  14.437 -0.8633  0.4646  0.9083
   30TCq2    C3  459   1.658   3.057  14.486 -0.5643  0.0022 -0.6422
   30TCq2    C4  460   1.689   3.182  14.534  0.7848  1.2056 -0.1666
   30TCq2    C5  461   1.819   3.237  14.528 -0.0412  0.2283  0.0454
   30TCq2    C6  462   1.916   3.163  14.470  0.0170 -0.2012 -0.1304
   30TCq2    C7  463   1.883   3.037  14.426  0.3635 -0.2864 -0.0514
   30TCq2    C8  464   2.037   3.216  14.419 -0.0762 -0.3737  0.4250
   30TCq2    O4  465   2.107   3.138  14.360  0.3520  0.3020 -0.5327
   30TCq2    C9  466   1.581   3.264  14.567 -0.8807 -0.5702 -0.1821
   30TCq2    O5  467   1.469   3.210  14.586  0.1566 -0.1635 -0.0903
   30TCq2    O6  468   1.609   3.383  14.602  0.4174 -0.1439  0.2271
   30TCq2    H2  469   1.557   3.024  14.505 -0.1315 -1.0243 -0.1601
   30TCq2    H3  470   1.830   3.344  14.543  0.8685  0.1385  0.0173
   30TCq2    H4  471   1.956   2.961  14.401  0.1714 -0.6582  0.5103
   31MPD2     C  472   4.587   1.324  14.799 -0.0472  0.5969  0.3944
   31MPD2    C1  473   4.461   1.314  14.747  0.2637  0.6303 -0.0448
   31MPD2    C2  474   4.358   1.260  14.819  1.4491  0.2612 -1.0529
   31MPD2    C3  475   4.379   1.220  14.951  0.2732  0.1281  0.0927
   31MPD2    C4  476   4.506   1.227  14.999  0.1651 -0.1124  0.0685
   31MPD2    C5  477   4.610   1.276  14.927  0.1896 -0.6333 -0.0187
   31MPD2     H  478   4.256   1.256  14.783 -0.0628  0.7241  3.1037
   31MPD2    H1  479   4.521   1.209  15.104  2.4244  0.0455 -0.2352
   31MPD2    H2  480   4.668   1.365  14.739  0.8650 -4.0579 -1.5841
   31MPD2    H3  481   4.704   1.290  14.978 -0.5461 -0.0417  1.1952
   31MPD2     N  482   4.273   1.166  15.032 -0.9161 -0.1178 -1.1074
   31MPD2    H5  483   4.305   1.141  15.125 -1.1706  2.0994 -0.4228
   31MPD2    N1  484   4.450   1.367  14.612 -0.6969  0.4476  0.1536
   31MPD2    H7  485   4.527   1.424  14.579  0.9580 -2.5940 -1.2836
   32TCq2    C1  486   4.134   1.151  15.009 -0.5382  0.3395 -0.1189
   32TCq2    O2  487   4.077   1.157  14.901 -0.4344  0.1807  0.1402
   32TCq2    C2  488   4.071   1.098  15.126 -0.3497  0.7887 -0.2846
   32TCq2    C3  489   3.980   1.000  15.108 -0.1904  0.9990 -0.0699
   32TCq2    C4  490   3.937   0.936  15.220 -0.1158  0.1760  0.3482
   32TCq2    C5  491   3.968   0.975  15.347  0.2503 -0.3684  0.2457
   32TCq2    C6  492   4.062   1.075  15.364 -0.4410  0.2023  0.2076
   32TCq2    C7  493   4.113   1.139  15.253 -0.1062  0.0161  0.0243
   32TCq2    C8  494   4.065   1.151  15.485  0.1358  0.2144  0.0673
   32TCq2    O4  495   4.128   1.254  15.480  0.0600  0.3087  0.2488
   32TCq2    C9  496   3.842   0.830  15.205 -0.3651 -0.5177 -0.4453
   32TCq2    O5  497   3.800   0.776  15.311 -0.5784  0.1469  0.6901
   32TCq2    O6  498   3.803   0.814  15.085  0.0396  0.5939  0.1742
   32TCq2    H2  499   3.949   0.977  15.007 -0.1279 -0.1168  0.1614
   32TCq2    H3  500   3.923   0.918  15.427  0.0330  1.5218  1.4558
   32TCq2    H4  501   4.195   1.209  15.253 -1.3016  1.3992  0.5275
   33MPD2     C  502   3.614   3.463   9.362  0.3109  0.7750  0.3872
   33MPD2    C1  503   3.730   3.429   9.425  0.0627 -0.8061  0.2826
   33MPD2    C2  504   3.838   3.512   9.412  0.4055  1.2109  0.3273
   33MPD2    C3  505   3.822   3.634   9.353 -0.5259 -0.0563  0.7771
   33MPD2    C4  506   3.702   3.666   9.287  0.0894  0.9529  0.4358
   33MPD2    C5  507   3.592   3.583   9.292  0.8217  0.3961 -0.1187
   33MPD2     H  508   3.935   3.480   9.449  0.1124 -0.0276  0.0039
   33MPD2    H1  509   3.696   3.759   9.232  0.1785  1.2153  0.8755
   33MPD2    H2  510   3.534   3.390   9.358  0.7455  0.3287 -0.2136
   33MPD2    H3  511   3.500   3.613   9.244  0.5387 -1.1495 -0.5111
   33MPD2     N  512   3.926   3.726   9.347 -0.2016  0.0893  0.5605
   33MPD2    H5  513   3.901   3.819   9.314  1.5236 -0.2694 -1.7226
   33MPD2    N1  514   3.720   3.304   9.499 -0.1556  0.6872 -0.1077
   33MPD2    H7  515   3.631   3.257   9.507  0.5474 -0.8847 -1.4397
   34TCq2    C1  516   4.057   3.719   9.398 -0.1373 -0.1636  0.7522
   34TCq2    O2  517   4.099   3.621   9.452 -0.0611 -0.0269  0.1129
   34TCq2    C2  518   4.130   3.841   9.396 -1.0382  0.0377  0.4401
   34TCq2    C3  519   4.062   3.957   9.356 -0.4461 -0.0650  0.1004
   34TCq2    C4  520   4.136   4.076   9.357  0.3205 -0.7942 -0.4550
   34TCq2    C5  521   4.251   4.082   9.427 -0.2778 -0.7396  0.1547
   34TCq2    C6  522   4.310   3.973   9.469  0.7748  0.3890 -0.3661
   34TCq2    C7  523   4.257   3.847   9.445 -1.1777  0.4555 -0.3835
   34TCq2    C8  524   4.440   3.981   9.536  0.4159  0.1366 -0.0961
   34TCq2    O4  525   4.513   3.885   9.545  0.2268  1.1740  0.0587
   34TCq2    C9  526   4.070   4.192   9.302  0.3981 -0.3735  0.5577
   34TCq2    O5  527   4.138   4.301   9.299  0.4798 -0.3676  0.6332
   34TCq2    O6  528   3.941   4.180   9.282 -0.8604  0.1915  0.5438
   34TCq2    H2  529   3.959   3.965   9.323 -0.7804 -0.4242  1.0673
   34TCq2    H3  530   4.297   4.179   9.440  2.0870 -2.0698  1.7600
   34TCq2    H4  531   4.312   3.758   9.474 -0.0630  0.6755 -1.7596
   35MPD2     C  532   1.401   0.368  12.286  0.5388  0.1669  0.2030
   35MPD2    C1  533   1.272   0.360  12.248 -0.6052 -0.5020  0.0499
   35MPD2    C2  534   1.240   0.411  12.121  0.5008 -0.1268 -0.1522
   35MPD2    C3  535   1.325   0.488  12.049  0.3234  0.7299  0.4306
   35MPD2    C4  536   1.454   0.517  12.101 -0.2194 -0.8301  0.6385
   35MPD2    C5  537   1.489   0.449  12.217 -0.6191  0.3131  0.1252
   35MPD2     H  538   1.142   0.394  12.078  0.6819 -1.5670  0.0110
   35MPD2    H1  539   1.521   0.581  12.045  2.9018 -2.9264  2.0259
   35MPD2    H2  540   1.430   0.332  12.384 -1.0078  0.2223  0.6806
   35MPD2    H3  541   1.582   0.479  12.265 -0.9786 -1.7425  2.0889
   35MPD2     N  542   1.278   0.535  11.926 -0.3589  0.3280  0.3709
   35MPD2    H5  543   1.181   0.510  11.907  0.5413 -1.7437 -1.5975
   35MPD2    N1  544   1.184   0.283  12.327 -0.8220 -0.5352 -0.2195
   35MPD2    H7  545   1.227   0.220  12.395  1.7281  2.5093  0.9695
   36TCq2    C1  546   1.339   0.616  11.834  0.0241  0.3365 -0.3517
   36TCq2    O2  547   1.448   0.670  11.843 -0.1843  0.4393  0.2561
   36TCq2    C2  548   1.258   0.630  11.717  0.3104  0.0903 -0.6788
   36TCq2    C3  549   1.279   0.729  11.624  0.4151 -0.4143  0.0582
   36TCq2    C4  550   1.196   0.735  11.515  0.5080  0.3389 -0.6404
   36TCq2    C5  551   1.089   0.652  11.504  0.4649  0.1247  0.7140
   36TCq2    C6  552   1.074   0.548  11.589 -0.2396  0.4954  0.0252
   36TCq2    C7  553   1.155   0.539  11.699 -0.2022 -0.3544  0.0791
   36TCq2    C8  554   0.950   0.477  11.597 -0.4676  0.2833 -0.0967
   36TCq2    O4  555   0.925   0.404  11.695 -0.6893  0.1691 -0.1142
   36TCq2    C9  556   1.218   0.838  11.415 -0.0605  0.1150  0.5567
   36TCq2    O5  557   1.324   0.899  11.432  0.1181 -0.8227 -0.5459
   36TCq2    O6  558   1.139   0.847  11.322 -0.2320 -0.4067  0.3175
   36TCq2    H2  559   1.366   0.791  11.639 -0.3756  0.4878  0.9278
   36TCq2    H3  560   1.026   0.666  11.418  2.4515  2.4282 -0.3792
   36TCq2    H4  561   1.136   0.450  11.758  1.2088 -0.2794  0.6427
   37TMC2    C1  562   3.245   0.152  11.381  0.3679 -1.0792  1.1949
   37TMC2    C2  563   3.277   0.223  11.269 -0.0541  0.0931 -0.3517
   37TMC2    C3  564   3.408   0.259  11.245 -0.0799  0.5051 -0.0324
   37TMC2    C4  565   3.341   0.131  11.471  0.1833  0.2482 -0.1697
   37TMC2    C5  566   3.466   0.187  11.455  0.0978  0.1053 -0.6368
   37TMC2    C6  567   3.508   0.240  11.336  0.2368 -0.0649  0.6102
   37TMC2     C  568   3.109   0.148  11.427 -0.8692 -0.3981 -0.3192
   37TMC2     O  569   3.017   0.201  11.366  0.2608 -0.3197 -0.0490
   37TMC2     H  570   3.194   0.246  11.203 -1.5556  0.8453  1.8292
   37TMC2    H1  571   3.327   0.079  11.565  3.3730 -1.2270 -0.4981
   37TMC2    H2  572   3.602   0.294  11.331  0.2306 -0.3839 -2.9964
   37TMC2    C7  573   3.550   0.187  11.567 -0.3984 -0.3044 -0.0855
   37TMC2    C8  574   3.448   0.328  11.122  0.3893  1.2034  0.7549
   37TMC2    O1  575   3.495   0.184  11.676  0.2389 -0.0429  0.1539
   37TMC2    O2  576   3.550   0.398  11.110  0.3516 -0.5509 -0.2574
   37TMC2    O5  577   3.356   0.309  11.034  0.1991 -0.4572  0.2348
   37TMC2    H5  578   3.311   0.224  11.053 -1.8329  0.4379 -0.5111
   38MPD2     C  579   2.801   0.137  11.847  0.4952 -0.6176  0.3313
   38MPD2    C1  580   2.930   0.091  11.871  0.3217  0.1652 -0.4322
   38MPD2    C2  581   3.019   0.069  11.773 -0.3915  0.2864 -0.0573
   38MPD2    C3  582   2.993   0.100  11.641  0.6166  0.5857 -0.2534
   38MPD2    C4  583   2.867   0.153  11.615 -0.4799  0.1684 -0.3551
   38MPD2    C5  584   2.768   0.158  11.715  0.1061  0.2739  0.3087
   38MPD2     H  585   3.117   0.027  11.794 -0.9900 -0.9657  0.1967
   38MPD2    H1  586   2.842   0.180  11.513  2.2817  0.5359 -0.9300
   38MPD2    H2  587   2.719   0.147  11.917 -0.9921 -1.2479 -1.3235
   38MPD2    H3  588   2.663   0.167  11.693  0.6119 -0.0187 -2.1835
   38MPD2     N  589   3.100   0.088  11.552 -0.1505  0.4149  0.1168
   38MPD2    H5  590   3.186   0.049  11.588  2.0942  4.5169 -0.7965
   38MPD2    N1  591   2.989   0.069  12.001  0.0839  0.1143  0.0985
   38MPD2    H7  592   3.084   0.033  11.996  0.5324  1.4942 -1.4914
   39MPD2     C  593   0.907   2.627   2.125 -0.8756 -0.7944 -0.4114
   39MPD2    C1  594   0.955   2.639   1.998 -0.0918  1.0082  0.4104
   39MPD2    C2  595   0.870   2.643   1.891 -0.3882  0.3779 -0.2451
   39MPD2    C3  596   0.733   2.626   1.909 -0.2390 -0.0109  0.2769
   39MPD2    C4  597   0.685   2.619   2.034  0.5773 -0.8167  0.5694
   39MPD2    C5  598   0.772   2.607   2.137  0.0972  1.0255  0.5610
   39MPD2     H  599   0.899   2.652   1.787  0.0930 -0.8542 -0.2239
   39MPD2    H1  600   0.586   2.577   2.049 -0.0859 -0.5875 -3.2571
   39MPD2    H2  601   0.967   2.618   2.215 -0.5260  1.2293 -0.4537
   39MPD2    H3  602   0.739   2.592   2.239  2.2960  0.9132  1.2386
   39MPD2     N  603   0.636   2.629   1.802  0.1746 -0.1857 -0.8575
   39MPD2    H5  604   0.540   2.637   1.834  1.2164  0.9336  2.0594
   39MPD2    N1  605   1.094   2.653   1.991  0.1093 -0.1579 -0.5064
   39MPD2    H7  606   1.143   2.644   2.080 -1.6610  0.1680  0.5048
   40TCq2    C1  607   1.165   2.650   1.876 -0.3016 -0.0976  0.0279
   40TCq2    O2  608   1.119   2.628   1.769  0.1385 -0.0358  0.3906
   40TCq2    C2  609   1.314   2.670   1.899  0.2597  0.0768 -0.6279
   40TCq2    C3  610   1.346   2.700   2.029  0.7444 -0.3276  0.5756
   40TCq2    C4  611   1.478   2.707   2.059 -0.9269  0.1139  0.2901
   40TCq2    C5  612   1.580   2.692   1.970 -0.1116  0.3830 -1.2235
   40TCq2    C6  613   1.549   2.676   1.839  0.1394  0.4416  0.1935
   40TCq2    C7  614   1.415   2.660   1.806 -0.1333  0.3432 -0.2973
   40TCq2    C8  615   1.660   2.643   1.748  0.4906 -0.0897  0.1615
   40TCq2    O4  616   1.637   2.566   1.660  0.2955 -0.6315 -0.3094
   40TCq2    C9  617   1.506   2.714   2.201 -0.1001  0.5705 -0.8816
   40TCq2    O5  618   1.413   2.735   2.284 -0.1260 -0.2305 -0.0637
   40TCq2    O6  619   1.630   2.742   2.237 -0.2740  0.0575 -0.1828
   40TCq2    H2  620   1.275   2.718   2.109  1.6828  2.3047  0.8139
   40TCq2    H3  621   1.680   2.691   2.011 -0.9546  0.3842  0.8298
   40TCq2    H4  622   1.398   2.647   1.700  0.5025 -2.3910 -0.0659
   41TMC2    C1  623   0.264   0.575  13.008 -0.0106 -0.0945 -1.0622
   41TMC2    C2  624   0.268   0.708  13.025 -0.2126  0.2723  0.0905
   41TMC2    C3  625   0.201   0.788  12.934  0.1571 -0.4464  0.3318
   41TMC2    C4  626   0.213   0.527  12.887  0.0711  0.0244  1.1860
   41TMC2    C5  627   0.151   0.612  12.799  0.3589 -1.2427  0.5368
   41TMC2    C6  628   0.133   0.745  12.820 -0.2810 -0.6794 -0.5242
   41TMC2     C  629   0.251   0.474  13.109 -0.0732 -0.9092 -0.2079
   41TMC2     O  630   0.212   0.361  13.089  0.6038  0.2001  0.0425
   41TMC2     H  631   0.307   0.760  13.112  0.6357  0.9596 -0.6960
   41TMC2    H1  632   0.227   0.422  12.868 -1.4167  0.0356  0.0696
   41TMC2    H2  633   0.110   0.820  12.745 -1.6286 -1.1917 -0.6194
   41TMC2    C7  634   0.085   0.563  12.675 -0.1076  0.1661  0.3608
   41TMC2    C8  635   0.198   0.930  12.965  0.3565 -0.1542  0.0809
   41TMC2    O1  636   4.714   0.630  12.631  0.1852  0.6791 -0.7499
   41TMC2    O2  637   0.297   0.985  12.998  0.2022  0.4658  0.0649
   41TMC2    O5  638   0.081   0.977  12.931 -0.2274  0.3664  0.2279
   41TMC2    H5  639   0.019   0.901  12.930  2.0148 -1.4652  0.2625
   42MPD2     C  640   0.265   0.335  13.379  0.0483  0.2696 -0.9596
   42MPD2    C1  641   0.284   0.474  13.363 -0.3918 -0.5324  0.2916
   42MPD2    C2  642   0.320   0.546  13.478  0.2067  0.5678  0.1792
   42MPD2    C3  643   0.329   0.483  13.602 -0.3118 -0.5770  0.6354
   42MPD2    C4  644   0.311   0.349  13.616  0.0696 -0.4162 -0.0457
   42MPD2    C5  645   0.277   0.272  13.503  0.2125 -0.0483 -0.5982
   42MPD2     H  646   0.332   0.653  13.467 -2.1753  0.6822 -1.3236
   42MPD2    H1  647   0.310   0.301  13.713  3.1884  2.6978  1.4999
   42MPD2    H2  648   0.244   0.268  13.297 -3.2394  0.6026 -0.3928
   42MPD2    H3  649   0.249   0.167  13.502 -0.2960  0.0827 -0.0768
   42MPD2     N  650   0.360   0.541  13.729 -0.0326  0.2271 -0.0354
   42MPD2    H5  651   0.351   0.484  13.812 -0.9396 -0.2077 -0.4302
   42MPD2    N1  652   0.287   0.534  13.232  0.0456  0.1904  0.0186
   42MPD2    H7  653   0.315   0.631  13.232  0.9759 -0.0610  1.8864
   43MPD2     C  654   1.409   4.209   1.071  0.4775  0.2271  0.2255
   43MPD2    C1  655   1.538   4.186   1.117  0.5303  0.8280  0.2085
   43MPD2    C2  656   1.592   4.248   1.224  0.5404 -0.1839 -0.9678
   43MPD2    C3  657   1.510   4.345   1.288  0.8648 -0.6448  0.0406
   43MPD2    C4  658   1.386   4.376   1.243 -0.5526 -0.4285  0.5041
   43MPD2    C5  659   1.338   4.313   1.130 -0.7253  0.2716  0.3118
   43MPD2     H  660   1.694   4.229   1.254  0.6956  1.6078 -0.3993
   43MPD2    H1  661   1.320   4.449   1.290 -0.5526  0.4089 -0.7990
   43MPD2    H2  662   1.373   4.159   0.982  1.1209  1.3003 -0.6298
   43MPD2    H3  663   1.240   4.339   1.091  0.0090 -1.3789 -2.6487
   43MPD2     N  664   1.558   4.433   1.386  0.2619  0.2372  0.2137
   43MPD2    H5  665   1.497   4.507   1.420 -0.7832  0.0685 -1.3129
   43MPD2    N1  666   1.627   4.096   1.054  0.9532  0.1011  0.2936
   43MPD2    H7  667   1.714   4.083   1.105  1.4992  1.2603 -0.3349
   44TCq2    C1  668   1.584   0.087   1.727  0.5833  0.2572  0.0307
   44TCq2    O2  669   1.616   0.173   1.810 -0.4007  0.5095 -0.1605
   44TCq2    C2  670   1.683   0.009   1.651  0.3971 -0.1498 -0.1211
   44TCq2    C3  671   1.811   0.042   1.664  0.4009  0.0934 -0.1779
   44TCq2    C4  672   1.899   4.679   1.606 -0.4231  0.1518 -0.3661
   44TCq2    C5  673   1.862   4.573   1.530 -0.0935  0.4528  0.1542
   44TCq2    C6  674   1.731   4.546   1.515  0.5885 -0.5973 -0.2298
   44TCq2    C7  675   1.636   4.622   1.579 -0.1581  0.2641  1.0052
   44TCq2    C8  676   1.690   4.441   1.428 -0.0304  0.0543  1.0393
   44TCq2    O4  677   1.783   4.370   1.398 -0.1256 -0.3410 -0.2471
   44TCq2    C9  678   2.043   4.707   1.589  0.3424  0.4867  0.1929
   44TCq2    O5  679   2.118   4.630   1.524  0.5928  0.2696  0.6404
   44TCq2    O6  680   2.085   0.092   1.638  0.0867  0.1803  0.2734
   44TCq2    H2  681   1.850   0.127   1.719 -1.4856 -0.7354  2.4000
   44TCq2    H3  682   1.934   4.518   1.471  0.5135  1.7885 -0.3636
   44TCq2    H4  683   1.533   4.589   1.583 -0.0430 -0.6638 -3.9082
   45TMC2    C1  684   2.695   0.781   9.608  0.1175  0.3816 -0.1694
   45TMC2    C2  685   2.797   0.815   9.697 -0.6885 -0.6590 -0.2354
   45TMC2    C3  686   2.799   0.950   9.745 -0.8103  0.0330 -0.0324
   45TMC2    C4  687   2.603   0.871   9.568  2.1008 -1.1238  0.5547
   45TMC2    C5  688   2.602   0.996   9.623 -0.4737 -0.0081 -0.1891
   45TMC2    C6  689   2.708   1.039   9.710 -0.0472 -0.5815 -0.0473
   45TMC2     C  690   2.667   0.640   9.579 -0.0870  0.4408 -0.1147
   45TMC2     O  691   2.692   0.553   9.668 -0.6022 -0.0790  0.3796
   45TMC2     H  692   2.861   0.735   9.731 -2.0290 -1.2629  0.8766
   45TMC2    H1  693   2.507   0.833   9.536  1.2411  0.1384  1.6196
   45TMC2    H2  694   2.712   1.140   9.748  0.1293  0.0528 -1.7674
   45TMC2    C7  695   2.487   1.075   9.591 -0.5328  0.6666  0.7044
   45TMC2    C8  696   2.919   0.994   9.810 -0.0850 -0.2287  1.0692
   45TMC2    O1  697   2.421   1.048   9.491 -0.1426 -0.0666  0.1577
   45TMC2    O2  698   2.926   1.070   9.906  0.1228 -0.3667  0.0710
   45TMC2    O5  699   3.027   0.935   9.740 -0.0620 -0.5318  0.0173
   45TMC2    H5  700   3.000   0.876   9.667 -1.5153  0.6377 -0.3929
   46MPD2     C  701   2.543   0.382   9.482  1.1372  0.1091  0.3104
   46MPD2    C1  702   2.548   0.505   9.407 -0.1701 -0.7764  0.0305
   46MPD2    C2  703   2.483   0.506   9.279 -0.2799  0.0248  0.2618
   46MPD2    C3  704   2.411   0.397   9.233 -0.3533  0.5286  0.0701
   46MPD2    C4  705   2.395   0.282   9.310  0.4208 -0.2182 -0.0163
   46MPD2    C5  706   2.462   0.276   9.432  0.4427  0.4645  1.0901
   46MPD2     H  707   2.492   0.595   9.218 -2.2955 -0.6207 -0.9738
   46MPD2    H1  708   2.347   0.186   9.294  2.3640 -0.7467 -2.6917
   46MPD2    H2  709   2.609   0.371   9.568 -0.3625  1.2390  1.6028
   46MPD2    H3  710   2.474   0.183   9.485  0.3513 -0.5888 -0.7277
   46MPD2     N  711   2.319   0.417   9.129  0.3091 -0.4218  0.0428
   46MPD2    H5  712   2.337   0.498   9.071  0.9728 -2.4090 -2.5697
   46MPD2    N1  713   2.610   0.625   9.455  0.5547  0.0445 -0.1690
   46MPD2    H7  714   2.585   0.710   9.406  0.5650  0.9453  1.3836
   47TMC2    C1  715   4.721   1.641   9.123 -0.3215 -0.3039  0.7011
   47TMC2    C2  716   4.699   1.520   9.066 -0.6550  0.1742 -0.0955
   47TMC2    C3  717   4.576   1.497   9.005 -0.2202 -0.2959 -0.1722
   47TMC2    C4  718   4.632   1.748   9.105  0.0033 -0.7736  0.3233
   47TMC2    C5  719   4.515   1.720   9.041  0.1382  0.2048 -0.0804
   47TMC2    C6  720   4.485   1.595   8.995 -0.1018  0.6953  0.2573
   47TMC2     C  721   0.110   1.671   9.212 -0.3007  0.7030  0.0571
   47TMC2     O  722   0.140   1.785   9.251 -0.5882  0.3829 -0.0723
   47TMC2     H  723   0.049   1.441   9.079 -1.1466 -0.1604  0.6353
   47TMC2    H1  724   4.639   1.844   9.156 -1.4255 -0.2352 -0.4977
   47TMC2    H2  725   4.402   1.580   8.926 -1.4538  0.6199  1.8879
   47TMC2    C7  726   4.422   1.830   9.055 -0.2360  0.3949 -0.1552
   47TMC2    C8  727   4.544   1.361   8.965 -0.9563 -0.5752  0.6263
   47TMC2    O1  728   4.461   1.936   9.100  0.5861  0.9397 -0.1861
   47TMC2    O2  729   4.627   1.274   8.934 -0.0884  0.1427  0.8346
   47TMC2    O5  730   4.414   1.330   8.994 -0.6161 -0.2916 -0.6432
   47TMC2    H5  731   4.355   1.407   9.007  1.9585  1.4675  0.5173
   48MPD2     C  732   0.339   1.631   9.405  0.2411 -1.4870 -0.1142
   48MPD2    C1  733   0.247   1.531   9.372 -0.0907  0.2655 -0.4923
   48MPD2    C2  734   0.274   1.405   9.426  0.0743  0.3065 -0.0445
   48MPD2    C3  735   0.376   1.382   9.521 -0.3846 -0.9450 -0.3229
   48MPD2    C4  736   0.452   1.491   9.557  0.2275  0.0101  0.2756
   48MPD2    C5  737   0.433   1.611   9.504 -0.4610 -0.3437 -0.1850
   48MPD2     H  738   0.214   1.323   9.389 -1.4399  1.6806 -0.6436
   48MPD2    H1  739   0.533   1.479   9.628 -0.4487 -0.4963  0.9656
   48MPD2    H2  740   0.345   1.734   9.373 -0.3142 -1.9789 -1.8318
   48MPD2    H3  741   0.500   1.695   9.514 -0.0449 -0.6916 -0.0356
   48MPD2     N  742   0.394   1.247   9.562  0.4446 -0.2877 -0.3741
   48MPD2    H5  743   0.322   1.180   9.539  0.3057 -0.3226  0.1611
   48MPD2    N1  744   0.140   1.551   9.278  0.3710  0.0794  0.4884
   48MPD2    H7  745   0.089   1.468   9.251  0.0906  0.8455 -1.3125
   49MPD2     C  746   3.560   3.361   9.869  0.1262  0.2978 -0.1281
   49MPD2    C1  747   3.458   3.294   9.935  0.5011  0.1212  0.5736
   49MPD2    C2  748   3.480   3.274  10.068 -0.4811 -0.0766  0.0852
   49MPD2    C3  749   3.590   3.316  10.140 -0.4269 -0.6099  0.3337
   49MPD2    C4  750   3.696   3.368  10.071 -0.1653 -0.0425  0.6854
   49MPD2    C5  751   3.671   3.391   9.942 -0.5837  0.0912 -0.2356
   49MPD2     H  752   3.403   3.223  10.126 -0.2141 -0.7342 -0.1462
   49MPD2    H1  753   3.785   3.399  10.124  1.5825 -1.4271 -1.3938
   49MPD2    H2  754   3.551   3.395   9.767  2.3928 -1.2156 -0.8368
   49MPD2    H3  755   3.763   3.424   9.895 -0.4755 -0.7746 -0.6155
   49MPD2     N  756   3.605   3.305  10.279  0.0496  0.4378 -0.3565
   49MPD2    H5  757   3.703   3.303  10.307 -0.2097 -1.7207  0.4075
   49MPD2    N1  758   3.340   3.247   9.864 -0.3638  0.5239 -0.5310
   49MPD2    H7  759   3.284   3.179   9.915  0.6203 -0.8157 -1.2646
   50TCq2    C1  760   3.324   3.250   9.722  0.3129  1.2214 -0.3327
   50TCq2    O2  761   3.378   3.315   9.632 -0.5525 -0.3598 -0.3486
   50TCq2    C2  762   3.216   3.160   9.678  0.2895 -0.0990  0.1487
   50TCq2    C3  763   3.196   3.159   9.541 -0.7495  0.7792  0.2983
   50TCq2    C4  764   3.102   3.071   9.493  0.3910  0.0491 -0.2712
   50TCq2    C5  765   3.028   2.994   9.572  0.0418 -0.0551 -0.3856
   50TCq2    C6  766   3.046   3.003   9.708  0.3079  0.1119 -0.4572
   50TCq2    C7  767   3.138   3.086   9.766 -1.0571 -0.4306 -0.5877
   50TCq2    C8  768   2.995   2.894   9.796  0.3265  0.0362  0.0541
   50TCq2    O4  769   3.032   2.893   9.912  0.4606 -0.1616  0.3187
   50TCq2    C9  770   3.087   3.059   9.351  0.3005  0.7436 -0.8845
   50TCq2    O5  771   3.134   3.153   9.284  0.9898  0.0928 -0.2827
   50TCq2    O6  772   3.018   2.961   9.311  0.1941  0.4737 -0.0398
   50TCq2    H2  773   3.253   3.219   9.471  1.5619 -0.0802  1.4519
   50TCq2    H3  774   2.942   2.944   9.527 -0.3152 -0.2696  0.5267
   50TCq2    H4  775   3.139   3.100   9.874 -0.7778 -0.5729 -0.5737
   51MPD2     C  776   3.243   2.371   0.336  0.4458  0.7375  0.0166
   51MPD2    C1  777   3.111   2.332   0.333 -0.0883 -0.2082 -0.3690
   51MPD2    C2  778   3.018   2.436   0.355 -0.1145  0.6646  0.3228
   51MPD2    C3  779   3.057   2.567   0.391 -0.3954  0.0494  0.3712
   51MPD2    C4  780   3.187   2.583   0.431  0.2987  1.1270  0.4138
   51MPD2    C5  781   3.279   2.488   0.402 -0.3055 -0.2085 -0.0646
   51MPD2     H  782   2.912   2.412   0.355 -0.0504  0.3480  2.4663
   51MPD2    H1  783   3.224   2.671   0.483  0.4117  1.3239  0.0011
   51MPD2    H2  784   3.326   2.305   0.317  1.2974  1.2863  1.8542
   51MPD2    H3  785   3.382   2.512   0.427 -0.5800  1.1477 -0.2397
   51MPD2     N  786   2.960   2.669   0.415 -0.2089 -0.1204 -0.0907
   51MPD2    H5  787   2.987   2.756   0.461  0.1682 -0.7151  0.8064
   51MPD2    N1  788   3.058   2.207   0.301  0.2862  0.1359 -0.1399
   51MPD2    H7  789   2.957   2.198   0.299  0.2279  0.8218 -0.3170
   52TCq2    C1  790   2.827   2.666   0.382 -1.3300  0.7512  0.4714
   52TCq2    O2  791   2.765   2.579   0.323  0.2655  0.4536  0.2358
   52TCq2    C2  792   2.751   2.790   0.429 -0.5442  0.5131 -0.6581
   52TCq2    C3  793   2.620   2.793   0.385 -0.4847 -0.1784  0.1833
   52TCq2    C4  794   2.525   2.869   0.459 -0.1967 -0.9635  0.0478
   52TCq2    C5  795   2.564   2.943   0.564 -0.0506  0.3189 -0.1824
   52TCq2    C6  796   2.692   2.928   0.611  0.0782 -0.2813 -0.2327
   52TCq2    C7  797   2.786   2.853   0.543  0.5874  0.0127  0.8198
   52TCq2    C8  798   2.753   3.026   0.702  0.1817 -0.2302 -0.5172
   52TCq2    O4  799   2.868   3.010   0.749  0.3942 -0.7130  0.0549
   52TCq2    C9  800   2.383   2.847   0.424  0.1579 -0.1038 -0.0479
   52TCq2    O5  801   2.293   2.919   0.475 -0.7152  0.1502 -0.5347
   52TCq2    O6  802   2.359   2.779   0.318 -0.3132  0.5303 -0.1763
   52TCq2    H2  803   2.591   2.740   0.295 -0.0865 -0.1089  0.0119
   52TCq2    H3  804   2.481   2.987   0.619  0.2581 -1.6378  1.8231
   52TCq2    H4  805   2.889   2.855   0.577  0.4366 -1.4023  1.3314
   53TMC2    C1  806   3.870   0.429  12.183 -0.4317 -0.6978  0.1172
   53TMC2    C2  807   3.937   0.522  12.255  0.2467 -0.2027  0.9564
   53TMC2    C3  808   3.897   0.528  12.390 -0.1864  0.6338 -0.1616
   53TMC2    C4  809   3.775   0.349  12.238 -0.4501  1.5953  0.0203
   53TMC2    C5  810   3.737   0.356  12.369  0.6886 -0.4709 -0.4414
   53TMC2    C6  811   3.797   0.451  12.450  0.5503 -0.4566 -0.1512
   53TMC2     C  812   3.913   0.402  12.053  0.3040 -0.1330  0.3499
   53TMC2     O  813   4.020   0.455  12.023  0.7828  0.0900  0.4714
   53TMC2     H  814   4.027   0.566  12.216 -0.0328 -0.6070 -0.1425
   53TMC2    H1  815   3.734   0.265  12.183  2.1165 -1.1471  2.3161
   53TMC2    H2  816   3.760   0.472  12.549 -0.0112  1.2919 -0.7261
   53TMC2    C7  817   3.604   0.324  12.396  0.2916  0.1383 -0.7682
   53TMC2    C8  818   3.943   0.638  12.480  0.2776 -0.5089  0.3951
   53TMC2    O1  819   3.527   0.349  12.306  0.3642  0.1518 -0.1783
   53TMC2    O2  820   3.952   0.615  12.599  0.4379 -0.1789  0.1253
   53TMC2    O5  821   3.876   0.738  12.421  0.0261  0.0249 -0.1395
   53TMC2    H5  822   3.893   0.730  12.325  0.2068 -1.0768 -0.0115
   54MPD2     C  823   3.997   0.256  11.805 -0.5268  0.1616 -0.9170
   54MPD2    C1  824   3.865   0.267  11.849 -0.1590 -0.1502 -0.5210
   54MPD2    C2  825   3.759   0.238  11.769  0.2449 -0.2081  0.0996
   54MPD2    C3  826   3.782   0.187  11.645  0.5351  0.3826  0.1410
   54MPD2    C4  827   3.916   0.176  11.602 -0.3699  0.8832 -0.2733
   54MPD2    C5  828   4.019   0.202  11.684  0.2485  0.4834  0.1464
   54MPD2     H  829   3.665   0.248  11.821 -0.3301  0.8096 -1.1292
   54MPD2    H1  830   3.931   0.148  11.499 -0.3368 -1.7894  0.4682
   54MPD2    H2  831   4.082   0.280  11.867 -1.1433  0.5944 -0.2433
   54MPD2    H3  832   4.118   0.190  11.641 -0.7384 -2.0208 -1.4500
   54MPD2     N  833   3.682   0.168  11.542 -0.6893 -0.0398 -0.1739
   54MPD2    H5  834   3.719   0.152  11.449  0.0781  0.2257  0.0821
   54MPD2    N1  835   3.828   0.334  11.974  0.1891  0.6996  0.2055
   54MPD2    H7  836   3.730   0.340  11.998  0.1031 -1.2485  0.3017
   55MPD2     C  837   3.985   4.133   0.612  0.4422 -0.0375  0.1302
   55MPD2    C1  838   3.913   4.043   0.536  0.6800 -0.4809  0.5343
   55MPD2    C2  839   3.793   3.991   0.590 -0.6549 -0.3031  0.1334
   55MPD2    C3  840   3.748   4.020   0.718 -0.2590 -0.2497  0.1008
   55MPD2    C4  841   3.819   4.115   0.791  0.4432  0.9014  0.0616
   55MPD2    C5  842   3.938   4.166   0.734  0.2418 -0.0283  0.3141
   55MPD2     H  843   3.742   3.917   0.530 -2.5620 -0.0514  1.4406
   55MPD2    H1  844   3.794   4.138   0.893 -1.2633 -1.0793  0.0892
   55MPD2    H2  845   4.083   4.176   0.591  0.5712  0.1244  1.0860
   55MPD2    H3  846   3.995   4.234   0.797  0.4203 -1.9388  2.2478
   55MPD2     N  847   3.631   3.958   0.766 -0.1739  0.0284  0.3368
   55MPD2    H5  848   3.587   3.913   0.686  1.5531  0.9943 -1.1776
   55MPD2    N1  849   3.972   3.998   0.417  0.4987  0.6778  0.6126
   55MPD2    H7  850   4.035   4.052   0.358  0.6455  0.8607  0.9391
   56TCq2    C1  851   3.942   3.879   0.358  0.0716  0.1306  0.4520
   56TCq2    O2  852   3.873   3.789   0.400  0.0298 -0.4729 -0.1387
   56TCq2    C2  853   4.005   3.847   0.227  0.1297 -0.3304  0.5412
   56TCq2    C3  854   4.097   3.933   0.167  0.4895  0.1300  0.4802
   56TCq2    C4  855   4.198   3.884   0.083 -1.5779  0.3181 -0.2512
   56TCq2    C5  856   4.209   3.751   0.055 -0.6709  0.0467 -0.5755
   56TCq2    C6  857   4.112   3.673   0.112 -0.0634  0.0288 -1.0586
   56TCq2    C7  858   4.012   3.717   0.196  0.3137 -0.6202  0.0077
   56TCq2    C8  859   4.132   3.531   0.093 -0.1021  0.0582 -0.1704
   56TCq2    O4  860   4.202   3.489   0.004  0.9353 -0.0501  0.1023
   56TCq2    C9  861   4.293   3.968   0.023  0.0828 -0.0380 -0.1743
   56TCq2    O5  862   4.364   3.919  17.624  0.1384  0.5806  0.1450
   56TCq2    O6  863   4.290   4.089   0.057 -0.8014 -0.2230  0.3774
   56TCq2    H2  864   4.092   4.041   0.180  2.2735  0.1541  0.8947
   56TCq2    H3  865   4.282   3.708  17.680  1.3506  1.7811  0.5118
   56TCq2    H4  866   3.933   3.650   0.226 -1.1572  1.3692  0.6118
   57TMC2    C1  867   3.456   3.862  13.064 -0.3145 -0.0711  0.3802
   57TMC2    C2  868   3.452   3.733  13.019 -0.6954 -0.0925 -0.7333
   57TMC2    C3  869   3.544   3.700  12.927  0.0084 -0.5594  0.7087
   57TMC2    C4  870   3.544   3.954  13.010 -0.1012 -0.3193  0.3263
   57TMC2    C5  871   3.638   3.914  12.912  0.4630 -0.7001  0.1200
   57TMC2    C6  872   3.627   3.783  12.864 -0.1178 -0.5953  0.7060
   57TMC2     C  873   3.384   3.908  13.175 -0.6036 -0.3224 -0.0087
   57TMC2     O  874   3.383   4.030  13.191  0.8939  0.2536 -0.2221
   57TMC2     H  875   3.381   3.657  13.051 -0.9917  0.4646 -0.0741
   57TMC2    H1  876   3.556   4.049  13.060  1.7093 -0.3042 -0.1689
   57TMC2    H2  877   3.703   3.732  12.806 -0.4707 -2.6101  2.0131
   57TMC2    C7  878   3.762   3.993  12.893  0.7096  0.0600 -0.4259
   57TMC2    C8  879   3.547   3.561  12.894 -0.5376  0.2132  0.1129
   57TMC2    O1  880   3.755   4.113  12.911 -0.3905  0.1479 -0.0801
   57TMC2    O2  881   3.623   3.487  12.958  0.3450  0.1736 -0.1514
   57TMC2    O5  882   3.426   3.537  12.848 -0.7060  0.2198  0.4173
   57TMC2    H5  883   3.372   3.611  12.813  1.3051  1.7736  0.5685
   58MPD2     C  884   3.190   3.871  13.635 -0.8872  0.2335  0.0646
   58MPD2    C1  885   3.176   3.968  13.542  0.0376  0.0760  0.2014
   58MPD2    C2  886   3.234   3.949  13.423  0.1398  0.0116  0.6527
   58MPD2    C3  887   3.286   3.828  13.381 -0.6388  0.2946 -0.3342
   58MPD2    C4  888   3.290   3.727  13.472 -0.4798  0.2800 -0.2173
   58MPD2    C5  889   3.242   3.749  13.601 -0.0411  0.1528  0.8353
   58MPD2     H  890   3.234   4.035  13.357 -1.0863  0.3422  1.0899
   58MPD2    H1  891   3.320   3.628  13.438  1.0814 -0.1282  2.3541
   58MPD2    H2  892   3.161   3.883  13.739  0.0880 -0.9831  0.4849
   58MPD2    H3  893   3.252   3.668  13.673 -2.1442 -0.7797  0.0838
   58MPD2     N  894   3.347   3.808  13.258  0.1756 -0.3240  0.4862
   58MPD2    H5  895   3.406   3.726  13.248 -0.5416 -0.5631 -1.8417
   58MPD2    N1  896   3.124   4.098  13.566  0.7490  0.6893 -0.2190
   58MPD2    H7  897   3.119   4.162  13.488  0.6049  0.6687 -0.2285
   59MPD2     C  898   1.278   3.954  13.275  0.3187  0.5075 -0.0652
   59MPD2    C1  899   1.389   3.951  13.195  0.1915 -0.4570  0.6866
   59MPD2    C2  900   1.497   4.014  13.256 -0.3123  0.2400 -0.2519
   59MPD2    C3  901   1.498   4.063  13.387  0.3509 -0.4542 -0.5747
   59MPD2    C4  902   1.383   4.060  13.463  0.3482 -0.1345 -0.4107
   59MPD2    C5  903   1.269   4.004  13.401  0.5312 -0.8961  0.1678
   59MPD2     H  904   1.593   4.018  13.206 -0.4645 -2.9754 -0.7823
   59MPD2    H1  905   1.385   4.087  13.568 -2.1289  0.9761 -0.6600
   59MPD2    H2  906   1.179   3.919  13.247  1.1547  0.0608 -2.3999
   59MPD2    H3  907   1.176   4.011  13.455  0.9225  2.0607  0.4579
   59MPD2     N  908   1.617   4.109  13.457  0.2696  0.3379  0.0114
   59MPD2    H5  909   1.591   4.133  13.552  0.4737 -0.1315  0.1899
   59MPD2    N1  910   1.378   3.885  13.067  0.2936 -0.0726  0.0531
   59MPD2    H7  911   1.287   3.860  13.030 -0.3350  2.9771 -0.4940
   60TCq2    C1  912   1.482   3.868  12.986 -0.8330  0.1882  0.0777
   60TCq2    O2  913   1.593   3.922  12.997 -0.1396 -0.1935 -0.1158
   60TCq2    C2  914   1.431   3.836  12.856 -0.8822 -0.1449  0.1421
   60TCq2    C3  915   1.305   3.782  12.848 -0.1376  0.0595 -0.4971
   60TCq2    C4  916   1.239   3.782  12.729  0.3551 -0.3506 -0.3261
   60TCq2    C5  917   1.292   3.841  12.621  0.4197  0.3545  0.4444
   60TCq2    C6  918   1.412   3.905  12.631 -0.1908 -0.5922 -0.8161
   60TCq2    C7  919   1.485   3.905  12.746  0.2350 -0.4375 -0.1671
   60TCq2    C8  920   1.460   3.997  12.530 -0.3028  0.3288 -0.0949
   60TCq2    O4  921   1.583   4.011  12.519 -0.4690 -0.0836 -0.6372
   60TCq2    C9  922   1.127   3.696  12.715 -0.0589 -0.3623 -0.0093
   60TCq2    O5  923   1.080   3.644  12.819  0.3519  0.0230  0.1392
   60TCq2    O6  924   1.115   3.659  12.598 -0.6783 -0.3281 -0.4710
   60TCq2    H2  925   1.263   3.722  12.928  0.6864  1.3450  0.8954
   60TCq2    H3  926   1.236   3.846  12.528 -1.5288 -1.3232  1.5246
   60TCq2    H4  927   1.575   3.963  12.761 -0.3534  0.3730  0.2336
   61MPD2     C  928   0.402   1.070  14.998  0.1237 -0.1543 -0.0492
   61MPD2    C1  929   0.485   1.168  15.055 -0.2330  0.3246 -0.0069
   61MPD2    C2  930   0.563   1.250  14.982  0.2162  0.9490 -0.1271
   61MPD2    C3  931   0.584   1.224  14.845  0.1745  0.6316  0.4040
   61MPD2    C4  932   0.513   1.117  14.788 -0.6750 -0.4927  0.7510
   61MPD2    C5  933   0.420   1.044  14.870 -0.0302 -0.0794  0.7800
   61MPD2     H  934   0.610   1.341  15.020  0.2564  0.7712  0.2439
   61MPD2    H1  935   0.524   1.102  14.681 -3.1620 -1.6542  0.6458
   61MPD2    H2  936   0.333   1.008  15.056  2.6070 -3.3586 -0.5004
   61MPD2    H3  937   0.349   0.977  14.822 -0.2686  1.2656 -0.7151
   61MPD2     N  938   0.679   1.294  14.762  0.4600  0.2298  0.1218
   61MPD2    H5  939   0.702   1.254  14.671  0.2272 -0.4168  0.3513
   61MPD2    N1  940   0.480   1.188  15.196  0.0455  0.4929 -0.2719
   61MPD2    H7  941   0.546   1.259  15.226 -0.1397  0.8089 -0.6252
   62TCq2    C1  942   0.410   1.118  15.290 -0.5070 -0.0808  0.0527
   62TCq2    O2  943   0.336   1.023  15.285 -0.2026  0.2103  0.7478
   62TCq2    C2  944   0.442   1.189  15.415  0.8701  0.6242 -0.3395
   62TCq2    C3  945   0.432   1.099  15.520 -0.1882  0.2599  0.5759
   62TCq2    C4  946   0.459   1.151  15.644  0.2365  0.0591 -0.2856
   62TCq2    C5  947   0.480   1.284  15.665  0.5458 -0.5130 -0.1441
   62TCq2    C6  948   0.484   1.366  15.556  0.3478 -0.4873  0.6958
   62TCq2    C7  949   0.472   1.321  15.428  0.3232 -0.4991 -1.4634
   62TCq2    C8  950   0.507   1.506  15.566 -0.7199 -0.4982  0.2717
   62TCq2    O4  951   0.477   1.569  15.466  0.2116 -0.8042  0.1368
   62TCq2    C9  952   0.453   1.062  15.761 -0.1551  0.2576 -0.2048
   62TCq2    O5  953   0.404   0.943  15.756  0.1637 -0.2014 -0.2364
   62TCq2    O6  954   0.473   1.116  15.875 -0.2643 -0.1582  0.7819
   62TCq2    H2  955   0.408   0.995  15.500  0.7402  0.1730 -0.1023
   62TCq2    H3  956   0.510   1.318  15.763  1.6480 -0.2147 -0.5860
   62TCq2    H4  957   0.476   1.388  15.343  2.7182  0.8016 -0.3484
   63TMC2    C1  958   0.096   1.194  10.504  0.2050 -0.0996 -0.8989
   63TMC2    C2  959   0.127   1.232  10.635 -0.1075 -0.5933  0.0635
   63TMC2    C3  960   0.204   1.347  10.645  0.3712  0.1868 -0.0661
   63TMC2    C4  961   0.154   1.248  10.391  0.0035 -0.4829  0.0866
   63TMC2    C5  962   0.227   1.364  10.416  0.3689 -0.0855  0.5309
   63TMC2    C6  963   0.245   1.419  10.539  0.0447 -0.6804  0.4984
   63TMC2     C  964   0.044   1.063  10.493  0.1025 -0.3820 -0.5512
   63TMC2     O  965   0.051   0.979  10.581 -0.0943  0.3125 -0.1233
   63TMC2     H  966   0.073   1.194  10.721 -0.3989 -0.1034  0.0969
   63TMC2    H1  967   0.148   1.206  10.291  1.5589 -1.9433  0.6159
   63TMC2    H2  968   0.284   1.519  10.549 -0.0963 -0.5312 -0.4030
   63TMC2    C7  969   0.215   1.464  10.311  0.8543  0.5475 -0.0261
   63TMC2    C8  970   0.185   1.428  10.761  0.8271  0.6627 -0.2757
   63TMC2    O1  971   0.132   1.439  10.226  0.1051  0.7190  0.4360
   63TMC2    O2  972   0.128   1.535  10.757 -0.4329  0.5492 -0.0316
   63TMC2    O5  973   0.168   1.350  10.871 -0.8219 -0.1091  0.1535
   63TMC2    H5  974   0.230   1.275  10.868 -1.1839 -0.3678 -0.8574
   64MPD2     C  975   4.596   0.688  10.195  0.1049  0.6973  0.4611
   64MPD2    C1  976   4.677   0.686  10.307  0.3462  0.0319 -0.5176
   64MPD2    C2  977   4.714   0.802  10.366 -0.5546  0.3155  0.1774
   64MPD2    C3  978   4.667   0.929  10.311  0.4763 -0.0115 -0.5454
   64MPD2    C4  979   4.598   0.930  10.195 -0.2796  0.1105  0.8698
   64MPD2    C5  980   4.555   0.814  10.148 -0.1481 -0.1027  0.2343
   64MPD2     H  981   0.053   0.796  10.455 -2.0796  2.4743  1.3676
   64MPD2    H1  982   4.561   1.025  10.158 -0.5632  0.0472  0.9970
   64MPD2    H2  983   4.570   0.604  10.132  0.9280  1.5786 -1.0538
   64MPD2    H3  984   4.493   0.826  10.059  1.0029 -1.8764 -0.8163
   64MPD2     N  985   4.707   1.049  10.371 -0.0115 -0.0736 -0.9977
   64MPD2    H5  986   4.680   1.137  10.329 -1.5860 -1.6313 -3.2937
   64MPD2    N1  987   0.004   0.562  10.356  0.0656 -0.6461  0.0463
   64MPD2    H7  988   0.080   0.574  10.421 -0.2284 -1.1689  0.4830
   65MPD2     C  989   0.800   0.613  16.024  0.2054 -0.6591 -0.0482
   65MPD2    C1  990   0.827   0.587  15.891  0.0401  0.3530 -0.0843
   65MPD2    C2  991   0.838   0.457  15.850  0.2302 -0.8883 -0.0368
   65MPD2    C3  992   0.841   0.348  15.939  0.3617  0.0978  0.5190
   65MPD2    C4  993   0.810   0.373  16.072 -0.4131  0.3277 -0.4064
   65MPD2    C5  994   0.793   0.504  16.109  0.0572 -0.6604 -0.5879
   65MPD2     H  995   0.849   0.433  15.745  1.6784 -1.4493  0.2439
   65MPD2    H1  996   0.798   0.288  16.137  2.6503 -1.8913 -2.7478
   65MPD2    H2  997   0.791   0.714  16.064 -0.5961  0.1071 -2.1290
   65MPD2    H3  998   0.776   0.505  16.216  2.1467 -1.7982 -0.2382
   65MPD2     N  999   0.849   0.208  15.887  0.3823 -0.8476 -0.7262
   65MPD2    H5 1000   0.835   0.136  15.958 -1.7213 -0.0886 -0.3788
   65MPD2    N1 1001   0.831   0.694  15.789  0.4925 -0.0045  0.0498
   65MPD2    H7 1002   0.842   0.671  15.690  0.9873 -1.9120  0.5479
   66TCq2    C1 1003   0.824   0.828  15.815 -0.3229  0.3043  0.3362
   66TCq2    O2 1004   0.822   0.894  15.919  0.7619  0.2606  0.0116
   66TCq2    C2 1005   0.823   0.922  15.699  0.4761 -0.8859  0.1944
   66TCq2    C3 1006   0.781   0.867  15.585  0.1243 -0.2025 -0.1592
   66TCq2    C4 1007   0.802   0.938  15.469  0.3819  0.2548  0.0045
   66TCq2    C5 1008   0.844   1.068  15.477 -0.1372  0.1637 -0.1841
   66TCq2    C6 1009   0.859   1.126  15.602 -0.6372  0.1062 -0.3920
   66TCq2    C7 1010   0.848   1.059  15.722  0.0376  0.5140 -0.0646
   66TCq2    C8 1011   0.878   1.270  15.596  0.7015 -0.2524 -0.2766
   66TCq2    O4 1012   0.867   1.329  15.489  0.0345  0.0426 -0.2898
   66TCq2    C9 1013   0.768   0.881  15.349 -0.2435  0.6314 -0.3583
   66TCq2    O5 1014   0.789   0.939  15.238 -0.3182 -0.5226 -0.2442
   66TCq2    O6 1015   0.727   0.766  15.362 -0.1349  0.3174  0.0811
   66TCq2    H2 1016   0.754   0.762  15.582 -0.8014  0.0631 -1.0316
   66TCq2    H3 1017   0.862   1.122  15.385 -0.7121  1.8396  0.6954
   66TCq2    H4 1018   0.891   1.093  15.815  1.3510 -1.7611  0.1736
   67MPD2     C 1019   1.461   4.582  14.225  0.5917 -0.0845 -0.1424
   67MPD2    C1 1020   1.363   4.630  14.307 -0.1144  0.6652  0.8479
   67MPD2    C2 1021   1.233   4.613  14.261 -0.3223  0.1946 -0.5425
   67MPD2    C3 1022   1.196   4.540  14.150  0.2561  0.2707 -0.0957
   67MPD2    C4 1023   1.295   4.486  14.074  0.1076 -0.2526 -0.5052
   67MPD2    C5 1024   1.430   4.503  14.113 -0.1407 -0.3496 -0.3287
   67MPD2     H 1025   1.153   4.672  14.304 -2.1314 -1.6616 -1.3415
   67MPD2    H1 1026   1.277   4.432  13.982 -1.2754 -0.4329 -0.1326
   67MPD2    H2 1027   1.564   4.610  14.244  0.3694 -1.0385  2.3734
   67MPD2    H3 1028   1.508   4.463  14.049  1.9783  0.8936  1.4532
   67MPD2     N 1029   1.066   4.543  14.099  0.7199  0.3844 -0.8384
   67MPD2    H5 1030   1.059   4.509  14.004 -0.7549 -1.3957 -0.0850
   67MPD2    N1 1031   1.388   0.003  14.409 -0.3652 -0.5496  0.0822
   67MPD2    H7 1032   1.305   0.044  14.451  0.5358  0.4443  0.9040
   68TCq2    C1 1033   1.509   0.042  14.459 -0.1657 -0.0674  0.1218
   68TCq2    O2 1034   1.619   4.716  14.440 -0.2358 -0.0892 -0.3146
   68TCq2    C2 1035   1.493   0.145  14.562  0.7664 -0.4360 -0.4656
   68TCq2    C3 1036   1.384   0.234  14.570  0.4389  0.6397 -0.0478
   68TCq2    C4 1037   1.395   0.336  14.663 -0.8156 -0.6651 -0.2241
   68TCq2    C5 1038   1.503   0.334  14.755 -0.0299 -0.1652  0.7453
   68TCq2    C6 1039   1.600   0.242  14.746  0.4020  0.5470  0.1171
   68TCq2    C7 1040   1.599   0.142  14.653 -0.0827  0.1733  0.4595
   68TCq2    C8 1041   1.698   0.223  14.854  0.0864 -0.1916 -0.2944
   68TCq2    O4 1042   1.801   0.162  14.830  0.3837  0.4129  0.2166
   68TCq2    C9 1043   1.280   0.420  14.678  0.4156  0.1141  0.1796
   68TCq2    O5 1044   1.199   0.417  14.582 -0.3827  0.0780 -0.3923
   68TCq2    O6 1045   1.250   0.451  14.800 -0.3607 -0.2491  0.1301
   68TCq2    H2 1046   1.304   0.226  14.498  0.4821  2.3679 -0.2665
   68TCq2    H3 1047   1.495   0.410  14.832 -0.3773  0.8296 -0.2764
   68TCq2    H4 1048   1.671   0.062  14.647 -0.1179  0.2386 -0.8631
   69TMC2    C1 1049   3.056   0.824  11.988  0.5737  0.3141 -0.4173
   69TMC2    C2 1050   2.922   0.809  11.952  0.5391 -0.2952 -0.0924
   69TMC2    C3 1051   2.891   0.808  11.819 -0.2058 -0.7223  0.0850
   69TMC2    C4 1052   3.159   0.825  11.898 -0.2717  0.2606  0.3414
   69TMC2    C5 1053   3.117   0.826  11.762  0.0815 -0.6750 -0.0407
   69TMC2    C6 1054   2.979   0.822  11.719 -0.3723 -0.0553  0.4094
   69TMC2     C 1055   3.080   0.798  12.132  0.3068 -0.3534  1.4096
   69TMC2     O 1056   2.984   0.782  12.206 -0.6084  0.1863  0.0058
   69TMC2     H 1057   2.851   0.818  12.033 -1.0087 -0.8687 -1.3852
   69TMC2    H1 1058   3.264   0.838  11.924  0.2089 -0.4043 -1.2473
   69TMC2    H2 1059   2.942   0.812  11.618 -0.7337 -2.8914  0.8191
   69TMC2    C7 1060   3.223   0.781  11.667  0.3433 -0.3999  0.7511
   69TMC2    C8 1061   2.758   0.797  11.778  0.0514  0.1615  1.0315
   69TMC2    O1 1062   3.324   0.728  11.717  0.2832 -0.3926  0.1086
   69TMC2    O2 1063   2.695   0.860  11.698  0.2198  0.3008 -0.0119
   69TMC2    O5 1064   2.714   0.707  11.870 -0.4468  0.3828 -0.2464
   69TMC2    H5 1065   2.777   0.659  11.927  0.0545  3.5581  1.8735
   70MPD2     C 1066   3.405   0.824  12.311 -0.0846  0.3593  0.2015
   70MPD2    C1 1067   3.273   0.780  12.291  0.1795  0.4270 -0.0080
   70MPD2    C2 1068   3.208   0.717  12.399 -0.2518  0.0370  0.1849
   70MPD2    C3 1069   3.276   0.683  12.513 -0.0308  0.1867  0.4621
   70MPD2    C4 1070   3.411   0.695  12.515 -1.2501  0.4016  0.1523
   70MPD2    C5 1071   3.476   0.761  12.413  0.2002  0.4206 -0.2369
   70MPD2     H 1072   3.100   0.716  12.402 -0.2314 -0.1284  0.7906
   70MPD2    H1 1073   3.472   0.671  12.601  1.8020  0.2234 -2.0522
   70MPD2    H2 1074   3.458   0.887  12.241 -1.5741 -0.8631 -2.0315
   70MPD2    H3 1075   3.582   0.774  12.434  0.2280 -0.8188  0.3817
   70MPD2     N 1076   3.214   0.649  12.631 -0.0895  0.2359  0.7831
   70MPD2    H5 1077   3.267   0.642  12.718 -0.0055  0.2171  0.7299
   70MPD2    N1 1078   3.216   0.801  12.165 -0.4425 -0.3273  0.0754
   70MPD2    H7 1079   3.280   0.847  12.100  0.8980  0.9294  2.2870
   71TMC2    C1 1080   2.024   2.241   1.680 -0.0528 -1.1722  0.1295
   71TMC2    C2 1081   2.143   2.312   1.689  0.1391  1.0093 -0.3705
   71TMC2    C3 1082   2.139   2.407   1.787  0.3667 -0.3049 -0.4870
   71TMC2    C4 1083   1.910   2.262   1.756  0.2875  0.4812  0.4150
   71TMC2    C5 1084   1.911   2.368   1.843  0.0961  0.0778  0.7313
   71TMC2    C6 1085   2.026   2.439   1.856  0.2914 -0.3711 -0.2622
   71TMC2     C 1086   2.018   2.147   1.567  0.2111  0.0690 -0.5080
   71TMC2     O 1087   2.118   2.078   1.563  0.0448  0.1658 -0.4469
   71TMC2     H 1088   2.227   2.294   1.623 -0.5874 -2.4646 -0.3500
   71TMC2    H1 1089   1.827   2.195   1.736  0.6856  0.3367 -0.7703
   71TMC2    H2 1090   2.028   2.529   1.916 -2.4287 -0.4488 -0.0743
   71TMC2    C7 1091   1.805   2.386   1.938 -0.2356  0.4619 -0.1999
   71TMC2    C8 1092   2.251   2.493   1.816  0.9861  0.4892 -0.1360
   71TMC2    O1 1093   1.835   2.454   2.037 -0.0072 -0.7652 -0.4055
   71TMC2    O2 1094   2.341   2.506   1.732  0.1880 -0.0166 -0.0604
   71TMC2    O5 1095   2.270   2.468   1.947 -0.0738 -0.1885  0.1013
   71TMC2    H5 1096   2.193   2.446   2.003  0.7528  0.3196  1.4559
   72MPD2     C 1097   1.915   2.087   1.074 -0.4454  0.1646 -0.4856
   72MPD2    C1 1098   1.819   2.172   1.132 -0.2801 -0.1375 -0.1495
   72MPD2    C2 1099   1.820   2.189   1.268  0.3111 -0.4796 -0.1058
   72MPD2    C3 1100   1.915   2.124   1.346 -0.1768  0.2793  0.4373
   72MPD2    C4 1101   2.010   2.033   1.293  0.9684  0.8114 -0.4750
   72MPD2    C5 1102   2.007   2.021   1.154 -0.9021 -0.2784 -0.0756
   72MPD2     H 1103   1.764   2.270   1.312  1.5817  0.4021 -0.1084
   72MPD2    H1 1104   2.086   1.977   1.345 -0.1772  0.0211  0.3504
   72MPD2    H2 1105   1.933   2.068   0.969 -1.7236 -3.6729 -0.0224
   72MPD2    H3 1106   2.074   1.950   1.107  1.6045  2.6127 -0.8909
   72MPD2     N 1107   1.916   2.173   1.479  0.1771 -0.2561  0.5146
   72MPD2    H5 1108   1.845   2.241   1.503 -1.1819 -2.1709  1.9090
   72MPD2    N1 1109   1.721   2.243   1.054  0.0176 -0.1510  0.0864
   72MPD2    H7 1110   1.658   2.306   1.103 -0.6643 -0.8108  0.0623
   73TMC2    C1 1111   0.318   3.551  14.108 -0.9294  0.2453  0.3193
   73TMC2    C2 1112   0.254   3.450  14.035 -0.3352  0.0777 -0.4198
   73TMC2    C3 1113   0.270   3.318  14.066  0.3281 -0.4064  0.4496
   73TMC2    C4 1114   0.398   3.513  14.213  0.4358 -0.4159 -0.2657
   73TMC2    C5 1115   0.426   3.382  14.233 -0.9295  0.0413  0.2253
   73TMC2    C6 1116   0.359   3.282  14.161  0.8478  0.0477 -0.0691
   73TMC2     C 1117   0.397   3.653  14.038 -0.2272 -0.1926 -0.8622
   73TMC2     O 1118   0.519   3.656  14.055 -0.4754  0.3951  0.5881
   73TMC2     H 1119   0.183   3.466  13.955  0.5241 -2.7850 -1.7316
   73TMC2    H1 1120   0.440   3.591  14.276 -0.8903 -1.4714  1.9256
   73TMC2    H2 1121   0.378   3.175  14.169  1.8798  0.0986 -1.8968
   73TMC2    C7 1122   0.565   3.360  14.267  0.7004 -0.2962  0.4005
   73TMC2    C8 1123   0.249   3.223  13.954 -0.0924 -0.4820  0.2017
   73TMC2    O1 1124   0.595   3.249  14.308  0.3936  0.4705 -0.2152
   73TMC2    O2 1125   0.136   3.198  13.909  0.0258  0.1336 -0.5265
   73TMC2    O5 1126   0.360   3.264  13.883  0.7613 -0.4353  0.0566
   73TMC2    H5 1127   0.445   3.264  13.932  0.3313 -3.9707  0.7318
   74MPD2     C 1128   0.487   3.981  13.659 -0.8602  0.6150  0.2224
   74MPD2    C1 1129   0.568   3.907  13.736 -0.3396  0.3754 -0.2891
   74MPD2    C2 1130   0.515   3.814  13.827  0.0593 -0.0522 -0.2028
   74MPD2    C3 1131   0.381   3.805  13.852  0.0159 -0.7540 -0.2778
   74MPD2    C4 1132   0.302   3.886  13.773  0.1204 -0.4769  0.6116
   74MPD2    C5 1133   0.351   3.970  13.677  0.6427 -0.4494  0.5398
   74MPD2     H 1134   0.577   3.738  13.873 -1.9976 -0.2343  2.2526
   74MPD2    H1 1135   0.194   3.882  13.770  0.1713 -0.6438 -0.7937
   74MPD2    H2 1136   0.529   4.051  13.588 -1.9096  0.8451 -0.1669
   74MPD2    H3 1137   0.284   4.020  13.609  2.2068  0.7379 -0.1306
   74MPD2     N 1138   0.322   3.718  13.949  0.1412 -0.6839 -0.8013
   74MPD2    H5 1139   0.221   3.707  13.949 -0.0489  0.8323  5.0614
   74MPD2    N1 1140   0.710   3.928  13.720 -0.4772  0.2369 -0.4384
   74MPD2    H7 1141   0.741   3.983  13.640 -1.3873  0.6089 -0.5387
   75TCq2    C1 1142   0.956   4.570  14.175  0.4968  0.6419 -0.1976
   75TCq2    O2 1143   0.960   4.550  14.297  0.4463  0.6051  0.4931
   75TCq2    C2 1144   0.835   4.617  14.103 -0.0977  0.0481  0.2173
   75TCq2    C3 1145   0.734   4.668  14.181 -0.4472  0.7032 -0.4303
   75TCq2    C4 1146   0.626   0.004  14.120  0.3940 -0.5745 -0.0703
   75TCq2    C5 1147   0.614   0.007  13.983 -0.2662 -0.4224  0.1835
   75TCq2    C6 1148   0.723   4.676  13.913  0.1476  1.1294  0.2113
   75TCq2    C7 1149   0.838   4.626  13.963  0.4446  0.3699 -0.2392
   75TCq2    C8 1150   0.725   4.683  13.770  0.6608  0.2324  0.5925
   75TCq2    O4 1151   0.796   4.599  13.713  0.3270 -0.3398  0.1076
   75TCq2    C9 1152   0.519   0.046  14.202  0.4923  0.3243  0.1842
   75TCq2    O5 1153   0.411   0.072  14.140  0.2398  0.1884  0.0091
   75TCq2    O6 1154   0.528   0.026  14.326 -0.5448  0.0048 -0.1186
   75TCq2    H2 1155   0.739   4.662  14.289  1.1635  1.4780 -0.4628
   75TCq2    H3 1156   0.520   0.035  13.936  1.5085 -0.1398 -3.1837
   75TCq2    H4 1157   0.930   4.612  13.907  0.6028 -0.3164  0.1891
   76MPD2     C 1158   4.432   0.362  11.596 -0.0921 -0.2096  0.1384
   76MPD2    C1 1159   4.358   0.286  11.508  0.1794  0.2021 -0.3783
   76MPD2    C2 1160   4.418   0.167  11.461  0.2119 -0.0356 -0.0517
   76MPD2    C3 1161   4.542   0.128  11.506 -0.1440  0.1280 -0.4436
   76MPD2    C4 1162   4.596   0.195  11.613  0.2513  0.1523  0.0773
   76MPD2    C5 1163   4.540   0.315  11.656 -0.3741  0.0655  0.1772
   76MPD2     H 1164   4.363   0.103  11.394  0.6505  2.6219 -2.9260
   76MPD2    H1 1165   4.695   0.164  11.645  0.0868  0.1071  0.5312
   76MPD2    H2 1166   4.414   0.463  11.631 -0.9811 -0.2101 -0.3188
   76MPD2    H3 1167   4.592   0.364  11.738  2.2640 -1.6747 -0.4498
   76MPD2     N 1168   4.613   0.014  11.454 -0.6596 -0.6907 -0.0806
   76MPD2    H5 1169   4.687   4.693  11.508 -2.7996 -3.0651  0.9586
   76MPD2    N1 1170   4.237   0.330  11.451 -1.0444  0.0178  0.3203
   76MPD2    H7 1171   4.196   0.277  11.375  1.9424 -1.2862 -0.3489
   77TCq2    C1 1172   4.578   4.679  11.333 -0.1245  0.4393 -0.1754
   77TCq2    O2 1173   4.502   0.002  11.249  0.2798 -0.3464  0.0445
   77TCq2    C2 1174   4.663   4.561  11.310 -0.0526  0.0147  0.1698
   77TCq2    C3 1175   4.669   4.513  11.180 -0.3138  0.3867  0.4052
   77TCq2    C4 1176   4.696   4.377  11.153 -0.5013  0.6561  0.2665
   77TCq2    C5 1177   4.722   4.290  11.261 -0.3545 -0.1368 -0.2241
   77TCq2    C6 1178   4.719   4.340  11.390 -0.3107 -0.1126 -0.0665
   77TCq2    C7 1179   4.681   4.472  11.416  0.1161 -0.1546  0.2272
   77TCq2    C8 1180   4.695   4.240  11.490 -0.2128 -0.3422 -0.6461
   77TCq2    O4 1181   4.627   4.144  11.454 -0.3994  0.4021 -0.0256
   77TCq2    C9 1182   4.682   4.327  11.018 -0.0607 -0.0499  0.3448
   77TCq2    O5 1183   4.674   4.416  10.924  0.1671  0.0324 -0.1302
   77TCq2    O6 1184   4.662   4.204  11.011 -0.1023  0.1067 -0.2171
   77TCq2    H2 1185   4.638   4.590  11.109  0.6135  0.5704  0.1993
   77TCq2    H3 1186   4.719   4.183  11.244 -0.5167  0.1787 -2.1831
   77TCq2    H4 1187   4.643   4.498  11.514 -1.8295  0.0526 -0.5697
   78MPD1     C 1188   4.562   1.910   2.305 -0.1201  0.3515  0.8352
   78MPD1    C1 1189   4.629   1.903   2.179  0.0492  0.5241 -0.4706
   78MPD1    C2 1190   0.045   1.896   2.190 -0.0319 -0.3397  0.0475
   78MPD1    C3 1191   0.113   1.923   2.315  0.2608 -0.1928  0.3398
   78MPD1    C4 1192   0.038   1.969   2.418 -0.0065  0.3016 -0.7338
   78MPD1    C5 1193   4.627   1.937   2.425 -0.2786  0.1126 -0.8652
   78MPD1     H 1194   0.102   1.873   2.100 -1.7184 -0.3828 -1.0126
   78MPD1    H1 1195   0.083   1.995   2.513 -2.4234 -1.1586  0.8339
   78MPD1    H2 1196   4.455   1.891   2.308  0.0504 -0.8101 -0.3774
   78MPD1    H3 1197   4.567   1.927   2.515  0.9124  2.3986  0.1896
   78MPD1     N 1198   0.253   1.945   2.320  0.5664  0.3422 -0.1031
   78MPD1    H5 1199   0.296   1.985   2.403 -2.7094 -0.3369  1.9091
   78MPD1    N1 1200   4.566   1.846   2.062 -0.2441 -0.3624  0.2670
   78MPD1    H6 1201   4.605   1.878   1.974  2.1086  0.8093  1.7365
   78MPD1    H7 1202   4.471   1.883   2.063 -0.2472 -0.3063 -1.7560
   79TCq2    C1 1203   0.350   1.925   2.224 -0.0034  0.2146  0.7023
   79TCq2    O2 1204   0.330   1.905   2.105 -0.5807  0.4823  0.1167
   79TCq2    C2 1205   0.485   1.970   2.259  0.1938 -0.3348 -0.0634
   79TCq2    C3 1206   0.516   1.991   2.390 -0.0823 -0.7103  0.1798
   79TCq2    C4 1207   0.652   1.996   2.424 -0.5918  0.1369  0.6903
   79TCq2    C5 1208   0.748   1.977   2.325 -0.5454  0.2538 -0.2642
   79TCq2    C6 1209   0.710   1.944   2.197 -0.0980 -0.2329 -0.2339
   79TCq2    C7 1210   0.578   1.936   2.163  0.0735  0.7378  0.3813
   79TCq2    C8 1211   0.823   1.933   2.105  0.1461 -0.0710  0.5583
   79TCq2    O4 1212   0.936   1.970   2.140  0.1071  0.3724 -0.1669
   79TCq2    C9 1213   0.688   2.024   2.558  0.0399  0.3433  0.3869
   79TCq2    O5 1214   0.597   2.060   2.644  0.4067 -0.1492 -0.3381
   79TCq2    O6 1215   0.811   2.003   2.591 -0.1492  0.0914 -0.0321
   79TCq2    H2 1216   0.449   1.995   2.475 -0.0058  0.2202  0.1909
   79TCq2    H3 1217   0.854   1.996   2.337  0.1096 -2.0234 -2.2974
   79TCq2    H4 1218   0.537   1.924   2.063  3.1498  0.5328 -0.8810
   80MPD2     C 1219   3.899   4.705  12.172 -0.1007  0.2275 -0.0481
   80MPD2    C1 1220   3.791   4.697  12.087  0.4209  0.0010  0.0094
   80MPD2    C2 1221   3.660   4.711  12.135 -0.7779 -0.3891 -0.4251
   80MPD2    C3 1222   3.629   0.023  12.266  1.1787  0.9881 -0.4256
   80MPD2    C4 1223   3.734   0.010  12.359 -0.1421 -0.2867 -0.0607
   80MPD2    C5 1224   3.866   4.719  12.310  0.3866  0.2081 -0.2101
   80MPD2     H 1225   3.584   4.707  12.058 -0.7593  0.5202 -0.4894
   80MPD2    H1 1226   3.718   0.045  12.461  0.4714  1.4819 -0.5607
   80MPD2    H2 1227   3.999   4.707  12.131  0.6477 -1.9809  1.7009
   80MPD2    H3 1228   3.946   4.721  12.383  0.0121 -0.3790  0.2137
   80MPD2     N 1229   3.496   0.034  12.307  0.3692 -0.3005  0.0211
   80MPD2    H5 1230   3.483   0.021  12.407 -2.5415  0.5279 -0.2216
   80MPD2    N1 1231   3.802   4.664  11.954 -0.7296 -0.6248  0.1684
   80MPD2    H7 1232   3.720   4.689  11.900  0.5648  1.0964 -1.0343
   81TCq2    C1 1233   3.908   4.606  11.885  0.3306 -0.2970  0.2497
   81TCq2    O2 1234   4.028   4.613  11.900  0.0442  0.1971  0.1610
   81TCq2    C2 1235   3.856   4.557  11.758  0.1267 -0.7221  0.7680
   81TCq2    C3 1236   3.935   4.576  11.651 -0.5813 -0.3942 -0.2533
   81TCq2    C4 1237   3.886   4.542  11.528 -0.1783  0.8808 -0.3196
   81TCq2    C5 1238   3.756   4.495  11.519  0.3747 -0.4208 -0.7365
   81TCq2    C6 1239   3.682   4.464  11.633  0.4511  0.0801 -0.1835
   81TCq2    C7 1240   3.727   4.501  11.751 -0.0689  0.2512  0.2697
   81TCq2    C8 1241   3.545   4.421  11.613  0.3105  0.4534 -0.6470
   81TCq2    O4 1242   3.487   4.458  11.512 -0.1176 -0.1295  0.0492
   81TCq2    C9 1243   3.954   4.575  11.408  0.8702 -0.2949 -0.1181
   81TCq2    O5 1244   4.075   4.615  11.427  0.1415  0.2027  0.4445
   81TCq2    O6 1245   3.895   4.591  11.298 -0.0459 -0.1792 -0.1603
   81TCq2    H2 1246   4.014   4.650  11.657  0.1750 -1.4688  2.9931
   81TCq2    H3 1247   3.711   4.474  11.423 -0.2925 -0.0153 -0.5152
   81TCq2    H4 1248   3.665   4.494  11.840 -1.2839  0.6638 -0.5432
   82MPD2     C 1249   2.352   0.222  10.368  0.3015 -0.2562 -0.1823
   82MPD2    C1 1250   2.253   0.129  10.326 -0.1737  1.1309  0.3078
   82MPD2    C2 1251   2.202   0.044  10.421 -0.4325 -1.0688  0.2637
   82MPD2    C3 1252   2.242   0.046  10.555  0.5448 -1.0312 -0.5801
   82MPD2    C4 1253   2.337   0.142  10.597 -0.7747  0.5350  0.2959
   82MPD2    C5 1254   2.391   0.221  10.497 -0.1055  0.3678 -0.1159
   82MPD2     H 1255   2.142   4.685  10.383 -0.0213 -2.5096  2.7137
   82MPD2    H1 1256   2.357   0.159  10.702 -2.3716  1.3491  0.4679
   82MPD2    H2 1257   2.403   0.287  10.298 -2.2062  1.0331 -0.8213
   82MPD2    H3 1258   2.455   0.302  10.530 -0.1650 -0.4304  2.0190
   82MPD2     N 1259   2.205   4.678  10.653  0.2121  0.1527 -0.1300
   82MPD2    H5 1260   2.258   4.670  10.739  1.1434 -0.8282 -0.8012
   82MPD2    N1 1261   2.202   0.136  10.190  0.6179 -0.4027  0.0465
   82MPD2    H7 1262   2.247   0.196  10.121 -0.2998  1.4261  1.0299
   83TCq2    C1 1263   2.101   4.589  10.641  0.1034  0.0934 -0.0660
   83TCq2    O2 1264   1.998   4.609  10.574  0.3465  0.0918  0.6301
   83TCq2    C2 1265   2.099   4.486  10.748  0.0973 -0.1623  0.3604
   83TCq2    C3 1266   2.217   4.445  10.801 -0.9796  0.0780 -0.0269
   83TCq2    C4 1267   2.235   4.315  10.841  0.5436  1.1034  0.7429
   83TCq2    C5 1268   2.132   4.230  10.835 -0.2456 -0.0177 -0.7692
   83TCq2    C6 1269   2.017   4.270  10.781 -0.0140 -0.1458 -0.6103
   83TCq2    C7 1270   2.000   4.399  10.735  0.5341 -0.9010  0.1668
   83TCq2    C8 1271   1.910   4.180  10.792  0.7601  0.3986  0.0906
   83TCq2    O4 1272   1.914   4.092  10.879  0.4939 -0.1582 -0.2493
   83TCq2    C9 1273   2.359   4.270  10.896 -0.6480 -0.0763  0.3209
   83TCq2    O5 1274   2.358   4.165  10.965 -0.7535 -0.1775 -0.8067
   83TCq2    O6 1275   2.456   4.351  10.898  0.2648  0.1389  0.0810
   83TCq2    H2 1276   2.312   4.496  10.794 -0.0826 -1.7834 -1.4505
   83TCq2    H3 1277   2.145   4.126  10.864  0.3889 -0.3066 -2.0692
   83TCq2    H4 1278   1.903   4.435  10.700  0.1599 -1.8026  0.2587
   84TCq2    C1 1279   3.506   3.276  10.364  0.0283  0.4075 -0.0563
   84TCq2    O2 1280   3.389   3.314  10.356  0.7462  0.0230  0.6169
   84TCq2    C2 1281   3.568   3.253  10.494 -0.8010  0.2579 -0.0607
   84TCq2    C3 1282   3.704   3.279  10.521  0.5478 -0.5690  0.2234
   84TCq2    C4 1283   3.746   3.333  10.637  0.2232  0.2697 -0.2959
   84TCq2    C5 1284   3.652   3.361  10.730  0.2267 -0.2360 -0.0234
   84TCq2    C6 1285   3.523   3.327  10.710  0.6432  0.2010  1.1379
   84TCq2    C7 1286   3.478   3.282  10.590 -0.0737  0.3606 -0.5410
   84TCq2    C8 1287   3.425   3.350  10.813 -0.6613  0.1798 -0.0614
   84TCq2    O4 1288   3.311   3.373  10.775 -0.0427  0.2173 -0.4825
   84TCq2    C9 1289   3.888   3.340  10.664  0.2378 -0.0066 -0.4808
   84TCq2    O5 1290   3.925   3.368  10.783  0.2643  0.5176  0.5906
   84TCq2    O6 1291   3.967   3.292  10.583 -0.1621 -0.2847 -0.3162
   84TCq2    H2 1292   3.779   3.253  10.447  1.1993  1.5764  0.1364
   84TCq2    H3 1293   3.681   3.430  10.808 -0.4260 -0.3202  0.2916
   84TCq2    H4 1294   3.372   3.273  10.573 -0.1027 -0.4909  0.1147
   85MPD2     C 1295   3.489   1.413  16.081  0.1456  0.2687  0.1962
   85MPD2    C1 1296   3.364   1.480  16.072 -0.2263 -0.1210  0.2561
   85MPD2    C2 1297   3.350   1.585  15.979  0.5314  0.5014 -0.3468
   85MPD2    C3 1298   3.459   1.618  15.894  0.1093  0.2200  0.5655
   85MPD2    C4 1299   3.580   1.546  15.899 -0.4543  0.1226  0.2876
   85MPD2    C5 1300   3.586   1.443  15.987  0.2846 -0.1638  0.2455
   85MPD2     H 1301   3.257   1.641  15.972  0.2226  0.1313  0.8229
   85MPD2    H1 1302   3.661   1.555  15.829  0.8629  1.1603  1.9494
   85MPD2    H2 1303   3.503   1.324  16.140  0.1931 -1.0555 -1.8384
   85MPD2    H3 1304   3.676   1.386  16.007  0.5402  0.8655  2.0903
   85MPD2     N 1305   3.466   1.731  15.810 -0.5941 -0.2352 -1.1030
   85MPD2    H5 1306   3.540   1.731  15.741  0.3951  0.5506 -0.0368
   85MPD2    N1 1307   3.250   1.421  16.140  0.0082  0.0052 -0.2116
   85MPD2    H7 1308   3.155   1.447  16.115 -0.2532 -1.3205 -0.6269
   86TCq2    C1 1309   3.402   1.850  15.824  0.3336  0.1867 -0.6554
   86TCq2    O2 1310   3.336   1.897  15.914  0.4135  0.3258  0.4955
   86TCq2    C2 1311   3.428   1.934  15.716 -0.4341  0.9676 -0.1314
   86TCq2    C3 1312   3.424   2.078  15.731  0.7439 -0.0137 -0.4385
   86TCq2    C4 1313   3.458   2.149  15.621  0.0570 -0.1960 -0.5188
   86TCq2    C5 1314   3.490   2.089  15.499 -0.1589  0.9952  0.2435
   86TCq2    C6 1315   3.490   1.950  15.488  0.6315  0.4369  0.0338
   86TCq2    C7 1316   3.453   1.871  15.595  0.0190  0.0803  0.0669
   86TCq2    C8 1317   3.530   1.888  15.362  0.1597  0.1184  0.2026
   86TCq2    O4 1318   3.550   1.767  15.366 -0.4368 -0.6251 -0.2387
   86TCq2    C9 1319   3.466   2.287  15.634  0.0989 -0.1776  0.1523
   86TCq2    O5 1320   3.455   2.322  15.754 -1.0217  0.0466  0.5335
   86TCq2    O6 1321   3.501   2.360  15.539  0.2931 -1.2053 -0.0253
   86TCq2    H2 1322   3.400   2.120  15.828  0.2330 -0.8458 -0.2018
   86TCq2    H3 1323   3.523   2.160  15.423 -0.7736  1.2604  0.2212
   86TCq2    H4 1324   3.450   1.764  15.579  0.5335 -0.4066  3.2412
   87MPD2     C 1325   1.469   0.875   1.107  0.2602  0.2373 -0.3075
   87MPD2    C1 1326   1.363   0.859   1.197  0.0926  0.0211 -0.0946
   87MPD2    C2 1327   1.285   0.968   1.238 -0.1790  0.0359 -0.3535
   87MPD2    C3 1328   1.327   1.098   1.201  0.8178  0.5947  0.3064
   87MPD2    C4 1329   1.444   1.115   1.126 -0.4481  0.5058 -0.1255
   87MPD2    C5 1330   1.513   1.005   1.082  0.3898  0.3382  0.0117
   87MPD2     H 1331   1.191   0.951   1.288 -0.9031  1.7369 -1.1416
   87MPD2    H1 1332   1.484   1.212   1.097  0.9490  0.3407  1.2696
   87MPD2    H2 1333   1.535   0.800   1.064 -0.2416  0.2254 -1.0626
   87MPD2    H3 1334   1.605   1.009   1.025  0.6568  1.4645  0.5041
   87MPD2     N 1335   1.254   1.209   1.237 -0.1986  0.3968 -0.1411
   87MPD2    H5 1336   1.298   1.297   1.211 -1.0110  1.8413  3.3980
   87MPD2    N1 1337   1.315   0.726   1.206  0.4075 -0.0535  0.2913
   87MPD2    H7 1338   1.364   0.649   1.162 -0.2804  0.1096 -0.7717
   88TCq2    C1 1339   1.217   0.682   1.288  0.4370 -0.7646 -0.2389
   88TCq2    O2 1340   1.170   0.739   1.386 -0.3693 -0.0163  0.2740
   88TCq2    C2 1341   1.182   0.543   1.261 -0.8444  0.0022  0.6530
   88TCq2    C3 1342   1.109   0.487   1.365 -0.3942 -0.1317 -0.3242
   88TCq2    C4 1343   1.010   0.399   1.326 -0.0124  0.3336  0.7138
   88TCq2    C5 1344   1.001   0.363   1.194  0.3882 -0.1056  0.5248
   88TCq2    C6 1345   1.078   0.418   1.100  0.3333 -0.1323  0.1725
   88TCq2    C7 1346   1.170   0.514   1.129  0.5562  0.3406  0.2110
   88TCq2    C8 1347   1.076   0.360   0.962 -0.5277 -0.2085 -0.1506
   88TCq2    O4 1348   1.142   0.412   0.872 -0.1534 -0.4587  0.1589
   88TCq2    C9 1349   0.907   0.348   1.412 -0.8584  0.1377  0.4599
   88TCq2    O5 1350   0.884   0.410   1.518  0.0620  0.3240 -0.2242
   88TCq2    O6 1351   0.833   0.261   1.365  0.1602  0.4401 -0.0913
   88TCq2    H2 1352   1.123   0.504   1.472 -0.1159  2.2981 -0.7417
   88TCq2    H3 1353   0.920   0.296   1.169  0.2746  0.6047 -0.9965
   88TCq2    H4 1354   1.230   0.556   1.049 -1.5798  1.2482 -0.8906
   89MPD2     C 1355   1.905   2.655   1.580 -0.1671  0.3597  0.3558
   89MPD2    C1 1356   1.889   2.733   1.696 -0.2837  0.2050  0.2320
   89MPD2    C2 1357   1.995   2.816   1.733 -0.0249 -0.1573  1.0065
   89MPD2    C3 1358   2.116   2.828   1.670  0.5070 -0.8625 -0.2783
   89MPD2    C4 1359   2.133   2.752   1.552  0.5270  0.4259  0.7307
   89MPD2    C5 1360   2.026   2.675   1.513  0.5684  0.2781  0.7584
   89MPD2     H 1361   1.988   2.871   1.826 -2.5769  0.5627  0.3786
   89MPD2    H1 1362   2.226   2.743   1.497  1.1603  3.2133  1.3490
   89MPD2    H2 1363   1.835   2.581   1.544 -1.6558  0.9304  2.1103
   89MPD2    H3 1364   2.050   2.621   1.422  0.1107  1.6838 -0.2186
   89MPD2     N 1365   2.208   2.917   1.735  0.4424 -0.2597 -0.2743
   89MPD2    H5 1366   2.194   2.953   1.828  0.3321 -4.3525  1.2786
   89MPD2    N1 1367   1.776   2.716   1.778  0.0927 -0.4994  0.3849
   89MPD2    H7 1368   1.768   2.761   1.868  0.1938  0.4944 -0.1084
   90TCq2    C1 1369   2.330   2.944   1.681 -0.5335 -1.1590  0.2048
   90TCq2    O2 1370   2.389   2.888   1.589 -0.4463  0.2072  0.5927
   90TCq2    C2 1371   2.373   3.074   1.726  0.5898 -0.3767 -0.5100
   90TCq2    C3 1372   2.496   3.105   1.676  0.4148 -0.7619 -0.7489
   90TCq2    C4 1373   2.544   3.227   1.707 -0.3041 -0.1087  0.5308
   90TCq2    C5 1374   2.459   3.324   1.743  0.4443  0.7501 -0.7475
   90TCq2    C6 1375   2.327   3.294   1.759 -0.2897  0.4344  0.8606
   90TCq2    C7 1376   2.277   3.169   1.753 -0.2220 -0.5153 -0.6399
   90TCq2    C8 1377   2.222   3.400   1.756 -0.2816 -0.6018  0.0532
   90TCq2    O4 1378   2.111   3.361   1.788 -0.2527  0.6044 -0.3740
   90TCq2    C9 1379   2.677   3.267   1.656 -0.1743 -0.5271  0.4250
   90TCq2    O5 1380   2.716   3.382   1.684  0.5250 -0.0828 -0.5804
   90TCq2    O6 1381   2.708   3.196   1.553 -0.2801  0.4600  0.7843
   90TCq2    H2 1382   2.566   3.027   1.648  2.7305  1.7126 -1.9046
   90TCq2    H3 1383   2.503   3.421   1.760  2.3817 -0.1004 -0.9214
   90TCq2    H4 1384   2.172   3.148   1.732 -1.3889  1.6129  3.1413
   91TMC2    C1 1385   3.242   2.867  16.418 -0.3490 -0.9408  0.0192
   91TMC2    C2 1386   3.291   2.941  16.520 -0.3387 -0.9785 -0.9612
   91TMC2    C3 1387   3.219   3.044  16.565 -0.4183  0.0100  1.1360
   91TMC2    C4 1388   3.131   2.904  16.348 -0.2881 -0.3416 -0.0695
   91TMC2    C5 1389   3.079   3.027  16.383 -0.1610  0.7726 -0.1096
   91TMC2    C6 1390   3.120   3.097  16.493 -0.2474 -0.4352 -0.2765
   91TMC2     C 1391   3.329   2.771  16.354 -0.1887  0.1257  0.3905
   91TMC2     O 1392   3.276   2.696  16.274  0.3098 -0.5150 -0.5455
   91TMC2     H 1393   3.376   2.906  16.577 -0.4741  1.2368  0.5741
   91TMC2    H1 1394   3.113   2.854  16.253 -1.4248  1.8863 -1.0379
   91TMC2    H2 1395   3.067   3.184  16.529 -0.0457 -1.2252  1.9118
   91TMC2    C7 1396   2.968   3.086  16.309  0.3506  0.5988 -0.6115
   91TMC2    C8 1397   3.284   3.106  16.677 -0.1162  0.0886  0.1137
   91TMC2    O1 1398   2.960   3.207  16.311 -0.2166  0.0301 -0.1224
   91TMC2    O2 1399   3.401   3.099  16.702  0.4198  0.0825  0.6290
   91TMC2    O5 1400   3.201   3.173  16.752 -0.2877  0.2332  0.0978
   91TMC2    H5 1401   3.106   3.157  16.733 -0.4079  0.9501  0.0862
   92MPD2     C 1402   3.560   2.629  16.228 -0.6786 -0.1012 -0.8832
   92MPD2    C1 1403   3.572   2.741  16.312 -0.3366  0.3428  0.2491
   92MPD2    C2 1404   3.700   2.789  16.335 -0.1222  0.7422 -0.9868
   92MPD2    C3 1405   3.814   2.723  16.288  0.0115 -0.5454  0.1606
   92MPD2    C4 1406   3.797   2.611  16.209  0.3061  0.6322  0.5077
   92MPD2    C5 1407   3.669   2.570  16.182  0.0077  0.3351  0.5566
   92MPD2     H 1408   3.715   2.875  16.399  1.9453  0.1621 -0.6853
   92MPD2    H1 1409   3.882   2.557  16.169 -0.6504  1.0409 -2.0880
   92MPD2    H2 1410   3.468   2.582  16.195 -1.1443  0.6066 -0.6205
   92MPD2    H3 1411   3.649   2.482  16.121  0.7817 -0.1185  0.9640
   92MPD2     N 1412   3.943   2.768  16.334 -0.1861 -0.1402  0.1247
   92MPD2    H5 1413   3.932   2.861  16.374 -2.7608 -0.3010 -0.1781
   92MPD2    N1 1414   3.462   2.807  16.374 -0.8689  0.5240  0.2355
   92MPD2    H7 1415   3.480   2.894  16.423  2.2256 -1.3209  2.3838
   93MPD2     C 1416   0.619   2.060  13.432  0.4640 -0.2693 -0.7004
   93MPD2    C1 1417   0.626   2.199  13.457 -0.0524  0.0456  0.3095
   93MPD2    C2 1418   0.534   2.257  13.542 -0.8684  0.5361  0.4762
   93MPD2    C3 1419   0.431   2.184  13.599  0.3952 -0.8836  0.3865
   93MPD2    C4 1420   0.418   2.050  13.565 -0.0703 -0.6400  0.2194
   93MPD2    C5 1421   0.520   1.986  13.490  0.3574 -0.1266  0.8577
   93MPD2     H 1422   0.555   2.358  13.577  0.6614  0.4357 -0.1485
   93MPD2    H1 1423   0.342   1.978  13.595 -0.5999 -1.1960 -2.4961
   93MPD2    H2 1424   0.696   2.005  13.379  1.8675  0.3117  0.7182
   93MPD2    H3 1425   0.516   1.879  13.470 -2.4501  0.3470 -1.0676
   93MPD2     N 1426   0.344   2.243  13.694 -0.1973 -0.3874 -0.0100
   93MPD2    H5 1427   0.354   2.344  13.701  2.3590 -0.7728  1.8016
   93MPD2    N1 1428   0.730   2.290  13.411  0.0047 -0.5928  0.1641
   93MPD2    H7 1429   0.725   2.390  13.429 -0.9360 -0.8037  1.1133
   94TCq2    C1 1430   0.846   2.251  13.350  0.0085  0.5381  0.0623
   94TCq2    O2 1431   0.894   2.140  13.346  0.1468 -0.7833  0.6624
   94TCq2    C2 1432   0.918   2.373  13.313  0.3827  0.7113  0.1742
   94TCq2    C3 1433   0.849   2.483  13.296  0.3224  0.5326 -0.3137
   94TCq2    C4 1434   0.923   2.599  13.305 -0.6996 -0.7489  0.2988
   94TCq2    C5 1435   1.056   2.596  13.331 -0.6685 -0.0774  0.6753
   94TCq2    C6 1436   1.123   2.476  13.344  0.8869 -0.0420 -0.1038
   94TCq2    C7 1437   1.049   2.361  13.341  0.5637 -0.1861 -0.3192
   94TCq2    C8 1438   1.243   2.464  13.422  0.2295 -0.1690 -0.3799
   94TCq2    O4 1439   1.303   2.360  13.401 -0.2623 -0.0496 -0.3191
   94TCq2    C9 1440   0.857   2.724  13.305 -0.2100  0.8325  0.0119
   94TCq2    O5 1441   0.730   2.722  13.309 -0.3560 -1.0665 -0.1706
   94TCq2    O6 1442   0.929   2.822  13.333  0.3818 -0.7477  0.0686
   94TCq2    H2 1443   0.744   2.499  13.273  0.2685 -0.9729 -1.1325
   94TCq2    H3 1444   1.110   2.690  13.330  1.6276 -1.4115  0.5393
   94TCq2    H4 1445   1.091   2.261  13.347 -1.2250 -0.8246  1.6799
   95TMC2    C1 1446   4.573   4.561  15.926  0.4299 -0.4216 -0.5568
   95TMC2    C2 1447   4.510   4.637  15.830 -0.0323 -0.4414 -0.3107
   95TMC2    C3 1448   4.369   4.630  15.823 -0.5766  0.2444 -0.3182
   95TMC2    C4 1449   4.496   4.471  16.001  0.3952  0.8336  0.5174
   95TMC2    C5 1450   4.361   4.475  16.000 -0.0091  0.0742  0.1726
   95TMC2    C6 1451   4.290   4.544  15.902 -0.6398 -0.5851  0.0314
   95TMC2     C 1452   4.715   4.529  15.897 -0.0598  0.1201  0.4797
   95TMC2     O 1453   0.047   4.614  15.828 -0.8194 -0.5748 -0.0626
   95TMC2     H 1454   4.563   4.700  15.760 -0.0345 -1.1255 -0.9259
   95TMC2    H1 1455   4.539   4.414  16.083 -3.3397  0.6885  2.3720
   95TMC2    H2 1456   4.182   4.533  15.896 -0.3185 -3.5579 -0.4221
   95TMC2    C7 1457   4.301   4.372  16.081  0.9148 -0.1679 -0.0076
   95TMC2    C8 1458   4.297   0.012  15.756 -0.9373 -0.1734 -0.1828
   95TMC2    O1 1459   4.364   4.284  16.137  0.0992  0.3017 -0.4993
   95TMC2    O2 1460   4.181   0.030  15.792 -0.1647  0.0102 -0.3664
   95TMC2    O5 1461   4.368   0.061  15.651 -0.0723  0.1145  0.2146
   95TMC2    H5 1462   4.439   4.721  15.625 -1.7714 -1.6085 -0.1745
   96MPD2     C 1463   0.419   4.238  15.923 -0.7466  0.3280 -0.2034
   96MPD2    C1 1464   0.405   4.365  15.876 -0.3051  1.1342  0.6195
   96MPD2    C2 1465   0.278   4.422  15.882  0.8889  0.1112 -0.0309
   96MPD2    C3 1466   0.170   4.355  15.938  0.0033  0.1934 -0.3258
   96MPD2    C4 1467   0.193   4.233  15.997 -1.3286 -0.5830 -0.2200
   96MPD2    C5 1468   0.316   4.172  15.990 -0.1887  0.5918 -0.7081
   96MPD2     H 1469   0.270   4.526  15.853 -0.2885 -0.0884 -0.4286
   96MPD2    H1 1470   0.113   4.191  16.056 -0.6478  0.6947  1.6496
   96MPD2    H2 1471   0.517   4.192  15.934 -0.6564  0.1933 -1.4846
   96MPD2    H3 1472   0.342   4.073  16.024  0.9535  0.7356 -1.1588
   96MPD2     N 1473   0.037   4.415  15.952  0.2487  0.0839  0.1308
   96MPD2    H5 1474   4.696   4.358  16.008 -2.8301  2.8345 -0.5990
   96MPD2    N1 1475   0.513   4.433  15.829 -0.4185 -0.0383  0.1595
   96MPD2    H7 1476   0.596   4.376  15.818  0.3164  1.2622 -1.0361
   97MPD2     C 1477   2.141   1.893   0.242  0.1337  0.1210 -0.2045
   97MPD2    C1 1478   2.176   2.021   0.261  0.4035  0.0266 -0.5604
   97MPD2    C2 1479   2.233   2.099   0.159  0.0187  0.2764 -0.6847
   97MPD2    C3 1480   2.276   2.026   0.046 -0.1078 -0.0803  0.0986
   97MPD2    C4 1481   2.240   1.891   0.027 -0.9572 -0.2063 -0.8859
   97MPD2    C5 1482   2.171   1.825   0.130 -0.4457  0.2975 -0.5498
   97MPD2     H 1483   2.259   2.203   0.173  0.7290  0.0662 -0.4168
   97MPD2    H1 1484   2.261   1.838  17.627  0.5291 -1.1772  0.0225
   97MPD2    H2 1485   2.109   1.836   0.329  0.2558 -2.4986 -1.8891
   97MPD2    H3 1486   2.157   1.717   0.132 -0.4913  0.3450  1.8977
   97MPD2     N 1487   2.355   2.084  17.642  0.1860  0.3430 -0.3719
   97MPD2    H5 1488   2.379   2.026  17.562  0.4357  2.8541 -2.1165
   97MPD2    N1 1489   2.164   2.068   0.396  0.2427  0.3197  0.3299
   97MPD2    H7 1490   2.144   2.008   0.475 -0.8768  1.0722  0.6181
   98TCq2    C1 1491   2.410   2.210  17.642 -0.1709  0.2273 -0.1780
   98TCq2    O2 1492   2.403   2.298   0.034 -0.2030  0.8893 -0.1012
   98TCq2    C2 1493   2.479   2.253  17.524  0.4215  0.7627 -0.0920
   98TCq2    C3 1494   2.465   2.175  17.408 -0.0464  0.2684 -0.2101
   98TCq2    C4 1495   2.558   2.204  17.316  0.4561 -0.2493 -0.1650
   98TCq2    C5 1496   2.651   2.308  17.325  0.5742 -0.7735  1.1278
   98TCq2    C6 1497   2.659   2.378  17.438  0.6294 -0.3969  0.1776
   98TCq2    C7 1498   2.572   2.354  17.541  0.6997  0.3898  0.5922
   98TCq2    C8 1499   2.758   2.489  17.450  0.1108 -0.5281 -0.8841
   98TCq2    O4 1500   2.738   2.568  17.542 -0.1079 -0.0395 -0.4707
   98TCq2    C9 1501   2.558   2.115  17.206  0.1949 -0.0630 -0.1748
   98TCq2    O5 1502   2.622   2.146  17.101 -0.1488 -0.3345 -0.2914
   98TCq2    O6 1503   2.470   2.030  17.209 -0.3807 -0.2907 -0.0627
   98TCq2    H2 1504   2.397   2.091  17.402  2.1848 -1.3346 -3.2863
   98TCq2    H3 1505   2.727   2.313  17.247 -0.3494  2.5118  0.4426
   98TCq2    H4 1506   2.576   2.411  17.634 -1.0898  0.1380  0.8331
   99MPD2     C 1507   1.096   0.202   1.848  0.1372  0.2514 -0.4904
   99MPD2    C1 1508   1.105   0.102   1.751  0.0756 -0.3463 -0.4772
   99MPD2    C2 1509   1.222   0.058   1.698  0.0659  0.4610  0.4863
   99MPD2    C3 1510   1.336   0.117   1.740  0.1906  0.2200  0.0964
   99MPD2    C4 1511   1.329   0.218   1.834 -0.0385  0.0777 -0.4624
   99MPD2    C5 1512   1.215   0.255   1.893  0.3357  0.3539 -0.5375
   99MPD2     H 1513   1.210   4.699   1.627  0.3818 -1.5573  2.7421
   99MPD2    H1 1514   1.421   0.261   1.871 -2.0373  1.4949  2.8377
   99MPD2    H2 1515   1.002   0.228   1.896  0.5345  0.0290  0.3911
   99MPD2    H3 1516   1.216   0.326   1.974  1.3623  0.4215 -0.6182
   99MPD2     N 1517   1.459   0.072   1.675 -0.2192 -0.7994  0.0802
   99MPD2    H5 1518   1.449   0.013   1.593  0.7965  0.8149 -1.1875
   99MPD2    N1 1519   0.996   0.032   1.708 -0.2511 -0.0417  0.3411
   99MPD2    H7 1520   1.011   4.673   1.650 -0.1102 -0.0100  0.3344
  100TCq2    C1 1521   0.861   0.046   1.751 -0.2393 -0.0288 -0.1624
  100TCq2    O2 1522   0.808   0.113   1.843  0.3152 -0.3432 -0.2570
  100TCq2    C2 1523   0.776   4.678   1.676  0.2319 -0.4994  0.0982
  100TCq2    C3 1524   0.670   4.633   1.740 -0.2426  0.2689 -0.1299
  100TCq2    C4 1525   0.614   4.515   1.700  0.5155 -0.3575  0.9672
  100TCq2    C5 1526   0.660   4.447   1.593  0.0144 -0.5623 -0.7622
  100TCq2    C6 1527   0.760   4.504   1.521  0.5596  0.4770 -0.1047
  100TCq2    C7 1528   0.826   4.616   1.563  0.2424 -0.7797 -0.3646
  100TCq2    C8 1529   0.846   4.431   1.431  0.6258 -0.3314  0.5068
  100TCq2    O4 1530   0.936   4.482   1.364  0.4003  0.4784 -1.1393
  100TCq2    C9 1531   0.527   4.453   1.795 -1.0570  0.3607  0.5969
  100TCq2    O5 1532   0.517   4.327   1.789 -0.0484 -0.8853  0.5820
  100TCq2    O6 1533   0.495   4.522   1.895 -0.0354 -0.2146 -0.1036
  100TCq2    H2 1534   0.638   4.683   1.831  0.8337  2.9345 -1.2316
  100TCq2    H3 1535   0.603   4.360   1.562  1.0646 -2.1043  1.6425
  100TCq2    H4 1536   0.900   4.671   1.506 -0.4374  0.2201 -0.2927
  101MPD2     C 1537   2.246   4.691  12.972  0.0999  0.0091  0.2283
  101MPD2    C1 1538   2.130   0.014  13.029  0.4133  0.3304  0.6359
  101MPD2    C2 1539   2.080   4.671  13.139  0.1760  0.2859  0.4257
  101MPD2    C3 1540   2.138   4.557  13.193 -0.2539 -0.3790  0.1364
  101MPD2    C4 1541   2.251   4.510  13.129 -0.1658  0.6149  0.3741
  101MPD2    C5 1542   2.304   4.572  13.021 -1.1096 -0.4979 -0.0513
  101MPD2     H 1543   1.982   4.700  13.176 -1.5372 -1.1104 -3.0499
  101MPD2    H1 1544   2.308   4.427  13.170 -1.7161 -0.2832  0.7341
  101MPD2    H2 1545   2.286   0.022  12.887  0.0179 -0.1344  0.0988
  101MPD2    H3 1546   2.397   4.538  12.977 -1.1272  0.4223 -0.8130
  101MPD2     N 1547   2.081   4.496  13.303  0.4087 -0.0279 -0.2338
  101MPD2    H5 1548   2.011   4.548  13.354 -0.9802 -1.3135 -0.8163
  101MPD2    N1 1549   2.076   0.126  12.962  0.4186  0.0101 -0.3275
  101MPD2    H7 1550   2.125   0.152  12.877  1.2292  0.1764  0.1950
  102TCq2    C1 1551   2.095   0.494  12.644  0.4379  0.8580 -0.1113
  102TCq2    O2 1552   2.185   0.416  12.628  0.1761  0.5015  0.1174
  102TCq2    C2 1553   2.000   0.454  12.743  0.1877  0.3055  0.7947
  102TCq2    C3 1554   1.884   0.520  12.755 -0.0255 -0.1727 -0.1837
  102TCq2    C4 1555   1.796   0.472  12.848 -0.3379 -0.1440 -0.0875
  102TCq2    C5 1556   1.814   0.366  12.933  0.0913 -0.7705  0.0858
  102TCq2    C6 1557   1.933   0.308  12.918  0.7666  0.1524 -0.5630
  102TCq2    C7 1558   2.023   0.348  12.824  0.2398  0.6865 -0.6445
  102TCq2    C8 1559   1.956   0.188  12.995 -0.5277 -0.3251  0.8126
  102TCq2    O4 1560   1.876   0.167  13.086 -0.3547 -0.3847  0.6554
  102TCq2    C9 1561   1.666   0.537  12.865 -0.3131  0.0549 -0.3280
  102TCq2    O5 1562   1.651   0.644  12.801  0.3628  0.7967 -0.1803
  102TCq2    O6 1563   1.568   0.462  12.897  0.9050 -0.3118 -0.1424
  102TCq2    H2 1564   1.856   0.597  12.684  1.4136 -0.4868 -1.0976
  102TCq2    H3 1565   1.746   0.353  13.017 -0.5492 -1.8319 -0.5879
  102TCq2    H4 1566   2.116   0.294  12.807 -1.2672 -1.5050 -1.8784
  103TMC2    C1 1567   0.208   4.391  12.238 -0.2552  0.5795 -0.3511
  103TMC2    C2 1568   0.302   4.307  12.297 -0.0156  0.3315  0.1083
  103TMC2    C3 1569   0.401   4.358  12.377 -0.5154  1.3774  0.4498
  103TMC2    C4 1570   0.196   4.518  12.276 -0.4237 -0.2313 -0.2013
  103TMC2    C5 1571   0.294   4.563  12.366  0.2336  0.3487  0.8135
  103TMC2    C6 1572   0.397   4.488  12.416  0.1561  0.1589  0.9700
  103TMC2     C 1573   0.172   4.351  12.097  0.3807  0.6685  0.1323
  103TMC2     O 1574   0.204   4.438  12.017 -0.1941  0.2587  0.2298
  103TMC2     H 1575   0.317   4.204  12.269 -2.1087  0.4553 -1.4853
  103TMC2    H1 1576   0.129   4.582  12.220  1.1434  2.0143  0.4814
  103TMC2    H2 1577   0.467   4.532  12.487  1.5334 -1.0084  0.3454
  103TMC2    C7 1578   0.257   4.694  12.432  0.2995  0.4143 -0.4361
  103TMC2    C8 1579   0.523   4.279  12.395 -0.3805  0.1978 -0.5936
  103TMC2    O1 1580   0.343   0.023  12.508  0.2561  0.4731 -0.1629
  103TMC2    O2 1581   0.528   4.157  12.383  0.2293  0.0922 -0.3539
  103TMC2    O5 1582   0.621   4.363  12.363 -0.0709  0.6450 -0.1050
  103TMC2    H5 1583   0.586   4.451  12.337  0.4439  0.2669 -2.0599
  104MPD2     C 1584   4.697   4.068  11.966  0.0105 -0.2383  0.2630
  104MPD2    C1 1585   0.036   4.189  11.969  0.2635 -0.2457  0.7232
  104MPD2    C2 1586   0.042   4.256  11.850  0.6635 -0.1333  0.1788
  104MPD2    C3 1587   4.705   4.206  11.737  0.0313 -0.2698 -0.4594
  104MPD2    C4 1588   4.630   4.090  11.739  0.5540  0.3450 -0.5219
  104MPD2    C5 1589   4.625   4.021  11.857  0.1379  0.8060  0.1210
  104MPD2     H 1590   0.087   4.355  11.850 -1.1698  0.6994  0.4581
  104MPD2    H1 1591   4.559   4.063  11.662 -0.9929 -1.6068  1.5746
  104MPD2    H2 1592   4.689   3.997  12.048 -0.5518 -1.3094 -0.7133
  104MPD2    H3 1593   4.570   3.929  11.864  0.6522  0.5909  1.2495
  104MPD2     N 1594   0.016   4.278  11.616 -0.4545 -0.4087 -0.4204
  104MPD2    H5 1595   0.069   4.365  11.620 -2.8834  1.0292  0.1253
  104MPD2    N1 1596   0.099   4.233  12.088  0.0624 -0.2150  0.5778
  104MPD2    H7 1597   0.097   4.168  12.166 -1.4976 -1.8279 -0.7980
  105MPD2     C 1598   1.386   4.505  17.158 -0.7955  0.0759 -0.4633
  105MPD2    C1 1599   1.426   4.633  17.180 -0.0955 -0.1623 -0.5344
  105MPD2    C2 1600   1.403   4.695  17.303  0.2456  0.4145 -0.3233
  105MPD2    C3 1601   1.340   4.627  17.413 -0.3189  0.3895 -0.1299
  105MPD2    C4 1602   1.303   4.497  17.387 -0.0154  0.0062  0.3551
  105MPD2    C5 1603   1.306   4.444  17.258 -0.2268 -0.3570 -0.5929
  105MPD2     H 1604   1.419   0.079  17.305  1.1220  0.2585  1.3022
  105MPD2    H1 1605   1.252   4.436  17.461 -0.1359  0.6427  0.7999
  105MPD2    H2 1606   1.388   4.463  17.058  0.9809 -3.0618  0.8949
  105MPD2    H3 1607   1.289   4.338  17.244  1.1521 -0.7131  0.4397
  105MPD2     N 1608   1.323   4.692  17.543  0.0689 -0.0914 -0.2610
  105MPD2    H5 1609   1.363   0.062  17.557  2.6223 -0.9773 -1.7595
  105MPD2    N1 1610   1.486   4.718  17.082 -0.0410 -0.4966 -0.5172
  105MPD2    H7 1611   1.489   0.094  17.104 -0.9647 -0.9355  1.5891
  106TCq2    C1 1612   1.257   4.638  17.655  0.1089 -0.6624 -0.7806
  106TCq2    O2 1613   1.200   4.532  17.667 -0.3119 -0.0494  0.2974
  106TCq2    C2 1614   1.253   0.009   0.074 -0.3719 -0.1769  0.5740
  106TCq2    C3 1615   1.263   0.141   0.055  0.4092  0.1852 -0.4242
  106TCq2    C4 1616   1.233   0.221   0.160 -0.5690  0.3105  0.1424
  106TCq2    C5 1617   1.199   0.178   0.281 -0.0512 -0.2444 -0.0162
  106TCq2    C6 1618   1.186   0.037   0.298  0.8119 -0.3230 -0.0289
  106TCq2    C7 1619   1.214   4.676   0.192 -0.3644  1.0631  0.1028
  106TCq2    C8 1620   1.126   4.696   0.420  0.5314 -0.1331 -0.7322
  106TCq2    O4 1621   1.091   4.583   0.420  0.2739  0.4463  0.5286
  106TCq2    C9 1622   1.222   0.357   0.138  0.3156  0.1844 -0.0128
  106TCq2    O5 1623   1.111   0.405   0.171 -0.1313  0.1416  0.2035
  106TCq2    O6 1624   1.318   0.424   0.094 -0.3374  0.3110  0.2400
  106TCq2    H2 1625   1.274   0.185  17.649  0.3337 -2.1231 -1.4613
  106TCq2    H3 1626   1.171   0.255   0.352  1.2006 -0.3285  0.5737
  106TCq2    H4 1627   1.198   4.569   0.201  0.7031  0.8905 -0.0921
  107TMC2    C1 1628   2.719   3.615  11.437 -0.3577  0.6290  0.2380
  107TMC2    C2 1629   2.686   3.728  11.365  0.0454  0.2362  0.5079
  107TMC2    C3 1630   2.778   3.758  11.262 -0.5291  0.4914 -0.5498
  107TMC2    C4 1631   2.814   3.524  11.409 -0.2893 -0.1619  0.0357
  107TMC2    C5 1632   2.887   3.553  11.296 -0.4375 -0.4188  0.2903
  107TMC2    C6 1633   2.880   3.672  11.227  0.1348 -0.0125 -0.3137
  107TMC2     C 1634   2.639   3.586  11.552 -0.3044 -0.5566 -0.0463
  107TMC2     O 1635   2.529   3.642  11.556 -0.2193  0.1101  0.1365
  107TMC2     H 1636   2.622   3.806  11.404  0.7206  0.1058  1.8820
  107TMC2    H1 1637   2.838   3.437  11.469 -1.3512 -1.0642 -0.8405
  107TMC2    H2 1638   2.956   3.692  11.151  0.2970 -3.5255 -1.0903
  107TMC2    C7 1639   3.026   3.507  11.316  0.4596 -0.5382 -0.3297
  107TMC2    C8 1640   2.789   3.902  11.237  0.3441 -0.1337  0.0353
  107TMC2    O1 1641   3.065   3.521  11.430  0.3948 -0.2020  0.4211
  107TMC2    O2 1642   2.686   3.972  11.230 -0.4682 -0.4247 -0.6185
  107TMC2    O5 1643   2.916   3.947  11.238 -0.3184 -0.1023 -0.1846
  107TMC2    H5 1644   2.978   3.875  11.261 -0.3920 -0.0677  0.1137
  108MPD2     C 1645   2.776   3.452  11.854  0.2684 -0.8766  0.5636
  108MPD2    C1 1646   2.677   3.499  11.771  0.1826 -0.2084 -0.4962
  108MPD2    C2 1647   2.561   3.535  11.833  0.6187  0.0771 -0.1629
  108MPD2    C3 1648   2.547   3.533  11.973  0.0384 -0.2987  0.0307
  108MPD2    C4 1649   2.653   3.502  12.054  0.3286  0.1681 -0.7187
  108MPD2    C5 1650   2.766   3.465  11.993  0.7734 -0.7647  0.1051
  108MPD2     H 1651   2.479   3.573  11.774 -0.4079 -0.5327  0.8744
  108MPD2    H1 1652   2.647   3.483  12.160  0.9448 -0.3820 -0.7837
  108MPD2    H2 1653   2.872   3.427  11.810  0.0534 -1.5716  0.4878
  108MPD2    H3 1654   2.854   3.432  12.047  1.5675  1.5141  0.1764
  108MPD2     N 1655   2.434   3.570  12.050 -0.0685  0.1285  0.0495
  108MPD2    H5 1656   2.452   3.559  12.149 -0.4113 -0.2134  0.0746
  108MPD2    N1 1657   2.706   3.503  11.636  0.0728 -0.0187 -0.1771
  108MPD2    H7 1658   2.803   3.478  11.616  0.1603  0.3002 -0.1501
  109MPD2     C 1659   1.937   2.052   2.062 -0.6829 -0.8409 -0.3847
  109MPD2    C1 1660   1.935   1.984   1.944 -0.1652 -0.1862 -1.1424
  109MPD2    C2 1661   2.055   1.979   1.874 -0.2670  0.2163 -0.2357
  109MPD2    C3 1662   2.170   2.044   1.913 -0.3617  0.0310  0.0664
  109MPD2    C4 1663   2.164   2.107   2.035 -0.2009  0.4379 -0.2055
  109MPD2    C5 1664   2.054   2.107   2.115 -0.8458 -0.4023 -0.1867
  109MPD2     H 1665   2.054   1.927   1.779  0.6455  1.5250 -0.9680
  109MPD2    H1 1666   2.240   2.172   2.078  0.7594 -1.1349  0.4737
  109MPD2    H2 1667   1.852   2.066   2.127 -0.8260 -0.9297 -0.5544
  109MPD2    H3 1668   2.045   2.165   2.206  1.0764  0.3653 -0.4715
  109MPD2     N 1669   2.280   2.038   1.824  0.3594 -0.0198  0.0066
  109MPD2    H5 1670   2.268   2.001   1.731 -1.4382 -0.9326  0.6176
  109MPD2    N1 1671   1.809   1.936   1.896 -0.2604  0.0489 -0.2435
  109MPD2    H7 1672   1.727   1.964   1.947  0.5536 -0.2905  1.2470
  110TCq2    C1 1673   2.400   2.098   1.841  0.0391  0.0175  0.3220
  110TCq2    O2 1674   2.441   2.142   1.949 -0.0601  0.4762  0.4556
  110TCq2    C2 1675   2.497   2.078   1.734 -0.2830  0.4348 -1.1279
  110TCq2    C3 1676   2.630   2.073   1.769 -0.3172  0.6833  0.3648
  110TCq2    C4 1677   2.718   2.065   1.667  0.9595  0.5857 -0.3202
  110TCq2    C5 1678   2.677   2.076   1.540 -0.5901  0.2585  0.3651
  110TCq2    C6 1679   2.542   2.081   1.506 -0.3398  1.0124 -0.9284
  110TCq2    C7 1680   2.450   2.083   1.603  0.2721 -0.2013  0.2162
  110TCq2    C8 1681   2.495   2.084   1.365 -0.5570  0.1941 -0.1077
  110TCq2    O4 1682   2.376   2.085   1.339 -0.1627  0.1005 -0.4937
  110TCq2    C9 1683   2.857   2.027   1.687 -0.5192 -0.3289 -0.0477
  110TCq2    O5 1684   2.925   2.001   1.584 -0.3461 -0.3595 -0.1823
  110TCq2    O6 1685   2.898   2.027   1.808  1.0017 -0.2604 -0.0149
  110TCq2    H2 1686   2.664   2.052   1.870  0.2036 -0.7418 -0.1052
  110TCq2    H3 1687   2.750   2.051   1.464 -0.7754 -0.6550  0.4791
  110TCq2    H4 1688   2.346   2.105   1.583 -0.0354 -0.2016  1.7804
  111TMC2    C1 1689   2.718   0.697  11.323  0.2136  0.5409  0.1902
  111TMC2    C2 1690   2.811   0.690  11.223  0.3595  0.4358  0.2916
  111TMC2    C3 1691   2.920   0.611  11.234 -1.2833  0.1254 -0.5775
  111TMC2    C4 1692   2.730   0.625  11.432  0.6764 -0.6527  0.3444
  111TMC2    C5 1693   2.841   0.545  11.442 -0.3551 -0.4577 -1.2621
  111TMC2    C6 1694   2.934   0.525  11.341  0.1488  0.9452  0.0285
  111TMC2     C 1695   2.600   0.790  11.313 -0.1182  0.3289 -0.3867
  111TMC2     O 1696   2.566   0.834  11.205  0.5517 -0.1165 -0.4158
  111TMC2     H 1697   2.791   0.742  11.130  1.1188 -0.6097 -0.4552
  111TMC2    H1 1698   2.666   0.620  11.520 -1.3033  0.8420 -1.0062
  111TMC2    H2 1699   3.007   0.444  11.342 -1.8391 -0.8522  1.2883
  111TMC2    C7 1700   2.873   0.502  11.574  0.0638 -0.2171 -0.0838
  111TMC2    C8 1701   2.988   0.563  11.113  0.0907  0.3002 -0.5191
  111TMC2    O1 1702   2.782   0.507  11.655 -0.3068 -0.9766 -0.1932
  111TMC2    O2 1703   3.009   0.443  11.101  0.2346  0.2113  0.0002
  111TMC2    O5 1704   2.984   0.656  11.011  0.0609 -0.0665  0.5156
  111TMC2    H5 1705   2.975   0.748  11.044 -0.0877  0.7061 -1.6839
  112MPD2     C 1706   2.196   1.024  11.516 -0.1012 -0.2071  0.2245
  112MPD2    C1 1707   2.242   1.035  11.386 -0.1123 -0.2109  0.1398
  112MPD2    C2 1708   2.348   0.954  11.351 -0.2027  0.1098  0.0211
  112MPD2    C3 1709   2.420   0.894  11.455 -0.2410 -0.6448 -0.0474
  112MPD2    C4 1710   2.379   0.897  11.588 -1.0906 -0.3841 -0.2594
  112MPD2    C5 1711   2.270   0.969  11.615 -0.6596  0.0637  0.8990
  112MPD2     H 1712   2.385   0.948  11.250 -0.2621 -2.2588  0.1300
  112MPD2    H1 1713   2.439   0.845  11.662  0.2484  2.3203  0.5835
  112MPD2    H2 1714   2.107   1.081  11.541  1.6625  1.1733  3.2928
  112MPD2    H3 1715   2.246   0.991  11.718 -0.9565  1.0016  0.6277
  112MPD2     N 1716   2.536   0.810  11.435  1.5271 -0.0783  0.0491
  112MPD2    H5 1717   2.576   0.763  11.515  1.7599  0.5800  0.3187
  112MPD2    N1 1718   2.188   1.130  11.289  0.3658  0.3568 -0.1481
  112MPD2    H7 1719   2.226   1.125  11.195 -1.2239 -0.4093 -0.7646
  113MPD2     C 1720   0.423   3.711   1.004  0.5130 -0.4141 -0.4319
  113MPD2    C1 1721   0.397   3.846   0.973 -0.1886 -0.0197  0.8954
  113MPD2    C2 1722   0.294   3.881   0.902  0.0609  0.1643 -0.8842
  113MPD2    C3 1723   0.202   3.790   0.857  0.2692 -0.3832  0.3199
  113MPD2    C4 1724   0.224   3.657   0.888 -0.2883 -0.7568 -0.3582
  113MPD2    C5 1725   0.334   3.619   0.967  0.4431  0.8732 -0.2247
  113MPD2     H 1726   0.269   3.987   0.905  0.1728  0.2392 -2.9169
  113MPD2    H1 1727   0.165   3.570   0.861 -0.9916 -0.2710 -0.4113
  113MPD2    H2 1728   0.506   3.674   1.064  0.7344 -1.2592 -1.2531
  113MPD2    H3 1729   0.340   3.516   1.003  0.0475  1.2782  1.0224
  113MPD2     N 1730   0.077   3.821   0.793  0.6085  0.5373 -0.4460
  113MPD2    H5 1731   0.010   3.745   0.796  0.7938  0.3440 -1.2965
  113MPD2    N1 1732   0.487   3.945   1.022  0.4969 -0.0124 -0.3451
  113MPD2    H7 1733   0.461   4.041   1.001  3.3327  0.6285 -0.8824
  114TCq2    C1 1734   0.041   3.952   0.760 -0.3325 -0.1374 -0.3581
  114TCq2    O2 1735   0.114   4.046   0.735  0.0314 -0.5215 -0.0217
  114TCq2    C2 1736   4.618   3.967   0.738  0.5909 -0.2055  0.0100
  114TCq2    C3 1737   4.580   4.092   0.683  0.2925 -0.1171  0.8987
  114TCq2    C4 1738   4.450   4.121   0.665 -0.1304  0.9822  0.6917
  114TCq2    C5 1739   4.350   4.030   0.698  0.1809  0.2024  0.0123
  114TCq2    C6 1740   4.390   3.910   0.759 -1.0265 -0.1408 -0.4233
  114TCq2    C7 1741   4.519   3.882   0.783  0.2425  0.7751  0.0809
  114TCq2    C8 1742   4.284   3.810   0.782  0.3162  0.2922 -0.4119
  114TCq2    O4 1743   4.186   3.823   0.715 -0.7524  0.5393  0.1577
  114TCq2    C9 1744   4.415   4.248   0.604  0.1155 -0.0565  0.0164
  114TCq2    O5 1745   4.292   4.263   0.575  0.1103 -0.7733  0.6778
  114TCq2    O6 1746   4.501   4.335   0.594  0.3933 -0.4267  0.7169
  114TCq2    H2 1747   4.650   4.172   0.662 -0.5017 -0.3855 -2.7014
  114TCq2    H3 1748   4.249   4.066   0.680 -0.0209 -0.0712  0.5981
  114TCq2    H4 1749   4.542   3.782   0.817  3.6625  1.5053 -0.0602
  115TMC2    C1 1750   1.126   2.632  17.446 -0.2798  0.1104 -0.8048
  115TMC2    C2 1751   1.064   2.656  17.320 -0.2573 -0.0880  0.1261
  115TMC2    C3 1752   1.086   2.781  17.261 -0.6228  0.3656 -0.2258
  115TMC2    C4 1753   1.184   2.732  17.518 -0.2498  0.2048  0.0484
  115TMC2    C5 1754   1.189   2.857  17.464 -0.6325  0.3424 -0.1185
  115TMC2    C6 1755   1.148   2.885  17.333 -0.0001 -0.2384 -0.1851
  115TMC2     C 1756   1.123   2.495  17.494 -0.4907 -0.2220 -0.3790
  115TMC2     O 1757   1.047   2.419  17.445  0.5302  0.3990 -0.3624
  115TMC2     H 1758   1.007   2.582  17.265  2.2513 -2.5352  0.8512
  115TMC2    H1 1759   1.235   2.721  17.613  0.9589 -0.2408 -0.6546
  115TMC2    H2 1760   1.150   2.988  17.300  0.0065 -0.4757 -0.9388
  115TMC2    C7 1761   1.286   2.937  17.527 -0.8990 -0.1107  0.1583
  115TMC2    C8 1762   1.024   2.820  17.135  0.3276 -0.2636  0.0371
  115TMC2    O1 1763   1.269   2.947  17.649  0.0554  0.2954 -0.2179
  115TMC2    O2 1764   1.026   2.737  17.047  0.4434 -0.3966  0.2527
  115TMC2    O5 1765   0.920   2.906  17.168 -0.0314 -0.3546  0.1785
  115TMC2    H5 1766   0.919   2.946  17.258  0.7627  0.6329 -0.2502
  116MPD2     C 1767   1.341   2.134   0.104  0.3143 -0.1344 -0.5539
  116MPD2    C1 1768   1.256   2.119  17.688  0.7232  0.8935  0.3468
  116MPD2    C2 1769   1.221   2.234  17.619 -0.9774  0.0890  0.0028
  116MPD2    C3 1770   1.255   2.363  17.661 -0.6796  0.7910  0.4412
  116MPD2    C4 1771   1.349   2.373   0.070 -0.5697 -0.6125 -0.1259
  116MPD2    C5 1772   1.392   2.260   0.132  0.2240  0.5794 -0.6937
  116MPD2     H 1773   1.140   2.225  17.547 -0.9724  1.3363 -0.1698
  116MPD2    H1 1774   1.396   2.465   0.103  0.6134 -0.2348 -2.8170
  116MPD2    H2 1775   1.360   2.053   0.174 -0.4964  0.5134  0.4176
  116MPD2    H3 1776   1.457   2.273   0.218 -2.7033  1.5368  1.4077
  116MPD2     N 1777   1.205   2.483  17.602 -0.0626 -0.0949  0.6403
  116MPD2    H5 1778   1.243   2.569  17.639 -1.5422  0.3675  1.0845
  116MPD2    N1 1779   1.198   1.989  17.666 -0.2094  0.2712  0.0351
  116MPD2    H7 1780   1.228   1.917   0.039  3.6409  3.0265  1.3439
  117TMC2    C1 1781   4.586   3.186  14.182 -0.3400  0.5495  0.1964
  117TMC2    C2 1782   4.565   3.127  14.308 -1.0817  0.2145  0.1107
  117TMC2    C3 1783   4.566   3.199  14.420 -0.4333 -0.0598  0.6125
  117TMC2    C4 1784   4.621   3.318  14.173  0.5134  0.1188  0.1778
  117TMC2    C5 1785   4.632   3.385  14.293 -0.1375  0.0554 -0.0488
  117TMC2    C6 1786   4.604   3.333  14.417  0.2569  0.4840  0.4651
  117TMC2     C 1787   4.568   3.099  14.067  0.6678 -0.4485 -0.0421
  117TMC2     O 1788   4.553   2.977  14.089 -0.9254  0.0362  0.2539
  117TMC2     H 1789   4.540   3.022  14.310 -2.2132  0.5215  2.6207
  117TMC2    H1 1790   4.658   3.360  14.080  0.9227 -1.6599 -0.4752
  117TMC2    H2 1791   4.619   3.384  14.512 -0.3195 -2.5743  2.1977
  117TMC2    C7 1792   4.707   3.512  14.286 -0.0734 -0.1599  1.0266
  117TMC2    C8 1793   4.486   3.151  14.526  0.3711 -0.0082 -0.6769
  117TMC2    O1 1794   4.698   3.575  14.182  0.2741  0.4389  0.4592
  117TMC2    O2 1795   4.427   3.226  14.602 -0.3095  0.4228 -0.0820
  117TMC2    O5 1796   4.519   3.022  14.560 -0.4002  0.6238  0.1801
  117TMC2    H5 1797   4.591   2.986  14.503 -0.3223 -2.0547  1.9731
  118MPD2     C 1798   0.266   3.627  14.495  0.1688  0.6578 -0.3089
  118MPD2    C1 1799   0.156   3.643  14.407  0.4644 -0.0273  0.3879
  118MPD2    C2 1800   0.148   3.764  14.339 -0.6602 -0.0415  0.7956
  118MPD2    C3 1801   0.246   3.861  14.343 -0.3834  0.1545 -0.2837
  118MPD2    C4 1802   0.345   3.848  14.436  0.0399 -0.0787  1.7084
  118MPD2    C5 1803   0.355   3.732  14.512  1.2449 -0.0831  0.1121
  118MPD2     H 1804   0.057   3.779  14.282  2.0651  1.8775 -3.0204
  118MPD2    H1 1805   0.417   3.928  14.451  1.3690 -0.9208 -0.1264
  118MPD2    H2 1806   0.283   3.535  14.549  2.0269  1.7409  0.9373
  118MPD2    H3 1807   0.429   3.730  14.590  2.3373 -3.2919 -0.9966
  118MPD2     N 1808   0.244   3.975  14.259  0.3548 -0.3708  0.5852
  118MPD2    H5 1809   0.320   4.042  14.266 -0.9028  1.2739 -1.5530
  118MPD2    N1 1810   0.071   3.534  14.392  0.3302 -0.2803 -0.2912
  118MPD2    H7 1811   0.090   3.450  14.446  0.1217 -1.8672 -2.7036
  119MPD2     C 1812   3.013   4.695  13.070  0.3623 -0.1716 -0.0706
  119MPD2    C1 1813   3.032   4.569  13.118  0.7851  0.8849  0.2519
  119MPD2    C2 1814   3.045   4.467  13.031 -0.1761 -0.8420  0.6295
  119MPD2    C3 1815   3.054   4.489  12.892  0.4250  0.6820  0.5776
  119MPD2    C4 1816   3.048   4.622  12.846 -0.4809 -0.5650  0.2205
  119MPD2    C5 1817   3.019   4.717  12.936 -0.3226 -0.6194  0.8907
  119MPD2     H 1818   3.073   4.372  13.073  1.1082 -0.6390  0.2177
  119MPD2    H1 1819   3.048   4.649  12.741  1.1842  0.1061  0.3843
  119MPD2    H2 1820   2.993   0.053  13.139 -0.6028 -1.1291  0.7699
  119MPD2    H3 1821   3.009   0.093  12.891 -0.7227 -1.3264 -0.5552
  119MPD2     N 1822   3.075   4.382  12.805 -0.0147 -0.2232  0.0710
  119MPD2    H5 1823   3.124   4.412  12.720  0.5079 -0.5401  0.2579
  119MPD2    N1 1824   3.009   4.553  13.259  0.7014 -0.1919 -0.4042
  119MPD2    H7 1825   2.983   4.640  13.304 -1.8362 -2.3353  2.3493
  120TCq2    C1 1826   3.057   4.244  12.824  0.5336 -0.9197 -0.0903
  120TCq2    O2 1827   3.005   4.187  12.921  0.0696 -0.8491 -0.1165
  120TCq2    C2 1828   3.128   4.169  12.730 -0.1978  0.1229 -0.3935
  120TCq2    C3 1829   3.251   4.220  12.707  1.1051 -0.8254  0.2121
  120TCq2    C4 1830   3.350   4.128  12.693 -0.4366  0.1413 -0.1804
  120TCq2    C5 1831   3.337   3.994  12.720  0.0284  0.5975  0.0934
  120TCq2    C6 1832   3.213   3.949  12.745  0.2662 -0.1365 -0.0885
  120TCq2    C7 1833   3.108   4.038  12.751 -0.5289 -0.6835 -0.2490
  120TCq2    C8 1834   3.199   3.820  12.815 -0.2900  0.9601  0.3077
  120TCq2    O4 1835   3.276   3.734  12.780 -0.1378 -0.6311 -0.3076
  120TCq2    C9 1836   3.475   4.184  12.663 -1.0224 -0.0052  0.9014
  120TCq2    O5 1837   3.576   4.110  12.667  0.0311  0.0819 -0.7058
  120TCq2    O6 1838   3.483   4.305  12.677 -0.4806 -0.2123 -0.6146
  120TCq2    H2 1839   3.277   4.325  12.700  0.1761 -0.6992 -1.4273
  120TCq2    H3 1840   3.423   3.928  12.714 -0.8789 -0.6819  1.1495
  120TCq2    H4 1841   3.006   4.003  12.761 -0.5133 -1.2827 -2.1463
  121TMC2    C1 1842   4.512   1.253  14.059 -0.0586 -0.1658 -0.0403
  121TMC2    C2 1843   4.500   1.160  14.158  0.1687  0.3873  0.3615
  121TMC2    C3 1844   4.383   1.086  14.167  0.0582  0.1352 -0.0065
  121TMC2    C4 1845   4.425   1.272  13.960  0.5116  0.3555  0.6613
  121TMC2    C5 1846   4.307   1.199  13.971  0.6027 -0.1615 -0.5822
  121TMC2    C6 1847   4.288   1.110  14.075 -0.1341  0.0546 -0.0003
  121TMC2     C 1848   4.627   1.345  14.069 -0.2552 -0.1345 -0.0088
  121TMC2     O 1849   4.668   1.367  14.181  0.3413 -0.0494 -0.2533
  121TMC2     H 1850   4.581   1.153  14.229 -0.0067 -1.1858  0.4065
  121TMC2    H1 1851   4.443   1.339  13.876  1.9000  0.9183  1.4246
  121TMC2    H2 1852   4.201   1.046  14.075  0.1679 -0.3471 -1.9373
  121TMC2    C7 1853   4.200   1.237  13.877 -0.4750  0.2110 -0.0281
  121TMC2    C8 1854   4.359   1.029  14.292 -0.2173 -0.4538  0.3068
  121TMC2    O1 1855   4.231   1.317  13.790 -0.3774  0.8786 -0.1157
  121TMC2    O2 1856   4.447   1.002  14.375  1.0115  0.2553  0.1802
  121TMC2    O5 1857   4.231   0.973  14.287 -0.1622 -0.2737 -0.1343
  121TMC2    H5 1858   4.167   1.028  14.237 -0.8610 -0.4122  0.5973
  122MPD2     C 1859   0.069   1.597  14.049  1.0095 -0.6024 -0.7128
  122MPD2    C1 1860   4.703   1.553  13.958  0.0223 -0.3541  0.4392
  122MPD2    C2 1861   4.680   1.636  13.845  0.1361  1.1996  0.0811
  122MPD2    C3 1862   0.027   1.759  13.835  0.0573 -0.2165  0.1164
  122MPD2    C4 1863   0.124   1.789  13.926 -0.3175  0.6687  0.2935
  122MPD2    C5 1864   0.147   1.706  14.030 -0.0257  0.1335  0.1888
  122MPD2     H 1865   4.611   1.602  13.768  0.9817 -0.8785  0.2507
  122MPD2    H1 1866   0.189   1.875  13.915 -0.5514  0.6056 -1.4455
  122MPD2    H2 1867   0.089   1.542  14.140 -0.3648  1.7965  1.0278
  122MPD2    H3 1868   0.219   1.741  14.103  0.2712  0.1470 -0.1131
  122MPD2     N 1869   0.022   1.847  13.722 -0.5725  0.0091 -0.2688
  122MPD2    H5 1870   0.090   1.922  13.718 -1.3558  0.7115 -0.3789
  122MPD2    N1 1871   4.631   1.435  13.962 -0.6319 -0.2074 -0.2070
  122MPD2    H7 1872   4.558   1.416  13.893 -1.4783  1.4858  0.2228
  123MPD2     C 1873   2.331   3.634  10.232 -0.4818 -0.1648  0.1396
  123MPD2    C1 1874   2.340   3.679  10.106 -0.0417  0.0896  0.5146
  123MPD2    C2 1875   2.464   3.661  10.038  0.2333  0.2734 -0.2557
  123MPD2    C3 1876   2.576   3.621  10.115  0.9838 -0.5977 -0.4733
  123MPD2    C4 1877   2.565   3.578  10.245 -0.0122  0.5252  0.4236
  123MPD2    C5 1878   2.440   3.586  10.297  0.2790 -0.8102  0.4069
  123MPD2     H 1879   2.473   3.679   9.932  0.8822  1.5916  0.0200
  123MPD2    H1 1880   2.640   3.543  10.315  0.8099  0.9776 -0.2397
  123MPD2    H2 1881   2.239   3.648  10.289  1.6255  1.7130  3.1122
  123MPD2    H3 1882   2.435   3.563  10.403 -0.0810  0.0554  0.5803
  123MPD2     N 1883   2.704   3.619  10.052  0.5641 -0.0888 -0.1123
  123MPD2    H5 1884   2.706   3.653   9.956 -1.2302 -1.1580 -0.5352
  123MPD2    N1 1885   2.218   3.725  10.047  0.0078  0.2978 -0.1052
  123MPD2    H7 1886   2.135   3.704  10.102 -0.3686 -2.3928 -1.7210
  124TCq2    C1 1887   2.818   3.580  10.106  0.4603  0.9198 -0.0471
  124TCq2    O2 1888   2.848   3.521  10.214  0.6420 -0.5642 -0.0779
  124TCq2    C2 1889   2.920   3.588  10.001 -0.2158 -0.2902  0.5527
  124TCq2    C3 1890   3.048   3.607  10.037 -0.0399  0.4449 -0.2658
  124TCq2    C4 1891   3.147   3.596   9.937 -0.4505 -0.3056 -0.1925
  124TCq2    C5 1892   3.120   3.538   9.814  1.2027  0.1638  0.3360
  124TCq2    C6 1893   2.989   3.492   9.796 -0.5782 -0.6421  0.3186
  124TCq2    C7 1894   2.892   3.521   9.885  0.6200 -0.1293 -0.5190
  124TCq2    C8 1895   2.956   3.409   9.681 -0.5006  0.3237 -0.5974
  124TCq2    O4 1896   3.021   3.420   9.578 -0.3717  0.5955 -0.4021
  124TCq2    C9 1897   3.286   3.624   9.965  0.0506 -0.2597 -0.2846
  124TCq2    O5 1898   3.323   3.622  10.085  0.2527 -0.1657 -0.3194
  124TCq2    O6 1899   3.364   3.635   9.867 -0.3231 -0.1029  0.4368
  124TCq2    H2 1900   3.066   3.660  10.130 -0.5598  1.8256 -0.9447
  124TCq2    H3 1901   3.192   3.498   9.745 -0.0227 -1.3858 -0.0386
  124TCq2    H4 1902   2.792   3.488   9.861 -0.0572  2.3261 -1.0938
  125TMC2    C1 1903   4.260   2.536   8.713 -0.1990 -0.0307  0.0563
  125TMC2    C2 1904   4.171   2.626   8.654  0.1819 -0.3467  0.0072
  125TMC2    C3 1905   4.040   2.623   8.701  0.5981  0.8057 -0.9543
  125TMC2    C4 1906   4.226   2.445   8.810 -0.6246  0.1521  0.2025
  125TMC2    C5 1907   4.096   2.443   8.853 -0.0936  0.4607 -0.0152
  125TMC2    C6 1908   4.005   2.530   8.803  0.0369  0.6741  0.2080
  125TMC2     C 1909   4.393   2.578   8.711 -0.1758  0.0952 -0.2965
  125TMC2     O 1910   4.469   2.491   8.741  0.1466 -0.0934 -0.0440
  125TMC2     H 1911   4.192   2.682   8.563  2.2102 -0.3463  0.4864
  125TMC2    H1 1912   4.303   2.388   8.861 -0.6938  1.5801  1.8611
  125TMC2    H2 1913   3.901   2.522   8.833 -0.1432 -0.0520 -0.6003
  125TMC2    C7 1914   4.042   2.336   8.928  0.2491 -0.3519  1.1663
  125TMC2    C8 1915   3.954   2.729   8.661 -0.4539 -0.0435  0.3256
  125TMC2    O1 1916   3.921   2.332   8.952 -0.0858  0.1331 -0.1150
  125TMC2    O2 1917   3.948   2.771   8.547 -0.0495  0.2590  0.2422
  125TMC2    O5 1918   3.925   2.799   8.770 -0.3834 -0.8162  0.5568
  125TMC2    H5 1919   3.977   2.775   8.849  0.5245 -0.7037 -0.0126
  126MPD1     C 1920   0.019   2.954   8.676 -0.9553  0.4279 -0.1997
  126MPD1    C1 1921   4.620   3.012   8.662 -0.7497  0.0034 -0.1397
  126MPD1    C2 1922   4.513   2.929   8.673  0.4459  0.2705  0.0865
  126MPD1    C3 1923   4.523   2.790   8.698 -0.0719 -0.9508 -1.1262
  126MPD1    C4 1924   4.644   2.737   8.716  0.0664 -0.3981  0.3354
  126MPD1    C5 1925   0.035   2.820   8.712  0.6982  0.2923  0.4114
  126MPD1     H 1926   4.416   2.979   8.669  1.3393  2.0070 -0.1130
  126MPD1    H1 1927   4.662   2.634   8.747  0.9024 -0.2264  0.4193
  126MPD1    H2 1928   0.110   3.002   8.643  0.0619 -1.4056 -0.0410
  126MPD1    H3 1929   0.129   2.770   8.731 -0.3592 -1.3907  1.2222
  126MPD1     N 1930   4.401   2.720   8.698  0.4466 -0.0428 -0.1763
  126MPD1    H5 1931   4.317   2.776   8.693 -0.7025 -1.8063 -0.5233
  126MPD1    N1 1932   4.616   3.139   8.611 -0.0094  0.0373  0.0691
  126MPD1    H6 1933   4.532   3.187   8.645 -0.1674 -1.9984  2.5546
  126MPD1    H7 1934   4.699   3.193   8.637  0.8417 -1.0491 -0.3788
  127MPD2     C 1935   4.654   0.422   9.659  1.2525  0.6208 -0.5956
  127MPD2    C1 1936   0.047   0.383   9.728  0.5953 -0.3667 -0.7484
  127MPD2    C2 1937   0.162   0.459   9.716 -0.4112 -0.0402 -0.2682
  127MPD2    C3 1938   0.164   0.556   9.620  0.4452  0.2554 -0.1341
  127MPD2    C4 1939   0.060   0.578   9.537  0.6679  0.1962  0.4839
  127MPD2    C5 1940   4.660   0.520   9.563 -0.4323 -0.1277  0.6993
  127MPD2     H 1941   0.240   0.446   9.791 -1.5063 -2.1886  0.4819
  127MPD2    H1 1942   0.062   0.654   9.459  0.3769  0.2081  0.4880
  127MPD2    H2 1943   4.558   0.375   9.678  0.6426  2.4410  0.7916
  127MPD2    H3 1944   4.568   0.533   9.506 -0.5895 -0.3656  0.8999
  127MPD2     N 1945   0.278   0.640   9.626  0.2898 -0.5141 -0.1549
  127MPD2    H5 1946   0.345   0.610   9.696  0.6237  2.9545  0.9733
  127MPD2    N1 1947   0.027   0.292   9.827  0.7789 -1.0476  0.3660
  127MPD2    H7 1948   4.659   0.247   9.825 -1.0566  2.6135  1.2004
  128TCq2    C1 1949   0.119   0.229   9.905 -0.0746  0.1971 -0.3853
  128TCq2    O2 1950   0.237   0.250   9.929  0.6565 -0.2754  0.1487
  128TCq2    C2 1951   0.044   0.115   9.963 -0.1923  0.4049 -0.2749
  128TCq2    C3 1952   4.636   0.131  10.012 -0.1679 -0.1167  0.0784
  128TCq2    C4 1953   4.572   0.012  10.036 -0.0348  0.1249 -0.2006
  128TCq2    C5 1954   4.636   4.614  10.036  0.3846 -0.3363  0.4788
  128TCq2    C6 1955   0.041   4.607   9.996  1.0362  0.3053 -1.0998
  128TCq2    C7 1956   0.110   4.718   9.956  0.3767 -0.0361  0.2890
  128TCq2    C8 1957   0.083   4.476   9.946 -0.9775  0.2705  0.2546
  128TCq2    O4 1958   0.207   4.456   9.939 -0.3466 -0.0100 -0.1207
  128TCq2    C9 1959   4.436   0.027  10.083  0.9485  0.1637 -0.2553
  128TCq2    O5 1960   4.392   0.141  10.115  0.2434  0.6600  0.2984
  128TCq2    O6 1961   4.360   4.649  10.075  0.6203  0.3419 -0.7158
  128TCq2    H2 1962   4.594   0.230  10.026 -0.4408  0.1384 -2.5990
  128TCq2    H3 1963   4.575   4.527  10.055  1.4034 -1.1971 -0.2234
  128TCq2    H4 1964   0.208   4.703   9.910  0.0425  0.9765 -0.7708
  129MPD2     C 1965   2.424   1.679   0.621 -0.2378  0.2600  0.6780
  129MPD2    C1 1966   2.554   1.685   0.674 -0.2537 -0.0037  0.0351
  129MPD2    C2 1967   2.658   1.713   0.592  0.1041 -0.0970  0.0760
  129MPD2    C3 1968   2.639   1.763   0.462  0.3506 -0.6058  0.4909
  129MPD2    C4 1969   2.512   1.757   0.405 -0.4509 -0.1940 -0.5434
  129MPD2    C5 1970   2.405   1.720   0.486  0.2472  0.4130  0.3043
  129MPD2     H 1971   2.753   1.709   0.645  0.1433  1.9434  0.1542
  129MPD2    H1 1972   2.493   1.791   0.304 -0.7305 -0.6953 -0.6567
  129MPD2    H2 1973   2.339   1.640   0.676 -0.0883 -0.0232  0.7106
  129MPD2    H3 1974   2.303   1.726   0.449  0.0344 -1.3674  0.6032
  129MPD2     N 1975   2.752   1.810   0.391  0.2241  0.6257  0.0232
  129MPD2    H5 1976   2.827   1.845   0.449  1.4325 -1.3681 -0.3297
  129MPD2    N1 1977   2.586   1.652   0.805  0.3528 -0.4346 -0.2648
  129MPD2    H7 1978   2.685   1.649   0.827  0.0435  0.6190  1.2523
  130TCq2    C1 1979   2.492   1.622   0.906  0.0893 -0.2469 -0.4753
  130TCq2    O2 1980   2.368   1.592   0.899  0.1640  0.4535  0.5496
  130TCq2    C2 1981   2.558   1.598   1.042  0.5684 -0.6620  0.3595
  130TCq2    C3 1982   2.691   1.602   1.054 -0.8992 -0.0400 -0.9152
  130TCq2    C4 1983   2.751   1.548   1.166 -0.1117  0.1798  0.1482
  130TCq2    C5 1984   2.670   1.482   1.259  0.8978 -0.4270  0.5026
  130TCq2    C6 1985   2.536   1.477   1.240  0.5491 -0.0162  0.0729
  130TCq2    C7 1986   2.481   1.537   1.132  0.4214 -0.8398 -0.7594
  130TCq2    C8 1987   2.453   1.390   1.303 -0.0174 -0.2857  0.0677
  130TCq2    O4 1988   2.329   1.419   1.305 -0.0196  0.1035  0.1234
  130TCq2    C9 1989   2.895   1.552   1.185  0.2991 -0.3166  0.2560
  130TCq2    O5 1990   2.932   1.498   1.292 -0.3362  0.2057 -0.2766
  130TCq2    O6 1991   2.961   1.630   1.113 -0.3403 -0.1521 -0.3039
  130TCq2    H2 1992   2.756   1.651   0.982  0.9185  0.3403  0.9765
  130TCq2    H3 1993   2.701   1.448   1.357 -1.6020  3.1532  2.5439
  130TCq2    H4 1994   2.373   1.538   1.132  0.4274 -0.1380 -0.5360
  131MPD2     C 1995   1.948   4.427   9.331 -0.0608  0.7419  0.1153
  131MPD2    C1 1996   2.080   4.395   9.371 -0.1159  0.1210 -0.1195
  131MPD2    C2 1997   2.102   4.279   9.450 -0.1275 -0.1685  0.6280
  131MPD2    C3 1998   1.997   4.196   9.486 -0.1856 -0.7736 -0.6640
  131MPD2    C4 1999   1.869   4.230   9.448  0.1997  0.0793  0.0122
  131MPD2    C5 2000   1.847   4.339   9.360  0.4072  0.0503  0.4479
  131MPD2     H 2001   2.207   4.253   9.464 -0.4722 -1.1620  1.3930
  131MPD2    H1 2002   1.782   4.182   9.490  0.2581  1.0126  1.2149
  131MPD2    H2 2003   1.924   4.517   9.274 -0.4737  0.0135 -0.8599
  131MPD2    H3 2004   1.748   4.378   9.341 -0.2190 -0.0750  3.4260
  131MPD2     N 2005   2.025   4.076   9.571  1.1215 -0.1263 -0.0019
  131MPD2    H5 2006   2.120   4.067   9.604  1.6591  0.9159 -1.2639
  131MPD2    N1 2007   2.176   4.488   9.330 -0.1740 -0.7833  0.3444
  131MPD2    H7 2008   2.137   4.560   9.270  0.2475 -0.5334  0.3738
  132TCq2    C1 2009   2.392   0.055   8.994 -0.7301 -0.0872  0.5101
  132TCq2    O2 2010   2.284   0.021   8.949  0.5448  0.4885 -0.1488
  132TCq2    C2 2011   2.441   4.708   9.114  0.2046  0.0027  0.8556
  132TCq2    C3 2012   2.573   4.718   9.147  0.1848 -0.1045  1.2406
  132TCq2    C4 2013   2.609   4.666   9.269 -0.7955 -0.1109 -0.0746
  132TCq2    C5 2014   2.524   4.599   9.345  0.1789  0.8625 -0.4538
  132TCq2    C6 2015   2.397   4.577   9.296 -0.6146  0.0355  0.5469
  132TCq2    C7 2016   2.350   4.634   9.181  0.5619 -0.2311 -0.5463
  132TCq2    C8 2017   2.315   4.478   9.363 -0.2160  0.5898  0.0264
  132TCq2    O4 2018   2.369   4.410   9.449 -0.2670  0.1396 -0.3505
  132TCq2    C9 2019   2.746   4.673   9.315  0.1510  0.4430 -0.2639
  132TCq2    O5 2020   2.768   4.622   9.425 -0.5894 -0.6500  0.9072
  132TCq2    O6 2021   2.823   0.019   9.239 -0.1143  0.3081  0.6171
  132TCq2    H2 2022   2.644   0.046   9.084 -1.7615 -0.8804 -1.5583
  132TCq2    H3 2023   2.552   4.547   9.436  3.1542  1.1429 -1.2106
  132TCq2    H4 2024   2.253   4.613   9.138  0.3590 -0.1581 -0.1315
  133MPD2     C 2025   2.297   1.003   8.396  0.2817 -0.2937  0.4395
  133MPD2    C1 2026   2.371   0.987   8.516 -0.2786 -0.1464 -0.1754
  133MPD2    C2 2027   2.314   0.915   8.618  0.0337  0.0008  0.6780
  133MPD2    C3 2028   2.195   0.851   8.601  0.1908  0.3140  0.3965
  133MPD2    C4 2029   2.118   0.881   8.493  0.0053  0.5341 -0.0483
  133MPD2    C5 2030   2.167   0.956   8.386  0.6550  0.1958  0.0990
  133MPD2     H 2031   2.365   0.890   8.710 -0.5784 -2.8131  0.2741
  133MPD2    H1 2032   2.024   0.828   8.483  0.2901  0.2558 -1.3104
  133MPD2    H2 2033   2.337   1.052   8.308  0.4014 -0.6846  0.2740
  133MPD2    H3 2034   2.091   0.979   8.313  1.8053  1.7420 -0.6151
  133MPD2     N 2035   2.131   0.761   8.690  0.0321 -0.2499  0.3909
  133MPD2    H5 2036   2.035   0.732   8.674  0.5150  0.0362 -3.0279
  133MPD2    N1 2037   2.500   1.045   8.521 -1.0248 -0.1793  0.3990
  133MPD2    H7 2038   2.524   1.083   8.430 -0.6075 -0.5934  0.3304
  134TCq2    C1 2039   2.578   1.055   8.631  0.1687 -0.7456 -0.4921
  134TCq2    O2 2040   2.540   1.043   8.749 -0.2823  0.2016 -0.2589
  134TCq2    C2 2041   2.716   1.095   8.597 -0.4704 -0.5535  0.5664
  134TCq2    C3 2042   2.769   1.066   8.470 -0.0835 -0.4635  0.4958
  134TCq2    C4 2043   2.899   1.098   8.446  0.2310  0.2822 -0.2268
  134TCq2    C5 2044   2.978   1.152   8.540  0.1322 -0.5412  0.2307
  134TCq2    C6 2045   2.925   1.183   8.661 -0.2421 -0.0743  0.3828
  134TCq2    C7 2046   2.794   1.157   8.692 -0.1678 -0.2937  0.3139
  134TCq2    C8 2047   3.012   1.220   8.771  0.6064 -0.1473 -0.3075
  134TCq2    O4 2048   3.125   1.176   8.778  0.0433  0.5983  0.0824
  134TCq2    C9 2049   2.968   1.046   8.330 -0.2151  0.3418  0.0347
  134TCq2    O5 2050   3.090   1.069   8.318  0.3059 -0.4064 -0.5541
  134TCq2    O6 2051   2.890   1.004   8.239  0.1642  0.0312 -0.0906
  134TCq2    H2 2052   2.715   1.000   8.403 -1.4774  1.5966 -0.4106
  134TCq2    H3 2053   3.082   1.176   8.522  0.2283 -1.3568 -0.3003
  134TCq2    H4 2054   2.756   1.175   8.792  1.3463 -0.3843  0.9141
  135MPD2     C 2055   4.252   2.540   9.272 -0.1082  0.2723  0.6700
  135MPD2    C1 2056   4.259   2.410   9.244 -0.7830 -0.3796  0.1731
  135MPD2    C2 2057   4.357   2.361   9.164 -1.1430  0.3805 -0.9184
  135MPD2    C3 2058   4.462   2.446   9.121 -0.2650  0.4616 -0.5858
  135MPD2    C4 2059   4.466   2.578   9.170 -0.4924 -0.1475 -0.1898
  135MPD2    C5 2060   4.356   2.627   9.240  0.0032 -0.0109  0.2007
  135MPD2     H 2061   4.352   2.261   9.122  1.5338 -0.0615 -0.1732
  135MPD2    H1 2062   4.550   2.643   9.150  1.0735 -2.5094 -1.2480
  135MPD2    H2 2063   4.168   2.583   9.325 -0.0380  0.7575  0.3859
  135MPD2    H3 2064   4.354   2.734   9.251 -1.5834 -0.0951  0.7630
  135MPD2     N 2065   4.573   2.408   9.041 -0.0506 -0.4932 -0.4506
  135MPD2    H5 2066   4.651   2.472   9.053 -0.1879 -0.6005  1.0214
  135MPD2    N1 2067   4.160   2.318   9.278  0.0128  0.0211 -0.1005
  135MPD2    H7 2068   4.173   2.220   9.255  1.7559  0.5442 -1.3254
  136TCq2    C1 2069   4.042   2.347   9.346  0.1185 -0.1806 -0.1287
  136TCq2    O2 2070   3.988   2.452   9.374  0.1255 -0.5941  0.0687
  136TCq2    C2 2071   3.974   2.220   9.381  0.3501  0.1266 -0.1893
  136TCq2    C3 2072   4.045   2.105   9.402 -0.2335  0.1560 -0.0987
  136TCq2    C4 2073   3.989   1.981   9.394 -0.4420 -0.7641  0.4163
  136TCq2    C5 2074   3.859   1.969   9.360  0.3428  0.8938 -0.0736
  136TCq2    C6 2075   3.788   2.087   9.337  0.0235 -0.4563 -0.2141
  136TCq2    C7 2076   3.839   2.212   9.346  0.2363  0.2912  0.3679
  136TCq2    C8 2077   3.647   2.080   9.307  0.1992 -0.1811  0.4071
  136TCq2    O4 2078   3.611   2.174   9.237 -0.5633 -0.1249  0.3675
  136TCq2    C9 2079   4.069   1.854   9.410 -0.0719 -0.7266 -0.8678
  136TCq2    O5 2080   4.003   1.747   9.421  0.5144  0.3331  0.0046
  136TCq2    O6 2081   4.191   1.873   9.423  0.3755 -0.3093 -0.6188
  136TCq2    H2 2082   4.151   2.116   9.423 -0.4449 -0.2700  1.2034
  136TCq2    H3 2083   3.816   1.869   9.357 -2.3477  2.0649 -0.8092
  136TCq2    H4 2084   3.780   2.301   9.330  1.1565  0.7379 -0.6102
  137MPD2     C 2085   3.556   0.359   9.592 -0.5340  0.2912 -0.0362
  137MPD2    C1 2086   3.638   0.424   9.505 -0.0871 -0.3849 -0.9233
  137MPD2    C2 2087   3.711   0.532   9.546 -0.0221 -0.0776 -0.3293
  137MPD2    C3 2088   3.706   0.575   9.674 -0.5031 -0.5081 -0.8664
  137MPD2    C4 2089   3.628   0.507   9.765 -0.3558 -0.8070 -0.1359
  137MPD2    C5 2090   3.546   0.402   9.725  0.3710 -0.0981  0.1076
  137MPD2     H 2091   3.770   0.587   9.473 -0.3354 -1.1063 -1.3741
  137MPD2    H1 2092   3.615   0.534   9.870 -1.0441 -1.0207 -0.1685
  137MPD2    H2 2093   3.492   0.278   9.558  0.1982 -0.4800  0.4171
  137MPD2    H3 2094   3.474   0.352   9.789  1.4445  0.4110  1.7195
  137MPD2     N 2095   3.774   0.695   9.711 -0.2239 -0.0298 -0.1111
  137MPD2    H5 2096   3.817   0.741   9.631  0.5301 -0.1634  0.2149
  137MPD2    N1 2097   3.646   0.377   9.373 -0.1116  0.5908 -0.6286
  137MPD2    H7 2098   3.577   0.306   9.353  0.2597  0.8910 -3.0712
  138TCq2    C1 2099   3.696   0.436   9.267  0.2432 -0.0157  0.2662
  138TCq2    O2 2100   3.734   0.547   9.240  0.5522 -0.1728 -0.5878
  138TCq2    C2 2101   3.697   0.341   9.152  0.2989  0.2739  0.4158
  138TCq2    C3 2102   3.696   0.207   9.184  0.2828 -0.0348 -0.0542
  138TCq2    C4 2103   3.675   0.126   9.077 -0.0712  0.7541  0.8347
  138TCq2    C5 2104   3.655   0.175   8.949 -0.0680 -0.1839  0.2859
  138TCq2    C6 2105   3.641   0.308   8.933 -0.5257 -0.0918 -0.2496
  138TCq2    C7 2106   3.666   0.396   9.031  0.5418 -0.5477 -0.4906
  138TCq2    C8 2107   3.577   0.350   8.810  0.3005  0.3892  0.1387
  138TCq2    O4 2108   3.592   0.287   8.708  0.1906  0.4021  0.2598
  138TCq2    C9 2109   3.685   4.700   9.096  0.7130  0.8324  0.7626
  138TCq2    O5 2110   3.689   4.624   8.995  0.8917 -0.3066  0.2599
  138TCq2    O6 2111   3.708   4.667   9.216 -0.4425  0.4049  0.1003
  138TCq2    H2 2112   3.721   0.172   9.283 -1.6295 -1.8162 -0.2071
  138TCq2    H3 2113   3.640   0.111   8.863 -1.1038 -0.7097  0.8631
  138TCq2    H4 2114   3.658   0.504   9.033 -3.6831 -0.8765 -0.1614
  139TMC2    C1 2115   0.041   4.310  13.419  0.0125 -0.4956  0.9033
  139TMC2    C2 2116   0.171   4.368  13.419  0.8320  0.2004  0.1528
  139TMC2    C3 2117   0.165   4.503  13.390  0.0652  0.9036  0.1147
  139TMC2    C4 2118   4.651   4.374  13.381 -0.3115 -0.0097 -0.4488
  139TMC2    C5 2119   4.654   4.504  13.334 -0.2387 -0.2997 -0.6940
  139TMC2    C6 2120   0.049   4.567  13.346  0.5895  0.3128 -0.1449
  139TMC2     C 2121   0.037   4.170  13.450 -0.3581  0.0317 -0.3370
  139TMC2     O 2122   0.143   4.105  13.449  0.2175  0.1981  0.2022
  139TMC2     H 2123   0.257   4.322  13.464  0.4171  0.5893  1.3340
  139TMC2    H1 2124   4.560   4.315  13.380  0.7344 -1.6820  2.0186
  139TMC2    H2 2125   0.059   4.673  13.326 -0.2970  0.2540 -0.8864
  139TMC2    C7 2126   4.533   4.573  13.303 -0.5928 -0.7535  0.5871
  139TMC2    C8 2127   0.267   4.599  13.451 -0.1950  0.1235 -0.2649
  139TMC2    O1 2128   4.538   4.695  13.291 -0.7115 -0.2075 -0.9537
  139TMC2    O2 2129   0.380   4.551  13.478 -0.3467  0.1567 -0.4835
  139TMC2    O5 2130   0.205   4.665  13.546  1.0719 -0.3070 -0.2722
  139TMC2    H5 2131   0.109   4.677  13.534  1.1460  0.1312 -0.4303
  140MPD2     C 2132   4.488   3.990  13.614 -1.0675  0.5702  0.5083
  140MPD2    C1 2133   4.605   4.004  13.544 -0.0389  0.3151 -0.2748
  140MPD2    C2 2134   4.684   3.892  13.522 -0.1326 -0.4315 -0.1009
  140MPD2    C3 2135   4.651   3.773  13.588 -0.4925 -0.1013 -0.9951
  140MPD2    C4 2136   4.534   3.770  13.663 -0.0327  0.3341  0.3412
  140MPD2    C5 2137   4.447   3.874  13.667 -0.6517  0.1404  0.0710
  140MPD2     H 2138   0.054   3.892  13.465  0.2429 -0.6516  0.5015
  140MPD2    H1 2139   4.515   3.679  13.718  0.0214  0.0299 -0.1386
  140MPD2    H2 2140   4.433   4.077  13.650  1.7761  3.2299 -1.6155
  140MPD2    H3 2141   4.352   3.866  13.718 -0.1580 -1.2720  0.7619
  140MPD2     N 2142   0.026   3.672  13.591  0.0122  0.9509 -1.0466
  140MPD2    H5 2143   0.101   3.677  13.522  1.7547  2.8709  1.0009
  140MPD2    N1 2144   4.635   4.131  13.496  0.5245 -0.1489  0.1737
  140MPD2    H7 2145   4.564   4.200  13.518  1.5605  0.3510  1.9695
  141TCq2    C1 2146   0.400   0.668  13.749  0.2972 -0.3823  0.0407
  141TCq2    O2 2147   0.436   0.760  13.673 -0.5384 -0.1573 -0.0127
  141TCq2    C2 2148   0.424   0.695  13.885 -0.4808 -0.0215 -0.0031
  141TCq2    C3 2149   0.354   0.627  13.982 -0.0842  0.3316 -0.5175
  141TCq2    C4 2150   0.390   0.642  14.117 -0.0949 -0.4856  0.2386
  141TCq2    C5 2151   0.489   0.733  14.156  0.0389  0.2667  0.3420
  141TCq2    C6 2152   0.536   0.814  14.055  0.1035 -0.5047 -0.2677
  141TCq2    C7 2153   0.512   0.793  13.921  1.0283 -1.3026 -0.5709
  141TCq2    C8 2154   0.612   0.926  14.112 -0.3786 -0.7753  0.5667
  141TCq2    O4 2155   0.690   0.917  14.205 -0.0043 -0.1653 -0.2402
  141TCq2    C9 2156   0.327   0.558  14.220  0.7109  0.5084 -0.2013
  141TCq2    O5 2157   0.383   0.558  14.331 -0.7463 -0.1910 -0.3451
  141TCq2    O6 2158   0.240   0.479  14.182 -0.2576 -0.1931  0.1018
  141TCq2    H2 2159   0.270   0.568  13.949  0.0808 -0.8660  1.1671
  141TCq2    H3 2160   0.513   0.736  14.261 -2.0684  2.6951  0.7536
  141TCq2    H4 2161   0.570   0.853  13.851  0.5149  0.0315  0.1429
  142MPD2     C 2162   2.225   2.699  10.503  0.3518  0.6681 -0.4078
  142MPD2    C1 2163   2.209   2.581  10.434  0.4103  0.0658 -0.0981
  142MPD2    C2 2164   2.236   2.575  10.301 -0.1041  0.0924  0.1707
  142MPD2    C3 2165   2.264   2.685  10.223  0.2126 -0.3473 -0.8508
  142MPD2    C4 2166   2.260   2.809  10.285 -0.1174  0.5029  0.2895
  142MPD2    C5 2167   2.249   2.808  10.419 -0.3721 -0.0049  0.7284
  142MPD2     H 2168   2.224   2.481  10.248  0.6715  0.4949 -0.7227
  142MPD2    H1 2169   2.284   2.902  10.237 -0.4051 -1.1208 -3.0034
  142MPD2    H2 2170   2.224   2.711  10.611 -0.4485  1.9652 -0.5535
  142MPD2    H3 2171   2.260   2.905  10.467  2.0572  1.3041 -2.4995
  142MPD2     N 2172   2.288   2.684  10.086 -0.2400  0.5619 -0.2841
  142MPD2    H5 2173   2.325   2.769  10.045 -3.1504  1.7147 -0.5481
  142MPD2    N1 2174   2.178   2.466  10.511  0.2609  0.1079 -0.1950
  142MPD2    H7 2175   2.176   2.480  10.612  0.0625  2.8970 -0.5896
  143TCq2    C1 2176   2.277   2.578   9.994 -0.2248  0.1451  0.9159
  143TCq2    O2 2177   2.236   2.464  10.007  0.4814  0.7336  0.2171
  143TCq2    C2 2178   2.337   2.617   9.863 -0.2374 -0.5973  0.1415
  143TCq2    C3 2179   2.281   2.556   9.749  0.3127 -1.3675  0.0935
  143TCq2    C4 2180   2.321   2.613   9.631 -0.0769 -0.4774  0.0379
  143TCq2    C5 2181   2.402   2.717   9.616 -0.0286  0.5192  0.3811
  143TCq2    C6 2182   2.447   2.771   9.729  0.1980 -0.1153 -0.0803
  143TCq2    C7 2183   2.429   2.720   9.855 -0.2102  1.1854  0.2739
  143TCq2    C8 2184   2.535   2.885   9.719  0.0370 -0.2788 -0.4225
  143TCq2    O4 2185   2.557   2.942   9.824 -0.3533  0.2437  0.5339
  143TCq2    C9 2186   2.261   2.556   9.509 -0.9104 -0.1250  0.1778
  143TCq2    O5 2187   2.183   2.461   9.523 -0.0926 -0.0296 -0.1765
  143TCq2    O6 2188   2.308   2.578   9.397 -0.4686 -0.4205  0.0907
  143TCq2    H2 2189   2.208   2.477   9.757 -0.8324 -0.3569 -0.2831
  143TCq2    H3 2190   2.419   2.761   9.519  0.7989  1.1627  0.8190
  143TCq2    H4 2191   2.460   2.766   9.948  1.3823 -1.6978  1.1581
  144MPD2     C 2192   0.348   3.254   0.834 -0.8299  0.3216  0.5306
  144MPD2    C1 2193   0.365   3.198   0.712 -0.6579  0.7259 -1.1867
  144MPD2    C2 2194   0.488   3.137   0.685 -1.0476  0.2531  0.5251
  144MPD2    C3 2195   0.593   3.148   0.771 -0.6146 -0.4616  0.1838
  144MPD2    C4 2196   0.571   3.209   0.892 -0.0622 -0.1976  0.5047
  144MPD2    C5 2197   0.452   3.261   0.923 -0.1476  0.2561  0.1339
  144MPD2     H 2198   0.496   3.076   0.596  2.6201 -0.4420  1.3126
  144MPD2    H1 2199   0.651   3.211   0.965 -0.0036 -0.0902  0.4396
  144MPD2    H2 2200   0.253   3.291   0.873 -0.9243  1.7249 -1.0374
  144MPD2    H3 2201   0.438   3.316   1.016 -0.2739 -1.1313  0.9380
  144MPD2     N 2202   0.723   3.098   0.758 -0.2340  0.1170  0.3844
  144MPD2    H5 2203   0.794   3.141   0.816  0.2400 -0.5740  0.3188
  144MPD2    N1 2204   0.258   3.195   0.619  0.0354 -0.3013  0.4840
  144MPD2    H7 2205   0.276   3.136   0.538 -0.3681 -2.3424  1.8916
  145TCq2    C1 2206   0.771   3.033   0.643 -0.1455 -0.4707  1.2056
  145TCq2    O2 2207   0.707   2.998   0.544 -0.3668  0.1465  0.2226
  145TCq2    C2 2208   0.913   2.995   0.659  0.1867  0.0958  0.3500
  145TCq2    C3 2209   0.963   2.909   0.566 -0.3323  0.3205 -0.0992
  145TCq2    C4 2210   1.088   2.856   0.591  0.3688  0.1295  0.3938
  145TCq2    C5 2211   1.154   2.890   0.707 -0.1350  0.0624  0.1220
  145TCq2    C6 2212   1.096   2.977   0.798  0.1770 -0.5215 -0.1352
  145TCq2    C7 2213   0.979   3.032   0.771  0.3578  0.1886  0.1048
  145TCq2    C8 2214   1.154   2.996   0.931 -0.3743  0.1562 -0.0891
  145TCq2    O4 2215   1.270   2.959   0.948 -0.2138 -0.3825 -0.3861
  145TCq2    C9 2216   1.143   2.759   0.498  0.0621  0.0635  0.6162
  145TCq2    O5 2217   1.072   2.736   0.398 -0.2286 -0.4442  0.2467
  145TCq2    O6 2218   1.258   2.714   0.522 -0.1811  0.7935  0.4026
  145TCq2    H2 2219   0.915   2.891   0.470  0.9450  0.8738 -0.8475
  145TCq2    H3 2220   1.254   2.855   0.731  0.3901  1.8128  0.5011
  145TCq2    H4 2221   0.943   3.103   0.844  0.5176  0.4426 -0.0621
  146TMC2    C1 2222   1.954   1.469  11.951 -0.0577  0.4998  0.4919
  146TMC2    C2 2223   1.894   1.529  11.840  0.7328  0.3731 -0.5053
  146TMC2    C3 2224   1.966   1.514  11.726 -0.0940  0.3557  0.0530
  146TMC2    C4 2225   2.059   1.388  11.950  0.5521  0.0378  0.5844
  146TMC2    C5 2226   2.116   1.369  11.825  0.8874  0.6565  0.7245
  146TMC2    C6 2227   2.071   1.433  11.718  0.3831  0.8287  0.7575
  146TMC2     C 2228   1.869   1.487  12.066 -0.3364 -0.6521 -0.5646
  146TMC2     O 2229   1.759   1.529  12.043 -0.2225  0.4636 -0.1374
  146TMC2     H 2230   1.828   1.615  11.843  2.2280  1.4742  1.2342
  146TMC2    H1 2231   2.096   1.352  12.045 -0.0399 -1.4529  0.2507
  146TMC2    H2 2232   2.123   1.431  11.623  1.9972  1.3211  1.6449
  146TMC2    C7 2233   2.247   1.307  11.817  0.7090 -0.7094  0.2758
  146TMC2    C8 2234   1.933   1.592  11.612  0.3813 -0.3571  0.4331
  146TMC2    O1 2235   2.315   1.325  11.716 -0.1032 -0.6537  0.1222
  146TMC2    O2 2236   1.858   1.686  11.617 -0.1644 -0.6460  0.4933
  146TMC2    O5 2237   1.918   1.495  11.521  0.4189  0.0989 -0.8576
  146TMC2    H5 2238   1.976   1.419  11.544 -0.2584 -0.1640 -0.0076
  147MPD2     C 2239   2.624   1.065  12.064  0.7830  0.1320 -0.1967
  147MPD2    C1 2240   2.520   1.085  12.152  0.0327 -0.5139 -0.1440
  147MPD2    C2 2241   2.405   1.136  12.100  0.9550  1.1317  0.5892
  147MPD2    C3 2242   2.390   1.171  11.969 -0.8910 -0.5232  0.2570
  147MPD2    C4 2243   2.496   1.151  11.884 -0.3581 -0.5897 -0.3865
  147MPD2    C5 2244   2.609   1.089  11.926  0.2377 -0.4697 -0.4107
  147MPD2     H 2245   2.316   1.138  12.162 -0.8614  0.1773 -1.9628
  147MPD2    H1 2246   2.495   1.173  11.778  0.8388  0.6947 -0.1291
  147MPD2    H2 2247   2.716   1.025  12.106  1.4365  1.2737 -0.5474
  147MPD2    H3 2248   2.692   1.075  11.857  0.0503 -0.7809 -0.5723
  147MPD2     N 2249   2.264   1.238  11.934 -0.0438 -0.1907  0.2999
  147MPD2    H5 2250   2.197   1.250  12.010 -0.4449  2.2678 -0.4375
  147MPD2    N1 2251   2.544   1.058  12.287 -0.1656  0.1322  0.0450
  147MPD2    H7 2252   2.628   1.009  12.312  0.9664  1.3850 -1.2901
  148MPD2     C 2253   2.522   3.733  10.643  0.7848 -0.6167 -0.1654
  148MPD2    C1 2254   2.583   3.851  10.604  0.6114 -0.0842 -0.1809
  148MPD2    C2 2255   2.518   3.968  10.594  0.0367  0.0313 -0.6214
  148MPD2    C3 2256   2.386   3.977  10.624 -0.7964  0.1265 -0.0378
  148MPD2    C4 2257   2.325   3.869  10.676  0.8290 -0.1053 -0.2705
  148MPD2    C5 2258   2.394   3.747  10.699 -0.4054  0.5791 -0.4149
  148MPD2     H 2259   2.579   4.040  10.542 -1.2325  0.7155 -1.1561
  148MPD2    H1 2260   2.217   3.874  10.685  1.0361  2.0694  0.8425
  148MPD2    H2 2261   2.573   3.639  10.660  1.7931  0.0012  0.2198
  148MPD2    H3 2262   2.343   3.663  10.743  1.0330  1.4598  2.9036
  148MPD2     N 2263   2.311   4.094  10.577 -0.2943  0.4104  0.2273
  148MPD2    H5 2264   2.211   4.079  10.567 -0.0727 -0.4705 -0.6235
  148MPD2    N1 2265   2.717   3.854  10.555 -0.0106  0.3021 -0.1883
  148MPD2    H7 2266   2.750   3.944  10.522 -1.4366  0.5066 -1.0368
  149TCq2    C1 2267   2.795   3.745  10.530 -0.2015  0.4878  0.2913
  149TCq2    O2 2268   2.808   3.634  10.586  0.5079  0.4454 -0.0268
  149TCq2    C2 2269   2.892   3.784  10.433 -0.3102 -0.7240 -0.3648
  149TCq2    C3 2270   3.012   3.715  10.448  0.0361 -0.5334 -0.2827
  149TCq2    C4 2271   3.123   3.782  10.409 -0.1462  0.5281  0.7917
  149TCq2    C5 2272   3.115   3.891  10.328 -0.3312 -0.4893 -0.3265
  149TCq2    C6 2273   2.997   3.958  10.315  0.0153  0.1332 -0.0519
  149TCq2    C7 2274   2.882   3.912  10.375  0.3578  1.6102  0.2258
  149TCq2    C8 2275   3.014   4.086  10.264 -0.6527 -0.3945 -0.0073
  149TCq2    O4 2276   3.124   4.134  10.283  0.2626  0.2941  0.0176
  149TCq2    C9 2277   3.230   3.698  10.409  0.0694 -0.2363  0.3773
  149TCq2    O5 2278   3.211   3.573  10.415 -0.5018 -0.2569 -0.5098
  149TCq2    O6 2279   3.335   3.755  10.366 -0.3543  0.0549 -0.0144
  149TCq2    H2 2280   3.008   3.626  10.509  0.2632  0.4300  1.1542
  149TCq2    H3 2281   3.202   3.926  10.274 -0.5991  0.1471 -0.3464
  149TCq2    H4 2282   2.792   3.970  10.360 -1.0972 -0.0554  2.6235
  150MPD2     C 2283   4.022   3.642  12.090  0.1233 -0.2262 -0.1075
  150MPD2    C1 2284   4.005   3.749  12.004  0.7289 -0.5819  0.7393
  150MPD2    C2 2285   4.056   3.871  12.039  0.5806 -0.7279 -0.3487
  150MPD2    C3 2286   4.152   3.878  12.142  0.0172 -0.5745  0.2073
  150MPD2    C4 2287   4.177   3.769  12.222  0.7863 -0.6665 -0.4408
  150MPD2    C5 2288   4.106   3.652  12.202 -0.7942  0.4203  0.2206
  150MPD2     H 2289   4.044   3.959  11.978  0.3760  0.2991  1.1634
  150MPD2    H1 2290   4.245   3.772  12.306 -1.3464 -0.8855  1.2849
  150MPD2    H2 2291   3.981   3.545  12.062 -1.0915 -0.9100  4.1160
  150MPD2    H3 2292   4.114   3.566  12.267 -2.2216 -2.5445 -3.5287
  150MPD2     N 2293   4.221   4.003  12.148  0.6597  0.5361 -0.3048
  150MPD2    H5 2294   4.173   4.080  12.103  0.0194  0.8594  0.9342
  150MPD2    N1 2295   3.937   3.719  11.885  0.0543  0.6112  0.2703
  150MPD2    H7 2296   3.915   3.624  11.857  2.1490  0.4270 -0.7675
  151TCq2    C1 2297   4.333   4.012  12.225 -0.7980  0.2652 -0.2005
  151TCq2    O2 2298   4.396   3.924  12.282  0.0512  0.0587  0.4535
  151TCq2    C2 2299   4.386   4.142  12.217 -0.7445 -0.0242 -0.1719
  151TCq2    C3 2300   4.353   4.223  12.105 -0.7009 -0.3974  0.4717
  151TCq2    C4 2301   4.389   4.353  12.103  0.0955 -0.4492 -0.5242
  151TCq2    C5 2302   4.483   4.401  12.190 -0.2405  0.1644  0.2427
  151TCq2    C6 2303   4.522   4.320  12.296  0.4321 -0.3122 -0.6622
  151TCq2    C7 2304   4.473   4.190  12.315 -0.0017 -0.3703 -0.4396
  151TCq2    C8 2305   4.607   4.386  12.391 -0.4952 -0.4932 -0.4967
  151TCq2    O4 2306   4.623   4.506  12.376  0.1439  0.0743  0.7621
  151TCq2    C9 2307   4.352   4.424  11.980  0.8467  0.0667 -0.7832
  151TCq2    O5 2308   4.392   4.542  11.972 -0.4511 -0.2670  0.0253
  151TCq2    O6 2309   4.292   4.371  11.890 -0.7297 -0.4642  0.0472
  151TCq2    H2 2310   4.295   4.196  12.018 -0.7148 -1.7190  0.9039
  151TCq2    H3 2311   4.550   4.483  12.167 -1.4208 -0.1281 -4.3370
  151TCq2    H4 2312   4.482   4.121  12.398 -1.0894  0.3113  0.2443
  152MPD2     C 2313   3.882   3.561  12.593 -0.2452  0.5041  0.0105
  152MPD2    C1 2314   3.880   3.697  12.575  0.4923  0.7362 -0.1538
  152MPD2    C2 2315   3.767   3.764  12.536 -0.6567 -0.2986 -0.1065
  152MPD2    C3 2316   3.641   3.698  12.522  0.6044  0.3994  0.2123
  152MPD2    C4 2317   3.639   3.561  12.560  0.0177  0.3586 -0.4332
  152MPD2    C5 2318   3.758   3.496  12.589  0.8424  0.0284  0.6483
  152MPD2     H 2319   3.778   3.870  12.519  1.3721 -0.1225  2.2608
  152MPD2    H1 2320   3.550   3.499  12.552 -0.6891  0.9142  2.8227
  152MPD2    H2 2321   3.964   3.495  12.619 -1.5304 -0.8114  0.7138
  152MPD2    H3 2322   3.753   3.392  12.619  2.3173  0.1518  1.3025
  152MPD2     N 2323   3.524   3.775  12.489 -1.0563 -0.5568 -0.0559
  152MPD2    H5 2324   3.547   3.869  12.460  0.5410 -0.7609  0.5767
  152MPD2    N1 2325   4.010   3.753  12.587 -0.1047 -0.0941  0.1534
  152MPD2    H7 2326   4.094   3.698  12.603  0.1784  0.4163  0.3945
  153TCq2    C1 2327   4.055   3.885  12.572 -0.1899  0.5597  0.0723
  153TCq2    O2 2328   3.985   3.981  12.554  0.2258 -0.1623  0.1556
  153TCq2    C2 2329   4.192   3.896  12.566 -1.0253 -0.5025 -0.0941
  153TCq2    C3 2330   4.272   3.790  12.580  0.3791 -0.5342  0.0775
  153TCq2    C4 2331   4.402   3.815  12.627 -0.0210 -0.3805 -0.0818
  153TCq2    C5 2332   4.451   3.941  12.656 -0.4268  0.0755  0.3528
  153TCq2    C6 2333   4.369   4.044  12.644 -0.4968  0.2840  0.1216
  153TCq2    C7 2334   4.244   4.024  12.591  0.1596 -1.1405 -0.2043
  153TCq2    C8 2335   4.407   4.175  12.695  0.1201  0.2313  0.1208
  153TCq2    O4 2336   4.343   4.272  12.652  0.1634  0.7054  0.2046
  153TCq2    C9 2337   4.492   3.703  12.632 -0.2041 -0.2690 -0.3615
  153TCq2    O5 2338   4.609   3.724  12.670  0.1583 -0.3008 -0.2797
  153TCq2    O6 2339   4.453   3.589  12.595 -0.0588  0.4241 -0.5746
  153TCq2    H2 2340   4.245   3.689  12.553  0.1174 -0.0850 -1.3326
  153TCq2    H3 2341   4.552   3.945  12.696 -0.2065  2.3062 -0.4195
  153TCq2    H4 2342   4.187   4.116  12.591 -0.4971 -1.5469 -1.7489
  154MPD2     C 2343   1.039   0.498   0.471  0.1182 -0.8453  0.3080
  154MPD2    C1 2344   0.926   0.420   0.469 -0.0750  0.9751  0.2643
  154MPD2    C2 2345   0.845   0.414   0.583 -0.6729 -0.1281 -0.3621
  154MPD2    C3 2346   0.860   0.510   0.685 -0.1360  0.1057  0.2021
  154MPD2    C4 2347   0.963   0.597   0.677  0.1789  0.2173 -0.4129
  154MPD2    C5 2348   1.051   0.589   0.573  0.5310 -0.4294 -0.4584
  154MPD2     H 2349   0.773   0.334   0.597  0.1719 -0.3731  2.5369
  154MPD2    H1 2350   0.986   0.662   0.760  0.9777 -0.4729 -0.0933
  154MPD2    H2 2351   1.123   0.489   0.402 -0.6769 -1.1378 -0.6206
  154MPD2    H3 2352   1.131   0.662   0.571  2.8442 -3.0186 -0.5646
  154MPD2     N 2353   0.781   0.501   0.797 -0.0051  0.3641 -0.1205
  154MPD2    H5 2354   0.716   0.423   0.797 -0.0261  0.3784 -0.5184
  154MPD2    N1 2355   0.907   0.336   0.361 -0.8956  0.4016 -0.1810
  154MPD2    H7 2356   0.974   0.357   0.287  0.6024  0.4964  1.1952
  155TCq2    C1 2357   0.804   0.244   0.341  0.0194  0.2809 -0.3049
  155TCq2    O2 2358   0.708   0.213   0.412  0.1249 -0.0455  0.3350
  155TCq2    C2 2359   0.834   0.162   0.224  0.4588  0.4689 -0.1554
  155TCq2    C3 2360   0.799   0.033   0.235 -0.0608 -0.0458  0.8509
  155TCq2    C4 2361   0.823   4.666   0.132 -0.4066 -0.5960 -0.3277
  155TCq2    C5 2362   0.874   4.706   0.020  0.7364  0.0783 -0.2451
  155TCq2    C6 2363   0.905   0.117   0.008  0.4139 -0.1432 -0.5108
  155TCq2    C7 2364   0.887   0.207   0.110 -0.7378  0.6859  0.0516
  155TCq2    C8 2365   0.984   0.158  17.582 -0.3411  0.1671  0.0608
  155TCq2    O4 2366   1.013   0.062  17.507 -0.0746  0.1640 -0.1746
  155TCq2    C9 2367   0.779   4.527   0.148  0.6510 -0.9728 -0.2338
  155TCq2    O5 2368   0.701   4.505   0.244  0.0229  0.0281 -0.6717
  155TCq2    O6 2369   0.827   4.442   0.070 -0.0750 -0.4037  0.6866
  155TCq2    H2 2370   0.756   4.722   0.329  0.0271  0.6629  1.1478
  155TCq2    H3 2371   0.902   4.638  17.632  0.2919 -0.3566 -0.0274
  155TCq2    H4 2372   0.910   0.312   0.096  1.1036  0.2095 -0.4396
  156MPD2     C 2373   3.795   1.089  12.328  0.1495 -0.0062  0.0017
  156MPD2    C1 2374   3.837   1.197  12.245  0.2524  0.1929  0.1846
  156MPD2    C2 2375   3.934   1.285  12.296 -0.4182 -0.0875 -0.0293
  156MPD2    C3 2376   3.992   1.263  12.416 -0.3008  0.3097  0.0166
  156MPD2    C4 2377   3.960   1.147  12.490 -0.2100 -0.1079 -0.0891
  156MPD2    C5 2378   3.860   1.070  12.446  0.1938  0.2162 -0.5028
  156MPD2     H 2379   3.968   1.368  12.236  3.4631 -0.4744  1.6322
  156MPD2    H1 2380   4.019   1.129  12.579 -1.3684  1.6263  1.0318
  156MPD2    H2 2381   3.733   1.011  12.287 -0.3050  0.6488 -0.5603
  156MPD2    H3 2382   3.845   0.973  12.493 -2.8983  0.6437 -0.6036
  156MPD2     N 2383   4.078   1.358  12.457 -0.3697 -0.0852  0.2555
  156MPD2    H5 2384   4.114   1.419  12.384 -1.3902 -0.9555 -0.9784
  156MPD2    N1 2385   3.761   1.215  12.126 -0.0272  0.4581  0.3130
  156MPD2    H7 2386   3.710   1.133  12.094  1.0898 -0.6543  1.4015
  157TCq2    C1 2387   3.778   1.319  12.040 -0.4387 -0.1506  0.0475
  157TCq2    O2 2388   3.809   1.430  12.068  0.1077  0.0459  0.4107
  157TCq2    C2 2389   3.730   1.290  11.901 -0.2627 -0.1520 -0.0344
  157TCq2    C3 2390   3.619   1.209  11.882 -0.0371 -0.1939 -1.0095
  157TCq2    C4 2391   3.576   1.213  11.754 -0.0484  0.1321 -0.4367
  157TCq2    C5 2392   3.636   1.287  11.656  0.0051 -0.2464  0.1652
  157TCq2    C6 2393   3.745   1.359  11.676  0.5099  0.1588 -0.3510
  157TCq2    C7 2394   3.796   1.362  11.799  0.3498 -0.5776  0.8514
  157TCq2    C8 2395   3.800   1.448  11.573  0.9081  1.5754  0.3610
  157TCq2    O4 2396   3.896   1.512  11.608  0.6793  0.5147 -0.4978
  157TCq2    C9 2397   3.453   1.147  11.732  0.5988 -0.1848  0.4080
  157TCq2    O5 2398   3.378   1.119  11.829 -0.3967  0.4080  0.0632
  157TCq2    O6 2399   3.410   1.164  11.613 -0.5080  0.0504  0.0268
  157TCq2    H2 2400   3.556   1.174  11.963  0.5270 -1.4498 -1.1174
  157TCq2    H3 2401   3.594   1.276  11.556  2.3052  2.0030 -1.0509
  157TCq2    H4 2402   3.885   1.416  11.830  0.6040 -1.4336  1.6151
  158TMC2    C1 2403   0.234   1.007  13.636 -0.5029  0.3532 -0.6012
  158TMC2    C2 2404   0.362   1.032  13.580 -0.1276  0.1293  0.2563
  158TMC2    C3 2405   0.371   0.997  13.445  0.6849 -0.2933 -0.1999
  158TMC2    C4 2406   0.130   0.956  13.561  0.2744  0.7116 -0.3868
  158TMC2    C5 2407   0.149   0.917  13.432  0.4049  0.4224  0.0818
  158TMC2    C6 2408   0.271   0.939  13.374  0.5028 -0.3025 -0.3853
  158TMC2     C 2409   0.236   0.995  13.781  0.2173 -0.4966 -0.2708
  158TMC2     O 2410   0.328   1.055  13.829  0.4081 -0.7477  0.2650
  158TMC2     H 2411   0.448   1.048  13.643 -0.7501 -1.5515  1.5279
  158TMC2    H1 2412   0.034   0.951  13.611 -0.4456 -0.1618 -1.8586
  158TMC2    H2 2413   0.283   0.905  13.272  0.9490 -2.7966  0.5103
  158TMC2    C7 2414   0.040   0.939  13.340 -0.1560 -0.1517 -0.5760
  158TMC2    C8 2415   0.501   0.969  13.385 -0.6724 -0.0378 -0.2414
  158TMC2    O1 2416   0.052   1.002  13.237  0.3157 -0.1408  0.2210
  158TMC2    O2 2417   0.515   0.949  13.262 -0.6153  0.3158  0.0918
  158TMC2    O5 2418   0.558   0.880  13.470  0.2282  0.4527  0.4239
  158TMC2    H5 2419   0.507   0.854  13.549 -3.5629 -0.8028 -2.4475
  159MPD2     C 2420   0.070   0.882  14.256  0.3896  0.6560  0.0082
  159MPD2    C1 2421   4.699   0.828  14.164  0.6912  0.0679 -0.1144
  159MPD2    C2 2422   0.003   0.831  14.027 -0.3435 -0.3020 -1.0370
  159MPD2    C3 2423   0.114   0.904  13.980  0.2349  0.0208  0.3846
  159MPD2    C4 2424   0.203   0.966  14.070 -0.5891  0.1769  0.0296
  159MPD2    C5 2425   0.179   0.945  14.205 -0.2174 -0.4787  0.2946
  159MPD2     H 2426   4.660   0.777  13.960  0.5093 -1.6909 -0.7548
  159MPD2    H1 2427   0.296   1.015  14.044 -1.1268  0.2097 -1.8186
  159MPD2    H2 2428   0.046   0.874  14.361 -1.6055  0.1864 -0.4935
  159MPD2    H3 2429   0.244   0.997  14.273  0.2115 -0.4947 -0.1021
  159MPD2     N 2430   0.138   0.907  13.840  0.0937 -0.2588 -0.5138
  159MPD2    H5 2431   0.073   0.851  13.786 -0.2411  0.4384 -0.8440
  159MPD2    N1 2432   4.588   0.759  14.221 -0.8343  0.5224 -0.0929
  159MPD2    H7 2433   4.589   0.746  14.322 -1.6854  0.0688 -0.1409
  160TMC2    C1 2434   3.565   4.106   1.708 -0.0450 -0.0812  0.1500
  160TMC2    C2 2435   3.663   4.011   1.735  0.3418  0.5994  0.1200
  160TMC2    C3 2436   3.742   3.963   1.632  0.2288 -0.6055 -0.3714
  160TMC2    C4 2437   3.553   4.148   1.575 -0.1943  0.0591  0.3981
  160TMC2    C5 2438   3.646   4.107   1.480 -0.7602  0.5020  0.4409
  160TMC2    C6 2439   3.732   4.009   1.504  0.2473 -0.1311  0.3066
  160TMC2     C 2440   3.474   4.150   1.805  0.0505 -0.0410  0.5244
  160TMC2     O 2441   3.507   4.169   1.918 -0.0980 -0.8157  0.2589
  160TMC2     H 2442   3.679   3.974   1.836 -1.5872  0.6453  0.4334
  160TMC2    H1 2443   3.480   4.225   1.549  1.7644  1.9303  0.4574
  160TMC2    H2 2444   3.793   3.965   1.426 -0.8133 -1.0569  0.0021
  160TMC2    C7 2445   3.656   4.182   1.361 -0.3813 -0.1796 -0.4810
  160TMC2    C8 2446   3.808   3.835   1.658 -0.1610 -0.3069  0.1540
  160TMC2    O1 2447   3.555   4.229   1.307  0.7432 -0.2188 -0.3502
  160TMC2    O2 2448   3.925   3.808   1.644 -0.3855  0.4806 -0.0738
  160TMC2    O5 2449   3.709   3.746   1.635  0.3939  0.2559 -0.4128
  160TMC2    H5 2450   3.627   3.799   1.624 -0.5330 -0.5052  2.8757
  161MPD2     C 2451   3.229   4.206   1.956 -0.0564 -0.0373 -0.0306
  161MPD2    C1 2452   3.233   4.192   1.819 -0.4676  0.8293 -0.0535
  161MPD2    C2 2453   3.123   4.224   1.750 -0.0412  0.0826  0.2806
  161MPD2    C3 2454   3.003   4.257   1.809  0.0589  0.5884 -0.8782
  161MPD2    C4 2455   2.999   4.272   1.944  0.5394 -0.1142  0.1213
  161MPD2    C5 2456   3.110   4.239   2.015 -0.3045 -0.3276 -0.0065
  161MPD2     H 2457   3.130   4.222   1.641 -4.2543  2.7662 -0.0486
  161MPD2    H1 2458   2.903   4.292   1.989  0.0021  1.7232 -1.8289
  161MPD2    H2 2459   3.310   4.195   2.026  0.4440 -2.3697 -0.9857
  161MPD2    H3 2460   3.108   4.257   2.122 -1.2577  1.5411 -0.3449
  161MPD2     N 2461   2.887   4.298   1.741 -0.1003 -0.4420  0.2431
  161MPD2    H5 2462   2.813   4.344   1.793  0.2351  0.1203  0.2319
  161MPD2    N1 2463   3.348   4.161   1.749  0.3139  0.2756 -0.3307
  161MPD2    H7 2464   3.334   4.135   1.651  0.0693  2.3603 -0.8412
  162TMC2    C1 2465   1.312   1.737   0.945  0.5364  0.1501  0.3447
  162TMC2    C2 2466   1.288   1.871   0.929  0.5538  0.4860  0.3202
  162TMC2    C3 2467   1.237   1.942   1.039  0.3946  0.4679 -0.3452
  162TMC2    C4 2468   1.298   1.676   1.068  1.1489 -0.6606 -0.6706
  162TMC2    C5 2469   1.257   1.752   1.176 -0.1858  0.3355 -0.0790
  162TMC2    C6 2470   1.217   1.883   1.156  0.2323 -0.1118 -0.2754
  162TMC2     C 2471   1.368   1.667   0.832 -0.1549  0.2381 -0.3233
  162TMC2     O 2472   1.411   1.555   0.854  0.5243  0.0385 -0.1351
  162TMC2     H 2473   1.292   1.930   0.838  1.2437  1.0968  0.7499
  162TMC2    H1 2474   1.325   1.571   1.075  1.1177 -0.5979  0.4874
  162TMC2    H2 2475   1.189   1.933   1.248  0.2611 -0.9739  0.2091
  162TMC2    C7 2476   1.270   1.699   1.315 -0.5736 -0.4949 -0.6262
  162TMC2    C8 2477   1.234   2.087   1.031 -0.6232  0.1180 -0.5793
  162TMC2    O1 2478   1.226   1.777   1.399  0.1404 -0.2447 -1.0624
  162TMC2    O2 2479   1.193   2.139   0.926  0.1880 -0.1893  0.3905
  162TMC2    O5 2480   1.324   2.138   1.120 -0.4783  0.6564  0.3808
  162TMC2    H5 2481   1.351   2.084   1.198 -1.2073  1.3839  1.1300
  163MPD2     C 2482   1.563   1.646   0.356 -0.5802  0.1375  0.2629
  163MPD2    C1 2483   1.578   1.565   0.462  0.2621 -1.2830  0.2232
  163MPD2    C2 2484   1.523   1.590   0.584  0.3136  0.2391  0.1300
  163MPD2    C3 2485   1.454   1.707   0.599  0.2525  0.5562  0.6939
  163MPD2    C4 2486   1.433   1.788   0.489  0.9237  0.8367 -0.2625
  163MPD2    C5 2487   1.486   1.752   0.368  0.4318 -0.1404 -0.5046
  163MPD2     H 2488   1.546   1.517   0.661 -2.4748  0.6046  1.3103
  163MPD2    H1 2489   1.366   1.872   0.495 -1.4567 -1.1133  0.3721
  163MPD2    H2 2490   1.603   1.627   0.257 -3.6864 -1.5493 -0.6692
  163MPD2    H3 2491   1.472   1.815   0.281 -0.4427 -0.1634 -0.3859
  163MPD2     N 2492   1.380   1.742   0.719 -0.0774  1.0142 -0.0443
  163MPD2    H5 2493   1.343   1.837   0.716 -0.4897  0.8607  0.1629
  163MPD2    N1 2494   1.664   1.460   0.428 -0.2705 -0.3425 -0.2440
  163MPD2    H7 2495   1.682   1.452   0.329 -2.0636 -0.6271 -0.5445
  164TCq2    C1 2496   2.853   0.128  10.543 -0.3046 -0.2984  0.7043
  164TCq2    O2 2497   2.765   0.057  10.596  0.3784 -0.9604 -0.0840
  164TCq2    C2 2498   2.846   0.270  10.579  0.3654  0.5848  0.6809
  164TCq2    C3 2499   2.883   0.358  10.482  0.3299 -0.6328  0.5281
  164TCq2    C4 2500   2.857   0.489  10.507 -0.7432 -0.0294 -0.0808
  164TCq2    C5 2501   2.783   0.532  10.617 -0.4723  0.1981 -0.1989
  164TCq2    C6 2502   2.740   0.436  10.707  0.3059 -1.0273  0.3692
  164TCq2    C7 2503   2.774   0.304  10.687 -1.0242 -0.0413 -0.3878
  164TCq2    C8 2504   2.643   0.477  10.805  0.1373  0.1737  0.9187
  164TCq2    O4 2505   2.590   0.583  10.780 -0.4256 -0.1400 -0.2828
  164TCq2    C9 2506   2.907   0.590  10.419  0.9033 -0.3623  0.9246
  164TCq2    O5 2507   2.875   0.712  10.436 -0.8132  0.1706  0.4150
  164TCq2    O6 2508   2.921   0.542  10.302 -0.1177 -0.5796  0.3133
  164TCq2    H2 2509   2.956   0.340  10.403  0.4513  1.0729  0.2478
  164TCq2    H3 2510   2.750   0.635  10.628  0.4026  0.7090 -2.2561
  164TCq2    H4 2511   2.732   0.229  10.753 -2.3381 -2.3241 -3.8670
  165MPD2     C 2512   2.559   3.295   0.833 -0.2108  0.6666  0.1199
  165MPD2    C1 2513   2.681   3.236   0.809  1.2499 -0.0513 -0.0587
  165MPD2    C2 2514   2.800   3.276   0.871 -0.5897 -0.3525 -0.4009
  165MPD2    C3 2515   2.789   3.376   0.968  0.9082 -0.3588 -0.1482
  165MPD2    C4 2516   2.669   3.429   0.991  0.1169 -0.3955  0.4847
  165MPD2    C5 2517   2.559   3.393   0.927  0.1128  0.4326 -0.3847
  165MPD2     H 2518   2.896   3.229   0.853  0.5795  0.9872  2.2340
  165MPD2    H1 2519   2.651   3.509   1.062  0.4625 -3.0345  3.5580
  165MPD2    H2 2520   2.466   3.263   0.787 -0.0094  1.1078 -0.5923
  165MPD2    H3 2521   2.470   3.450   0.952 -0.3401  0.0819 -1.2099
  165MPD2     N 2522   2.896   3.435   1.044 -0.0103 -0.8071 -0.4939
  165MPD2    H5 2523   2.867   3.501   1.115  0.7484  1.9619 -2.7197
  165MPD2    N1 2524   2.669   3.131   0.725  0.9849 -0.3371  0.0794
  165MPD2    H7 2525   2.582   3.123   0.674 -0.1913 -2.1074  2.3996
  166TCq2    C1 2526   3.026   3.390   1.053 -0.1849 -0.3862 -0.1012
  166TCq2    O2 2527   3.085   3.313   0.980 -0.8042 -0.5005  0.5304
  166TCq2    C2 2528   3.095   3.463   1.146  0.0728 -0.0130  0.3682
  166TCq2    C3 2529   3.047   3.577   1.206  0.1185 -0.4768 -0.3082
  166TCq2    C4 2530   3.120   3.634   1.307  0.5113 -0.2382 -0.3772
  166TCq2    C5 2531   3.230   3.579   1.362 -0.3794  0.3700 -0.1724
  166TCq2    C6 2532   3.268   3.458   1.310  0.9824  0.3580  0.2637
  166TCq2    C7 2533   3.206   3.400   1.198 -0.2629  0.1243 -0.3487
  166TCq2    C8 2534   3.399   3.412   1.354  0.1394  0.0656  0.1106
  166TCq2    O4 2535   3.485   3.493   1.393 -0.0022 -0.1303 -0.2255
  166TCq2    C9 2536   3.074   3.755   1.364  0.1631  0.2199  0.3925
  166TCq2    O5 2537   2.986   3.821   1.300 -0.4644 -0.2222 -0.2044
  166TCq2    O6 2538   3.134   3.805   1.462  0.7711 -0.0088  0.5813
  166TCq2    H2 2539   2.961   3.628   1.165  0.8762 -0.5130 -1.9213
  166TCq2    H3 2540   3.265   3.624   1.454  0.4646  0.3708 -0.4875
  166TCq2    H4 2541   3.243   3.306   1.158  0.3092  1.1930 -2.3462
  167TMC2    C1 2542   1.715   0.162  12.647 -0.9331 -0.4472 -0.1213
  167TMC2    C2 2543   1.623   0.182  12.744 -0.1808 -0.4260 -0.3489
  167TMC2    C3 2544   1.624   0.100  12.848 -0.1680 -1.0538  0.2789
  167TMC2    C4 2545   1.812   0.063  12.652  0.0713 -0.1089  0.1570
  167TMC2    C5 2546   1.805   4.700  12.757  0.0483 -0.2695 -0.8738
  167TMC2    C6 2547   1.712   4.716  12.856 -0.4640  0.2436  0.4828
  167TMC2     C 2548   1.708   0.249  12.530 -0.4083 -0.4123  0.4333
  167TMC2     O 2549   1.662   0.363  12.548  0.2031 -0.0316 -0.0448
  167TMC2     H 2550   1.552   0.264  12.731  0.0087  0.1658  2.3830
  167TMC2    H1 2551   1.875   0.047  12.565  1.9374 -0.4212  1.5775
  167TMC2    H2 2552   1.712   4.661  12.950  1.1055  0.0620  0.3785
  167TMC2    C7 2553   1.896   4.585  12.770  0.0700  0.3819 -0.2075
  167TMC2    C8 2554   1.503   0.113  12.930  0.0574 -0.2630  0.2873
  167TMC2    O1 2555   1.877   4.520  12.878 -0.5593  0.2290  0.5438
  167TMC2    O2 2556   1.464   0.012  12.981  0.2827 -0.7121  0.5930
  167TMC2    O5 2557   1.501   0.233  13.000  0.8405 -0.0761 -0.0023
  167TMC2    H5 2558   1.548   0.306  12.954 -0.8418  1.3627  0.5781
  168MPD2     C 2559   1.846   0.407  12.308 -0.2409 -0.4147 -0.0842
  168MPD2    C1 2560   1.816   0.263  12.303  0.0117 -0.6687 -0.3669
  168MPD2    C2 2561   1.855   0.188  12.190 -0.4235 -0.1579 -0.1844
  168MPD2    C3 2562   1.942   0.253  12.104  0.3163 -1.0112  0.8335
  168MPD2    C4 2563   1.967   0.388  12.112 -0.1225 -0.0815  0.1385
  168MPD2    C5 2564   1.928   0.469  12.210 -0.6113  0.3255  0.1728
  168MPD2     H 2565   1.825   0.084  12.195  0.6732 -0.4353  0.6133
  168MPD2    H1 2566   2.038   0.439  12.048  1.0501  0.3228  1.7493
  168MPD2    H2 2567   1.819   0.473  12.389 -0.7283  0.4917 -0.9969
  168MPD2    H3 2568   1.945   0.576  12.204 -0.6260  0.2520 -1.0873
  168MPD2     N 2569   2.006   0.189  11.999  0.2368 -0.9362 -0.6427
  168MPD2    H5 2570   2.061   0.245  11.935 -2.0326 -0.0006 -1.7385
  168MPD2    N1 2571   1.758   0.192  12.411  0.0864  0.2045  0.0805
  168MPD2    H7 2572   1.754   0.091  12.406 -2.7092  0.2605  1.3253
  169MPD1     C 2573   0.436   3.623   9.616  0.1914  0.1333 -0.4304
  169MPD1    C1 2574   0.348   3.592   9.519 -0.1155 -0.0686 -0.1983
  169MPD1    C2 2575   0.277   3.695   9.459  0.2656 -0.8374  0.5300
  169MPD1    C3 2576   0.286   3.827   9.502  0.6950  0.1321 -0.1889
  169MPD1    C4 2577   0.367   3.856   9.600  0.4567  0.3476  0.2379
  169MPD1    C5 2578   0.448   3.758   9.655  0.1689  0.0298 -1.1206
  169MPD1     H 2579   0.205   3.661   9.385  0.4242  1.1170 -0.5197
  169MPD1    H1 2580   0.379   3.958   9.637  0.8456  0.9436 -1.5476
  169MPD1    H2 2581   0.499   3.554   9.670  0.8649  1.2313  0.2033
  169MPD1    H3 2582   0.514   3.779   9.739 -0.4929 -1.4715 -0.2196
  169MPD1     N 2583   0.208   3.927   9.436  1.1185  0.2322  0.1163
  169MPD1    H5 2584   0.146   3.898   9.361  2.1449  1.1680 -1.1040
  169MPD1    N1 2585   0.334   3.466   9.468  0.1510  0.4047 -0.3482
  169MPD1    H6 2586   0.397   3.445   9.390  1.1050  1.1357  0.2303
  169MPD1    H7 2587   0.248   3.463   9.413 -0.4219 -1.6824  0.6583
  170MPD1     C 2588   2.754   2.034  12.598 -0.9981  0.6230  0.2169
  170MPD1    C1 2589   2.776   2.168  12.630  0.2611  0.1652 -0.0400
  170MPD1    C2 2590   2.830   2.204  12.751  0.0531 -0.0485  0.3367
  170MPD1    C3 2591   2.862   2.100  12.841  0.3726  0.9753 -0.3293
  170MPD1    C4 2592   2.851   1.967  12.805  0.1980 -0.3302  0.2273
  170MPD1    C5 2593   2.804   1.937  12.681 -0.4091 -0.2098  0.0443
  170MPD1     H 2594   2.849   2.308  12.776  0.3519 -0.2320  0.8693
  170MPD1    H1 2595   2.879   1.883  12.868  1.0787 -0.4809 -0.3730
  170MPD1    H2 2596   2.717   2.009  12.499  0.1560 -1.6344  0.3706
  170MPD1    H3 2597   2.800   1.837  12.640 -0.4479  0.2450 -1.0561
  170MPD1     N 2598   2.895   2.144  12.967 -0.2256  0.6818 -0.0591
  170MPD1    H5 2599   2.903   2.244  12.980 -0.0204  0.2563  3.3224
  170MPD1    N1 2600   2.740   2.273  12.544 -0.0498 -0.3747 -0.0973
  170MPD1    H6 2601   2.793   2.359  12.553 -1.5931  0.7753 -2.0432
  170MPD1    H7 2602   2.726   2.232  12.452  1.3915  1.8548 -1.3155
  171MPD1     C 2603   1.149   4.154  15.591  0.3746  0.3422  0.1491
  171MPD1    C1 2604   1.260   4.141  15.670  0.2287 -0.3612 -0.8025
  171MPD1    C2 2605   1.302   4.014  15.718 -0.2373 -0.2953  0.2038
  171MPD1    C3 2606   1.216   3.906  15.698 -0.2364  0.2749  0.7237
  171MPD1    C4 2607   1.098   3.923  15.627 -0.9095 -0.3405  0.4531
  171MPD1    C5 2608   1.064   4.052  15.580 -0.3981  0.6738  0.0172
  171MPD1     H 2609   1.397   4.011  15.769 -0.1611 -0.9373  0.0218
  171MPD1    H1 2610   1.026   3.844  15.606  0.7865 -0.9355 -3.1799
  171MPD1    H2 2611   1.110   4.250  15.560 -0.6218 -0.0281  0.2822
  171MPD1    H3 2612   0.984   4.058  15.508 -1.1219 -0.6133  0.7153
  171MPD1     N 2613   1.268   3.782  15.734  0.2707  0.4401 -0.5731
  171MPD1    H5 2614   1.359   3.776  15.779 -1.2880  2.2068  2.7545
  171MPD1    N1 2615   1.355   4.251  15.686 -0.4861  0.1000 -0.0091
  171MPD1    H6 2616   1.407   4.250  15.773  2.2027 -0.2845 -1.6431
  171MPD1    H7 2617   1.329   4.346  15.658 -1.5817 -0.3522 -0.5615
  172MPD1     C 2618   0.114   3.542  17.679 -0.1201 -0.1355  0.6626
  172MPD1    C1 2619   0.048   3.560   0.112  0.9876  0.1783 -0.0598
  172MPD1    C2 2620   0.124   3.527   0.228  0.8937 -0.0884  0.4610
  172MPD1    C3 2621   0.254   3.483   0.213  0.6719  0.9395  1.1215
  172MPD1    C4 2622   0.306   3.453   0.092 -0.7785  0.1483 -0.0963
  172MPD1    C5 2623   0.235   3.482  17.670  0.7693  0.1214 -0.0269
  172MPD1     H 2624   0.087   3.540   0.329  0.6595 -1.0526  0.4975
  172MPD1    H1 2625   0.411   3.428   0.082 -0.7939 -0.6532  1.6245
  172MPD1    H2 2626   0.066   3.569  17.586 -0.4362 -4.2403 -0.3497
  172MPD1    H3 2627   0.272   3.472  17.569 -1.0622  1.5793 -0.8554
  172MPD1     N 2628   0.345   3.459   0.320  0.0578 -0.1043  0.7284
  172MPD1    H5 2629   0.420   3.394   0.300  0.6835  0.5916  0.8441
  172MPD1    N1 2630   4.656   3.641   0.130  0.5717  0.5958 -0.3791
  172MPD1    H6 2631   4.594   3.621   0.052  1.0632 -2.4491 -0.0042
  172MPD1    H7 2632   4.606   3.603   0.210  0.2712  1.3531 -0.2114
  173MPD1     C 2633   2.196   2.655  14.044 -0.6553 -0.2348  0.1592
  173MPD1    C1 2634   2.098   2.730  14.093 -0.8695  0.3641 -0.2643
  173MPD1    C2 2635   2.131   2.814  14.202  1.5450  0.0575  0.4635
  173MPD1    C3 2636   2.259   2.826  14.260  0.2242  0.3704 -0.9248
  173MPD1    C4 2637   2.361   2.747  14.195 -0.1747  0.3758  0.1599
  173MPD1    C5 2638   2.319   2.659  14.099 -0.1578 -0.6299 -0.1660
  173MPD1     H 2639   2.059   2.883  14.243 -1.4181 -1.9418 -1.3760
  173MPD1    H1 2640   2.466   2.749  14.220  0.2408  0.9588 -1.6491
  173MPD1    H2 2641   2.173   2.581  13.968 -1.7333  0.3700 -0.1058
  173MPD1    H3 2642   2.391   2.590  14.056  0.4388 -0.1418  0.0522
  173MPD1     N 2643   2.277   2.909  14.367  0.1716 -0.4119  0.1145
  173MPD1    H5 2644   2.198   2.966  14.395  1.2941  0.5538  1.2826
  173MPD1    N1 2645   1.959   2.706  14.061 -0.3786 -0.1128 -0.1115
  173MPD1    H6 2646   1.939   2.664  13.971  0.5425  4.9507 -2.6874
  173MPD1    H7 2647   1.907   2.793  14.068  0.4328  0.3454  0.3404
  174MPD1     C 2648   3.027   3.459  14.802  0.2726 -0.7883 -0.2984
  174MPD1    C1 2649   2.916   3.469  14.882 -0.2762  0.6487 -0.3555
  174MPD1    C2 2650   2.802   3.398  14.854  0.7281  0.3428  0.4083
  174MPD1    C3 2651   2.790   3.336  14.724 -0.3604 -0.8746 -0.3618
  174MPD1    C4 2652   2.901   3.331  14.643  0.3274  0.6786  0.0840
  174MPD1    C5 2653   3.020   3.390  14.685 -0.4128  0.5335 -0.2819
  174MPD1     H 2654   2.727   3.388  14.931  1.6346 -1.5116  1.0515
  174MPD1    H1 2655   2.890   3.280  14.548  1.1655 -0.0019  0.3528
  174MPD1    H2 2656   3.123   3.505  14.821  0.6517 -1.0357 -1.5994
  174MPD1    H3 2657   3.111   3.386  14.626 -1.2083  2.8467 -1.6509
  174MPD1     N 2658   2.670   3.273  14.685 -0.4185  0.8530  0.3588
  174MPD1    H5 2659   2.670   3.220  14.599  1.3325  1.5679 -0.0748
  174MPD1    N1 2660   2.931   3.526  15.005  0.3894 -0.5356  0.4380
  174MPD1    H6 2661   2.853   3.579  15.042 -0.4486 -0.8751 -0.8765
  174MPD1    H7 2662   2.999   3.601  15.001  0.8385 -1.0551 -1.3747
  175MPD1     C 2663   4.713   4.065  15.780 -0.8772 -0.5884  0.4437
  175MPD1    C1 2664   0.063   3.959  15.820  0.2357 -0.3850 -0.6223
  175MPD1    C2 2665   0.066   3.917  15.951 -0.0297 -0.0670 -0.2960
  175MPD1    C3 2666   4.698   3.977  16.042  0.7698  1.0718  0.2175
  175MPD1    C4 2667   4.619   4.082  15.996  1.0462 -0.1693 -0.7259
  175MPD1    C5 2668   4.628   4.127  15.867 -0.4719  0.0243 -0.2129
  175MPD1     H 2669   0.137   3.838  15.969  0.6858  0.1874 -1.9799
  175MPD1    H1 2670   4.540   4.125  16.055  1.4520 -0.8770  0.3442
  175MPD1    H2 2671   4.709   4.101  15.678  1.9415  0.8026  0.8252
  175MPD1    H3 2672   4.569   4.209  15.826  1.1297  0.5044 -1.5877
  175MPD1     N 2673   4.699   3.956  16.177  0.2039 -0.4147 -0.0897
  175MPD1    H5 2674   4.616   3.980  16.230  1.6806  0.4814  1.8300
  175MPD1    N1 2675   0.162   3.922  15.732 -0.3722 -0.6101 -0.2107
  175MPD1    H6 2676   0.131   3.914  15.636 -0.9692  2.6334 -0.2810
  175MPD1    H7 2677   0.215   3.837  15.754 -0.4277 -0.6536 -0.2455
  176MPD1     C 2678   2.173   0.976  15.963 -0.3935 -0.2753  0.1788
  176MPD1    C1 2679   2.124   0.891  16.061 -0.7170 -1.0672 -0.5329
  176MPD1    C2 2680   2.132   0.936  16.191  0.7526  0.9554  0.3121
  176MPD1    C3 2681   2.180   1.062  16.227 -0.3783  0.1850 -0.0333
  176MPD1    C4 2682   2.216   1.143  16.128  0.2122  0.2655  0.1149
  176MPD1    C5 2683   2.205   1.103  15.994 -0.0061 -0.3076  0.3008
  176MPD1     H 2684   2.100   0.871  16.272  0.6629 -0.2749 -0.7152
  176MPD1    H1 2685   2.254   1.244  16.139 -0.2808  0.6706 -1.9164
  176MPD1    H2 2686   2.175   0.937  15.861 -1.8605  0.5179 -0.1594
  176MPD1    H3 2687   2.249   1.158  15.911  0.5639 -0.6561  0.3669
  176MPD1     N 2688   2.195   1.101  16.357  0.1277 -0.1114 -0.0429
  176MPD1    H5 2689   2.164   1.040  16.432 -0.0051  0.0246  0.0146
  176MPD1    N1 2690   2.081   0.760  16.036  0.2794 -0.0742 -0.1277
  176MPD1    H6 2691   2.008   0.734  16.102  0.7628  0.6558  0.7017
  176MPD1    H7 2692   2.051   0.758  15.939 -0.2662  2.0605 -0.0055
  177MPD1     C 2693   0.839   0.927  10.373 -1.2347  0.2030  0.1968
  177MPD1    C1 2694   0.815   1.046  10.313 -0.4415  0.2843  0.7602
  177MPD1    C2 2695   0.747   1.049  10.189  0.4193 -0.0320 -0.2021
  177MPD1    C3 2696   0.722   0.932  10.118 -0.1629 -0.4448  0.3644
  177MPD1    C4 2697   0.777   0.819  10.166 -0.1485 -0.1352 -0.2396
  177MPD1    C5 2698   0.839   0.815  10.292 -0.1679 -0.1789  0.5693
  177MPD1     H 2699   0.707   1.144  10.155 -1.5932 -0.2018  1.6601
  177MPD1    H1 2700   0.775   0.728  10.106  2.3599  1.2362 -2.3973
  177MPD1    H2 2701   0.897   0.922  10.464 -1.7606 -0.1218  0.5127
  177MPD1    H3 2702   0.878   0.725  10.338 -0.2653 -0.6973 -0.3680
  177MPD1     N 2703   0.657   0.941   9.991 -0.2927 -0.2063  0.6147
  177MPD1    H5 2704   0.632   1.035   9.962  1.0926 -0.0444 -0.0642
  177MPD1    N1 2705   0.833   1.168  10.379  0.3374 -0.1068 -0.0849
  177MPD1    H6 2706   0.915   1.176  10.438 -0.1728  0.7920  0.5041
  177MPD1    H7 2707   0.825   1.253  10.323 -0.5618  1.3799  2.2828
  178MPD1     C 2708   2.844   2.199   0.037 -0.1359 -0.3631 -0.2045
  178MPD1    C1 2709   2.769   2.083   0.013 -0.6394 -0.1735  0.2915
  178MPD1    C2 2710   2.790   2.023  17.587  0.2278  0.3633 -0.4598
  178MPD1    C3 2711   2.892   2.062  17.497  0.3537  0.0350 -0.7086
  178MPD1    C4 2712   2.971   2.169  17.529 -0.0153  0.2944  0.3340
  178MPD1    C5 2713   2.944   2.239  17.639  0.1982  0.7364  0.3825
  178MPD1     H 2714   2.728   1.939  17.557 -0.7379  0.1093  2.3095
  178MPD1    H1 2715   3.056   2.200  17.469  1.1764 -0.8619  1.4041
  178MPD1    H2 2716   2.837   2.263   0.125 -1.2245 -0.7018 -0.0456
  178MPD1    H3 2717   3.021   2.310  17.664  0.3673  1.4221 -2.0201
  178MPD1     N 2718   2.913   2.017  17.361  0.2249  0.1225 -0.9906
  178MPD1    H5 2719   2.978   2.066  17.300  0.7085 -1.3618 -1.6707
  178MPD1    N1 2720   2.663   2.044   0.094 -0.0406 -0.0496  0.3001
  178MPD1    H6 2721   2.622   1.955   0.068 -0.7276  1.1444 -2.6125
  178MPD1    H7 2722   2.685   2.048   0.194 -0.1590 -1.2497  0.3650
  179MPD1     C 2723   2.336   0.607  15.472 -0.1730 -0.4867 -0.6542
  179MPD1    C1 2724   2.331   0.647  15.607  0.3430 -0.4133  0.0059
  179MPD1    C2 2725   2.337   0.545  15.701  0.0401  0.0468 -0.0639
  179MPD1    C3 2726   2.362   0.415  15.662  0.7174  0.2165  0.1699
  179MPD1    C4 2727   2.365   0.381  15.527 -0.1935 -0.1575  0.4948
  179MPD1    C5 2728   2.343   0.478  15.434 -1.2794 -0.2938  0.7926
  179MPD1     H 2729   2.315   0.562  15.806  2.0151 -1.3994  0.5857
  179MPD1    H1 2730   2.384   0.279  15.499  1.9378  0.7394 -1.2809
  179MPD1    H2 2731   2.334   0.690  15.402 -1.1127 -0.0348 -0.1057
  179MPD1    H3 2732   2.341   0.443  15.332  0.0862  1.0949  0.3053
  179MPD1     N 2733   2.387   0.307  15.744  0.0189  0.0525 -0.6076
  179MPD1    H5 2734   2.401   0.214  15.705  0.0641  0.4097 -1.4377
  179MPD1    N1 2735   2.289   0.785  15.637 -0.3130 -0.1857 -0.2761
  179MPD1    H6 2736   2.312   0.845  15.558 -0.0377 -0.4907 -0.4305
  179MPD1    H7 2737   2.334   0.819  15.723 -0.4920 -3.0922  0.9682
  180MPD1     C 2738   2.054   1.398  15.166 -0.4228 -0.2705  0.4777
  180MPD1    C1 2739   2.151   1.333  15.090  0.2195  0.3816  0.3553
  180MPD1    C2 2740   2.127   1.320  14.955  0.2145 -0.1191 -0.0318
  180MPD1    C3 2741   2.025   1.387  14.892  0.0151  0.2908 -0.2171
  180MPD1    C4 2742   1.940   1.454  14.968  0.5200  0.8317 -0.5403
  180MPD1    C5 2743   1.954   1.459  15.102  0.3243 -0.0283 -0.1229
  180MPD1     H 2744   2.199   1.258  14.902 -0.2116 -0.5198 -0.1464
  180MPD1    H1 2745   1.857   1.509  14.924 -1.6889  0.0279  2.6003
  180MPD1    H2 2746   2.054   1.397  15.275  0.2747 -0.5417  0.4770
  180MPD1    H3 2747   1.886   1.512  15.167  0.9669 -0.0122  0.5450
  180MPD1     N 2748   2.012   1.372  14.752 -0.2930  0.1163 -0.5349
  180MPD1    H5 2749   2.084   1.321  14.702  0.2914  1.8464 -1.4664
  180MPD1    N1 2750   2.250   1.260  15.148  0.0915  0.4360 -0.1913
  180MPD1    H6 2751   2.290   1.316  15.223  2.8048 -2.1246  0.3016
  180MPD1    H7 2752   2.319   1.223  15.083 -0.1342  1.3232 -0.9230
  181MPD1     C 2753   3.956   1.965   9.788 -0.1016 -0.2237 -0.2594
  181MPD1    C1 2754   3.893   2.085   9.802  0.1048 -0.0833  0.5360
  181MPD1    C2 2755   3.960   2.199   9.760 -0.7315  0.4286  0.7352
  181MPD1    C3 2756   4.092   2.202   9.722  0.1362  0.0509 -0.3112
  181MPD1    C4 2757   4.160   2.081   9.703 -1.0960  0.4002 -0.2950
  181MPD1    C5 2758   4.090   1.968   9.741 -0.1156  0.1853  0.2572
  181MPD1     H 2759   3.906   2.293   9.769 -0.6997  0.3652  1.5859
  181MPD1    H1 2760   4.267   2.069   9.694 -1.0931 -1.2457  2.0564
  181MPD1    H2 2761   3.905   1.872   9.808  2.5689 -1.5072  0.5623
  181MPD1    H3 2762   4.132   1.869   9.730 -0.1082  0.2842 -0.6106
  181MPD1     N 2763   4.162   2.316   9.679  0.2997 -0.0470  0.5879
  181MPD1    H5 2764   4.248   2.302   9.625  1.0849 -0.2817  1.9032
  181MPD1    N1 2765   3.760   2.100   9.853 -0.3911 -0.0919 -0.2880
  181MPD1    H6 2766   3.759   2.159   9.936 -1.8219 -1.5269  0.7097
  181MPD1    H7 2767   3.719   2.010   9.878 -0.0530  0.3338  1.7961
  182MPD1     C 2768   4.393   3.085   0.565  0.6914 -0.1554 -0.4849
  182MPD1    C1 2769   4.443   3.147   0.680  0.0119  0.0542 -0.1793
  182MPD1    C2 2770   4.534   3.073   0.758 -0.1066  0.1267  0.5701
  182MPD1    C3 2771   4.589   2.956   0.720  0.7347 -0.3012 -0.1948
  182MPD1    C4 2772   4.547   2.897   0.605  0.2211  0.0570 -0.0402
  182MPD1    C5 2773   4.455   2.966   0.523 -0.3947 -0.1587  0.6472
  182MPD1     H 2774   4.561   3.095   0.861  2.9699  2.1865 -0.6785
  182MPD1    H1 2775   4.582   2.803   0.563  0.7992  0.1543  0.2161
  182MPD1    H2 2776   4.341   3.145   0.491 -0.7645 -0.0962  0.5815
  182MPD1    H3 2777   4.415   2.928   0.430 -0.8427 -0.4769  0.9687
  182MPD1     N 2778   4.688   2.880   0.792 -0.3946  0.3766  0.2863
  182MPD1    H5 2779   4.709   2.786   0.761  1.3629  0.3544  1.5441
  182MPD1    N1 2780   4.377   3.262   0.732 -0.3777 -0.7191 -0.2456
  182MPD1    H6 2781   4.429   3.305   0.808 -0.6991  1.1514 -1.0889
  182MPD1    H7 2782   4.343   3.336   0.670 -2.0174  0.0686  1.5852
  183MPD1     C 2783   1.543   2.949   9.056  0.0948  0.6748  0.0646
  183MPD1    C1 2784   1.480   3.057   9.096 -0.6090  0.1879  0.4539
  183MPD1    C2 2785   1.376   3.046   9.179  0.0594 -0.4450  0.2369
  183MPD1    C3 2786   1.344   2.926   9.244  0.1148 -0.3337 -0.6329
  183MPD1    C4 2787   1.421   2.816   9.212  0.4509 -0.3061  0.4847
  183MPD1    C5 2788   1.521   2.827   9.114  0.9514  0.9102 -0.1028
  183MPD1     H 2789   1.322   3.139   9.198 -0.9312 -1.1575  0.9125
  183MPD1    H1 2790   1.419   2.731   9.279  0.8145 -0.5399  0.2005
  183MPD1    H2 2791   1.613   2.959   8.974 -0.5385 -0.6799 -0.6472
  183MPD1    H3 2792   1.592   2.747   9.095  0.6949  0.4269  0.9767
  183MPD1     N 2793   1.235   2.920   9.335 -0.3098  0.4618 -0.0986
  183MPD1    H5 2794   1.166   2.994   9.341  0.0687  0.6320  2.0433
  183MPD1    N1 2795   1.501   3.177   9.026  0.4545 -0.0404 -0.2806
  183MPD1    H6 2796   1.596   3.190   8.992  1.2635  0.4150  2.1204
  183MPD1    H7 2797   1.467   3.254   9.083  1.9886  0.6159 -0.2574
  184MPD1     C 2798   4.028   0.492   9.868 -0.3664  0.1224 -0.1294
  184MPD1    C1 2799   4.070   0.603   9.943 -0.4313 -0.6071 -0.1470
  184MPD1    C2 2800   4.173   0.681   9.892  0.0863 -0.4573 -0.3415
  184MPD1    C3 2801   4.212   0.654   9.755 -0.0450  0.9227 -0.7433
  184MPD1    C4 2802   4.143   0.565   9.681 -0.4847 -0.1332 -0.4098
  184MPD1    C5 2803   4.056   0.478   9.737  0.4466  0.1375  1.0344
  184MPD1     H 2804   4.217   0.760   9.951  2.4387 -2.6651  0.8565
  184MPD1    H1 2805   4.167   0.552   9.577  3.3537 -2.4235  0.7684
  184MPD1    H2 2806   3.956   0.423   9.910 -0.9067 -1.5707 -3.8719
  184MPD1    H3 2807   4.018   0.394   9.680  0.2566  0.0854  1.2357
  184MPD1     N 2808   4.316   0.726   9.694 -0.8023 -0.3383  0.0319
  184MPD1    H5 2809   4.329   0.699   9.597  1.1813 -0.9327  0.4639
  184MPD1    N1 2810   4.024   0.617  10.075 -0.4808  0.2954  0.2720
  184MPD1    H6 2811   4.045   0.714  10.096  0.4173 -0.1907  1.6485
  184MPD1    H7 2812   3.932   0.588  10.106 -0.0442 -1.4561 -0.0496
  185MPD1     C 2813   4.248   0.903   8.868  0.2283  0.7212 -0.0879
  185MPD1    C1 2814   4.361   0.979   8.897 -0.1191 -0.1213 -0.0258
  185MPD1    C2 2815   4.435   0.960   9.013  0.1624 -0.2975  0.7354
  185MPD1    C3 2816   4.388   0.878   9.117  0.0725 -0.0182 -0.0848
  185MPD1    C4 2817   4.276   0.809   9.089 -0.5077  1.1078  0.5231
  185MPD1    C5 2818   4.199   0.824   8.971 -0.0970 -0.0116 -0.0247
  185MPD1     H 2819   4.530   1.010   9.027  0.0307 -0.2197  1.3790
  185MPD1    H1 2820   4.233   0.751   9.170 -0.1225 -0.5414 -0.4562
  185MPD1    H2 2821   4.194   0.914   8.775 -0.6665 -1.2179  0.1910
  185MPD1    H3 2822   4.099   0.780   8.971 -0.4674  0.8258 -1.9432
  185MPD1     N 2823   4.449   0.868   9.245 -0.5908  0.5268 -0.3241
  185MPD1    H5 2824   4.403   0.808   9.313  0.8008  0.5600  0.6381
  185MPD1    N1 2825   4.402   1.065   8.793 -0.0212  0.3989  0.4612
  185MPD1    H6 2826   4.324   1.121   8.760 -1.6249 -1.3372  1.2686
  185MPD1    H7 2827   4.483   1.120   8.822  1.0605  0.2372 -2.3010
  186MPD1     C 2828   2.704   4.706  15.849 -0.4572  0.9623  0.1067
  186MPD1    C1 2829   2.760   4.647  15.965  0.2316  0.3452 -0.0476
  186MPD1    C2 2830   2.793   0.010  16.062  0.3357  0.0509  0.2211
  186MPD1    C3 2831   2.798   0.148  16.052 -0.2525 -0.3592 -0.0175
  186MPD1    C4 2832   2.755   0.203  15.933  0.0921  0.6271  0.8373
  186MPD1    C5 2833   2.704   0.124  15.835 -0.2438 -0.5825 -0.1625
  186MPD1     H 2834   2.819   4.679  16.153 -0.8162  0.5289  0.8362
  186MPD1    H1 2835   2.748   0.310  15.918 -0.9889  0.3260 -0.7987
  186MPD1    H2 2836   2.675   4.649  15.762  0.5368 -0.7816  0.9273
  186MPD1    H3 2837   2.666   0.170  15.745  0.0954 -0.1176 -0.0690
  186MPD1     N 2838   2.824   0.227  16.163 -0.7936  0.1295 -0.0730
  186MPD1    H5 2839   2.796   0.325  16.160  0.7162  0.6221  1.6263
  186MPD1    N1 2840   2.751   4.504  15.978  0.0869  0.1512  0.1911
  186MPD1    H6 2841   2.775   4.455  15.892 -1.2054 -0.7583  0.3346
  186MPD1    H7 2842   2.827   4.474  16.039 -0.6754 -1.7822  0.1996
  187MPD1     C 2843   1.752   2.077   0.325  0.1485  0.7447 -0.0889
  187MPD1    C1 2844   1.772   2.211   0.364  0.0066  0.1628 -0.6485
  187MPD1    C2 2845   1.792   2.303   0.264  0.3839 -0.1369  0.2359
  187MPD1    C3 2846   1.796   2.266   0.133  0.1159  1.0197  0.0797
  187MPD1    C4 2847   1.767   2.133   0.101 -0.6584  0.6936 -0.2299
  187MPD1    C5 2848   1.755   2.037   0.196  0.6880 -0.3334  0.4681
  187MPD1     H 2849   1.811   2.405   0.296 -0.1495  0.4506 -1.3314
  187MPD1    H1 2850   1.759   2.100  17.690 -1.7498  0.0061  0.0772
  187MPD1    H2 2851   1.734   2.007   0.405 -1.4402  2.2521  0.8671
  187MPD1    H3 2852   1.723   1.937   0.169 -0.5643  0.5400 -1.2807
  187MPD1     N 2853   1.824   2.349   0.024 -0.3232  0.5193  0.1873
  187MPD1    H5 2854   1.812   2.298  17.629 -1.0007 -0.3281  0.7770
  187MPD1    N1 2855   1.726   2.242   0.497  0.7168  0.3385 -0.1564
  187MPD1    H6 2856   1.790   2.314   0.531 -1.2288  1.6801  0.6542
  187MPD1    H7 2857   1.733   2.159   0.556 -0.8851 -1.6176 -2.7141
  188MPD1     C 2858   1.605   2.336   9.667  0.6607 -0.0246  0.4382
  188MPD1    C1 2859   1.581   2.258   9.780  0.2832 -0.1764 -0.4116
  188MPD1    C2 2860   1.668   2.158   9.811  0.4283 -0.0547  0.0882
  188MPD1    C3 2861   1.783   2.131   9.730  1.0681  0.8222 -0.5689
  188MPD1    C4 2862   1.819   2.217   9.630  0.0329 -0.0489 -0.0385
  188MPD1    C5 2863   1.726   2.317   9.602  0.5413 -0.1565 -0.2747
  188MPD1     H 2864   1.645   2.090   9.892 -0.0509  0.0053  0.0026
  188MPD1    H1 2865   1.892   2.195   9.553  1.3622  1.0674  0.9069
  188MPD1    H2 2866   1.544   2.418   9.632  1.9148 -0.2649 -2.2654
  188MPD1    H3 2867   1.739   2.378   9.514 -1.3783  3.1421  1.7411
  188MPD1     N 2868   1.846   2.001   9.728 -0.3682 -0.3590  0.4742
  188MPD1    H5 2869   1.915   1.982   9.655 -1.5838 -1.0547 -0.4807
  188MPD1    N1 2870   1.455   2.275   9.854  0.0012  0.1266  0.0262
  188MPD1    H6 2871   1.407   2.364   9.846 -0.0971 -0.0089 -0.9245
  188MPD1    H7 2872   1.461   2.255   9.953  1.1891  0.7933  0.0899
  189MPD1     C 2873   3.970   2.879  17.656  0.1007  0.4087 -0.0337
  189MPD1    C1 2874   3.871   2.784  17.653 -0.5377  0.1125  0.3638
  189MPD1    C2 2875   3.737   2.816  17.668  0.9274  0.4907  0.0009
  189MPD1    C3 2876   3.698   2.946   0.011  0.3799  0.4643  0.2911
  189MPD1    C4 2877   3.798   3.047   0.024  0.0586  0.4016  0.4784
  189MPD1    C5 2878   3.937   3.008   0.001  0.4496  0.0245  0.6520
  189MPD1     H 2879   3.659   2.740  17.667  0.2413  1.1875  0.8257
  189MPD1    H1 2880   3.779   3.151   0.047  0.6810  0.3684  1.1128
  189MPD1    H2 2881   4.076   2.857  17.644 -0.1428  0.0492 -1.4962
  189MPD1    H3 2882   4.020   3.076   0.015  0.7900 -0.2529  0.0088
  189MPD1     N 2883   3.568   2.977   0.031  0.2363  0.4952 -0.1694
  189MPD1    H5 2884   3.501   2.901   0.019  0.0739  1.0932 -3.2010
  189MPD1    N1 2885   3.903   2.651  17.607 -0.1804 -0.3012 -0.2702
  189MPD1    H6 2886   3.831   2.583  17.634 -0.3357  0.7104  1.9338
  189MPD1    H7 2887   3.999   2.619  17.613  0.0969  0.2439 -1.9768
  190MPD1     C 2888   1.742   1.524  15.925  0.0316 -0.6968  0.0682
  190MPD1    C1 2889   1.802   1.648  15.923 -0.2019 -0.7064 -0.9418
  190MPD1    C2 2890   1.937   1.661  15.894  0.5451 -0.4491 -0.2692
  190MPD1    C3 2891   2.011   1.544  15.875 -0.5492 -0.0409 -0.3085
  190MPD1    C4 2892   1.948   1.429  15.856  0.2066  0.3357  0.0144
  190MPD1    C5 2893   1.814   1.417  15.882 -0.5575 -0.1945  0.2585
  190MPD1     H 2894   1.980   1.760  15.899 -2.6414  0.8708  0.5717
  190MPD1    H1 2895   2.003   1.339  15.829 -1.7963 -1.1100  0.7684
  190MPD1    H2 2896   1.637   1.515  15.947  0.0966 -2.2010 -0.2306
  190MPD1    H3 2897   1.769   1.319  15.872 -0.6389  0.0520 -1.6732
  190MPD1     N 2898   2.150   1.550  15.858 -0.1622  0.3794  0.3710
  190MPD1    H5 2899   2.193   1.628  15.906  0.2519 -0.0996  0.7714
  190MPD1    N1 2900   1.724   1.762  15.960 -0.6665 -0.0638 -0.2811
  190MPD1    H6 2901   1.631   1.742  15.925 -1.0933 -0.6381  1.1918
  190MPD1    H7 2902   1.736   1.839  15.894 -0.7401 -0.3483 -0.6200
  191MPD1     C 2903   2.067   2.973  13.127  0.2890  0.3096 -0.0830
  191MPD1    C1 2904   2.169   2.989  13.034 -0.1190  0.5782  0.0566
  191MPD1    C2 2905   2.133   3.041  12.907 -0.5895 -0.3854 -0.6215
  191MPD1    C3 2906   1.999   3.079  12.872  1.0063 -0.1086  0.0722
  191MPD1    C4 2907   1.909   3.069  12.974  0.0208  0.0035 -0.1096
  191MPD1    C5 2908   1.938   3.003  13.095 -0.4554  0.7862  0.5033
  191MPD1     H 2909   2.211   3.043  12.832 -1.4394 -0.9049 -1.5159
  191MPD1    H1 2910   1.805   3.098  12.964  0.5867  1.8420 -0.6111
  191MPD1    H2 2911   2.089   2.929  13.224  0.7605 -1.1783 -0.8710
  191MPD1    H3 2912   1.855   2.974  13.159 -0.7179  2.9466  1.1574
  191MPD1     N 2913   1.971   3.136  12.742 -0.4607 -0.0750 -0.4388
  191MPD1    H5 2914   2.042   3.127  12.671 -0.2791 -1.8236 -0.0266
  191MPD1    N1 2915   2.305   2.948  13.056 -0.0660 -0.2752 -0.3175
  191MPD1    H6 2916   2.325   2.973  13.153 -1.6311  0.9163 -0.3104
  191MPD1    H7 2917   2.369   3.008  13.004 -1.4078  4.1186  3.0566
  192MPD1     C 2918   1.039   3.344  12.325 -0.5992  0.2582 -0.4318
  192MPD1    C1 2919   1.116   3.295  12.228 -0.1419  0.2514 -0.3673
  192MPD1    C2 2920   1.252   3.272  12.253 -0.0399 -0.0480  0.8195
  192MPD1    C3 2921   1.308   3.292  12.382 -0.5274 -0.1449  0.4402
  192MPD1    C4 2922   1.224   3.331  12.481 -0.8214  0.1349  0.3500
  192MPD1    C5 2923   1.092   3.354  12.452  0.5586 -0.0452 -0.1684
  192MPD1     H 2924   1.318   3.238  12.174 -1.8579 -0.0228 -0.7008
  192MPD1    H1 2925   1.265   3.339  12.581  0.9541 -0.5516 -0.3253
  192MPD1    H2 2926   0.938   3.375  12.300 -0.9957 -0.6905 -0.0103
  192MPD1    H3 2927   1.023   3.398  12.523 -1.1036  0.0629 -1.8738
  192MPD1     N 2928   1.449   3.270  12.409 -0.2635  0.1134 -0.1788
  192MPD1    H5 2929   1.490   3.283  12.501  0.7872 -2.3998 -0.2931
  192MPD1    N1 2930   1.067   3.285  12.095  0.5914 -0.9490 -0.1306
  192MPD1    H6 2931   1.114   3.209  12.045 -1.1694 -0.7417 -2.0811
  192MPD1    H7 2932   0.967   3.270  12.087  0.6370 -0.8300 -0.9720
  193MPD1     C 2933   1.270   3.238  16.096  0.1844  0.5545  0.3847
  193MPD1    C1 2934   1.205   3.363  16.106 -0.1576 -0.1569 -0.7773
  193MPD1    C2 2935   1.272   3.463  16.168 -0.0131  0.1219  0.2741
  193MPD1    C3 2936   1.393   3.452  16.237  0.5743  0.1645  0.2720
  193MPD1    C4 2937   1.446   3.330  16.243 -0.9896 -0.3340  0.5609
  193MPD1    C5 2938   1.394   3.223  16.169 -0.5028 -0.8224 -0.4596
  193MPD1     H 2939   1.224   3.560  16.158  0.5249  0.3165 -0.4636
  193MPD1    H1 2940   1.526   3.312  16.314 -0.8287 -1.9298 -0.0108
  193MPD1    H2 2941   1.233   3.156  16.035  4.2761 -0.3466 -0.8892
  193MPD1    H3 2942   1.427   3.123  16.196 -1.3015 -0.7134  0.9407
  193MPD1     N 2943   1.451   3.562  16.311 -0.8339  0.0057  0.1254
  193MPD1    H5 2944   1.525   3.534  16.374 -2.2215  0.3728  1.9293
  193MPD1    N1 2945   1.100   3.387  16.017 -0.0221  0.4377  0.3498
  193MPD1    H6 2946   1.046   3.469  16.044  0.8664  1.5143 -1.1627
  193MPD1    H7 2947   1.030   3.313  16.018  0.7243 -0.2304  2.3036
  194MPD1     C 2948   4.001   1.610  16.779 -0.0201  0.2649 -0.4323
  194MPD1    C1 2949   3.922   1.499  16.753  0.2889  0.2066  0.5265
  194MPD1    C2 2950   3.954   1.389  16.825  0.1350 -0.0451 -0.0722
  194MPD1    C3 2951   4.048   1.386  16.927  0.1914 -0.0261  0.5472
  194MPD1    C4 2952   4.113   1.504  16.958 -0.4280  0.1281 -0.9456
  194MPD1    C5 2953   4.095   1.612  16.878  1.5149 -0.7637  0.3994
  194MPD1     H 2954   3.891   1.303  16.809  0.2219 -0.0191 -0.5554
  194MPD1    H1 2955   4.193   1.505  17.032 -0.6000  1.6887 -0.7986
  194MPD1    H2 2956   3.989   1.699  16.719  2.3122 -0.3919 -1.8712
  194MPD1    H3 2957   4.155   1.702  16.886 -0.0166  0.0089  2.8837
  194MPD1     N 2958   4.076   1.271  17.007  0.0585 -0.1321  0.6523
  194MPD1    H5 2959   4.147   1.288  17.078  0.3380 -3.3353  1.1240
  194MPD1    N1 2960   3.845   1.494  16.638  0.1519 -0.6456 -0.9447
  194MPD1    H6 2961   3.768   1.427  16.633 -0.4086 -0.0593 -0.2539
  194MPD1    H7 2962   3.809   1.584  16.606  1.3582  0.3340  0.4681
  195MPD1     C 2963   1.477   2.654  17.320 -0.0699  0.1005 -0.6892
  195MPD1    C1 2964   1.506   2.593  17.441 -0.3268  0.0628  0.6563
  195MPD1    C2 2965   1.512   2.452  17.432 -0.1614 -0.9991  0.4586
  195MPD1    C3 2966   1.493   2.378  17.316  0.2596 -0.1060 -0.3292
  195MPD1    C4 2967   1.462   2.443  17.200  0.4455 -0.0985  0.0291
  195MPD1    C5 2968   1.465   2.583  17.201 -0.5390 -0.1671  0.0958
  195MPD1     H 2969   1.517   2.402  17.528  1.6607 -0.1941  0.7918
  195MPD1    H1 2970   1.441   2.390  17.108 -1.2948 -0.0803  0.4116
  195MPD1    H2 2971   1.493   2.759  17.302  1.3803 -0.3114 -1.8758
  195MPD1    H3 2972   1.461   2.636  17.106 -0.1400 -1.4264 -0.6152
  195MPD1     N 2973   1.488   2.235  17.315 -0.1034  0.3838  0.0049
  195MPD1    H5 2974   1.431   2.193  17.243 -1.0394 -0.2146  1.0865
  195MPD1    N1 2975   1.490   2.663  17.561  0.2919  0.4835 -0.5108
  195MPD1    H6 2976   1.515   2.761  17.553  0.5558  0.4270 -0.3524
  195MPD1    H7 2977   1.545   2.615  17.632  1.1275  0.8443 -0.9217
  196MPD1     C 2978   1.041   1.950   0.329 -0.1633 -0.4479  0.4130
  196MPD1    C1 2979   1.074   1.906   0.456 -0.4239 -0.8051 -0.0781
  196MPD1    C2 2980   1.154   1.999   0.524 -0.1695  0.1225 -0.5133
  196MPD1    C3 2981   1.185   2.124   0.476 -0.5166 -0.0889  0.3643
  196MPD1    C4 2982   1.155   2.161   0.349  0.0573  0.5776  0.0317
  196MPD1    C5 2983   1.075   2.074   0.282 -0.7487 -0.2774  0.3186
  196MPD1     H 2984   1.188   1.967   0.622 -1.6549  2.5547  0.8053
  196MPD1    H1 2985   1.200   2.246   0.300 -0.3653  0.2601 -0.8960
  196MPD1    H2 2986   0.999   1.879   0.258  0.0802 -1.1023  0.9302
  196MPD1    H3 2987   1.055   2.080   0.176 -2.2825  0.4765  0.6435
  196MPD1     N 2988   1.270   2.214   0.547  0.4824  0.4136 -0.4334
  196MPD1    H5 2989   1.287   2.304   0.502 -2.5916  0.4505 -1.4688
  196MPD1    N1 2990   1.069   1.766   0.486 -0.3021  0.1283 -0.1056
  196MPD1    H6 2991   1.072   1.744   0.586 -1.3828  2.5074  0.4640
  196MPD1    H7 2992   0.988   1.722   0.444 -0.4401 -0.3553  0.6711
  197MPD1     C 2993   0.424   4.123   0.295 -0.5577  0.5451  0.0012
  197MPD1    C1 2994   0.499   4.224   0.251 -0.4293 -0.5157 -0.0088
  197MPD1    C2 2995   0.466   4.284   0.130 -0.6226  0.5007 -0.3465
  197MPD1    C3 2996   0.341   4.247   0.073 -0.0102 -0.2429 -0.3097
  197MPD1    C4 2997   0.268   4.140   0.121  0.0923  0.3376 -0.0704
  197MPD1    C5 2998   0.321   4.071   0.225 -0.5788 -0.1925  0.1213
  197MPD1     H 2999   0.532   4.364   0.100  1.2003 -0.6427  0.5972
  197MPD1    H1 3000   0.190   4.098   0.059  0.2033 -0.6919  0.4978
  197MPD1    H2 3001   0.440   4.071   0.389  0.3040  0.6524 -0.0905
  197MPD1    H3 3002   0.269   3.980   0.251  1.1808 -0.5504  2.3873
  197MPD1     N 3003   0.289   4.325  17.649 -0.2952  0.1018  1.3331
  197MPD1    H5 3004   0.212   4.279  17.602  0.4235 -0.3663  0.6242
  197MPD1    N1 3005   0.620   4.252   0.317 -0.2321 -0.2537 -0.2262
  197MPD1    H6 3006   0.620   4.252   0.418  2.1306 -2.0101 -0.2278
  197MPD1    H7 3007   0.641   4.350   0.298 -0.8184  0.6626  3.9238
  198MPD1     C 3008   1.943   2.172  15.345  0.2896  0.1072 -0.5748
  198MPD1    C1 3009   2.052   2.204  15.266 -0.0907 -0.4102  0.2282
  198MPD1    C2 3010   2.137   2.295  15.320 -0.2238  0.7415  0.6191
  198MPD1    C3 3011   2.100   2.358  15.440 -0.2749 -1.0067  0.6282
  198MPD1    C4 3012   1.982   2.345  15.510 -0.1736  0.3064 -0.1111
  198MPD1    C5 3013   1.901   2.252  15.451 -0.5254 -0.2859 -0.0415
  198MPD1     H 3014   2.232   2.309  15.270 -0.4894 -3.2082 -0.9887
  198MPD1    H1 3015   1.960   2.386  15.608  1.1073  2.3825 -0.6956
  198MPD1    H2 3016   1.876   2.098  15.305 -1.6949  0.9477  1.2063
  198MPD1    H3 3017   1.811   2.222  15.503 -1.0610  1.1142 -0.1579
  198MPD1     N 3018   2.199   2.450  15.488 -0.0141 -0.0601  0.4497
  198MPD1    H5 3019   2.284   2.459  15.432 -0.3761  0.1414 -0.0642
  198MPD1    N1 3020   2.081   2.131  15.154 -0.3444 -0.4692  0.1928
  198MPD1    H6 3021   2.149   2.189  15.107 -2.1228  1.5434  0.1095
  198MPD1    H7 3022   2.005   2.132  15.086  1.0626  4.4966 -1.2614
  199MPD1     C 3023   0.265   2.932   9.481 -0.2488  0.4499  0.4590
  199MPD1    C1 3024   0.166   2.857   9.426 -0.1120  0.1144 -0.2118
  199MPD1    C2 3025   0.041   2.925   9.397  0.1255 -0.0147  0.0434
  199MPD1    C3 3026   0.027   3.063   9.408 -0.1854 -0.2069  0.2294
  199MPD1    C4 3027   0.137   3.139   9.440  1.0990 -0.1654 -0.1005
  199MPD1    C5 3028   0.258   3.072   9.475  0.3053 -0.0701 -0.5122
  199MPD1     H 3029   4.681   2.865   9.363  0.9444 -1.4445  0.5932
  199MPD1    H1 3030   0.142   3.247   9.439 -0.7468 -0.0500  2.7236
  199MPD1    H2 3031   0.363   2.888   9.497 -1.0854 -1.3562  0.5889
  199MPD1    H3 3032   0.340   3.140   9.493 -1.0448  1.9620 -2.0039
  199MPD1     N 3033   4.633   3.135   9.379  0.5263 -0.3687 -0.4728
  199MPD1    H5 3034   4.637   3.234   9.399 -0.8789 -1.2445  4.1396
  199MPD1    N1 3035   0.195   2.721   9.393 -0.1673 -0.2919  0.2787
  199MPD1    H6 3036   0.256   2.673   9.458  0.6427 -2.3099 -1.9737
  199MPD1    H7 3037   0.111   2.664   9.386  0.8546 -1.6559 -0.8955
  200MPD1     C 3038   3.126   3.146  12.857  0.2164  0.4136  0.4053
  200MPD1    C1 3039   3.255   3.185  12.821 -0.3319 -0.7916  0.4206
  200MPD1    C2 3040   3.346   3.227  12.918 -0.2149  0.7235  0.9169
  200MPD1    C3 3041   3.321   3.219  13.055  0.1088 -0.4091 -0.3473
  200MPD1    C4 3042   3.195   3.170  13.092  0.0562 -0.7440  0.6587
  200MPD1    C5 3043   3.099   3.145  12.993  0.4881 -0.1778  0.1139
  200MPD1     H 3044   3.432   3.281  12.881 -1.5263  1.9351 -0.3754
  200MPD1    H1 3045   3.153   3.167  13.192 -0.6327 -0.8049  0.3656
  200MPD1    H2 3046   3.047   3.119  12.788  0.5756  0.2742  0.0481
  200MPD1    H3 3047   2.996   3.130  13.024  1.0256 -1.6182  1.2163
  200MPD1     N 3048   3.432   3.259  13.142 -0.3895  0.0576  0.2282
  200MPD1    H5 3049   3.521   3.284  13.101 -0.4405 -1.1788 -0.6326
  200MPD1    N1 3050   3.293   3.182  12.684  0.0701  0.2615 -0.3258
  200MPD1    H6 3051   3.255   3.105  12.629 -0.8631 -0.4907  1.3778
  200MPD1    H7 3052   3.394   3.183  12.670  0.3115  1.2407  1.5106
  201MPD1     C 3053   0.972   2.606  12.835 -0.0099 -0.2879 -0.1328
  201MPD1    C1 3054   0.958   2.530  12.725  0.2677 -0.0164 -0.0457
  201MPD1    C2 3055   1.021   2.411  12.723 -0.2729 -0.4279  0.5780
  201MPD1    C3 3056   1.103   2.366  12.826 -0.3501 -0.0958 -0.0382
  201MPD1    C4 3057   1.103   2.442  12.942 -0.2611 -0.2712 -0.0432
  201MPD1    C5 3058   1.050   2.566  12.939 -0.0844 -0.7359  0.4409
  201MPD1     H 3059   0.995   2.357  12.633 -0.7758 -2.7476  2.1148
  201MPD1    H1 3060   1.162   2.417  13.029  0.8136  0.5236 -0.5458
  201MPD1    H2 3061   0.928   2.706  12.839  0.8506 -0.0325  2.8719
  201MPD1    H3 3062   1.051   2.633  13.025 -1.3055 -0.3343  0.1401
  201MPD1     N 3063   1.171   2.244  12.816  0.2817 -0.3407 -0.1477
  201MPD1    H5 3064   1.158   2.190  12.732 -0.3100  0.8505 -0.8168
  201MPD1    N1 3065   0.870   2.577  12.625  0.1220 -0.3950 -0.5024
  201MPD1    H6 3066   0.862   2.516  12.544  1.5023 -1.3480  0.0717
  201MPD1    H7 3067   0.889   2.673  12.599 -3.1348  0.7925  1.4707
  202MPD1     C 3068   1.794   1.877   9.092  0.6962 -1.2020  0.1525
  202MPD1    C1 3069   1.756   1.993   9.161  0.5233  0.1983  0.4596
  202MPD1    C2 3070   1.687   1.973   9.282 -0.4639  0.1201  0.3601
  202MPD1    C3 3071   1.638   1.850   9.317 -0.3478 -0.4272  0.2956
  202MPD1    C4 3072   1.672   1.741   9.248 -0.3263 -0.1101  0.2496
  202MPD1    C5 3073   1.749   1.754   9.135 -0.1953  0.2343  0.2961
  202MPD1     H 3074   1.678   2.057   9.350 -1.0777  0.6527 -0.3833
  202MPD1    H1 3075   1.636   1.640   9.267  0.4337 -0.1746  1.3454
  202MPD1    H2 3076   1.865   1.877   9.010  2.2583  0.3892  1.4673
  202MPD1    H3 3077   1.775   1.668   9.074 -0.7789 -0.3684  0.8965
  202MPD1     N 3078   1.570   1.824   9.441  0.5046  0.1639  0.5693
  202MPD1    H5 3079   1.543   1.728   9.458 -2.4635  1.0659  1.0389
  202MPD1    N1 3080   1.834   2.109   9.151 -0.5912 -0.6808  0.7933
  202MPD1    H6 3081   1.849   2.118   9.051  2.1939 -2.3542  1.0855
  202MPD1    H7 3082   1.790   2.191   9.193 -0.0469  0.0877 -0.1554
  203MPD1     C 3083   0.246   3.494  12.555  0.5510 -0.7355  0.4381
  203MPD1    C1 3084   0.172   3.409  12.467  0.3209 -0.2341  0.2463
  203MPD1    C2 3085   0.195   3.274  12.475 -0.5906 -0.3016  0.6860
  203MPD1    C3 3086   0.282   3.221  12.560  0.2486 -0.7000  0.7472
  203MPD1    C4 3087   0.357   3.298  12.635 -0.4192 -0.0095 -0.2267
  203MPD1    C5 3088   0.338   3.433  12.633  0.4306  0.3764  0.7972
  203MPD1     H 3089   0.133   3.213  12.410 -1.7640  1.6304 -0.0123
  203MPD1    H1 3090   0.448   3.269  12.686 -0.7031 -0.0152  0.2702
  203MPD1    H2 3091   0.235   3.601  12.562 -1.1740 -0.8447 -0.6464
  203MPD1    H3 3092   0.404   3.497  12.690 -0.4416 -0.1912  2.4191
  203MPD1     N 3093   0.290   3.080  12.572  0.1325 -0.4513  0.6676
  203MPD1    H5 3094   0.224   3.018  12.526  0.7890 -2.5620  2.5688
  203MPD1    N1 3095   0.059   3.457  12.392 -0.6673 -0.1750 -0.4136
  203MPD1    H6 3096   0.069   3.554  12.362 -0.0164  0.1939  0.9759
  203MPD1    H7 3097   0.033   3.396  12.315  1.4362 -0.3326 -0.9963
  204MPD1     C 3098   0.057   2.696   0.244 -0.2854  0.6510 -0.3417
  204MPD1    C1 3099   0.104   2.662   0.117  0.0006 -0.4156  0.3616
  204MPD1    C2 3100   0.033   2.704   0.010  0.5555  0.6842 -0.2748
  204MPD1    C3 3101   4.634   2.772   0.019 -0.0615  0.0543 -0.1299
  204MPD1    C4 3102   4.595   2.803   0.147 -0.6683 -0.3204 -0.3459
  204MPD1    C5 3103   4.661   2.762   0.255  0.0574 -0.4497  0.1428
  204MPD1     H 3104   0.065   2.674  17.603  0.2466  1.0251 -0.4788
  204MPD1    H1 3105   4.499   2.852   0.163 -1.6872 -2.6487  0.6230
  204MPD1    H2 3106   0.104   2.657   0.333 -3.4750  0.0853  1.0967
  204MPD1    H3 3107   4.630   2.786   0.355 -1.1205 -1.9110  0.1358
  204MPD1     N 3108   4.570   2.803  17.592  0.3030 -0.3862 -0.0783
  204MPD1    H5 3109   4.615   2.763  17.511  0.1281  1.7655 -1.2495
  204MPD1    N1 3110   0.220   2.587   0.104  0.0102  0.2372  0.1753
  204MPD1    H6 3111   0.271   2.615   0.021 -1.8148  1.5360 -0.5199
  204MPD1    H7 3112   0.283   2.603   0.182  0.5023 -1.0739  0.0439
  205MPD1     C 3113   0.075   1.513  16.222 -0.5378  0.2275 -0.2079
  205MPD1    C1 3114   0.058   1.652  16.205 -0.0385 -0.5224 -0.1973
  205MPD1    C2 3115   0.046   1.725  16.322 -0.5983  0.1082  0.1106
  205MPD1    C3 3116   0.030   1.668  16.448 -0.8888  0.0228  0.1405
  205MPD1    C4 3117   0.042   1.535  16.456 -0.4601  0.2404 -0.3144
  205MPD1    C5 3118   0.064   1.458  16.344  0.1882  0.2529 -0.2067
  205MPD1     H 3119   0.040   1.832  16.307  1.2975  0.0665 -1.0283
  205MPD1    H1 3120   0.034   1.486  16.552  1.6317  0.9638  0.2216
  205MPD1    H2 3121   0.088   1.450  16.135  1.9634 -0.0858  0.3872
  205MPD1    H3 3122   0.070   1.350  16.354  0.7549  0.3376  0.4235
  205MPD1     N 3123   0.006   1.740  16.571 -0.4220 -0.2061 -0.0070
  205MPD1    H5 3124   0.004   1.685  16.656  3.2842  2.5050  1.8505
  205MPD1    N1 3125   0.089   1.703  16.082  0.0361  0.4644 -0.2076
  205MPD1    H6 3126   0.066   1.801  16.071 -0.7352  0.4265  0.9650
  205MPD1    H7 3127   0.088   1.652  15.994  2.9004  1.2756 -0.7121
  206MPD1     C 3128   4.459   1.089  16.957 -0.1049 -0.0669 -0.1718
  206MPD1    C1 3129   4.476   0.952  16.941  0.5068  0.7755 -0.1975
  206MPD1    C2 3130   4.415   0.894  16.831 -0.4387  0.0790 -0.4932
  206MPD1    C3 3131   4.354   0.976  16.732 -0.1570 -0.2295  0.1268
  206MPD1    C4 3132   4.329   1.107  16.759 -0.2641 -0.3783 -0.1040
  206MPD1    C5 3133   4.374   1.164  16.877 -0.4230  0.2170  0.4139
  206MPD1     H 3134   4.440   0.791  16.808 -0.5298  0.1504 -0.9311
  206MPD1    H1 3135   4.274   1.175  16.696 -2.0283 -2.2158 -0.5232
  206MPD1    H2 3136   4.509   1.134  17.041 -0.4223  0.3233 -0.1909
  206MPD1    H3 3137   4.359   1.270  16.892  0.5309  0.4073  0.0185
  206MPD1     N 3138   4.295   0.935  16.607 -0.1117 -0.2782  0.3832
  206MPD1    H5 3139   4.253   1.012  16.555  0.5405  0.0913  0.4040
  206MPD1    N1 3140   4.576   0.887  17.016 -0.0355  0.0631 -0.2650
  206MPD1    H6 3141   4.595   0.924  17.108 -0.1541  2.1056 -1.0668
  206MPD1    H7 3142   4.548   0.789  17.028  1.3239 -0.0093  2.1565
  207MPD1     C 3143   1.579   1.554  10.676 -0.1115  0.0541 -0.1022
  207MPD1    C1 3144   1.543   1.674  10.622  0.3816 -1.2718 -1.3788
  207MPD1    C2 3145   1.651   1.756  10.575  0.7797 -0.4315 -0.0453
  207MPD1    C3 3146   1.767   1.748  10.639  0.0967 -0.3987  0.6320
  207MPD1    C4 3147   1.799   1.634  10.707 -0.5633 -0.1368 -0.8288
  207MPD1    C5 3148   1.708   1.536  10.724 -0.5788 -1.0743 -0.1236
  207MPD1     H 3149   1.630   1.854  10.535 -0.1304 -0.8824 -0.6754
  207MPD1    H1 3150   1.897   1.626  10.752 -1.1976  0.9391  0.7668
  207MPD1    H2 3151   1.509   1.472  10.679  0.6200 -0.6687 -3.2397
  207MPD1    H3 3152   1.742   1.448  10.777  1.1038  0.3555  1.1967
  207MPD1     N 3153   1.865   1.851  10.657 -0.0648 -0.1939  0.4382
  207MPD1    H5 3154   1.934   1.839  10.730  0.4083 -2.7018 -0.4136
  207MPD1    N1 3155   1.416   1.690  10.559 -0.0562 -0.0659 -0.1564
  207MPD1    H6 3156   1.347   1.653  10.625  1.1957  1.3325  1.9510
  207MPD1    H7 3157   1.391   1.787  10.541 -0.4390 -0.2588 -0.6561
  208MPD1     C 3158   0.862   2.825  17.663  0.3200  0.5067 -0.0689
  208MPD1    C1 3159   0.860   2.784   0.105  0.4194  0.0095 -0.2405
  208MPD1    C2 3160   0.768   2.685   0.135 -0.5497 -0.7179 -0.3549
  208MPD1    C3 3161   0.703   2.610   0.040 -0.1526  0.4204 -0.6171
  208MPD1    C4 3162   0.734   2.632  17.599  0.4913 -0.4446 -0.5998
  208MPD1    C5 3163   0.797   2.751  17.569  0.1864 -0.1323 -0.3371
  208MPD1     H 3164   0.752   2.670   0.241  1.3955 -0.2052  0.0215
  208MPD1    H1 3165   0.676   2.593  17.516  1.3983 -0.3520 -1.2813
  208MPD1    H2 3166   0.927   2.902  17.623  1.8122 -0.0490  1.2724
  208MPD1    H3 3167   0.807   2.786  17.467  0.4657 -1.7413 -0.8569
  208MPD1     N 3168   0.604   2.514   0.083  0.4560  0.1318  0.1173
  208MPD1    H5 3169   0.573   2.517   0.180 -1.1290 -3.0396 -0.2648
  208MPD1    N1 3170   0.925   2.861   0.197 -0.2354 -0.1048  0.0375
  208MPD1    H6 3171   1.008   2.905   0.159 -0.1692 -2.4908 -2.5654
  208MPD1    H7 3172   0.961   2.814   0.280 -0.0056 -1.1661 -0.6577
  209MPD1     C 3173   2.167   1.664  12.296  0.2932 -0.0832 -0.1618
  209MPD1    C1 3174   2.249   1.576  12.231  0.2440  0.1899  0.2402
  209MPD1    C2 3175   2.266   1.589  12.093 -0.2278 -0.3239 -0.5686
  209MPD1    C3 3176   2.219   1.699  12.023 -0.0365  0.4335 -0.3932
  209MPD1    C4 3177   2.148   1.792  12.092  0.1310  0.1017 -0.3001
  209MPD1    C5 3178   2.109   1.766  12.221  0.4204  0.7270  0.3975
  209MPD1     H 3179   2.326   1.515  12.042  1.6757 -0.0986  1.3493
  209MPD1    H1 3180   2.127   1.887  12.045 -1.6548  1.2810  2.8476
  209MPD1    H2 3181   2.141   1.658  12.401  3.0419 -1.4087  0.4303
  209MPD1    H3 3182   2.053   1.839  12.277  0.2799  0.2693  0.8559
  209MPD1     N 3183   2.272   1.723  11.890 -0.4446  0.1607 -0.0565
  209MPD1    H5 3184   2.340   1.659  11.850  0.4518  0.6415  0.7041
  209MPD1    N1 3185   2.296   1.469  12.309  0.2601  0.2427 -0.0612
  209MPD1    H6 3186   2.389   1.437  12.280  1.3015  1.5188  1.8616
  209MPD1    H7 3187   2.291   1.483  12.410 -0.1047 -0.9985  0.0978
  210MPD1     C 3188   3.020   1.473  11.438  0.6328  0.1613  0.1517
  210MPD1    C1 3189   2.908   1.404  11.475  0.6412  0.0303 -0.2870
  210MPD1    C2 3190   2.786   1.472  11.495 -0.0336 -0.3874  0.4150
  210MPD1    C3 3191   2.779   1.608  11.465  0.4623  0.4890  0.0267
  210MPD1    C4 3192   2.889   1.671  11.424 -0.2174  0.0719 -0.0276
  210MPD1    C5 3193   3.008   1.608  11.404 -0.4121 -0.4993  0.9652
  210MPD1     H 3194   2.698   1.413  11.518  0.2802 -1.3149 -0.7093
  210MPD1    H1 3195   2.884   1.774  11.391  1.4750 -0.4280 -1.8210
  210MPD1    H2 3196   3.114   1.419  11.439  0.0391 -0.8836 -0.7709
  210MPD1    H3 3197   3.096   1.668  11.384 -1.4047  0.3513 -0.8161
  210MPD1     N 3198   2.660   1.674  11.471  0.2672 -0.1756  0.2416
  210MPD1    H5 3199   2.663   1.769  11.437  0.2600  0.0909  0.9809
  210MPD1    N1 3200   2.920   1.271  11.524  1.0303 -0.1162 -0.6731
  210MPD1    H6 3201   2.831   1.222  11.519 -0.1659  1.9847 -0.0334
  210MPD1    H7 3202   2.998   1.219  11.486  1.0303 -0.0876 -0.7118
  211MPD1     C 3203   0.039   2.310  16.560  0.0592  0.0048 -0.3274
  211MPD1    C1 3204   4.712   2.291  16.432  0.2760 -0.8628 -0.0093
  211MPD1    C2 3205   4.640   2.392  16.376  1.0398 -0.0730 -0.9937
  211MPD1    C3 3206   4.622   2.512  16.446  0.0685 -0.7505  0.1512
  211MPD1    C4 3207   4.665   2.525  16.575 -0.2381 -0.2756  0.2036
  211MPD1    C5 3208   0.023   2.425  16.627  0.3651 -0.2248 -0.2641
  211MPD1     H 3209   4.604   2.385  16.274 -3.4301 -1.1382  0.6478
  211MPD1    H1 3210   4.651   2.613  16.635  1.9933  1.6297 -2.0907
  211MPD1    H2 3211   0.092   2.230  16.611  2.4857  2.3429  0.7847
  211MPD1    H3 3212   0.067   2.441  16.725  1.7713 -1.6206 -0.6499
  211MPD1     N 3213   4.550   2.608  16.374  0.1527 -0.3285 -0.4749
  211MPD1    H5 3214   4.522   2.585  16.279  0.9270 -0.5011 -0.6612
  211MPD1    N1 3215   0.016   2.180  16.354 -0.1681 -0.0728 -0.1614
  211MPD1    H6 3216   4.659   2.163  16.294 -0.2706 -0.8104  0.1925
  211MPD1    H7 3217   0.045   2.096  16.403  2.2820  0.8691  0.0164
  212MPD1     C 3218   3.859   0.953  16.439 -0.0935  0.0489  0.1708
  212MPD1    C1 3219   3.871   0.993  16.570 -1.0583 -0.6075 -0.3672
  212MPD1    C2 3220   3.821   0.909  16.666  0.1758 -0.1496 -0.2035
  212MPD1    C3 3221   3.779   0.777  16.637  0.5318 -0.9338 -0.5402
  212MPD1    C4 3222   3.776   0.738  16.507 -0.4408  1.1823  0.2604
  212MPD1    C5 3223   3.823   0.829  16.411  0.6429 -0.1066  0.1740
  212MPD1     H 3224   3.834   0.950  16.766  2.9032 -2.8013  0.5296
  212MPD1    H1 3225   3.741   0.638  16.480 -1.5379  1.0067  2.2842
  212MPD1    H2 3226   3.885   1.008  16.350  0.6139 -0.9570 -0.2474
  212MPD1    H3 3227   3.811   0.793  16.309 -1.1253 -1.3198  0.8219
  212MPD1     N 3228   3.718   0.700  16.731 -0.1577 -0.2851 -0.5622
  212MPD1    H5 3229   3.677   0.614  16.696  0.1055 -0.7443  0.2574
  212MPD1    N1 3230   3.906   1.120  16.605 -0.3681  0.0882 -0.4297
  212MPD1    H6 3231   3.935   1.126  16.702 -0.6416 -0.1249 -0.3357
  212MPD1    H7 3232   3.980   1.157  16.545  0.9680 -1.6187  0.1758
  213MPD1     C 3233   1.373   1.630  16.052  0.1286  0.3078 -0.8609
  213MPD1    C1 3234   1.267   1.573  15.984  0.2424 -0.2418  0.4294
  213MPD1    C2 3235   1.257   1.611  15.856  0.5804 -0.2273  0.2634
  213MPD1    C3 3236   1.320   1.724  15.798  0.0124 -1.0949 -0.4316
  213MPD1    C4 3237   1.399   1.803  15.880  0.2923  0.2464  0.4048
  213MPD1    C5 3238   1.430   1.746  16.008 -0.2554  0.5818 -0.2188
  213MPD1     H 3239   1.207   1.544  15.787 -2.8827  0.6348  1.9255
  213MPD1    H1 3240   1.433   1.900  15.847  1.3446 -0.6276 -1.0980
  213MPD1    H2 3241   1.394   1.594  16.152 -0.8889  1.5330 -0.1996
  213MPD1    H3 3242   1.483   1.805  16.082 -1.8800  1.1500  0.4940
  213MPD1     N 3243   1.294   1.746  15.662  0.9352  0.7115 -0.3273
  213MPD1    H5 3244   1.229   1.684  15.614  0.2586  0.4660  0.9048
  213MPD1    N1 3245   1.227   1.443  16.026 -0.3540  0.0012 -0.5414
  213MPD1    H6 3246   1.219   1.417  16.124  1.3607  3.7697  0.5704
  213MPD1    H7 3247   1.132   1.423  15.993  0.0408  0.9907 -2.3109
  214MPD1     C 3248   1.086   1.203  14.912  1.1056 -0.0965 -0.6273
  214MPD1    C1 3249   1.012   1.256  15.009 -0.4574  0.3727  0.3253
  214MPD1    C2 3250   1.037   1.370  15.078 -0.0986 -0.1449 -0.3572
  214MPD1    C3 3251   1.146   1.445  15.046  0.3330 -0.4987 -0.4837
  214MPD1    C4 3252   1.220   1.398  14.939 -0.5192  0.9765 -0.2405
  214MPD1    C5 3253   1.192   1.276  14.871 -0.7134 -0.0928  0.3908
  214MPD1     H 3254   0.974   1.404  15.159 -1.6514  0.4005 -1.8099
  214MPD1    H1 3255   1.296   1.464  14.900 -0.2231  0.1125 -1.1476
  214MPD1    H2 3256   1.062   1.106  14.872 -0.6071 -0.1998  0.6480
  214MPD1    H3 3257   1.262   1.243  14.794 -0.2993 -1.0345  1.1650
  214MPD1     N 3258   1.182   1.571  15.111  0.6798 -0.2632  0.0141
  214MPD1    H5 3259   1.266   1.616  15.077  1.2163 -0.6109  0.8972
  214MPD1    N1 3260   0.907   1.176  15.065  0.4417  0.3787 -0.4371
  214MPD1    H6 3261   0.862   1.116  14.996  1.2115 -1.0710  0.3379
  214MPD1    H7 3262   0.844   1.244  15.107  0.9200  0.0647  0.7718
  215MPD1     C 3263   1.758   3.362  10.799 -0.6709  0.0688  0.3654
  215MPD1    C1 3264   1.705   3.251  10.855 -0.4830  0.1846  0.7867
  215MPD1    C2 3265   1.725   3.131  10.781 -0.4904 -0.1301  0.5434
  215MPD1    C3 3266   1.785   3.125  10.657 -0.5029  0.0483 -0.1736
  215MPD1    C4 3267   1.820   3.245  10.595  0.5610  0.1951 -0.1987
  215MPD1    C5 3268   1.808   3.355  10.670 -0.4240 -0.1840 -0.2045
  215MPD1     H 3269   1.689   3.038  10.824  0.2259 -0.4445  0.4607
  215MPD1    H1 3270   1.858   3.246  10.493 -1.2148 -1.3153 -0.8832
  215MPD1    H2 3271   1.767   3.456  10.852  1.3896  0.3536 -0.5236
  215MPD1    H3 3272   1.841   3.451  10.632  1.3456 -1.0543 -0.8822
  215MPD1     N 3273   1.807   2.999  10.606 -0.0194  0.0273 -0.5765
  215MPD1    H5 3274   1.774   2.928  10.671  0.2409  0.4476  0.0154
  215MPD1    N1 3275   1.666   3.252  10.993 -0.6784 -0.2698 -0.1291
  215MPD1    H6 3276   1.595   3.179  10.998  0.7540 -1.7676 -1.6452
  215MPD1    H7 3277   1.632   3.346  11.015  1.1820  0.8391 -2.0392
  216MPD1     C 3278   3.238   4.356  17.078 -0.0033  0.0615 -0.2436
  216MPD1    C1 3279   3.362   4.369  17.011 -0.0144 -0.4261 -0.1588
  216MPD1    C2 3280   3.471   4.319  17.071 -0.3718  0.3510 -0.0948
  216MPD1    C3 3281   3.467   4.252  17.191 -0.3325 -0.6165  0.5251
  216MPD1    C4 3282   3.341   4.219  17.241  0.0474  0.1627 -0.0148
  216MPD1    C5 3283   3.231   4.268  17.188  0.7106  0.4204  0.0145
  216MPD1     H 3284   3.569   4.346  17.033 -0.1629 -0.3181 -0.0381
  216MPD1    H1 3285   3.330   4.156  17.329 -1.9913 -0.6635 -0.8344
  216MPD1    H2 3286   3.147   4.408  17.051  0.1048  0.0350 -0.6579
  216MPD1    H3 3287   3.135   4.247  17.234  1.3324  0.4179  1.3036
  216MPD1     N 3288   3.580   4.220  17.265  0.9142  0.3740 -0.3354
  216MPD1    H5 3289   3.675   4.229  17.229  0.5423  1.9238 -0.9063
  216MPD1    N1 3290   3.387   4.449  16.898 -0.2268  0.3458 -0.3538
  216MPD1    H6 3291   3.469   4.420  16.845 -0.4921 -1.7057  0.3705
  216MPD1    H7 3292   3.302   4.454  16.842 -0.6982  1.6221  0.4589
  217MPD1     C 3293   0.629   2.786   8.630 -0.7126  0.0180  0.0696
  217MPD1    C1 3294   0.497   2.782   8.588  0.1350 -0.1586  0.9881
  217MPD1    C2 3295   0.420   2.674   8.617  0.2396 -0.7348  0.1486
  217MPD1    C3 3296   0.458   2.578   8.714 -0.1292  0.3062  1.3603
  217MPD1    C4 3297   0.593   2.581   8.748 -0.2123  0.2490  1.0731
  217MPD1    C5 3298   0.674   2.683   8.707 -0.2289  0.4890  0.8614
  217MPD1     H 3299   0.323   2.657   8.573  0.5363  0.8442 -1.1046
  217MPD1    H1 3300   0.640   2.506   8.810 -1.4718 -0.1261  1.5892
  217MPD1    H2 3301   0.694   2.867   8.597  0.3605 -0.9595 -0.2206
  217MPD1    H3 3302   0.777   2.673   8.737  0.8089  0.7894 -2.5742
  217MPD1     N 3303   0.378   2.464   8.748  0.2725 -0.2400  0.0495
  217MPD1    H5 3304   0.412   2.393   8.812  0.5056 -0.0705  0.1142
  217MPD1    N1 3305   0.458   2.870   8.491  0.6315 -0.8140 -0.7778
  217MPD1    H6 3306   0.358   2.870   8.472  0.2515 -2.3828  1.1552
  217MPD1    H7 3307   0.497   2.963   8.491 -4.1951  1.2241  0.6343
  218MPD1     C 3308   1.185   3.111  12.769 -0.1607  0.2282  0.4823
  218MPD1    C1 3309   1.280   3.141  12.862  0.7290  0.2383 -0.5751
  218MPD1    C2 3310   1.405   3.091  12.841  0.1382 -0.4471 -0.2248
  218MPD1    C3 3311   1.427   3.014  12.731 -0.7045 -0.4881 -0.7159
  218MPD1    C4 3312   1.330   2.988  12.644 -0.4061  0.0969 -0.4114
  218MPD1    C5 3313   1.207   3.041  12.660 -0.2195  0.2537 -0.1383
  218MPD1     H 3314   1.494   3.112  12.899  0.1578 -2.4736  0.4744
  218MPD1    H1 3315   1.347   2.929  12.555  1.3106 -0.5841  0.3895
  218MPD1    H2 3316   1.084   3.146  12.787 -0.5823  0.2868 -2.0653
  218MPD1    H3 3317   1.122   3.018  12.597 -0.7694 -0.7083  0.9410
  218MPD1     N 3318   1.534   2.931  12.737  0.2163 -0.4124 -0.1681
  218MPD1    H5 3319   1.583   2.939  12.826 -1.4761 -0.3712  0.7550
  218MPD1    N1 3320   1.238   3.202  12.981  0.4269  0.5900 -0.4742
  218MPD1    H6 3321   1.176   3.282  12.966  0.8731  1.1609  0.7755
  218MPD1    H7 3322   1.318   3.232  13.036  1.0183  1.7593 -1.9668
  219MPD1     C 3323   2.307   2.806  12.075  0.2515  0.1844  0.7283
  219MPD1    C1 3324   2.346   2.857  12.197  0.0742 -0.6855  0.7562
  219MPD1    C2 3325   2.260   2.852  12.305 -0.3532 -0.0093 -0.0033
  219MPD1    C3 3326   2.130   2.806  12.276 -0.1801 -1.0746 -0.0075
  219MPD1    C4 3327   2.086   2.762  12.153  0.4726  0.5577  0.4558
  219MPD1    C5 3328   2.175   2.771  12.047  0.0837  0.4537  0.0668
  219MPD1     H 3329   2.289   2.881  12.405 -1.0520  3.7573 -0.8831
  219MPD1    H1 3330   1.985   2.729  12.132  1.4050 -2.8125  1.3231
  219MPD1    H2 3331   2.378   2.793  11.993 -0.4272  1.4095 -0.0602
  219MPD1    H3 3332   2.140   2.744  11.948  0.3353  2.4459 -0.5771
  219MPD1     N 3333   2.036   2.807  12.381 -0.8739 -0.6203  0.0720
  219MPD1    H5 3334   1.944   2.769  12.358  0.2223 -2.3921 -1.3598
  219MPD1    N1 3335   2.484   2.890  12.215  0.3103 -0.0036  0.4751
  219MPD1    H6 3336   2.534   2.933  12.137 -1.1064  0.9326  0.0881
  219MPD1    H7 3337   2.500   2.955  12.292  1.8750  2.4482 -1.9314
  220MPD1     C 3338   1.889   3.616   9.160 -0.6165  0.1298 -0.0913
  220MPD1    C1 3339   1.952   3.539   9.256  0.0352 -0.2995  0.2972
  220MPD1    C2 3340   1.881   3.435   9.319 -0.5347 -0.3985 -0.0624
  220MPD1    C3 3341   1.741   3.432   9.309 -0.3570  0.3315  0.9814
  220MPD1    C4 3342   1.683   3.517   9.215  0.0976  0.5109 -0.0227
  220MPD1    C5 3343   1.757   3.600   9.137  0.3855 -0.0296  0.0231
  220MPD1     H 3344   1.929   3.356   9.375 -1.5873 -0.8248  0.2358
  220MPD1    H1 3345   1.575   3.511   9.207 -0.2417  2.0310  3.2317
  220MPD1    H2 3346   1.952   3.683   9.101  0.5014 -1.1223 -0.3264
  220MPD1    H3 3347   1.707   3.666   9.066  2.1278  0.9338 -0.2930
  220MPD1     N 3348   1.668   3.338   9.389 -0.8548 -0.3337  0.0402
  220MPD1    H5 3349   1.724   3.270   9.440 -0.7467  0.1067  0.5056
  220MPD1    N1 3350   2.091   3.538   9.274  0.0262 -0.6834 -0.6345
  220MPD1    H6 3351   2.134   3.630   9.266 -0.7054 -0.0247  2.8361
  220MPD1    H7 3352   2.129   3.512   9.365 -2.3920  0.6243  0.7300
  221MPD1     C 3353   4.015   2.405  14.977  0.1609 -0.7833 -0.4998
  221MPD1    C1 3354   4.040   2.513  15.058 -0.2522  0.2778  0.3569
  221MPD1    C2 3355   4.063   2.487  15.189 -0.1228 -0.0633  0.0906
  221MPD1    C3 3356   4.060   2.357  15.243  0.5515  0.3395 -0.3210
  221MPD1    C4 3357   4.031   2.250  15.164  0.4525 -0.3416  0.0859
  221MPD1    C5 3358   4.004   2.273  15.031  0.3318 -0.3556  0.4808
  221MPD1     H 3359   4.093   2.574  15.247 -0.4142 -1.6985  2.6877
  221MPD1    H1 3360   4.056   2.149  15.195 -2.2247 -0.3229  2.3539
  221MPD1    H2 3361   4.005   2.403  14.870  0.4673  0.2163 -0.5476
  221MPD1    H3 3362   3.987   2.184  14.972  1.6719 -0.0149 -0.4329
  221MPD1     N 3363   4.110   2.331  15.377 -0.1303  0.4820  0.3209
  221MPD1    H5 3364   4.140   2.235  15.393 -0.3500  0.3152 -0.2651
  221MPD1    N1 3365   4.058   2.642  15.004 -0.0055 -0.5055 -0.2781
  221MPD1    H6 3366   4.037   2.716  15.070  1.1164 -0.0905 -0.3703
  221MPD1    H7 3367   4.011   2.650  14.914  0.4307  0.3742 -0.4360
  222MPD1     C 3368   4.141   0.549   0.458 -0.8456 -0.6821 -0.3208
  222MPD1    C1 3369   4.129   0.687   0.446 -0.3694  0.0459 -0.1913
  222MPD1    C2 3370   4.090   0.747   0.319  0.0861  0.5175 -0.6880
  222MPD1    C3 3371   4.087   0.663   0.210  0.2481 -0.1797 -0.0890
  222MPD1    C4 3372   4.118   0.527   0.221  0.2624  0.0656 -0.3248
  222MPD1    C5 3373   4.146   0.467   0.345  0.6094  0.4935 -0.3804
  222MPD1     H 3374   4.068   0.853   0.325 -2.2045  0.0282 -0.5736
  222MPD1    H1 3375   4.118   0.461   0.135  0.5898 -0.6512  0.2220
  222MPD1    H2 3376   4.148   0.504   0.556 -1.1387  0.9548  0.4372
  222MPD1    H3 3377   4.160   0.360   0.353 -1.0120  0.3168  0.0417
  222MPD1     N 3378   4.041   0.705   0.078 -0.2458  0.3943  0.0730
  222MPD1    H5 3379   4.044   0.636   0.003  1.5282 -0.6952  1.1480
  222MPD1    N1 3380   4.121   0.767   0.568  0.4130 -0.2487  0.0930
  222MPD1    H6 3381   4.172   0.726   0.645  0.0622  1.7715  1.3913
  222MPD1    H7 3382   4.165   0.856   0.546 -1.2270  0.1067 -1.8539
  223MPD1     C 3383   3.631   0.183  17.240 -0.9611  0.3302 -0.0592
  223MPD1    C1 3384   3.599   0.208  17.372 -0.4336 -0.4529 -0.2326
  223MPD1    C2 3385   3.650   0.326  17.425 -0.2039 -0.9239 -0.4024
  223MPD1    C3 3386   3.723   0.417  17.350  0.4149 -0.3143 -0.6464
  223MPD1    C4 3387   3.758   0.389  17.222  0.3618  0.1073  0.1712
  223MPD1    C5 3388   3.716   0.272  17.168 -0.5352  0.0071 -0.2144
  223MPD1     H 3389   3.625   0.352  17.527  0.0837  0.8016 -0.7656
  223MPD1    H1 3390   3.829   0.444  17.161  0.8668 -0.0438  0.6277
  223MPD1    H2 3391   3.593   0.093  17.192  1.7996 -0.4212 -0.8565
  223MPD1    H3 3392   3.752   0.259  17.066  0.3177 -2.2378  0.3711
  223MPD1     N 3393   3.760   0.538  17.403  0.4822 -0.2962  0.4918
  223MPD1    H5 3394   3.737   0.555  17.501 -1.4536 -0.5988  0.0809
  223MPD1    N1 3395   3.540   0.108  17.453  0.4104 -0.2890  0.2765
  223MPD1    H6 3396   3.469   0.062  17.397 -0.8552 -0.7983  2.2968
  223MPD1    H7 3397   3.498   0.148  17.537  0.7087  0.6086 -0.0039
  224MPD1     C 3398   0.883   2.897   8.941 -0.7491 -0.0789 -0.3535
  224MPD1    C1 3399   0.981   2.839   9.015 -0.0857 -0.2762  0.8976
  224MPD1    C2 3400   0.949   2.750   9.114 -0.0737  0.3609 -0.2604
  224MPD1    C3 3401   0.817   2.735   9.144 -0.3420 -0.4537  0.2034
  224MPD1    C4 3402   0.713   2.807   9.078  0.6739 -0.7032  0.1530
  224MPD1    C5 3403   0.750   2.884   8.968  0.3190  0.9209  0.1548
  224MPD1     H 3404   1.028   2.700   9.167 -1.3201 -1.7841 -0.4314
  224MPD1    H1 3405   0.609   2.792   9.107  0.9228  0.3664  1.6120
  224MPD1    H2 3406   0.904   2.962   8.857  2.2023  0.1539  0.5614
  224MPD1    H3 3407   0.675   2.924   8.900  0.4960  0.6040 -0.2287
  224MPD1     N 3408   0.761   2.657   9.246  0.2566 -0.1599 -0.3008
  224MPD1    H5 3409   0.661   2.655   9.263  0.2762  2.0877  0.1214
  224MPD1    N1 3410   1.114   2.853   8.985 -0.6606 -0.0125  0.0016
  224MPD1    H6 3411   1.128   2.930   8.920 -3.3116  0.4027 -0.0762
  224MPD1    H7 3412   1.180   2.865   9.061  0.1887  1.2070 -0.9364
  225MPD1     C 3413   1.642   3.550  12.762 -0.1910  0.4536  0.5887
  225MPD1    C1 3414   1.734   3.573  12.668 -0.1043 -0.5325  0.0796
  225MPD1    C2 3415   1.691   3.589  12.538 -0.2581  0.0375  0.5352
  225MPD1    C3 3416   1.554   3.591  12.507  0.2005  0.3678 -0.0592
  225MPD1    C4 3417   1.465   3.557  12.605  0.0476  0.2324  0.0006
  225MPD1    C5 3418   1.509   3.539  12.736  0.1857 -0.0727 -1.1796
  225MPD1     H 3419   1.769   3.611  12.467 -1.7015  2.6418 -0.2529
  225MPD1    H1 3420   1.360   3.542  12.582  0.0548 -0.7723  0.6362
  225MPD1    H2 3421   1.668   3.539  12.867  1.4546 -1.5345 -0.0380
  225MPD1    H3 3422   1.441   3.510  12.814  1.5563  0.7262  0.3260
  225MPD1     N 3423   1.511   3.616  12.378 -0.4683  0.3077  0.0044
  225MPD1    H5 3424   1.410   3.631  12.373 -0.2151  2.5090  1.4983
  225MPD1    N1 3425   1.860   3.616  12.696 -0.4098 -0.1671  0.4912
  225MPD1    H6 3426   1.919   3.585  12.619 -1.1408 -0.9439  0.2497
  225MPD1    H7 3427   1.899   3.567  12.776  0.0264  0.4762  0.6773
  226MPD1     C 3428   0.469   2.337   9.126 -0.2277 -0.2966 -0.3103
  226MPD1    C1 3429   0.546   2.444   9.086 -0.1705 -0.1321 -0.6793
  226MPD1    C2 3430   0.479   2.560   9.053 -0.3391  0.7461  0.1409
  226MPD1    C3 3431   0.347   2.573   9.082  0.0873  0.4926 -0.0693
  226MPD1    C4 3432   0.278   2.472   9.134 -0.3870 -0.4660 -0.3079
  226MPD1    C5 3433   0.337   2.350   9.153 -0.5059  0.7092 -0.2950
  226MPD1     H 3434   0.521   2.650   9.010  0.3848 -0.9152 -2.6071
  226MPD1    H1 3435   0.172   2.464   9.158 -0.6028  0.6145 -0.9071
  226MPD1    H2 3436   0.520   2.243   9.140  1.3368  0.8149  1.5250
  226MPD1    H3 3437   0.284   2.263   9.192  0.6733 -0.5157 -1.4248
  226MPD1     N 3438   0.283   2.694   9.043 -0.1693 -0.0952  0.1938
  226MPD1    H5 3439   0.339   2.769   9.005 -0.9146  0.2103 -0.2965
  226MPD1    N1 3440   0.682   2.417   9.053 -0.3243 -0.2358  0.6269
  226MPD1    H6 3441   0.749   2.494   9.055 -0.5586 -0.0882  2.3715
  226MPD1    H7 3442   0.722   2.344   9.111  0.8201 -0.6216 -0.6527
  227MPD1     C 3443   4.036   2.972   9.010  0.0539 -0.0940 -0.0602
  227MPD1    C1 3444   4.102   2.851   9.022  0.2231  0.2030  0.1690
  227MPD1    C2 3445   4.237   2.851   9.010  0.2138 -0.8542 -0.2513
  227MPD1    C3 3446   4.315   2.965   9.008  0.2042  0.2721  0.0299
  227MPD1    C4 3447   4.241   3.086   9.007  0.6571 -0.1832  0.1795
  227MPD1    C5 3448   4.106   3.086   8.993  0.1826  0.0180  0.4739
  227MPD1     H 3449   4.289   2.757   8.997 -2.3498 -2.5642  1.8525
  227MPD1    H1 3450   4.285   3.184   9.021  1.5995 -0.7821  1.3983
  227MPD1    H2 3451   3.928   2.985   9.009  0.1562  0.9369  1.0365
  227MPD1    H3 3452   4.056   3.178   8.965 -2.8360 -1.7473  0.0836
  227MPD1     N 3453   4.453   2.951   9.020  0.1270 -0.4097  0.0849
  227MPD1    H5 3454   4.493   2.858   9.023  0.7645 -0.1149  0.5935
  227MPD1    N1 3455   4.025   2.735   9.024 -0.1690  0.3105 -0.2863
  227MPD1    H6 3456   4.070   2.653   9.064 -0.3667  1.1631  1.6930
  227MPD1    H7 3457   3.929   2.743   9.056 -0.2325  2.2063 -0.9564
  228MPD1     C 3458   3.149   1.588  12.578 -0.0650  0.5521 -1.1284
  228MPD1    C1 3459   3.115   1.521  12.469  0.6725 -0.2494  0.0500
  228MPD1    C2 3460   3.017   1.416  12.476 -0.7791  0.4445  0.1837
  228MPD1    C3 3461   2.960   1.382  12.596  0.3220 -0.0773  0.1108
  228MPD1    C4 3462   3.000   1.453  12.708  0.0953 -0.6417  0.3271
  228MPD1    C5 3463   3.092   1.552  12.700 -0.6718 -0.2828 -0.0425
  228MPD1     H 3464   2.997   1.368  12.381 -3.4482 -0.1166  1.0298
  228MPD1    H1 3465   2.953   1.433  12.804  0.5700  0.1739  0.7261
  228MPD1    H2 3466   3.228   1.661  12.575  2.3013 -1.7862  3.4484
  228MPD1    H3 3467   3.116   1.602  12.793 -1.5805 -1.8223  1.0156
  228MPD1     N 3468   2.853   1.287  12.589 -0.2555  0.3261 -0.2415
  228MPD1    H5 3469   2.825   1.268  12.493 -0.3633 -0.9488  0.0373
  228MPD1    N1 3470   3.153   1.566  12.345  0.4532 -0.3736 -0.8286
  228MPD1    H6 3471   3.252   1.589  12.354  0.0298  1.8616 -1.9290
  228MPD1    H7 3472   3.138   1.498  12.271 -0.9871  0.7354 -1.5649
  229MPD1     C 3473   2.204   0.596  14.357 -0.0770  0.0181 -0.0421
  229MPD1    C1 3474   2.226   0.465  14.324 -0.4361  0.9501  0.5954
  229MPD1    C2 3475   2.303   0.384  14.407 -0.6157  0.1901  0.3638
  229MPD1    C3 3476   2.381   0.443  14.504  0.2722 -0.6216 -0.2015
  229MPD1    C4 3477   2.370   0.579  14.522  0.0863  0.1555 -0.1272
  229MPD1    C5 3478   2.279   0.653  14.458 -0.5015  0.6455 -0.6277
  229MPD1     H 3479   2.294   0.276  14.399  1.8714 -0.0125  0.2266
  229MPD1    H1 3480   2.423   0.627  14.604  0.9964  0.0579 -0.6643
  229MPD1    H2 3481   2.138   0.665  14.305 -0.9111  0.9309  2.2372
  229MPD1    H3 3482   2.258   0.755  14.487  1.0014  0.3996  1.2930
  229MPD1     N 3483   2.460   0.362  14.595 -0.3777 -0.4481 -0.1184
  229MPD1    H5 3484   2.508   0.409  14.671 -1.9622 -0.4927  0.9103
  229MPD1    N1 3485   2.142   0.412  14.226 -0.1173 -0.1899 -0.1379
  229MPD1    H6 3486   2.107   0.485  14.163 -0.1762  0.5890  0.8053
  229MPD1    H7 3487   2.186   0.332  14.181  0.4486  1.6870 -2.9590
  230MPD1     C 3488   2.756   0.408  15.525  0.3589  0.4413 -0.6608
  230MPD1    C1 3489   2.829   0.292  15.490  0.1815 -0.3334  0.6402
  230MPD1    C2 3490   2.817   0.243  15.364 -0.0716 -0.0274 -0.7226
  230MPD1    C3 3491   2.751   0.305  15.260 -0.2475 -0.8156 -0.3181
  230MPD1    C4 3492   2.690   0.425  15.301  0.0451 -0.4507 -0.6179
  230MPD1    C5 3493   2.691   0.468  15.425  0.8927  0.5672 -1.0112
  230MPD1     H 3494   2.875   0.154  15.340 -1.8003 -2.1636  3.0069
  230MPD1    H1 3495   2.623   0.484  15.240 -1.2073  0.2800  1.4570
  230MPD1    H2 3496   2.759   0.448  15.626  1.2727  0.4100 -0.6716
  230MPD1    H3 3497   2.637   0.558  15.449  0.4378  0.1021 -0.2953
  230MPD1     N 3498   2.741   0.247  15.133 -0.4647  0.2701  0.0361
  230MPD1    H5 3499   2.786   0.156  15.130 -1.2531 -0.1772  1.4004
  230MPD1    N1 3500   2.883   0.208  15.592 -0.1424 -0.2483 -0.6720
  230MPD1    H6 3501   2.968   0.161  15.560  0.2479 -1.2591  1.8855
  230MPD1    H7 3502   2.916   0.268  15.667 -0.9972 -2.0587  1.1234
  231MPD1     C 3503   1.004   2.023  15.477 -0.0673 -0.3816  0.2269
  231MPD1    C1 3504   0.995   1.985  15.349 -0.5039 -0.1588  0.0602
  231MPD1    C2 3505   1.071   2.053  15.253  0.3616  0.6354  0.0886
  231MPD1    C3 3506   1.143   2.172  15.287  0.2536 -0.4438  0.1565
  231MPD1    C4 3507   1.153   2.211  15.419 -0.2882  0.2131  0.1593
  231MPD1    C5 3508   1.077   2.136  15.510 -0.6796  0.3388  0.1577
  231MPD1     H 3509   1.054   2.025  15.150 -0.0354 -3.0427  1.1298
  231MPD1    H1 3510   1.210   2.292  15.463 -0.4106  1.1222 -1.3614
  231MPD1    H2 3511   0.940   1.980  15.553 -0.7484 -1.3598 -0.8933
  231MPD1    H3 3512   1.084   2.172  15.613 -1.7811 -1.4880  0.8685
  231MPD1     N 3513   1.201   2.240  15.179 -0.5366  0.2568  0.0089
  231MPD1    H5 3514   1.197   2.192  15.089 -0.6080  1.4635 -0.6253
  231MPD1    N1 3515   0.921   1.877  15.304 -0.1607 -0.0356 -0.5760
  231MPD1    H6 3516   0.910   1.862  15.204 -0.0723 -1.9934 -0.2898
  231MPD1    H7 3517   0.833   1.863  15.352  0.1827  0.3974  0.1895
  232MPD1     C 3518   2.790   4.615   0.483 -0.7465  0.0588  0.1639
  232MPD1    C1 3519   2.722   0.002   0.435  0.3857  0.7749 -0.0189
  232MPD1    C2 3520   2.597   4.717   0.400  0.1092  0.1738  0.0783
  232MPD1    C3 3521   2.534   4.594   0.390  0.2297 -0.1887 -1.0247
  232MPD1    C4 3522   2.603   4.480   0.439  0.5306 -0.5029 -0.0700
  232MPD1    C5 3523   2.729   4.491   0.488  0.9771  0.5591  0.1763
  232MPD1     H 3524   2.554   0.088   0.366 -1.5015 -1.6356 -2.8888
  232MPD1    H1 3525   2.556   4.384   0.454  2.0726 -1.6207 -2.3945
  232MPD1    H2 3526   2.889   4.626   0.526  0.3515 -1.6710 -1.9310
  232MPD1    H3 3527   2.774   4.400   0.526 -1.0344 -1.2224 -1.6890
  232MPD1     N 3528   2.398   4.591   0.362  0.5849 -0.3770 -0.3533
  232MPD1    H5 3529   2.363   4.682   0.336  1.3639 -0.4887 -1.7736
  232MPD1    N1 3530   2.776   0.124   0.449 -0.1196 -0.6209 -0.0585
  232MPD1    H6 3531   2.736   0.180   0.374 -2.5177  0.3853  1.9663
  232MPD1    H7 3532   2.877   0.135   0.440 -0.3393  0.1830 -1.4908
  233MPD1     C 3533   4.119   2.051   2.530 -0.2070 -0.3512  0.2509
  233MPD1    C1 3534   4.078   2.108   2.410 -0.0790 -0.5495  0.7051
  233MPD1    C2 3535   4.179   2.162   2.330  0.1585  0.0584  0.0077
  233MPD1    C3 3536   4.314   2.176   2.375  0.0201 -0.1801  0.0525
  233MPD1    C4 3537   4.344   2.123   2.500 -0.9098  0.5325 -0.3471
  233MPD1    C5 3538   4.243   2.069   2.578 -0.6456  0.0838  0.2098
  233MPD1     H 3539   4.156   2.202   2.231  1.1618 -0.4017 -0.4126
  233MPD1    H1 3540   4.443   2.125   2.544 -0.5715  0.4078 -1.1157
  233MPD1    H2 3541   4.052   1.992   2.592 -1.0391  0.3149 -0.0185
  233MPD1    H3 3542   4.265   2.023   2.674  1.2168 -1.5471 -1.0182
  233MPD1     N 3543   4.424   2.237   2.310 -0.2654  0.1922 -0.0767
  233MPD1    H5 3544   4.513   2.234   2.359  0.0525 -4.4462 -0.9357
  233MPD1    N1 3545   3.953   2.081   2.354  0.1369 -0.0264  0.3788
  233MPD1    H6 3546   3.916   2.141   2.281 -1.2818 -2.0628 -0.5607
  233MPD1    H7 3547   3.886   2.081   2.431 -2.1447 -1.5684 -1.6280
  234MPD1     C 3548   0.707   0.688   9.490  0.4956  0.4603 -0.2721
  234MPD1    C1 3549   0.804   0.779   9.533 -0.4224  0.5352 -0.0028
  234MPD1    C2 3550   0.805   0.906   9.487  0.1151 -0.2245  0.8797
  234MPD1    C3 3551   0.717   0.943   9.389 -0.1122  0.7410 -0.6736
  234MPD1    C4 3552   0.630   0.854   9.335  0.6459  0.3196  0.2824
  234MPD1    C5 3553   0.625   0.726   9.392  0.1782  0.1710 -0.2991
  234MPD1     H 3554   0.880   0.977   9.521  1.3926 -1.1014 -0.1449
  234MPD1    H1 3555   0.562   0.886   9.258  1.8609  0.5431 -0.6970
  234MPD1    H2 3556   0.700   0.589   9.531  0.7100  1.3041  1.7855
  234MPD1    H3 3557   0.548   0.662   9.350 -0.4010  0.7186 -0.0695
  234MPD1     N 3558   0.714   1.087   9.356  0.5351 -0.2083 -0.1664
  234MPD1    H5 3559   0.788   1.147   9.389  1.0796 -0.3936 -1.0504
  234MPD1    N1 3560   0.906   0.726   9.622 -0.1209  0.1211 -0.2523
  234MPD1    H6 3561   0.965   0.794   9.670 -0.9423  2.1223 -2.0833
  234MPD1    H7 3562   0.887   0.641   9.674  1.1942 -0.8689 -1.3996
  235MPD1     C 3563   1.264   3.916  10.179  0.4930  0.4548 -0.3821
  235MPD1    C1 3564   1.266   3.826  10.075 -0.3605 -0.0583  0.0210
  235MPD1    C2 3565   1.388   3.827  10.000 -0.0958 -0.2163  0.5668
  235MPD1    C3 3566   1.506   3.889  10.050 -0.1918 -0.4726  0.4713
  235MPD1    C4 3567   1.498   3.964  10.165  0.0207  0.1986 -0.4133
  235MPD1    C5 3568   1.382   3.985  10.215  0.1098  0.3999 -0.7321
  235MPD1     H 3569   1.393   3.757   9.917 -0.7120 -0.2133  0.5230
  235MPD1    H1 3570   1.588   4.009  10.205 -0.9160 -0.8782  2.9111
  235MPD1    H2 3571   1.176   3.939  10.238 -0.6986  0.1861 -2.0466
  235MPD1    H3 3572   1.383   4.046  10.304 -1.5218 -0.7326  0.0690
  235MPD1     N 3573   1.620   3.864   9.983 -0.1078 -0.3054  0.4615
  235MPD1    H5 3574   1.608   3.809   9.898 -1.3008  0.5816  0.0507
  235MPD1    N1 3575   1.149   3.770  10.030  0.4736  0.7051  0.5271
  235MPD1    H6 3576   1.172   3.680   9.988  1.1746  0.9218  0.4418
  235MPD1    H7 3577   1.077   3.759  10.102 -1.4982  2.6334 -1.1593
  236MPD1     C 3578   2.730   0.105  10.009  0.4884  0.6003 -1.0414
  236MPD1    C1 3579   2.613   0.073   9.944 -0.3808  0.1190  0.1514
  236MPD1    C2 3580   2.523   4.708  10.003 -0.0319  0.0643  0.7104
  236MPD1    C3 3581   2.551   4.649  10.125  0.3907 -0.0006  0.0461
  236MPD1    C4 3582   2.670   4.680  10.185  0.7812  0.4449 -0.2671
  236MPD1    C5 3583   2.756   0.051  10.129 -0.0580 -1.1172 -0.4701
  236MPD1     H 3584   2.430   4.690   9.950  0.7092 -2.0314  0.1220
  236MPD1    H1 3585   2.698   4.647  10.284  0.4378 -2.0317 -0.9883
  236MPD1    H2 3586   2.792   0.184   9.969  0.7836  0.7586 -0.2719
  236MPD1    H3 3587   2.844   0.085  10.183 -2.0657  1.5590  1.1277
  236MPD1     N 3588   2.456   4.566  10.196 -0.3085 -0.1658  0.1224
  236MPD1    H5 3589   2.472   4.541  10.293  0.9641 -0.1562 -0.0890
  236MPD1    N1 3590   2.573   0.143   9.827 -0.0357 -0.1812 -0.2312
  236MPD1    H6 3591   2.524   0.072   9.773 -0.8442  0.9762 -1.0189
  236MPD1    H7 3592   2.652   0.173   9.771  0.6519  0.4061  1.0538
  237MPD1     C 3593   1.589   3.380  15.333 -0.3345 -0.0074  0.0504
  237MPD1    C1 3594   1.508   3.467  15.392  0.6382 -0.1206  0.2992
  237MPD1    C2 3595   1.367   3.452  15.377  1.1183 -0.3604  0.3949
  237MPD1    C3 3596   1.313   3.346  15.301 -0.5918  0.6915 -0.1381
  237MPD1    C4 3597   1.404   3.266  15.232 -0.3497 -0.3748  0.6061
  237MPD1    C5 3598   1.539   3.281  15.254 -0.1966 -0.5564  0.3877
  237MPD1     H 3599   1.302   3.525  15.423 -0.5178 -0.7392 -1.3561
  237MPD1    H1 3600   1.376   3.175  15.180 -0.1001  0.3315 -0.7405
  237MPD1    H2 3601   1.695   3.389  15.354 -0.2956  0.3059 -0.2746
  237MPD1    H3 3602   1.599   3.204  15.207  0.0832  0.6500 -1.2231
  237MPD1     N 3603   1.180   3.319  15.278 -0.4811  0.1218 -0.2802
  237MPD1    H5 3604   1.161   3.251  15.205  3.1473 -1.9746  0.7044
  237MPD1    N1 3605   1.570   3.548  15.489  0.3792 -0.0284 -0.2506
  237MPD1    H6 3606   1.663   3.574  15.459  1.4798 -2.9277  0.6182
  237MPD1    H7 3607   1.517   3.629  15.518 -2.5564 -2.2973  0.7612
  238MPD1     C 3608   2.747   1.668  15.357 -0.3961  0.1428 -0.3066
  238MPD1    C1 3609   2.716   1.559  15.279 -0.6265 -0.1034  0.0954
  238MPD1    C2 3610   2.611   1.574  15.189 -0.0585 -0.2508 -0.2102
  238MPD1    C3 3611   2.513   1.671  15.210 -0.1866  0.1482  0.0479
  238MPD1    C4 3612   2.524   1.761  15.309 -0.5999  0.1662 -0.0707
  238MPD1    C5 3613   2.649   1.761  15.373  0.7939  0.0109 -0.2603
  238MPD1     H 3614   2.587   1.490  15.125 -1.9507 -0.0175  0.1817
  238MPD1    H1 3615   2.453   1.834  15.345 -0.1897  1.4381 -1.8317
  238MPD1    H2 3616   2.844   1.666  15.405 -0.6844 -2.4919  0.1623
  238MPD1    H3 3617   2.672   1.850  15.429  4.5839 -0.1736 -1.5504
  238MPD1     N 3618   2.404   1.689  15.113 -0.3564  0.2672 -0.3309
  238MPD1    H5 3619   2.342   1.766  15.134  2.5568  2.6158 -0.3027
  238MPD1    N1 3620   2.819   1.469  15.258 -0.7544  0.4331  0.0178
  238MPD1    H6 3621   2.785   1.383  15.216 -1.3948  1.4232 -1.5415
  238MPD1    H7 3622   2.881   1.455  15.337  1.6932  0.6298 -1.8841
  239MPD1     C 3623   2.460   2.353  13.856 -0.6996 -0.0007 -0.1112
  239MPD1    C1 3624   2.467   2.287  13.978 -0.3862  0.9099  0.2569
  239MPD1    C2 3625   2.541   2.337  14.079  0.3140 -0.1838  0.8966
  239MPD1    C3 3626   2.626   2.439  14.059 -0.1081 -0.2033 -0.1070
  239MPD1    C4 3627   2.630   2.497  13.937  0.5324 -0.0953  0.5554
  239MPD1    C5 3628   2.554   2.447  13.835 -0.4225  0.7671  0.1836
  239MPD1     H 3629   2.540   2.289  14.176 -1.5600 -0.4375  0.7570
  239MPD1    H1 3630   2.682   2.590  13.918  0.6421 -0.2225  0.2373
  239MPD1    H2 3631   2.390   2.320  13.780  0.4601 -1.2388 -0.6490
  239MPD1    H3 3632   2.555   2.493  13.737 -0.9990 -1.0499 -0.6832
  239MPD1     N 3633   2.697   2.508  14.162 -0.0351 -0.4311  0.7030
  239MPD1    H5 3634   2.763   2.576  14.127 -0.2560 -0.8340 -0.4852
  239MPD1    N1 3635   2.364   2.194  14.016  0.3146 -0.1444  0.1997
  239MPD1    H6 3636   2.327   2.136  13.940  1.5502 -1.8208  0.8577
  239MPD1    H7 3637   2.393   2.138  14.096  0.9833  1.5944  1.1740
  240MPD1     C 3638   2.563   2.393  12.866  0.0525  0.3774  0.0165
  240MPD1    C1 3639   2.599   2.474  12.976 -0.3650 -0.2475 -0.2079
  240MPD1    C2 3640   2.594   2.421  13.103  0.0614  0.2343  0.1887
  240MPD1    C3 3641   2.566   2.290  13.123 -0.0676  0.4153 -0.0616
  240MPD1    C4 3642   2.531   2.207  13.008  0.5135  0.4742 -0.2465
  240MPD1    C5 3643   2.523   2.262  12.885 -0.6123  0.0506  0.8160
  240MPD1     H 3644   2.607   2.481  13.193  0.6859  0.2352  0.0975
  240MPD1    H1 3645   2.522   2.099  13.013 -2.2221  0.7731  0.9417
  240MPD1    H2 3646   2.570   2.421  12.762  1.9956 -0.1748 -0.0023
  240MPD1    H3 3647   2.531   2.193  12.802  2.3259  3.3057 -1.6081
  240MPD1     N 3648   2.571   2.242  13.256 -0.2627  0.7624 -0.4044
  240MPD1    H5 3649   2.611   2.303  13.326  0.6875  2.1005 -2.1077
  240MPD1    N1 3650   2.606   2.613  12.950  0.6250  0.3359  0.4091
  240MPD1    H6 3651   2.620   2.646  12.855  1.4301 -0.5776  0.2149
  240MPD1    H7 3652   2.664   2.668  13.013  0.8215 -1.0217  1.4092
  241MPD1     C 3653   2.968   2.229  14.154 -0.3935 -0.4963  0.2337
  241MPD1    C1 3654   3.014   2.280  14.037  0.1319 -0.0690  0.6847
  241MPD1    C2 3655   2.935   2.252  13.926 -0.6394  0.2057 -0.5663
  241MPD1    C3 3656   2.832   2.164  13.922 -0.4075  0.2723 -0.3421
  241MPD1    C4 3657   2.803   2.100  14.043  0.5560  0.5899 -0.6370
  241MPD1    C5 3658   2.865   2.139  14.153  0.3746 -0.0855  0.7599
  241MPD1     H 3659   2.962   2.301  13.833 -1.4693  1.5498 -0.1045
  241MPD1    H1 3660   2.714   2.037  14.049  0.4079  0.7358 -1.3301
  241MPD1    H2 3661   3.013   2.261  14.247  1.0082 -0.7376 -0.3641
  241MPD1    H3 3662   2.832   2.094  14.246 -0.4459  0.7610  0.8894
  241MPD1     N 3663   2.747   2.129  13.824 -0.5621  0.3464  0.2320
  241MPD1    H5 3664   2.674   2.061  13.843 -0.0183  0.3766  2.4160
  241MPD1    N1 3665   3.115   2.377  14.043  0.1437 -0.4514  0.3890
  241MPD1    H6 3666   3.167   2.394  13.958 -0.1493 -1.1237  0.0750
  241MPD1    H7 3667   3.180   2.344  14.115 -1.3278 -0.5701  1.6726
  242MPD1     C 3668   1.705   1.018  15.923 -0.5714  0.2786  0.5767
  242MPD1    C1 3669   1.614   0.998  15.818  0.1567 -0.4331 -0.7265
  242MPD1    C2 3670   1.665   0.987  15.688  0.4951 -0.2608  0.8018
  242MPD1    C3 3671   1.800   1.004  15.658  0.5452 -0.8666 -0.3168
  242MPD1    C4 3672   1.885   1.035  15.766  0.2163  0.1964 -0.1880
  242MPD1    C5 3673   1.840   1.035  15.895 -0.0327  0.1631 -0.4809
  242MPD1     H 3674   1.605   0.942  15.610 -0.3982  0.6487  0.9622
  242MPD1    H1 3675   1.992   1.045  15.757  0.2653  2.2848  2.8837
  242MPD1    H2 3676   1.663   1.035  16.021 -0.0325 -2.1136  1.2287
  242MPD1    H3 3677   1.910   1.057  15.975 -1.4591 -0.8517  1.0384
  242MPD1     N 3678   1.858   0.989  15.532 -0.0142  0.5404  0.6918
  242MPD1    H5 3679   1.959   0.997  15.531 -0.0235  0.6216  0.3394
  242MPD1    N1 3680   1.482   0.959  15.851  0.5275  0.0984 -0.2993
  242MPD1    H6 3681   1.423   0.970  15.768  0.2709  1.7084  0.0849
  242MPD1    H7 3682   1.451   1.005  15.937  1.0322 -1.6047  0.7827
  243MPD1     C 3683   2.695   4.127   0.505  0.6264  0.5343  0.1012
  243MPD1    C1 3684   2.801   4.110   0.591  0.1136  0.6582 -0.3821
  243MPD1    C2 3685   2.928   4.068   0.546 -0.2443  0.4932 -0.1696
  243MPD1    C3 3686   2.944   4.051   0.410 -0.0461  0.0568  0.4645
  243MPD1    C4 3687   2.841   4.072   0.320 -0.4283 -0.7593 -0.3647
  243MPD1    C5 3688   2.718   4.099   0.374 -0.5047 -0.1758  0.5130
  243MPD1     H 3689   3.009   4.063   0.617 -0.7302  1.9505  0.4942
  243MPD1    H1 3690   2.839   4.069   0.212 -0.7063  0.6692 -0.4007
  243MPD1    H2 3691   2.595   4.154   0.536  0.6536  1.4170 -0.6061
  243MPD1    H3 3692   2.640   4.133   0.307  1.4659 -1.3042 -2.3305
  243MPD1     N 3693   3.077   4.031   0.373 -0.5444 -0.1221 -0.0152
  243MPD1    H5 3694   3.140   4.013   0.451 -1.1344 -2.0545  0.0109
  243MPD1    N1 3695   2.771   4.135   0.724  0.1652 -0.4054 -0.0884
  243MPD1    H6 3696   2.681   4.099   0.757  0.8224 -2.4207 -0.5013
  243MPD1    H7 3697   2.845   4.091   0.777  1.5112  0.3466 -1.3489
  244MPD1     C 3698   3.726   3.352   0.567 -0.1635  0.6049 -0.2001
  244MPD1    C1 3699   3.687   3.329   0.438 -0.4442 -0.1355  0.1035
  244MPD1    C2 3700   3.636   3.434   0.370  0.1712  0.0376 -0.1564
  244MPD1    C3 3701   3.622   3.554   0.428  0.5539 -0.0357 -0.4250
  244MPD1    C4 3702   3.675   3.581   0.559  0.3292 -0.2654  0.1110
  244MPD1    C5 3703   3.734   3.475   0.623 -0.1953 -0.0652 -0.3840
  244MPD1     H 3704   3.584   3.416   0.276 -1.8959  0.9419  0.8130
  244MPD1    H1 3705   3.674   3.678   0.606 -1.9509 -0.1803 -0.1331
  244MPD1    H2 3706   3.750   3.259   0.618 -0.4693  0.3664 -0.4866
  244MPD1    H3 3707   3.786   3.492   0.716  0.8366 -0.0604 -0.9582
  244MPD1     N 3708   3.552   3.653   0.362 -0.1466  0.4022 -0.2504
  244MPD1    H5 3709   3.516   3.626   0.271 -0.4014  0.5514 -0.1958
  244MPD1    N1 3710   3.677   3.200   0.390 -0.2265  0.1176  0.9360
  244MPD1    H6 3711   3.581   3.172   0.411 -0.2267 -0.7334 -0.2085
  244MPD1    H7 3712   3.675   3.201   0.289 -1.3486 -0.2929  0.9513
  245MPD1     C 3713   0.922   4.205  13.349 -0.0545  0.3225 -0.3021
  245MPD1    C1 3714   0.827   4.252  13.437  0.1357  0.6623 -0.0740
  245MPD1    C2 3715   0.837   4.379  13.480 -0.5160 -0.4487 -0.1131
  245MPD1    C3 3716   0.918   4.471  13.414  0.3242  0.6875 -0.2604
  245MPD1    C4 3717   0.999   4.426  13.316 -0.0058 -0.8189 -0.6019
  245MPD1    C5 3718   1.010   4.290  13.288 -0.2789 -0.4551  0.3957
  245MPD1     H 3719   0.786   4.407  13.571 -0.7401  3.3361 -1.3930
  245MPD1    H1 3720   1.071   4.490  13.266  0.8155  0.0715  1.7045
  245MPD1    H2 3721   0.918   4.107  13.302 -3.4648  0.3800 -0.1916
  245MPD1    H3 3722   1.067   4.262  13.201  1.5403 -0.2242  1.5303
  245MPD1     N 3723   0.926   4.609  13.465  0.1875  0.5447 -0.0782
  245MPD1    H5 3724   0.875   4.628  13.551 -1.5938  0.2931 -1.0801
  245MPD1    N1 3725   0.757   4.164  13.517  0.0848  0.1638 -0.0387
  245MPD1    H6 3726   0.685   4.214  13.569  0.5533  1.8612 -1.0522
  245MPD1    H7 3727   0.713   4.091  13.462 -1.1388 -0.3044  1.5568
  246MPD1     C 3728   3.119   1.491   9.198  0.0250  0.7544 -0.6183
  246MPD1    C1 3729   3.002   1.532   9.148  0.5360 -0.1551  0.4344
  246MPD1    C2 3730   2.949   1.460   9.038  0.3942  0.4731  0.1833
  246MPD1    C3 3731   3.023   1.353   8.983  0.0302 -0.4443  0.0111
  246MPD1    C4 3732   3.151   1.326   9.024  0.2951 -0.9300 -0.4293
  246MPD1    C5 3733   3.188   1.383   9.145  0.2781 -1.0875  0.0260
  246MPD1     H 3734   2.854   1.483   8.991  0.0278  2.4649  1.8848
  246MPD1    H1 3735   3.209   1.246   8.979  3.2178  0.4990  0.8209
  246MPD1    H2 3736   3.151   1.542   9.288 -0.8677 -1.5181  1.0114
  246MPD1    H3 3737   3.284   1.360   9.189  1.6072  1.5755 -1.5121
  246MPD1     N 3738   2.957   1.304   8.868  0.8238  0.5760  0.4023
  246MPD1    H5 3739   2.861   1.332   8.852  1.1349  1.2025 -0.3222
  246MPD1    N1 3740   2.945   1.654   9.183 -0.4159 -0.0902 -0.1384
  246MPD1    H6 3741   2.971   1.678   9.278 -0.0723  0.1989 -0.3056
  246MPD1    H7 3742   2.845   1.635   9.179  0.1010 -3.1123  1.2651
  247MPD1     C 3743   3.883   4.133  16.232  0.3111  0.1505  0.2484
  247MPD1    C1 3744   4.012   4.080  16.215  0.0453  0.5416 -0.1403
  247MPD1    C2 3745   4.102   4.164  16.157  0.3047  0.5655 -0.1314
  247MPD1    C3 3746   4.071   4.299  16.136  0.2918  0.2890  0.4184
  247MPD1    C4 3747   3.944   4.344  16.150 -0.3272  0.4082  0.0319
  247MPD1    C5 3748   3.853   4.256  16.197 -0.6547  0.2541  0.3350
  247MPD1     H 3749   4.202   4.130  16.135 -0.0426  0.3932 -1.4222
  247MPD1    H1 3750   3.918   4.447  16.132 -0.9290  0.1699 -0.4776
  247MPD1    H2 3751   3.800   4.074  16.270  0.7055 -0.2463  0.4979
  247MPD1    H3 3752   3.749   4.286  16.198 -0.2660  1.6562 -0.6156
  247MPD1     N 3753   4.163   4.391  16.089 -0.7463  0.0719  0.4025
  247MPD1    H5 3754   4.139   4.490  16.084 -2.2037 -0.3335 -0.3882
  247MPD1    N1 3755   4.033   3.942  16.230 -0.2283  0.3504 -0.4586
  247MPD1    H6 3756   4.130   3.913  16.239 -0.1355  0.4050 -1.3561
  247MPD1    H7 3757   3.962   3.900  16.291  0.1028 -0.5176 -0.6702
  248MPD1     C 3758   1.273   0.485  17.322  0.3115 -0.2638  0.3727
  248MPD1    C1 3759   1.209   0.557  17.420 -0.4098 -0.6916  0.0346
  248MPD1    C2 3760   1.118   0.488  17.495 -0.7388 -0.4723 -0.0075
  248MPD1    C3 3761   1.097   0.356  17.474 -0.1360 -0.4921 -0.3930
  248MPD1    C4 3762   1.157   0.288  17.370 -0.7493 -0.3663 -0.2476
  248MPD1    C5 3763   1.248   0.351  17.297  0.1512  0.4880 -0.3310
  248MPD1     H 3764   1.065   0.546  17.571  0.3704 -1.3916  1.4727
  248MPD1    H1 3765   1.140   0.183  17.349 -1.5314 -0.1624 -0.6437
  248MPD1    H2 3766   1.346   0.535  17.259  0.9825 -1.6756  0.0134
  248MPD1    H3 3767   1.304   0.293  17.224  0.8357  1.4852 -0.6035
  248MPD1     N 3768   1.005   0.293  17.564  0.1675  0.3529 -0.3826
  248MPD1    H5 3769   0.965   0.352  17.637  3.3632  1.2225  0.6712
  248MPD1    N1 3770   1.204   0.693  17.417 -0.2656  0.9397  0.4274
  248MPD1    H6 3771   1.192   0.732  17.510 -1.0799 -1.3006  1.2508
  248MPD1    H7 3772   1.293   0.724  17.376 -1.1654 -0.1061 -2.3257
  249MPD1     C 3773   2.663   2.524   9.922  0.4937 -0.9099 -0.3834
  249MPD1    C1 3774   2.673   2.525   9.783  0.3382  0.4412  0.1295
  249MPD1    C2 3775   2.763   2.618   9.732 -0.6956 -0.2660 -0.1052
  249MPD1    C3 3776   2.839   2.708   9.798 -0.0780  0.4308 -0.0212
  249MPD1    C4 3777   2.814   2.717   9.935 -0.3348  0.4614 -0.4708
  249MPD1    C5 3778   2.734   2.619   9.991  0.0753  0.4810  0.1030
  249MPD1     H 3779   2.783   2.610   9.625 -0.5921  2.6748 -0.2984
  249MPD1    H1 3780   2.849   2.793  10.004 -0.9417  1.0144 -0.7773
  249MPD1    H2 3781   2.590   2.464   9.976  2.5573 -2.2077  1.0005
  249MPD1    H3 3782   2.716   2.612  10.098  2.9005  0.0187  0.5335
  249MPD1     N 3783   2.924   2.800   9.733  0.2618  0.5851 -0.0364
  249MPD1    H5 3784   2.920   2.810   9.632 -1.4604  0.7922  0.0615
  249MPD1    N1 3785   2.601   2.439   9.697 -0.3711 -0.3658 -0.2199
  249MPD1    H6 3786   2.511   2.409   9.733  0.2198 -0.4931  1.1439
  249MPD1    H7 3787   2.589   2.474   9.602 -2.6815 -0.3727  0.0810
  250MPD2     C 3788   4.580   2.894  13.121  0.0933 -0.2848  0.6852
  250MPD2    C1 3789   4.468   2.962  13.140 -1.2298 -0.4405 -0.7968
  250MPD2    C2 3790   4.349   2.890  13.152  0.5290 -0.4744 -0.0149
  250MPD2    C3 3791   4.342   2.751  13.149  0.2215 -0.4174 -1.2971
  250MPD2    C4 3792   4.463   2.687  13.111 -0.1021  0.3375 -0.4215
  250MPD2    C5 3793   4.580   2.753  13.101 -0.3930  0.2164  0.4849
  250MPD2     H 3794   4.259   2.951  13.151  0.6104 -0.3288  3.5459
  250MPD2    H1 3795   4.468   2.582  13.086  1.2574  0.0541  1.0047
  250MPD2    H2 3796   4.678   2.938  13.105 -0.6940  0.2335 -2.8948
  250MPD2    H3 3797   4.675   2.703  13.081 -1.2559 -0.7741 -1.0783
  250MPD2     N 3798   4.227   2.676  13.146  0.3553  0.2212 -0.1722
  250MPD2    H5 3799   4.227   2.577  13.125  2.7696  0.4334 -1.1658
  250MPD2    N1 3800   4.483   3.102  13.125 -0.3695  0.4957 -0.1672
  250MPD2    H7 3801   4.576   3.138  13.107 -0.6718  1.5755  0.4158
  251TMC3    C1 3802   4.427   3.326  13.085  0.1178  0.2374  0.1539
  251TMC3    C2 3803   4.351   3.415  13.013 -1.2433 -0.1511  0.3757
  251TMC3    C3 3804   4.396   3.546  13.001  0.0113  0.8681 -0.1854
  251TMC3    C4 3805   4.546   3.365  13.148  0.3762 -0.1442  0.1656
  251TMC3    C5 3806   4.577   3.499  13.144  0.1236 -0.0001  0.0276
  251TMC3    C6 3807   4.509   3.586  13.068  0.6467  0.4223 -0.3265
  251TMC3     C 3808   4.384   3.196  13.128 -0.6930  0.1588 -0.7428
  251TMC3     O 3809   4.264   3.181  13.131 -0.7491 -0.3422 -0.2081
  251TMC3     H 3810   4.272   3.371  12.954 -0.8262 -1.8557  1.1144
  251TMC3    H1 3811   4.605   3.288  13.196 -0.2161 -0.2470  0.7406
  251TMC3    H2 3812   4.542   3.689  13.074  2.2169 -0.1791  1.3652
  251TMC3    C7 3813   4.709   3.537  13.190 -0.1694  0.2768 -0.1125
  251TMC3    C8 3814   4.287   3.637  12.961  0.5350  0.3238  0.0800
  251TMC3    O1 3815   0.055   3.451  13.246 -0.3801 -0.2926 -0.4074
  251TMC3    O2 3816   4.181   3.579  12.933 -0.4326 -0.1342 -0.3947
  252TMC3    C1 3817   0.135   4.152   9.375 -0.3900  0.0943 -0.3372
  252TMC3    C2 3818   0.185   4.278   9.362  0.1875  0.0964 -0.2226
  252TMC3    C3 3819   0.121   4.366   9.285  0.4109  0.1898  0.5440
  252TMC3    C4 3820   0.012   4.118   9.336  0.0574  0.2998  0.1175
  252TMC3    C5 3821   4.665   4.208   9.266 -0.1257 -0.3913  0.1416
  252TMC3    C6 3822   4.715   4.336   9.240  0.2614 -0.9119  0.1863
  252TMC3     C 3823   0.212   4.065   9.463  0.3607 -0.1745 -0.1813
  252TMC3     O 3824   0.278   4.127   9.545  0.2630 -0.2232 -0.0521
  252TMC3     H 3825   0.290   4.292   9.381 -0.3007  0.4996  2.1612
  252TMC3    H1 3826   4.685   4.032   9.381 -1.8934  1.5647  0.3679
  252TMC3    H2 3827   4.653   4.405   9.185  1.3047 -0.4046 -0.3425
  252TMC3    C7 3828   4.556   4.169   9.189  0.2045  0.3285  0.0062
  252TMC3    C8 3829   0.172   4.498   9.239  0.1136  0.1769  0.2204
  252TMC3    O1 3830   4.519   4.237   9.093  0.2313 -0.0093  0.0748
  252TMC3    O2 3831   0.108   4.557   9.156  0.0695 -0.8956 -0.2464
  253MPD2     C 3832   4.653   3.086  15.494 -0.4321  0.0455 -0.3460
  253MPD2    C1 3833   4.531   3.154  15.523  0.1725  0.1268 -0.2521
  253MPD2    C2 3834   4.516   3.210  15.648 -0.9380 -0.2464 -0.1198
  253MPD2    C3 3835   4.611   3.206  15.744  0.5814 -0.8507  0.6242
  253MPD2    C4 3836   0.006   3.149  15.710  0.2008  0.5605 -0.1525
  253MPD2    C5 3837   0.027   3.089  15.593 -0.0493 -0.1861  0.0351
  253MPD2     H 3838   4.416   3.247  15.667 -0.6897  0.1902  0.3496
  253MPD2    H1 3839   0.089   3.149  15.780  0.1487 -1.5432 -0.1024
  253MPD2    H2 3840   4.672   3.023  15.408  0.5502  0.4681 -0.4431
  253MPD2    H3 3841   0.123   3.043  15.571  0.0249  0.6502 -1.3699
  253MPD2     N 3842   4.596   3.250  15.880  0.3587 -0.4581 -0.2123
  253MPD2    H5 3843   4.679   3.234  15.936  1.2555  0.6339 -1.2354
  253MPD2    N1 3844   4.426   3.182  15.426  0.0649  0.2508 -0.5255
  253MPD2    H7 3845   4.353   3.249  15.451  0.5313  0.7405 -0.4868
  254TMC3    C1 3846   4.502   3.370  16.067 -0.7352 -0.6212 -0.0831
  254TMC3    C2 3847   4.383   3.398  16.129  0.3445 -1.2020  0.3004
  254TMC3    C3 3848   4.374   3.400  16.270 -0.0875  0.2229  0.1107
  254TMC3    C4 3849   4.614   3.352  16.138  0.7865 -0.3804  0.1307
  254TMC3    C5 3850   4.609   3.343  16.278 -0.1697 -0.1095  0.1664
  254TMC3    C6 3851   4.487   3.369  16.345 -0.5309  0.2750 -0.6629
  254TMC3     C 3852   4.488   3.315  15.933  0.0709 -0.7557  0.2137
  254TMC3     O 3853   4.380   3.334  15.880 -0.4530 -0.4563 -0.3434
  254TMC3     H 3854   4.304   3.443  16.070  1.5492 -0.6472 -0.8944
  254TMC3    H1 3855   4.711   3.336  16.093 -0.0235 -0.8780 -1.4101
  254TMC3    H2 3856   4.491   3.390  16.452 -0.4570 -1.5436 -0.3152
  254TMC3    C7 3857   0.002   3.362  16.358 -0.0030 -0.1108 -0.2059
  254TMC3    C8 3858   4.292   3.506  16.328 -0.2995  0.4304 -0.1245
  254TMC3    O1 3859   0.001   3.306  16.469 -0.1682  0.5071 -0.4770
  254TMC3    O2 3860   4.342   3.592  16.395  0.4390 -0.7712 -0.1568
  255MPD2     C 3861   3.438   1.531  10.010  0.6302 -0.3495  0.4900
  255MPD2    C1 3862   3.388   1.424   9.930 -0.1938  0.3666 -0.4669
  255MPD2    C2 3863   3.473   1.316   9.923  0.2211  0.1663 -0.5633
  255MPD2    C3 3864   3.598   1.319   9.970 -0.0737  0.6480 -0.8580
  255MPD2    C4 3865   3.633   1.406  10.065  0.2169  0.4791 -0.0094
  255MPD2    C5 3866   3.554   1.516  10.075 -0.8527  0.1812 -0.4096
  255MPD2     H 3867   3.435   1.225   9.876  0.2478 -0.2432  0.2186
  255MPD2    H1 3868   3.729   1.397  10.115  1.2483 -0.2866 -2.1204
  255MPD2    H2 3869   3.368   1.608  10.041  0.3494 -1.0473  1.6099
  255MPD2    H3 3870   3.592   1.593  10.142 -2.0104  0.1623  0.2622
  255MPD2     N 3871   3.687   1.213   9.935  0.1425  0.2716 -0.7919
  255MPD2    H5 3872   3.642   1.132   9.893  0.5343  0.1468 -0.9700
  255MPD2    N1 3873   3.270   1.445   9.854  0.1585  0.2817  0.2687
  255MPD2    H7 3874   3.239   1.542   9.860  0.4221  0.6153 -3.8033
  256TMC3    C1 3875   3.123   1.416   9.684 -0.3648 -0.6157 -0.6555
  256TMC3    C2 3876   3.129   1.551   9.663  0.3021 -0.2839 -0.5876
  256TMC3    C3 3877   3.025   1.597   9.590  0.2536  0.0886  0.8833
  256TMC3    C4 3878   3.026   1.330   9.643 -0.9052 -0.2544 -0.2120
  256TMC3    C5 3879   2.935   1.384   9.563 -0.2455 -0.2917 -0.8148
  256TMC3    C6 3880   2.930   1.515   9.530  0.4401 -0.2115  0.4264
  256TMC3     C 3881   3.228   1.359   9.757  0.6326 -0.1770  0.1642
  256TMC3     O 3882   3.250   1.242   9.738 -0.0457 -0.5915  0.1045
  256TMC3     H 3883   3.226   1.596   9.681  0.2452 -0.0790 -0.7952
  256TMC3    H1 3884   3.017   1.229   9.679  0.7259 -0.1866  0.3987
  256TMC3    H2 3885   2.854   1.550   9.461  0.1731  0.5544  1.1000
  256TMC3    C7 3886   2.875   1.292   9.481 -0.5654  0.2559  0.1285
  256TMC3    C8 3887   3.051   1.714   9.506  0.0034  0.3152 -0.6273
  256TMC3    O1 3888   2.927   1.182   9.468  0.0272 -0.1026  0.2282
  256TMC3    O2 3889   2.945   1.756   9.457  0.5137  0.4717 -0.7255
  257MPD2     C 3890   2.831   2.941  13.116  0.1693  0.7880 -0.2580
  257MPD2    C1 3891   2.852   2.853  13.008 -0.0984 -0.0635  0.0918
  257MPD2    C2 3892   2.894   2.721  13.032  0.1585  0.6841 -0.1773
  257MPD2    C3 3893   2.916   2.690  13.161 -0.6833 -0.6100 -0.3293
  257MPD2    C4 3894   2.893   2.778  13.268  0.5293  1.0842  0.0793
  257MPD2    C5 3895   2.830   2.889  13.242  0.3342 -0.0063  0.2907
  257MPD2     H 3896   2.907   2.646  12.955  1.3513 -1.2339  1.8864
  257MPD2    H1 3897   2.896   2.749  13.373 -0.4885 -1.0158 -0.4662
  257MPD2    H2 3898   2.810   3.046  13.104 -1.3808  0.4485 -0.6049
  257MPD2    H3 3899   2.812   2.961  13.322  1.1462  1.5934 -0.9643
  257MPD2     N 3900   2.961   2.556  13.177 -0.0619  0.1901 -0.7350
  257MPD2    H5 3901   2.988   2.507  13.093  1.7036 -0.7051  0.3580
  257MPD2    N1 3902   2.832   2.898  12.874  0.3233  0.2615  0.5266
  257MPD2    H7 3903   2.812   2.997  12.864  0.8827  0.3140 -0.0689
  258TMC3    C1 3904   3.012   2.353  13.297  0.1820 -0.1227 -0.0154
  258TMC3    C2 3905   2.962   2.284  13.188 -0.5052  0.2581 -0.0237
  258TMC3    C3 3906   2.975   2.150  13.189 -0.2597 -0.4011 -1.0688
  258TMC3    C4 3907   3.054   2.292  13.412 -0.0491 -0.1875 -0.4141
  258TMC3    C5 3908   3.072   2.157  13.404 -0.2692 -0.0764 -0.2918
  258TMC3    C6 3909   3.041   2.079  13.293  0.5232  1.0150  0.4326
  258TMC3     C 3910   2.985   2.495  13.301  0.2943 -0.2171  0.2126
  258TMC3     O 3911   2.978   2.549  13.411  0.0333 -0.0610  0.2895
  258TMC3     H 3912   2.898   2.330  13.115 -1.9837 -1.9947 -0.1667
  258TMC3    H1 3913   3.075   2.343  13.505  1.3383  0.5666 -1.1328
  258TMC3    H2 3914   3.053   1.972  13.291  3.7792  1.4013 -0.9451
  258TMC3    C7 3915   3.076   2.094  13.526  0.1544  0.2417  0.6032
  258TMC3    C8 3916   2.936   2.067  13.074  0.3264  0.3746  0.2403
  258TMC3    O1 3917   3.029   1.983  13.522 -0.1549  0.2645 -0.3312
  258TMC3    O2 3918   2.964   1.945  13.080 -0.2031  0.4289  0.3956
  259MPD2     C 3919   1.427   0.773   0.501 -0.1863  0.0522  0.5191
  259MPD2    C1 3920   1.425   0.640   0.471  0.4411  0.0323 -0.0354
  259MPD2    C2 3921   1.447   0.609   0.337  0.4156  0.3094 -0.0363
  259MPD2    C3 3922   1.471   0.705   0.246 -0.6357  0.1906 -0.2318
  259MPD2    C4 3923   1.469   0.838   0.283  0.5595  0.1177 -0.1444
  259MPD2    C5 3924   1.447   0.869   0.411  0.1254 -0.1767  0.1230
  259MPD2     H 3925   1.445   0.508   0.298  1.6657 -0.8369  2.8097
  259MPD2    H1 3926   1.467   0.920   0.212 -2.1860  0.3098  0.1418
  259MPD2    H2 3927   1.401   0.808   0.601 -0.4883  1.2636  0.0169
  259MPD2    H3 3928   1.450   0.973   0.439  1.5098  0.7310 -3.4500
  259MPD2     N 3929   1.487   0.663   0.112 -0.7518  0.2027 -0.3818
  259MPD2    H5 3930   1.460   0.566   0.102  2.6630 -0.5194 -2.8282
  259MPD2    N1 3931   1.408   0.543   0.571  0.6885  0.0049  0.1133
  259MPD2    H7 3932   1.408   0.562   0.671 -1.2982  0.5069  0.0145
  260TMC3    C1 3933   1.566   0.660  17.580  0.3263 -0.6474 -0.1292
  260TMC3    C2 3934   1.664   0.717  17.505  0.1230 -0.2592  0.6583
  260TMC3    C3 3935   1.733   0.627  17.424 -0.4868  0.7602  0.6112
  260TMC3    C4 3936   1.524   0.525  17.572  0.6481  0.4929 -0.0012
  260TMC3    C5 3937   1.590   0.456  17.467 -0.3878  0.0107 -0.7259
  260TMC3    C6 3938   1.688   0.504  17.393  0.3576 -0.5030  0.2281
  260TMC3     C 3939   1.531   0.737   0.003 -0.3588  0.2559 -0.2360
  260TMC3     O 3940   1.557   0.854   0.006  0.3850  0.0407  0.7377
  260TMC3     H 3941   1.700   0.814  17.537  2.7415 -1.7508  2.2422
  260TMC3    H1 3942   1.434   0.481  17.611  0.1428  2.0712  0.6197
  260TMC3    H2 3943   1.748   0.463  17.312 -0.5903 -0.8727 -0.2899
  260TMC3    C7 3944   1.622   0.322  17.503 -0.4568 -0.0010 -0.4553
  260TMC3    C8 3945   1.872   0.621  17.469  0.2145  0.0859  0.9566
  260TMC3    O1 3946   1.726   0.287  17.444  0.2706 -0.0093  0.3621
  260TMC3    O2 3947   1.930   0.724  17.501  0.2026  0.5669  0.2622
  261MPD2     C 3948   3.508   2.792  12.854  0.2541 -0.3189 -0.0315
  261MPD2    C1 3949   3.614   2.711  12.821  0.1557  0.5913 -0.4076
  261MPD2    C2 3950   3.652   2.715  12.686  0.0354 -0.1218 -0.2038
  261MPD2    C3 3951   3.588   2.791  12.594 -0.0412 -0.2711  0.2189
  261MPD2    C4 3952   3.480   2.875  12.630 -0.7706  0.6074 -0.0250
  261MPD2    C5 3953   3.437   2.862  12.761 -0.0765 -0.1864 -0.4212
  261MPD2     H 3954   3.738   2.654  12.658 -1.3205 -1.7828 -0.7531
  261MPD2    H1 3955   3.428   2.935  12.557 -1.3867 -1.2195 -1.0958
  261MPD2    H2 3956   3.456   2.791  12.949  1.3387  2.3189  0.5879
  261MPD2    H3 3957   3.355   2.926  12.792  0.4553 -0.2259  1.1139
  261MPD2     N 3958   3.640   2.796  12.454  0.7497 -0.1236 -0.1119
  261MPD2    H5 3959   3.604   2.870  12.394  1.0456 -0.4497 -0.6919
  261MPD2    N1 3960   3.672   2.615  12.911  0.1091  0.2923 -0.4455
  261MPD2    H7 3961   3.744   2.552  12.876 -0.9567 -2.4193  2.2492
  262TMC3    C1 3962   3.792   2.767  12.279  0.7077 -0.2900  0.0580
  262TMC3    C2 3963   3.727   2.861  12.204  0.0870 -0.5905 -0.9179
  262TMC3    C3 3964   3.794   2.905  12.087 -0.2428  0.6188  0.2485
  262TMC3    C4 3965   3.907   2.702  12.235 -0.7844  0.5590  0.5427
  262TMC3    C5 3966   3.969   2.738  12.117  0.0228  0.5247 -0.3436
  262TMC3    C6 3967   3.915   2.841  12.042  0.1694 -0.2107  0.0872
  262TMC3     C 3968   3.740   2.718  12.407 -0.8723  0.4178  0.6846
  262TMC3     O 3969   3.794   2.612  12.442  0.2290  0.9371 -0.0097
  262TMC3     H 3970   3.636   2.915  12.228  0.5409 -0.1641 -0.1996
  262TMC3    H1 3971   3.941   2.612  12.285 -1.5589  1.1021  2.0516
  262TMC3    H2 3972   3.962   2.884  11.955  0.0248 -0.7677 -0.2627
  262TMC3    C7 3973   4.035   2.627  12.051  0.5485  0.7531  0.0595
  262TMC3    C8 3974   3.745   3.006  11.998 -0.6437 -0.0572  0.6144
  262TMC3    O1 3975   4.074   2.536  12.115 -0.2249  0.2116 -0.8637
  262TMC3    O2 3976   3.815   3.045  11.909  0.3636  0.4691  0.2473
  263MPD2     C 3977   4.415   2.716  11.513 -0.3830 -0.9572 -0.3046
  263MPD2    C1 3978   4.532   2.729  11.438  0.0100 -0.0174 -0.9857
  263MPD2    C2 3979   4.514   2.761  11.303 -0.5312 -0.2349  0.2085
  263MPD2    C3 3980   4.392   2.798  11.251  0.1764  0.4446  0.2690
  263MPD2    C4 3981   4.280   2.791  11.330 -0.0724 -0.1952  0.2971
  263MPD2    C5 3982   4.295   2.745  11.458  0.1660 -0.3153 -0.7548
  263MPD2     H 3983   4.602   2.767  11.239  0.0969 -0.0274  1.0898
  263MPD2    H1 3984   4.182   2.818  11.293 -0.3003 -0.3366  0.8068
  263MPD2    H2 3985   4.414   2.690  11.618  3.4554 -0.7808 -0.2283
  263MPD2    H3 3986   4.206   2.743  11.521 -0.1603 -2.5116 -1.3086
  263MPD2     N 3987   4.377   2.856  11.123  0.4953  0.6599  0.2520
  263MPD2    H5 3988   4.281   2.885  11.107  0.2833  0.0393  0.3792
  263MPD2    N1 3989   4.653   2.705  11.504  0.6327  0.3409 -0.3918
  263MPD2    H7 3990   4.645   2.651  11.589 -0.9419  0.2361 -0.6118
  264TMC3    C1 3991   4.441   2.963  10.930 -0.4171 -0.9819  0.0582
  264TMC3    C2 3992   4.386   3.080  10.971 -0.4129  0.8819  0.0524
  264TMC3    C3 3993   4.373   3.190  10.883 -0.0454 -0.1980 -0.3972
  264TMC3    C4 3994   4.486   2.956  10.806 -0.2263 -1.0851 -0.4505
  264TMC3    C5 3995   4.470   3.061  10.716 -0.5811  0.3878  0.9700
  264TMC3    C6 3996   4.413   3.180  10.757 -0.0209  0.0793  0.3975
  264TMC3     C 3997   4.471   2.865  11.029  0.0298  0.6167 -0.3633
  264TMC3     O 3998   4.574   2.804  11.008 -0.0909  0.7913  0.1644
  264TMC3     H 3999   4.357   3.086  11.075  0.4321  0.5652  0.3086
  264TMC3    H1 4000   4.526   2.865  10.765 -1.1258 -2.3141  1.3792
  264TMC3    H2 4001   4.391   3.259  10.685 -3.2509 -1.0211  0.1603
  264TMC3    C7 4002   4.592   3.088  10.642 -0.4768  0.2197  0.7405
  264TMC3    C8 4003   4.389   3.321  10.935  0.5488  0.3612 -0.4584
  264TMC3    O1 4004   4.642   2.989  10.591  0.0879 -0.1743  0.8609
  264TMC3    O2 4005   4.442   3.400  10.857 -0.4827 -0.2364  0.1008
  265MPD2     C 4006   1.314   2.946  15.505 -0.3092 -0.3649  0.4927
  265MPD2    C1 4007   1.423   3.031  15.518 -0.1347 -0.6955  0.6795
  265MPD2    C2 4008   1.546   3.004  15.455  0.0499 -0.8764  0.2361
  265MPD2    C3 4009   1.548   2.882  15.389  0.1405  0.7206  0.0239
  265MPD2    C4 4010   1.436   2.798  15.377 -0.1779 -0.4534  0.5007
  265MPD2    C5 4011   1.324   2.830  15.440 -0.6681 -0.4300  0.4413
  265MPD2     H 4012   1.635   3.065  15.458 -0.0894 -0.7142  1.1303
  265MPD2    H1 4013   1.461   2.700  15.339 -1.8920  0.4434 -2.9643
  265MPD2    H2 4014   1.218   2.965  15.553  0.2883 -1.7796  2.2622
  265MPD2    H3 4015   1.237   2.766  15.433 -0.0445 -1.3580  1.2222
  265MPD2     N 4016   1.670   2.837  15.329 -0.2901 -0.0706 -0.0251
  265MPD2    H5 4017   1.663   2.745  15.289  1.3736 -0.5480  0.7972
  265MPD2    N1 4018   1.419   3.148  15.605  0.0224 -0.1361  0.4449
  265MPD2    H7 4019   1.507   3.190  15.631  1.1427 -1.6154 -0.9151
  266TMC3    C1 4020   1.327   3.322  15.753  0.4501  0.1895  0.5554
  266TMC3    C2 4021   1.443   3.335  15.826 -0.2189 -0.0329  0.2129
  266TMC3    C3 4022   1.480   3.458  15.872 -0.3827  0.1350  0.6855
  266TMC3    C4 4023   1.246   3.428  15.723 -0.2446  0.0191 -0.0248
  266TMC3    C5 4024   1.285   3.555  15.764  1.2014 -0.0289 -0.4268
  266TMC3    C6 4025   1.401   3.570  15.838  0.2447 -0.4630 -0.6533
  266TMC3     C 4026   1.309   3.206  15.662 -0.1536  0.6403  0.6940
  266TMC3     O 4027   1.188   3.181  15.640 -0.1426  0.3552 -0.5690
  266TMC3     H 4028   1.511   3.251  15.833  1.7748  1.6526  1.1098
  266TMC3    H1 4029   1.163   3.414  15.654 -0.5040  0.5229  0.1849
  266TMC3    H2 4030   1.439   3.665  15.874  2.0177 -0.7758 -1.7180
  266TMC3    C7 4031   1.195   3.663  15.734 -0.4010  0.4855 -0.0264
  266TMC3    C8 4032   1.614   3.460  15.924 -0.4749  0.1970 -0.0494
  266TMC3    O1 4033   1.078   3.636  15.706  0.3023 -0.3851 -0.2738
  266TMC3    O2 4034   1.683   3.359  15.898  0.4679 -0.4750 -0.4282
  267MPD2     C 4035   4.080   0.136  17.437 -0.3213 -0.9567 -1.3096
  267MPD2    C1 4036   4.153   0.043  17.507 -0.5245  0.6885 -0.3328
  267MPD2    C2 4037   4.107   4.635  17.507 -0.2717 -0.7847 -0.0816
  267MPD2    C3 4038   3.995   4.596  17.435 -0.2698 -0.1121 -0.4785
  267MPD2    C4 4039   3.917   4.694  17.376  0.2019 -0.0445  0.1442
  267MPD2    C5 4040   3.962   0.106  17.380 -0.3110 -0.1373 -0.4220
  267MPD2     H 4041   4.165   4.562  17.562 -0.7789 -0.2434  1.1687
  267MPD2    H1 4042   3.827   4.673  17.319 -0.9566 -0.8219  2.2392
  267MPD2    H2 4043   4.120   0.237  17.436 -0.6279 -0.8067  0.8883
  267MPD2    H3 4044   3.914   0.188  17.329  0.8422  1.0840  0.4648
  267MPD2     N 4045   3.944   4.467  17.427  0.1064  0.9524 -0.2949
  267MPD2    H5 4046   3.860   4.455  17.372 -0.7643  2.5644  0.6636
  267MPD2    N1 4047   4.264   0.090  17.582  0.5046  0.8829  0.1470
  267MPD2    H7 4048   4.290   0.187  17.571 -1.5366  1.3799 -0.2288
  268TMC3    C1 4049   4.434   0.109   0.050 -0.5434  0.0761 -0.0055
  268TMC3    C2 4050   4.415   0.248   0.067  0.3860  0.2356 -0.1530
  268TMC3    C3 4051   4.497   0.307   0.160 -0.2202 -0.7030 -0.8813
  268TMC3    C4 4052   4.510   0.041   0.139  0.2278  0.4415 -0.5401
  268TMC3    C5 4053   4.581   0.108   0.238  0.2691  0.6036  0.7088
  268TMC3    C6 4054   4.582   0.242   0.245 -0.0679  0.0547  0.1026
  268TMC3     C 4055   4.355   0.020  17.662 -0.5222 -0.4383  0.2095
  268TMC3     O 4056   4.358   4.622  17.675 -0.0775 -0.3052 -0.1514
  268TMC3     H 4057   4.346   0.304   0.005  0.4066  2.6523  2.0251
  268TMC3    H1 4058   4.524   4.656   0.144 -0.3285  0.2923 -2.4943
  268TMC3    H2 4059   4.648   0.291   0.315  1.4034  0.7901 -1.8095
  268TMC3    C7 4060   4.599   0.019   0.362  0.1172  0.4252  0.4818
  268TMC3    C8 4061   4.485   0.451   0.172  0.5413 -0.4893 -0.1270
  268TMC3    O1 4062   4.535   4.641   0.379  0.5794  0.1238 -0.1881
  268TMC3    O2 4063   4.529   0.504   0.271  0.0162 -0.1610 -0.0998
  269MPD2     C 4064   4.365   3.647  15.841 -0.7293 -0.0628 -0.0726
  269MPD2    C1 4065   4.236   3.646  15.804  0.7785 -0.2465  0.6565
  269MPD2    C2 4066   4.165   3.768  15.810  0.1719 -0.2215  0.4338
  269MPD2    C3 4067   4.219   3.884  15.854 -0.2386 -0.0627  0.0789
  269MPD2    C4 4068   4.354   3.877  15.881 -0.2173 -0.1142 -0.2932
  269MPD2    C5 4069   4.420   3.762  15.882  0.8050 -0.3964  0.0033
  269MPD2     H 4070   4.060   3.776  15.783 -0.1586 -0.9749  1.4988
  269MPD2    H1 4071   4.403   3.964  15.923 -0.9722 -0.3101  1.0135
  269MPD2    H2 4072   4.420   3.553  15.848 -1.6704 -0.5729  0.3406
  269MPD2    H3 4073   4.522   3.772  15.917 -0.1060 -1.8749  3.0476
  269MPD2     N 4074   4.150   4.000  15.840  0.3888 -0.2018  0.2671
  269MPD2    H5 4075   4.051   3.983  15.830  0.3960 -0.6414  0.9113
  269MPD2    N1 4076   4.181   3.526  15.748 -0.7809 -1.0043 -0.1639
  269MPD2    H7 4077   4.239   3.443  15.746  2.2199  1.0437  1.5299
  270TMC3    C1 4078   4.017   3.380  15.666 -0.9805 -0.5989 -0.2773
  270TMC3    C2 4079   3.910   3.360  15.583 -0.0309 -0.9261  0.0799
  270TMC3    C3 4080   3.864   3.236  15.568 -0.4821 -0.6600  0.0585
  270TMC3    C4 4081   4.092   3.274  15.703 -0.0127 -0.1968 -0.3002
  270TMC3    C5 4082   4.031   3.159  15.698  0.6490  0.7316 -0.2147
  270TMC3    C6 4083   3.918   3.137  15.634  0.4650  0.0597  0.4615
  270TMC3     C 4084   4.054   3.516  15.705 -0.0320  0.3329 -0.5108
  270TMC3     O 4085   3.963   3.597  15.705  0.5590  0.2411 -0.3309
  270TMC3     H 4086   3.856   3.448  15.550  0.4105 -0.3462  0.9179
  270TMC3    H1 4087   4.181   3.274  15.765 -0.4344 -0.9135  0.2916
  270TMC3    H2 4088   3.881   3.036  15.631  1.7089 -0.4256  1.7659
  270TMC3    C7 4089   4.129   3.053  15.681  0.8235  0.2497  0.0596
  270TMC3    C8 4090   3.845   3.191  15.428 -0.3860 -0.4642  0.6830
  270TMC3    O1 4091   4.216   3.046  15.766 -0.7281  0.2158 -0.6136
  270TMC3    O2 4092   3.899   3.082  15.397 -0.2617 -0.5330  0.0966
  271MPD2     C 4093   3.483   2.935  13.807 -1.1449 -0.1553 -0.2711
  271MPD2    C1 4094   3.466   2.918  13.940  1.4228  0.1194 -0.5625
  271MPD2    C2 4095   3.336   2.925  13.992  0.4732  1.1378 -0.5211
  271MPD2    C3 4096   3.226   2.927  13.905 -0.0860  0.4125  0.1061
  271MPD2    C4 4097   3.250   2.931  13.774  0.1912 -0.3199  0.1037
  271MPD2    C5 4098   3.377   2.940  13.719 -0.2118  0.3434 -0.1020
  271MPD2     H 4099   3.326   2.920  14.100 -0.2215  0.9613 -0.5940
  271MPD2    H1 4100   3.166   2.932  13.705  0.1761 -1.0222  0.1143
  271MPD2    H2 4101   3.584   2.933  13.768 -1.0508  0.4172 -0.0509
  271MPD2    H3 4102   3.402   2.941  13.614 -1.4490 -0.6032 -0.4206
  271MPD2     N 4103   3.088   2.931  13.952  0.4135  0.5821  0.6179
  271MPD2    H5 4104   3.015   2.939  13.883  1.7426 -0.5887 -0.9136
  271MPD2    N1 4105   3.579   2.910  14.031  0.1321 -0.1939 -0.1195
  271MPD2    H7 4106   3.557   2.910  14.130  0.3910  1.1870 -0.0659
  272TMC3    C1 4107   3.797   2.863  14.107 -0.0085  0.5937  0.0565
  272TMC3    C2 4108   3.892   2.763  14.092 -0.2755  0.9040  0.1536
  272TMC3    C3 4109   3.931   2.691  14.196  0.2533  0.4821  0.3246
  272TMC3    C4 4110   3.752   2.904  14.230 -0.9716  0.0911 -0.2266
  272TMC3    C5 4111   3.817   2.845  14.335  0.0411 -0.8220  0.3521
  272TMC3    C6 4112   3.896   2.730  14.324 -0.7733  1.0983  1.0486
  272TMC3     C 4113   3.715   2.894  13.993 -0.0885  0.3222 -0.1648
  272TMC3     O 4114   3.768   2.889  13.880  1.0735  0.4747  0.7542
  272TMC3     H 4115   3.922   2.736  13.991  0.1958  0.8694  0.3074
  272TMC3    H1 4116   3.674   2.979  14.236  0.2014  1.3622 -0.9898
  272TMC3    H2 4117   3.943   2.692  14.414  0.9058  0.4505 -0.1085
  272TMC3    C7 4118   3.774   2.879  14.474 -0.0562 -0.2152  0.1475
  272TMC3    C8 4119   4.056   2.626  14.181 -0.5227  0.1325 -0.2130
  272TMC3    O1 4120   3.764   2.787  14.551 -0.0136 -0.0759 -0.2002
  272TMC3    O2 4121   4.115   2.633  14.071 -0.0541  0.1763  0.3849
  273MPD2     C 4122   0.477   1.104  11.359  0.3910  0.4021  0.5986
  273MPD2    C1 4123   0.559   1.196  11.427 -0.0595 -0.2808  0.3187
  273MPD2    C2 4124   0.590   1.308  11.356 -0.8891  0.0315  0.3595
  273MPD2    C3 4125   0.543   1.337  11.230 -0.2971 -0.0923 -0.0912
  273MPD2    C4 4126   0.475   1.237  11.168 -0.3764  0.2547  0.1216
  273MPD2    C5 4127   0.440   1.118  11.228 -0.2349  0.7449  0.6215
  273MPD2     H 4128   0.629   1.395  11.408  2.4276  0.4019 -2.7817
  273MPD2    H1 4129   0.434   1.263  11.071  0.3261 -0.0357 -0.2490
  273MPD2    H2 4130   0.457   1.004  11.396  0.6406  0.5687  1.1745
  273MPD2    H3 4131   0.380   1.043  11.177  2.4393 -0.8396 -0.2072
  273MPD2     N 4132   0.561   1.459  11.164  0.3771  0.5754 -0.9647
  273MPD2    H5 4133   0.510   1.471  11.077 -3.1413 -0.7507  0.8945
  273MPD2    N1 4134   0.601   1.159  11.554  0.2502  0.6270 -0.0562
  273MPD2    H7 4135   0.569   1.066  11.579  1.1477  0.4263  0.3626
  274TMC3    C1 4136   0.609   1.687  11.108  1.1798 -0.1561  0.3835
  274TMC3    C2 4137   0.587   1.662  10.980 -0.9224 -0.2815  0.2974
  274TMC3    C3 4138   0.572   1.772  10.893  1.0493  0.0730 -0.0980
  274TMC3    C4 4139   0.624   1.817  11.164  0.0725  0.2993  0.1203
  274TMC3    C5 4140   0.619   1.919  11.073 -0.0831 -0.0272  0.6232
  274TMC3    C6 4141   0.587   1.900  10.942 -0.0518 -1.0569  0.5113
  274TMC3     C 4142   0.608   1.579  11.211  0.2678  0.2626 -0.4052
  274TMC3     O 4143   0.654   1.599  11.323  0.6844 -0.0925 -0.0476
  274TMC3     H 4144   0.579   1.568  10.925 -0.0635  0.1664 -0.5881
  274TMC3    H1 4145   0.639   1.831  11.271 -1.2020  2.2042  0.0322
  274TMC3    H2 4146   0.524   1.981  10.908 -0.2233 -0.7557  1.5526
  274TMC3    C7 4147   0.606   2.053  11.126 -0.3088  0.4013  0.1144
  274TMC3    C8 4148   0.490   1.766  10.775 -0.1373  0.4174  0.7953
  274TMC3    O1 4149   0.573   2.069  11.242 -0.0714  0.0364 -0.7101
  274TMC3    O2 4150   0.462   1.651  10.745 -0.2324  0.3108 -0.3897
  275MPD2     C 4151   4.598   4.283  14.598  0.6019 -0.2572  0.4812
  275MPD2    C1 4152   4.652   4.155  14.602  0.0632  0.2141 -0.4487
  275MPD2    C2 4153   4.601   4.059  14.524  0.4128  0.1204 -0.0697
  275MPD2    C3 4154   4.513   4.094  14.422  0.0223 -0.4834  0.3093
  275MPD2    C4 4155   4.467   4.219  14.415 -0.1785 -0.3642  0.2833
  275MPD2    C5 4156   4.493   4.309  14.514  0.3585 -0.5377 -0.1382
  275MPD2     H 4157   4.633   3.956  14.532  0.0521 -0.0547 -0.8491
  275MPD2    H1 4158   4.386   4.238  14.346  0.5119 -2.1787 -1.0147
  275MPD2    H2 4159   4.627   4.373  14.652 -3.5081  1.3589 -0.0184
  275MPD2    H3 4160   4.449   4.408  14.507  2.2491  0.3129  0.0192
  275MPD2     N 4161   4.455   4.008  14.327 -1.2728  0.5216 -0.3766
  275MPD2    H5 4162   4.398   4.055  14.257 -3.3238  1.7795  2.1335
  275MPD2    N1 4163   0.024   4.113  14.696 -0.3109  0.1593 -0.2671
  275MPD2    H7 4164   0.036   4.012  14.696  2.5693  0.4754  1.7419
  276TMC3    C1 4165   0.216   4.123  14.842 -0.6477 -0.0115  0.0873
  276TMC3    C2 4166   0.229   3.991  14.820  0.2231 -0.7478 -0.3199
  276TMC3    C3 4167   0.325   3.923  14.888 -0.1477 -0.6319  0.0092
  276TMC3    C4 4168   0.299   4.189  14.919  0.0908  0.6624  0.4563
  276TMC3    C5 4169   0.396   4.123  14.983  0.9997  0.0198 -0.4562
  276TMC3    C6 4170   0.411   3.988  14.969  0.2298  0.3297 -0.9120
  276TMC3     C 4171   0.110   4.197  14.777  0.1010 -0.2978 -0.0920
  276TMC3     O 4172   0.110   4.317  14.786 -0.3585 -0.1351 -0.6166
  276TMC3     H 4173   0.186   3.925  14.746  0.8755  0.8190 -2.0969
  276TMC3    H1 4174   0.276   4.292  14.945  1.2713  0.9673  0.2587
  276TMC3    H2 4175   0.478   3.934  15.035 -1.9586 -0.6075  0.5491
  276TMC3    C7 4176   0.479   4.188  15.083  0.0657  0.1102  0.4354
  276TMC3    C8 4177   0.341   3.780  14.880  0.2236 -0.3610 -0.2026
  276TMC3    O1 4178   0.423   4.277  15.141  0.5746  0.1746 -0.0854
  276TMC3    O2 4179   0.452   3.735  14.908 -0.2931  0.3407 -0.2192
  277MPD2     C 4180   2.417   3.035  13.355 -0.4971 -0.1967  0.0288
  277MPD2    C1 4181   2.284   3.050  13.392 -0.3406  0.1605  0.6423
  277MPD2    C2 4182   2.212   2.943  13.452 -0.0498  0.2959 -0.7113
  277MPD2    C3 4183   2.276   2.823  13.473  0.6563  0.1950 -0.1170
  277MPD2    C4 4184   2.401   2.808  13.422  0.1380 -0.2413 -1.3883
  277MPD2    C5 4185   2.470   2.908  13.366 -0.2044  0.3458  0.0175
  277MPD2     H 4186   2.113   2.959  13.493 -0.1329 -1.3328 -0.2816
  277MPD2    H1 4187   2.460   2.717  13.414  1.5919  0.5773  0.2763
  277MPD2    H2 4188   2.461   3.119  13.304 -1.6246 -1.2029 -2.6190
  277MPD2    H3 4189   2.571   2.890  13.331 -0.3536  0.0671 -0.2679
  277MPD2     N 4190   2.205   2.722  13.539 -0.6732  0.2094 -0.0339
  277MPD2    H5 4191   2.111   2.745  13.571 -0.6340  0.2138  0.0766
  277MPD2    N1 4192   2.221   3.171  13.362  1.2116 -0.6221  0.1487
  277MPD2    H7 4193   2.271   3.243  13.311 -0.7153  0.3113 -0.4096
  278TMC3    C1 4194   2.159   2.506  13.619  0.4458  0.3399  0.2845
  278TMC3    C2 4195   2.168   2.380  13.559  0.3676 -0.5006  0.5285
  278TMC3    C3 4196   2.051   2.309  13.549 -0.3030  0.2104  0.3662
  278TMC3    C4 4197   2.046   2.552  13.676 -0.4526 -0.0055  0.0304
  278TMC3    C5 4198   1.940   2.462  13.681  0.6249 -0.4147 -0.1747
  278TMC3    C6 4199   1.937   2.342  13.620 -0.3349  0.4957  0.1883
  278TMC3     C 4200   2.255   2.598  13.564  0.3090  0.1824 -0.3637
  278TMC3     O 4201   2.365   2.557  13.534 -0.3066 -0.0857 -0.2588
  278TMC3     H 4202   2.256   2.337  13.513  0.2127 -3.1759  2.7077
  278TMC3    H1 4203   2.043   2.649  13.724 -1.2223 -0.8574  1.7301
  278TMC3    H2 4204   1.856   2.273  13.637 -1.0291  0.4684 -3.2704
  278TMC3    C7 4205   1.819   2.518  13.743 -0.1940 -0.3361 -0.0829
  278TMC3    C8 4206   2.045   2.198  13.460 -0.1878 -0.5017 -0.1514
  278TMC3    O1 4207   1.828   2.624  13.807  0.5240  0.7261 -1.1547
  278TMC3    O2 4208   2.147   2.142  13.428 -0.0035 -0.5011 -0.4036
  279MPD2     C 4209   1.107   3.304   0.630 -0.0433 -0.4107  0.0397
  279MPD2    C1 4210   1.012   3.315   0.534  0.2381 -0.0244 -0.0890
  279MPD2    C2 4211   1.049   3.277   0.402  0.5728 -0.4699 -0.9369
  279MPD2    C3 4212   1.180   3.245   0.372 -0.1890  0.4034  0.1332
  279MPD2    C4 4213   1.268   3.212   0.476  0.3140  0.3996  0.0389
  279MPD2    C5 4214   1.229   3.240   0.604 -0.3896  0.3354 -0.0351
  279MPD2     H 4215   0.980   3.305   0.323  0.1494  1.1456  0.0014
  279MPD2    H1 4216   1.364   3.166   0.454  0.8153  0.2770  2.4661
  279MPD2    H2 4217   1.075   3.328   0.730 -2.4665 -1.2620 -0.5125
  279MPD2    H3 4218   1.312   3.223   0.672 -0.2514  1.5766  0.1187
  279MPD2     N 4219   1.226   3.233   0.241  0.1767  0.2345 -0.2292
  279MPD2    H5 4220   1.324   3.211   0.230  0.5507  0.7475  2.2086
  279MPD2    N1 4221   0.886   3.363   0.568  0.2224  0.1651 -0.5036
  279MPD2    H7 4222   0.854   3.391   0.660 -2.7737 -0.8157 -1.2298
  280TMC3    C1 4223   0.668   3.435   0.542  0.4590  0.4488 -0.0747
  280TMC3    C2 4224   0.542   3.420   0.486  0.5727 -0.0960  0.0504
  280TMC3    C3 4225   0.438   3.498   0.535 -0.2897  0.1821  0.1556
  280TMC3    C4 4226   0.699   3.534   0.631  0.9573 -0.6022 -0.6382
  280TMC3    C5 4227   0.595   3.614   0.674 -0.2332  0.4626  0.3703
  280TMC3    C6 4228   0.469   3.598   0.623  0.0736 -0.3784  0.1840
  280TMC3     C 4229   0.778   3.360   0.480  0.3493  0.2266  0.0651
  280TMC3     O 4230   0.766   3.311   0.367  0.2491 -0.4165  0.2809
  280TMC3     H 4231   0.522   3.343   0.412 -0.2382  0.3189 -0.1677
  280TMC3    H1 4232   0.800   3.557   0.662  0.0013  0.7512  1.4549
  280TMC3    H2 4233   0.385   3.661   0.649 -0.8211 -1.9856  1.1755
  280TMC3    C7 4234   0.641   3.747   0.707 -0.1553  0.5142 -0.5007
  280TMC3    C8 4235   0.335   3.519   0.442 -0.3405  0.5365  0.3404
  280TMC3    O1 4236   0.758   3.758   0.747  0.0960 -0.0551 -0.3138
  280TMC3    O2 4237   0.256   3.600   0.484 -0.6634 -0.0157  0.4486
  281TMC3    C1 4238   0.152   3.509  13.660  0.2703  0.2827 -0.3206
  281TMC3    C2 4239   0.253   3.591  13.609 -0.7592  0.3786 -0.1944
  281TMC3    C3 4240   0.357   3.531  13.541  0.0890  0.3234  0.6433
  281TMC3    C4 4241   0.162   3.376  13.664 -0.3562 -0.1539  0.0360
  281TMC3    C5 4242   0.273   3.316  13.606 -0.3868  0.6712  0.0856
  281TMC3    C6 4243   0.359   3.396  13.533 -1.4761  0.2268 -0.7643
  281TMC3     C 4244   0.030   3.565  13.677 -0.1429 -0.4526  0.1568
  281TMC3     O 4245   4.675   3.513  13.755 -0.1454 -0.0371 -0.4623
  281TMC3     H 4246   0.258   3.699  13.610 -2.4775  0.4560  0.1019
  281TMC3    H1 4247   0.078   3.313  13.693 -1.3451  1.5119  0.8138
  281TMC3    H2 4248   0.431   3.351  13.466  0.0354 -1.1434  1.7891
  281TMC3    C7 4249   0.228   3.186  13.543  0.5357  0.2490  0.2637
  281TMC3    C8 4250   0.482   3.609  13.513  0.5835  0.3020 -0.3984
  281TMC3    O1 4251   0.240   3.190  13.423 -0.8882  0.8946  0.3831
  281TMC3    O2 4252   0.587   3.574  13.569 -0.0291 -0.4349  0.8911
  282MPD2     C 4253   1.751   0.148  15.363 -0.7487 -0.3676 -0.5065
  282MPD2    C1 4254   1.626   0.193  15.337  0.1595 -0.2576  0.2923
  282MPD2    C2 4255   1.593   0.231  15.213 -0.6712 -0.2986 -0.3257
  282MPD2    C3 4256   1.682   0.217  15.104 -0.0558  0.3370 -0.8063
  282MPD2    C4 4257   1.809   0.173  15.132  0.8855  0.5555 -0.1133
  282MPD2    C5 4258   1.834   0.125  15.253 -0.0768 -0.1965 -0.6533
  282MPD2     H 4259   1.495   0.270  15.189 -0.2309  1.7312  1.1423
  282MPD2    H1 4260   1.882   0.152  15.055 -0.0826 -1.5931 -0.4500
  282MPD2    H2 4261   1.778   0.120  15.464 -2.5175  1.5747  0.5107
  282MPD2    H3 4262   1.929   0.077  15.272 -1.0972 -1.7637  0.4636
  282MPD2     N 4263   1.640   0.251  14.972 -0.1547  0.0215 -0.0610
  282MPD2    H5 4264   1.544   0.282  14.961 -0.2920 -0.8742 -1.3484
  282MPD2    N1 4265   1.533   0.224  15.442  0.3801 -0.0932  0.0479
  282MPD2    H7 4266   1.441   0.259  15.417 -0.4520 -0.2501  2.9974
  283TMC3    C1 4267   1.423   0.227  15.642  0.5510  0.8433  0.2731
  283TMC3    C2 4268   1.383   0.356  15.638 -0.6634 -0.0529 -0.1974
  283TMC3    C3 4269   1.260   0.380  15.695 -0.1979  0.0772 -0.1265
  283TMC3    C4 4270   1.355   0.125  15.699 -0.0946  0.6571  0.5024
  283TMC3    C5 4271   1.246   0.161  15.765  0.0184 -0.0313 -0.0589
  283TMC3    C6 4272   1.194   0.282  15.768  0.9835 -0.2567  0.8259
  283TMC3     C 4273   1.543   0.193  15.575 -0.0303  0.2964 -0.1662
  283TMC3     O 4274   1.619   0.117  15.639 -0.5998  0.1250  0.2579
  283TMC3     H 4275   1.428   0.436  15.581 -2.1120  0.1537 -1.0502
  283TMC3    H1 4276   1.397   0.027  15.717  0.3850  0.7276 -0.2266
  283TMC3    H2 4277   1.097   0.303  15.812  1.3375  1.4184  0.7978
  283TMC3    C7 4278   1.185   0.079  15.871 -0.6223 -0.3439 -0.2230
  283TMC3    C8 4279   1.217   0.513  15.731 -0.3026  0.1784 -0.2781
  283TMC3    O1 4280   1.139   0.138  15.971  0.1744  0.1132 -0.3039
  283TMC3    O2 4281   1.159   0.520  15.836 -0.3425 -0.2530 -0.1621
  284MPD2     C 4282   0.648   4.201  11.987 -0.1657  0.3274 -0.7007
  284MPD2    C1 4283   0.516   4.219  11.982 -0.4564  0.4148  0.7863
  284MPD2    C2 4284   0.438   4.121  12.038  0.0953  0.0574  0.4511
  284MPD2    C3 4285   0.487   4.001  12.099 -0.2730 -0.6683  0.2125
  284MPD2    C4 4286   0.618   3.986  12.101 -0.0083  0.5417 -0.2400
  284MPD2    C5 4287   0.700   4.083  12.048 -0.0111  0.3895 -0.1498
  284MPD2     H 4288   0.333   4.129  12.016 -0.3930 -0.2377  2.6927
  284MPD2    H1 4289   0.671   3.902  12.144 -0.3801 -0.0737 -0.9694
  284MPD2    H2 4290   0.724   4.270  11.951  1.2036 -0.1774  1.2416
  284MPD2    H3 4291   0.806   4.059  12.046 -0.5852 -2.1608 -0.0223
  284MPD2     N 4292   0.411   3.887  12.136  0.2302 -0.3564 -0.3395
  284MPD2    H5 4293   0.454   3.795  12.133  0.2339 -0.4300  1.9373
  284MPD2    N1 4294   0.458   4.339  11.937  0.0224 -0.1704  0.6953
  284MPD2    H7 4295   0.358   4.351  11.933 -0.0267 -0.2594  1.6738
  285TMC3    C1 4296   0.442   4.523  11.789  0.0861 -0.1300  0.4963
  285TMC3    C2 4297   0.385   4.447  11.688 -0.0620  0.2200 -0.1825
  285TMC3    C3 4298   0.411   4.485  11.557 -0.1543  0.3956  0.2902
  285TMC3    C4 4299   0.509   4.640  11.760  0.4127 -0.3941 -0.0609
  285TMC3    C5 4300   0.534   4.669  11.630 -0.2940 -0.7582  0.3703
  285TMC3    C6 4301   0.486   4.593  11.529 -0.0528 -0.3076  0.0214
  285TMC3     C 4302   0.524   4.442  11.875 -0.4353 -0.5247 -0.2759
  285TMC3     O 4303   0.644   4.457  11.853  0.2353 -0.1805 -0.2080
  285TMC3     H 4304   0.331   4.356  11.712  0.8946  0.5280  3.1169
  285TMC3    H1 4305   0.574   4.677  11.838  1.8702  0.9440 -1.9203
  285TMC3    H2 4306   0.536   4.600  11.433 -0.6679  1.5899 -0.1581
  285TMC3    C7 4307   0.612   0.065  11.605 -0.2963 -0.5465 -0.5775
  285TMC3    C8 4308   0.388   4.388  11.455 -0.1407  0.5361 -0.6188
  285TMC3    O1 4309   0.685   0.101  11.697  0.9168  0.4545 -0.0494
  285TMC3    O2 4310   0.333   4.287  11.489  0.4740 -0.2897  0.0072
  286MPD2     C 4311   4.615   3.053   1.877  0.5180  0.5152  0.2650
  286MPD2    C1 4312   4.615   3.062   1.737  0.0402 -0.6198  0.2011
  286MPD2    C2 4313   0.001   3.002   1.673 -0.0723  0.1089  0.1773
  286MPD2    C3 4314   0.098   2.933   1.741  0.9090 -0.2672 -0.5101
  286MPD2    C4 4315   0.080   2.908   1.876  0.1509  0.3980  0.0256
  286MPD2    C5 4316   4.707   2.977   1.944 -0.5837  0.4622  0.6989
  286MPD2     H 4317   0.001   3.009   1.565 -0.1217 -1.9607  0.0387
  286MPD2    H1 4318   0.148   2.845   1.933  0.4577  1.5472  0.9345
  286MPD2    H2 4319   4.537   3.100   1.935 -0.5809  0.1618 -0.9222
  286MPD2    H3 4320   4.701   2.968   2.052 -2.3279  2.3459  0.7737
  286MPD2     N 4321   0.213   2.869   1.678 -0.3483 -0.1471 -0.3546
  286MPD2    H5 4322   0.283   2.818   1.731  1.9918  1.9561 -1.3826
  286MPD2    N1 4323   4.523   3.143   1.665  0.3270  0.0994  0.1880
  286MPD2    H7 4324   4.540   3.166   1.568 -0.4562  1.5572  0.4119
  287TMC3    C1 4325   0.360   2.792   1.518 -0.6213  0.0574  0.1735
  287TMC3    C2 4326   0.383   2.774   1.384 -0.0673 -0.4390 -0.8478
  287TMC3    C3 4327   0.494   2.706   1.347 -0.7813  0.2853  0.6975
  287TMC3    C4 4328   0.446   2.744   1.615  0.3610  0.4942  0.2439
  287TMC3    C5 4329   0.552   2.664   1.574 -0.7408 -0.6231  0.6485
  287TMC3    C6 4330   0.564   2.638   1.442 -0.6893 -0.1361  0.2500
  287TMC3     C 4331   0.231   2.865   1.547  0.1176 -0.2076  0.4895
  287TMC3     O 4332   0.184   2.933   1.459  0.0747  0.1745 -0.1090
  287TMC3     H 4333   0.316   2.820   1.313 -0.5441  2.4711  1.4962
  287TMC3    H1 4334   0.434   2.781   1.716  3.0327  2.5796 -0.2091
  287TMC3    H2 4335   0.653   2.580   1.420 -0.5380 -0.0401  0.6059
  287TMC3    C7 4336   0.663   2.628   1.662 -0.3453 -0.0637  0.0360
  287TMC3    C8 4337   0.509   2.666   1.212 -0.0345 -0.4845  0.1196
  287TMC3    O1 4338   0.769   2.591   1.612 -0.1210  0.3041  0.3402
  287TMC3    O2 4339   0.580   2.567   1.199  0.1851 -0.0440 -0.7152
  288TMC3    C1 4340   2.442   3.191  14.700  0.5022 -0.5095 -0.0816
  288TMC3    C2 4341   2.324   3.189  14.767 -0.2202 -0.5420  0.8451
  288TMC3    C3 4342   2.224   3.106  14.716  0.1524 -0.1127  0.1752
  288TMC3    C4 4343   2.466   3.107  14.599  0.1020  0.0682  0.1883
  288TMC3    C5 4344   2.367   3.023  14.548 -0.2677 -0.4852 -0.0351
  288TMC3    C6 4345   2.246   3.019  14.610  0.0627  0.4170  0.3508
  288TMC3     C 4346   2.547   3.280  14.747 -0.6838 -0.8184 -0.5152
  288TMC3     O 4347   2.522   3.353  14.845  0.1128 -0.0090  0.7849
  288TMC3     H 4348   2.310   3.258  14.850  0.1829  1.1079 -0.4518
  288TMC3    H1 4349   2.558   3.107  14.542 -0.1871 -0.0894 -0.2819
  288TMC3    H2 4350   2.168   2.948  14.583 -0.0483  1.0006 -0.8505
  288TMC3    C7 4351   2.397   2.947  14.428 -0.1112 -0.2440  1.1173
  288TMC3    C8 4352   2.092   3.121  14.770 -0.3251 -0.5567 -0.2987
  288TMC3    O1 4353   2.514   2.924  14.390  0.3709 -0.0947 -0.1345
  288TMC3    O2 4354   2.072   3.236  14.806 -0.3108 -0.7092 -0.2942
  289MPD2     C 4355   2.072   1.716  13.610  0.5050  0.7746  0.2349
  289MPD2    C1 4356   2.109   1.842  13.660 -0.5754  0.2761 -0.2277
  289MPD2    C2 4357   2.032   1.912  13.754 -0.0642  0.0857 -0.0675
  289MPD2    C3 4358   1.907   1.867  13.785 -0.2302 -0.5130 -0.1149
  289MPD2    C4 4359   1.862   1.748  13.735  0.1227 -0.0979  0.2594
  289MPD2    C5 4360   1.944   1.674  13.654 -0.7237  0.2837  0.5083
  289MPD2     H 4361   2.066   2.008  13.791  0.5160 -0.6162  1.2382
  289MPD2    H1 4362   1.764   1.708  13.758  0.2606  0.8014  2.3993
  289MPD2    H2 4363   2.134   1.650  13.551 -0.6463 -1.4959  1.5594
  289MPD2    H3 4364   1.909   1.578  13.616 -0.1903  0.3945 -0.2618
  289MPD2     N 4365   1.830   1.930  13.877 -0.0666  0.1868 -0.3773
  289MPD2    H5 4366   1.751   1.875  13.910 -0.8205  1.7314  0.4237
  289MPD2    N1 4367   2.233   1.884  13.617  0.0971  0.5683  0.0227
  289MPD2    H7 4368   2.277   1.844  13.535 -1.5829  0.5639 -0.8756
  290TMC3    C1 4369   1.766   2.053  14.055 -0.4299 -0.0894 -0.7757
  290TMC3    C2 4370   1.721   2.174  14.094  0.7309 -0.4249  0.1840
  290TMC3    C3 4371   1.632   2.184  14.198  0.4974  0.0831  0.5516
  290TMC3    C4 4372   1.709   1.936  14.104 -0.4742  0.1448  0.7680
  290TMC3    C5 4373   1.613   1.945  14.198  0.1340  0.0903  0.3220
  290TMC3    C6 4374   1.579   2.070  14.244 -0.1446  0.3154  0.5713
  290TMC3     C 4375   1.846   2.057  13.932 -0.4691  0.3188 -0.2892
  290TMC3     O 4376   1.921   2.157  13.911 -0.4413 -0.3262 -0.1932
  290TMC3     H 4377   1.754   2.256  14.033 -2.2724  0.0747 -0.7723
  290TMC3    H1 4378   1.742   1.838  14.071  2.0158  0.4388  2.3613
  290TMC3    H2 4379   1.502   2.077  14.320 -0.5099  3.3123 -0.0710
  290TMC3    C7 4380   1.497   1.861  14.190 -0.2165  0.5780  1.0179
  290TMC3    C8 4381   1.536   2.288  14.210  0.1654  0.1333 -0.4207
  290TMC3    O1 4382   1.391   1.919  14.202 -0.2934  0.5733 -0.2577
  290TMC3    O2 4383   1.423   2.268  14.244  0.7827  0.1251  0.1162
  291MPD2     C 4384   1.533   1.270   0.136  0.4336 -0.5094 -0.1759
  291MPD2    C1 4385   1.461   1.384   0.159 -0.3864  1.1923  0.0190
  291MPD2    C2 4386   1.481   1.494   0.081 -0.3195 -0.3088  0.2431
  291MPD2    C3 4387   1.578   1.498  17.677 -0.4202 -0.0167 -0.4394
  291MPD2    C4 4388   1.645   1.385  17.647  0.3907 -1.3818  0.7997
  291MPD2    C5 4389   1.620   1.271   0.030  0.6005  0.2167 -0.3704
  291MPD2     H 4390   1.420   1.583   0.094  1.9141  1.4053 -1.0191
  291MPD2    H1 4391   1.718   1.364  17.570  1.5601  1.8706  0.9969
  291MPD2    H2 4392   1.527   1.179   0.194 -0.8060 -2.6975 -3.7467
  291MPD2    H3 4393   1.675   1.180   0.011  0.5130  0.8390 -3.4827
  291MPD2     N 4394   1.606   1.605  17.586  0.3460 -0.1723 -0.2194
  291MPD2    H5 4395   1.659   1.586  17.503 -1.8498 -1.8175 -1.2362
  291MPD2    N1 4396   1.356   1.384   0.249  0.0455 -0.3588 -0.8402
  291MPD2    H7 4397   1.290   1.461   0.243  1.9017  1.2185 -0.8320
  292TMC3    C1 4398   1.169   1.291   0.338  0.1759  0.2086  0.0738
  292TMC3    C2 4399   1.112   1.268   0.460  0.4722 -0.3051 -0.1363
  292TMC3    C3 4400   0.977   1.307   0.463 -0.7917  1.0099  0.3391
  292TMC3    C4 4401   1.099   1.330   0.226  0.0543 -0.6579  0.1896
  292TMC3    C5 4402   0.960   1.348   0.233 -0.1840  0.0475 -0.4567
  292TMC3    C6 4403   0.897   1.331   0.352  0.4023  0.2856 -0.2034
  292TMC3     C 4404   1.310   1.280   0.327 -0.5148 -0.0783 -0.5511
  292TMC3     O 4405   1.363   1.183   0.384 -0.3184  0.4222 -0.1979
  292TMC3     H 4406   1.170   1.266   0.552  2.0778 -1.0952 -1.1829
  292TMC3    H1 4407   1.152   1.350   0.133 -0.6520  2.0988  0.3705
  292TMC3    H2 4408   0.794   1.362   0.363  0.9578  2.1254 -0.2676
  292TMC3    C7 4409   0.886   1.316   0.112 -0.0599 -0.5023  0.1976
  292TMC3    C8 4410   0.915   1.296   0.594 -0.7636 -0.0547  0.2273
  292TMC3    O1 4411   0.956   1.290   0.014 -0.0314  0.7152  0.0390
  292TMC3    O2 4412   0.996   1.255   0.677 -0.7110  0.3789  0.0844
  293MPD2     C 4413   3.352   2.202  12.976 -0.4263  0.4615 -0.0887
  293MPD2    C1 4414   3.354   2.334  12.955 -0.2404 -1.3106 -0.3987
  293MPD2    C2 4415   3.370   2.419  13.059  0.3794  0.3271 -0.2862
  293MPD2    C3 4416   3.366   2.370  13.190 -1.1534  0.5035 -0.3069
  293MPD2    C4 4417   3.361   2.232  13.205 -0.0100 -0.2581  0.4546
  293MPD2    C5 4418   3.355   2.150  13.099 -0.7051 -0.9829  0.0912
  293MPD2     H 4419   3.381   2.525  13.039  2.3321  0.4719  1.5637
  293MPD2    H1 4420   3.350   2.188  13.304  2.0729 -2.1991 -0.1644
  293MPD2    H2 4421   3.347   2.134  12.893 -1.5011  0.1814  0.2095
  293MPD2    H3 4422   3.346   2.043  13.112 -2.1667 -0.9138 -0.3260
  293MPD2     N 4423   3.381   2.466  13.294  0.0859 -0.2831 -0.7077
  293MPD2    H5 4424   3.390   2.563  13.263 -0.7231  0.3374  1.0118
  293MPD2    N1 4425   3.355   2.363  12.819  0.5217 -0.1160 -0.7808
  293MPD2    H7 4426   3.353   2.287  12.751 -2.2137 -1.0663  0.3503
  294TMC3    C1 4427   3.343   2.505  12.619 -0.0038 -0.0333  0.2317
  294TMC3    C2 4428   3.242   2.570  12.550  0.0630 -0.9865 -0.1760
  294TMC3    C3 4429   3.259   2.574  12.417 -0.0913 -0.7352 -0.9072
  294TMC3    C4 4430   3.450   2.442  12.564 -0.8565  0.1522 -0.3923
  294TMC3    C5 4431   3.464   2.448  12.426  0.4630  0.2840 -0.1955
  294TMC3    C6 4432   3.368   2.518  12.355 -0.0354  0.4135 -0.3736
  294TMC3     C 4433   3.323   2.488  12.763 -0.4887 -0.2212  0.0471
  294TMC3     O 4434   3.259   2.581  12.808 -0.1822 -0.2756 -0.0506
  294TMC3     H 4435   3.154   2.616  12.593  2.3448  2.9678  0.2641
  294TMC3    H1 4436   3.518   2.386  12.628 -0.2558 -1.8361 -2.8009
  294TMC3    H2 4437   3.361   2.510  12.247  2.0428 -2.4810 -0.3030
  294TMC3    C7 4438   3.560   2.368  12.362  0.3523 -0.2144 -0.2603
  294TMC3    C8 4439   3.155   2.629  12.335  1.1612 -0.3639 -0.5006
  294TMC3    O1 4440   3.612   2.283  12.431 -0.0476  0.5004 -0.1895
  294TMC3    O2 4441   3.186   2.719  12.262  0.5383 -0.0368 -0.0273
  295MPD2     C 4442   3.080   1.491  17.185  0.8997  0.4360  0.3840
  295MPD2    C1 4443   3.171   1.586  17.228  0.2408  0.2387  0.2253
  295MPD2    C2 4444   3.150   1.648  17.352  0.4302  0.2771  0.1433
  295MPD2    C3 4445   3.055   1.607  17.445  0.1165 -0.4601  0.3205
  295MPD2    C4 4446   2.967   1.513  17.396 -0.5183 -0.7006 -0.5874
  295MPD2    C5 4447   2.983   1.454  17.271  0.2856 -0.1220 -0.6399
  295MPD2     H 4448   3.221   1.726  17.376  0.7731 -0.1698  0.6025
  295MPD2    H1 4449   2.879   1.477  17.449  0.3719 -0.6158  0.9477
  295MPD2    H2 4450   3.088   1.445  17.087  0.4635 -0.5297  0.8074
  295MPD2    H3 4451   2.911   1.381  17.238 -0.7647  0.4371  0.4203
  295MPD2     N 4452   3.027   1.674  17.565  0.2100  0.3200  0.5330
  295MPD2    H5 4453   2.936   1.667  17.609  0.8819  1.5203  2.1398
  295MPD2    N1 4454   3.269   1.652  17.154  0.2983  0.0227  0.2842
  295MPD2    H7 4455   3.328   1.725  17.194 -0.8665  0.2478  1.6200
  296TMC3    C1 4456   3.058   1.834   0.038 -0.0028 -0.4220 -0.5657
  296TMC3    C2 4457   3.122   1.936   0.096 -0.1343  0.2034 -0.4134
  296TMC3    C3 4458   3.062   1.997   0.202 -0.6368 -0.1002 -0.3896
  296TMC3    C4 4459   2.946   1.773   0.099 -0.5844 -0.5751  0.4039
  296TMC3    C5 4460   2.910   1.814   0.224 -0.2578 -0.3751 -0.0631
  296TMC3    C6 4461   2.952   1.941   0.261 -0.3889  0.2218  0.3684
  296TMC3     C 4462   3.118   1.759  17.624 -0.2945 -0.6458 -0.7160
  296TMC3     O 4463   3.231   1.794  17.591 -0.2543 -0.4591  0.3267
  296TMC3     H 4464   3.207   1.982   0.048  0.3985 -0.8063 -0.4265
  296TMC3    H1 4465   2.901   1.679   0.069  0.6133 -0.5794 -1.3735
  296TMC3    H2 4466   2.898   1.992   0.339 -0.1039 -1.2809  1.5434
  296TMC3    C7 4467   2.774   1.779   0.260 -0.0170  0.0767  0.1769
  296TMC3    C8 4468   3.138   2.108   0.250 -0.3676 -0.3074 -0.1402
  296TMC3    O1 4469   2.710   1.700   0.190  0.3317 -0.1266  0.0369
  296TMC3    O2 4470   3.263   2.109   0.236 -0.4386 -0.1528 -0.5064
  297MPD2     C 4471   0.594   3.870  16.751  0.7262 -0.7672 -0.9314
  297MPD2    C1 4472   0.545   3.928  16.636 -0.0937  0.3436  0.1431
  297MPD2    C2 4473   0.631   4.006  16.553  0.2527 -0.8245  0.4648
  297MPD2    C3 4474   0.771   4.007  16.576 -0.9895  0.2831  0.0166
  297MPD2    C4 4475   0.817   3.937  16.692  0.2726 -0.2743 -0.7608
  297MPD2    C5 4476   0.729   3.872  16.775 -0.1260 -0.6085 -0.1836
  297MPD2     H 4477   0.590   4.051  16.463 -0.2430 -1.1933  0.5057
  297MPD2    H1 4478   0.923   3.935  16.716  0.3479 -0.1784 -1.0858
  297MPD2    H2 4479   0.537   3.798  16.808  1.8601 -2.7498 -2.2852
  297MPD2    H3 4480   0.754   3.822  16.868 -0.4118 -0.1539  0.1364
  297MPD2     N 4481   0.857   4.063  16.477  0.1876 -0.8330 -0.0219
  297MPD2    H5 4482   0.809   4.130  16.417  1.3308 -1.6823 -1.8633
  297MPD2    N1 4483   0.412   3.935  16.590  0.0324 -0.2022 -0.3219
  297MPD2    H7 4484   0.386   3.978  16.502  0.9853  0.7682 -0.1388
  298TMC3    C1 4485   0.184   3.896  16.580  0.5317  0.4201  0.2691
  298TMC3    C2 4486   0.187   3.887  16.447  0.8796 -0.1555  0.2595
  298TMC3    C3 4487   0.068   3.895  16.380 -0.2342  0.5582  0.1407
  298TMC3    C4 4488   0.075   3.918  16.651  0.6676  0.0653  0.7203
  298TMC3    C5 4489   4.675   3.930  16.584  0.3145 -0.9191 -0.1670
  298TMC3    C6 4490   4.675   3.912  16.448 -0.1039  0.2627  0.1081
  298TMC3     C 4491   0.312   3.872  16.650 -0.1865 -0.2555  0.2088
  298TMC3     O 4492   0.306   3.846  16.770  0.3497 -0.2999  0.2497
  298TMC3     H 4493   0.280   3.855  16.401  0.2597  2.0208 -2.5270
  298TMC3    H1 4494   0.078   3.922  16.760  1.9256 -0.2236  0.6925
  298TMC3    H2 4495   4.584   3.913  16.388  0.6939 -1.5177 -1.1452
  298TMC3    C7 4496   4.569   3.996  16.658 -0.4218 -0.5698 -0.3796
  298TMC3    C8 4497   0.084   3.896  16.240  0.6046 -0.4836  0.3554
  298TMC3    O1 4498   4.582   4.001  16.780  0.3190 -0.7737 -0.5271
  298TMC3    O2 4499   0.191   3.866  16.192  0.5725  0.4866 -0.4424
  299MPD2     C 4500   1.607   3.533  10.030  0.2508  0.7382  0.0832
  299MPD2    C1 4501   1.535   3.552  10.149  1.1265 -0.2324 -0.0392
  299MPD2    C2 4502   1.399   3.524  10.148 -0.5863 -0.5268 -0.3671
  299MPD2    C3 4503   1.334   3.479  10.040 -0.4952 -0.1715  0.2104
  299MPD2    C4 4504   1.404   3.476   9.921  0.5281 -0.0159  0.6421
  299MPD2    C5 4505   1.539   3.495   9.915 -0.0301 -0.3822  0.3298
  299MPD2     H 4506   1.347   3.533  10.242 -0.5104 -1.7244 -0.2125
  299MPD2    H1 4507   1.366   3.431   9.830  0.0278  0.9348  0.3854
  299MPD2    H2 4508   1.712   3.558  10.029  0.5163 -0.3484  0.6708
  299MPD2    H3 4509   1.593   3.468   9.825  0.7807  3.6009 -0.3860
  299MPD2     N 4510   1.196   3.444  10.048 -0.0617 -0.0765  0.2085
  299MPD2    H5 4511   1.165   3.428  10.143  1.5453  1.2322  0.9564
  299MPD2    N1 4512   1.604   3.610  10.260 -0.0923  1.0510 -0.4877
  299MPD2    H7 4513   1.705   3.623  10.262  0.0018  0.2142  1.2032
  300TMC3    C1 4514   0.971   3.423   9.964  0.8474 -0.0142  0.5936
  300TMC3    C2 4515   0.898   3.533   9.923  0.0546 -0.2291  0.1439
  300TMC3    C3 4516   0.787   3.566   9.989  0.1764  0.1983  0.3702
  300TMC3    C4 4517   0.955   3.368  10.086 -0.5631  0.8197  0.2884
  300TMC3    C5 4518   0.857   3.422  10.165  0.8731  0.6551  0.4833
  300TMC3    C6 4519   0.777   3.522  10.122  0.6088  0.5290  0.8413
  300TMC3     C 4520   1.112   3.428   9.934  0.3661  1.1665 -0.0438
  300TMC3     O 4521   1.140   3.455   9.817 -0.2174  0.5096 -0.1027
  300TMC3     H 4522   0.917   3.579   9.827 -1.3659  1.2270  0.5501
  300TMC3    H1 4523   1.012   3.286  10.128 -0.0393  1.1247  0.1653
  300TMC3    H2 4524   0.694   3.553  10.184 -0.2338 -1.5278  0.7393
  300TMC3    C7 4525   0.811   3.342  10.274 -0.4076  0.6596 -0.3125
  300TMC3    C8 4526   0.754   3.702   9.965  0.4442 -0.0161  0.1106
  300TMC3    O1 4527   0.842   3.221  10.278 -0.3659 -0.5048  0.3888
  300TMC3    O2 4528   0.720   3.724   9.850  0.1301  0.1431  0.0914
  301MPD2     C 4529   2.783   0.413   1.687  0.1102  0.3384 -0.5936
  301MPD2    C1 4530   2.664   0.378   1.625 -1.0842 -0.7371 -0.0089
  301MPD2    C2 4531   2.647   0.245   1.587  0.5033 -0.2608 -0.6692
  301MPD2    C3 4532   2.741   0.144   1.626 -0.2326  0.2649  0.2962
  301MPD2    C4 4533   2.854   0.185   1.693  0.4339 -0.3682 -0.0461
  301MPD2    C5 4534   2.869   0.318   1.723  0.4124  0.5689 -0.2327
  301MPD2     H 4535   2.551   0.226   1.540  0.0463 -1.3900  0.7397
  301MPD2    H1 4536   2.927   0.114   1.730 -0.8037 -1.2655  0.6623
  301MPD2    H2 4537   2.794   0.513   1.727  2.0329 -1.1187  2.5848
  301MPD2    H3 4538   2.951   0.347   1.787 -0.1568 -0.3350  0.8961
  301MPD2     N 4539   2.722   0.004   1.594  0.0625  0.1332 -0.4973
  301MPD2    H5 4540   2.798   4.662   1.618  0.6594  0.3536 -1.8304
  301MPD2    N1 4541   2.557   0.461   1.601 -0.0463 -0.0929  0.0278
  301MPD2    H7 4542   2.467   0.419   1.578  0.2150  0.0394 -1.2338
  302TMC3    C1 4543   2.617   4.523   1.537  1.0773 -0.6730 -0.6201
  302TMC3    C2 4544   2.712   4.455   1.611  0.2530 -0.5105 -0.1646
  302TMC3    C3 4545   2.751   4.337   1.548  1.3231 -0.0868  0.2604
  302TMC3    C4 4546   2.583   4.497   1.409 -0.2726  0.3349  0.1572
  302TMC3    C5 4547   2.607   4.375   1.361  0.3700 -0.4564  0.1186
  302TMC3    C6 4548   2.698   4.294   1.430 -0.4432  0.4226  0.1673
  302TMC3     C 4549   2.606   4.666   1.557 -0.0822  0.3886 -0.1638
  302TMC3     O 4550   2.497   4.719   1.534  0.4305 -0.3886 -0.4510
  302TMC3     H 4551   2.756   4.485   1.705 -2.8659  1.2718  0.6965
  302TMC3    H1 4552   2.553   4.585   1.353  1.2515 -1.0145 -2.7403
  302TMC3    H2 4553   2.728   4.198   1.389 -0.6660 -0.5508  2.2989
  302TMC3    C7 4554   2.597   4.345   1.217  0.3800 -0.7169 -0.7966
  302TMC3    C8 4555   2.857   4.265   1.608  0.3626  0.0403  0.3430
  302TMC3    O1 4556   2.686   4.277   1.165 -0.3945  0.1709 -0.3637
  302TMC3    O2 4557   2.910   4.185   1.538 -0.0058 -0.1062  0.3466
  303MPD2     C 4558   3.910   2.706  10.365 -1.1342 -0.3423 -0.1895
  303MPD2    C1 4559   3.818   2.601  10.368 -0.2036 -0.7380 -0.4482
  303MPD2    C2 4560   3.761   2.558  10.252 -0.6929  0.1056  0.2440
  303MPD2    C3 4561   3.826   2.593  10.129  0.2913 -0.1878 -0.3766
  303MPD2    C4 4562   3.945   2.669  10.136 -0.3613 -0.2200  0.1094
  303MPD2    C5 4563   3.977   2.726  10.252  0.0492  0.8694 -0.2437
  303MPD2     H 4564   3.674   2.495  10.261  1.8070 -3.5133 -0.6474
  303MPD2    H1 4565   3.994   2.693  10.042  0.2516  1.2548  0.8020
  303MPD2    H2 4566   3.938   2.751  10.459 -1.0470 -0.7577 -0.0151
  303MPD2    H3 4567   4.067   2.786  10.243  1.0864 -0.8888 -1.6141
  303MPD2     N 4568   3.786   2.553   9.998 -0.4697 -1.3460  0.5872
  303MPD2    H5 4569   3.849   2.583   9.924  1.3785 -2.5105  1.6836
  303MPD2    N1 4570   3.763   2.560  10.489  0.1699  0.4418 -0.1080
  303MPD2    H7 4571   3.792   2.618  10.567 -0.8603  0.9344 -0.0871
  304TMC3    C1 4572   3.647   2.451  10.652  0.1479 -0.1433  0.0721
  304TMC3    C2 4573   3.576   2.559  10.694  0.5604 -0.3798  0.0611
  304TMC3    C3 4574   3.471   2.541  10.774  0.7232  0.7486 -0.4357
  304TMC3    C4 4575   3.626   2.326  10.706 -0.3252  0.5669 -0.4903
  304TMC3    C5 4576   3.519   2.307  10.796  0.0940  0.5126  0.7029
  304TMC3    C6 4577   3.448   2.422  10.828 -0.3867  0.2219 -0.1987
  304TMC3     C 4578   3.701   2.441  10.525  0.5270 -0.7040  0.0297
  304TMC3     O 4579   3.673   2.347  10.450  0.0168 -0.2064 -0.4554
  304TMC3     H 4580   3.592   2.650  10.638  2.0369 -0.8205 -0.2327
  304TMC3    H1 4581   3.685   2.245  10.665  0.4394  0.8134  0.1233
  304TMC3    H2 4582   3.363   2.407  10.893  0.4170  2.0630  1.2793
  304TMC3    C7 4583   3.427   2.200  10.748 -0.6251  0.4473 -0.0476
  304TMC3    C8 4584   3.353   2.604  10.716 -0.3607  0.2674 -0.0769
  304TMC3    O1 4585   3.317   2.250  10.721 -0.5905 -0.0241  0.1523
  304TMC3    O2 4586   3.369   2.719  10.681  0.5226 -0.4646 -0.1078
  305MPD2     C 4587   1.472   0.074  13.950  0.6354 -0.1469  0.3801
  305MPD2    C1 4588   1.606   0.053  13.972  0.0190 -0.1864 -0.0821
  305MPD2    C2 4589   1.678   4.688  13.882  0.1943 -0.8571 -0.4652
  305MPD2    C3 4590   1.610   4.630  13.780 -0.1567 -0.2550  0.1852
  305MPD2    C4 4591   1.474   4.652  13.755 -0.8434  0.1969 -0.1322
  305MPD2    C5 4592   1.409   0.012  13.838  0.0160 -0.8166 -0.3865
  305MPD2     H 4593   1.782   4.662  13.903  0.4299  0.7086  0.3554
  305MPD2    H1 4594   1.411   4.610  13.677 -2.3824  2.7348 -0.2512
  305MPD2    H2 4595   1.410   0.128  14.021  0.6099  0.4104 -0.0645
  305MPD2    H3 4596   1.302   0.022  13.820 -0.4748 -2.2923  1.6815
  305MPD2     N 4597   1.674   4.538  13.695  0.1911  0.3004 -0.7343
  305MPD2    H5 4598   1.611   4.498  13.625  2.0310 -0.5598 -1.8976
  305MPD2    N1 4599   1.669   0.109  14.080  0.2416  0.3751 -0.4749
  305MPD2    H7 4600   1.616   0.160  14.150  0.4143  0.1994 -0.2168
  306TMC3    C1 4601   1.834   0.183  14.227 -0.1633  0.0755  0.1664
  306TMC3    C2 4602   1.933   0.117  14.303 -0.2083  0.0884 -0.1666
  306TMC3    C3 4603   1.958   0.174  14.430 -0.6231  0.0118 -0.9724
  306TMC3    C4 4604   1.760   0.287  14.261  0.3201  0.3837 -0.5670
  306TMC3    C5 4605   1.793   0.337  14.387 -0.3055  0.0299 -0.2161
  306TMC3    C6 4606   1.879   0.275  14.479 -0.5352  0.3865  0.2937
  306TMC3     C 4607   1.800   0.102  14.111 -0.3966  0.4055 -0.2066
  306TMC3     O 4608   1.901   0.051  14.060  0.0716  0.6093  0.1701
  306TMC3     H 4609   1.995   0.034  14.272  1.2213  0.5414  1.4856
  306TMC3    H1 4610   1.687   0.340  14.202 -0.8872  0.9735  1.4541
  306TMC3    H2 4611   1.885   0.303  14.583 -0.3062 -2.0603  0.9392
  306TMC3    C7 4612   1.705   0.438  14.444 -0.0383  0.0721 -0.4205
  306TMC3    C8 4613   2.053   0.109  14.522  0.0646 -0.4379  0.0828
  306TMC3    O1 4614   1.599   0.469  14.385  0.0137  0.6445  0.0418
  306TMC3    O2 4615   2.106   4.723  14.487 -0.0747  0.0645  0.4520
  307MPD2     C 4616   4.207   3.251   0.157  0.4291 -0.2299  0.0993
  307MPD2    C1 4617   4.104   3.321   0.212  0.0256 -0.0646  0.4364
  307MPD2    C2 4618   4.014   3.254   0.295  0.5819  0.2647  0.0728
  307MPD2    C3 4619   4.029   3.116   0.312 -0.3191 -0.3639  0.0034
  307MPD2    C4 4620   4.138   3.049   0.259  0.0194  0.4369  0.2913
  307MPD2    C5 4621   4.228   3.119   0.186 -0.2702  0.1141  0.3381
  307MPD2     H 4622   3.926   3.306   0.331  0.2996 -1.2818  1.6358
  307MPD2    H1 4623   4.160   2.944   0.275 -0.0325  0.4244  0.2825
  307MPD2    H2 4624   4.289   3.295   0.102  1.0146 -2.7628 -1.0866
  307MPD2    H3 4625   4.320   3.069   0.158  0.1158  0.1829  1.4762
  307MPD2     N 4626   3.933   3.050   0.388 -0.2705 -0.1162  0.1624
  307MPD2    H5 4627   3.852   3.105   0.415  0.1583  0.3494  0.4925
  307MPD2    N1 4628   4.083   3.455   0.194 -0.2081 -0.3748  0.3695
  307MPD2    H7 4629   4.042   3.504   0.273  0.9237  0.2616  0.5639
  308TMC3    C1 4630   3.581   2.834   0.455  0.5851 -0.2000  0.0929
  308TMC3    C2 4631   3.555   2.897   0.577 -0.1818  0.2042  0.2714
  308TMC3    C3 4632   3.662   2.967   0.638 -0.1453  0.3451  0.1969
  308TMC3    C4 4633   3.710   2.828   0.405 -0.0957  0.1447 -0.6216
  308TMC3    C5 4634   3.811   2.879   0.476  0.1740  0.1956 -0.0351
  308TMC3    C6 4635   3.791   2.958   0.588 -0.6064  0.7161 -0.1268
  308TMC3     C 4636   3.476   2.816   0.355  0.3077  0.3335 -0.8803
  308TMC3     O 4637   3.501   2.736   0.271 -0.1865 -0.0676 -0.1093
  308TMC3     H 4638   3.452   2.902   0.612  0.0221 -0.3294  0.9468
  308TMC3    H1 4639   3.732   2.787   0.307  3.4738  0.8206 -0.1249
  308TMC3    H2 4640   3.874   3.017   0.625 -0.3048 -0.3760  0.9377
  308TMC3    C7 4641   3.916   2.915   0.395  0.5445  0.7055  0.3201
  308TMC3    C8 4642   3.622   3.050   0.751  0.9194 -0.1316  0.2034
  308TMC3    O1 4643   3.988   2.834   0.341 -0.1062 -0.2781  0.0376
  308TMC3    O2 4644   3.506   3.093   0.761  0.0892 -1.0045 -0.0465
  309MPD2     C 4645   2.962   3.438  16.568  0.4007  0.3028  1.3945
  309MPD2    C1 4646   3.012   3.525  16.659  0.0602 -0.3203 -0.0581
  309MPD2    C2 4647   2.919   3.585  16.745 -0.0424 -0.2785 -0.1362
  309MPD2    C3 4648   2.783   3.542  16.746 -0.4454  0.5333 -0.2700
  309MPD2    C4 4649   2.740   3.448  16.652 -0.3327  0.2390  1.1380
  309MPD2    C5 4650   2.831   3.396  16.569  0.7468  0.1488 -1.2322
  309MPD2     H 4651   2.961   3.657  16.814 -0.4615 -0.5364  0.3914
  309MPD2    H1 4652   2.634   3.429  16.635 -0.4328  0.2392  1.7376
  309MPD2    H2 4653   3.034   3.401  16.495  0.3345 -0.2248  1.5937
  309MPD2    H3 4654   2.800   3.337  16.484 -2.6416 -0.0272  0.0938
  309MPD2     N 4655   2.678   3.608  16.825  0.2985  0.9021  0.0030
  309MPD2    H5 4656   2.583   3.576  16.810  0.3228  0.4259  0.8257
  309MPD2    N1 4657   3.145   3.559  16.683 -0.3982  0.0985  0.0433
  309MPD2    H7 4658   3.165   3.636  16.746 -2.2542  0.4372  0.2407
  310TMC3    C1 4659   3.376   3.552  16.682  0.0700 -0.0545  0.0305
  310TMC3    C2 4660   3.401   3.681  16.680 -0.5205 -0.0431 -0.5826
  310TMC3    C3 4661   3.533   3.727  16.692 -0.1009  0.3958  0.4727
  310TMC3    C4 4662   3.480   3.468  16.660  0.1162  0.3666  0.1380
  310TMC3    C5 4663   3.605   3.512  16.655 -0.0699  1.3102  0.0348
  310TMC3    C6 4664   3.632   3.644  16.684 -0.0746  0.0743  0.0718
  310TMC3     C 4665   3.253   3.503  16.627  0.7987 -0.0470  0.6332
  310TMC3     O 4666   3.267   3.421  16.535 -0.1370 -0.3315  0.9121
  310TMC3     H 4667   3.323   3.753  16.657 -1.0027 -0.0219  1.0715
  310TMC3    H1 4668   3.469   3.363  16.633  1.5966  0.5074 -1.0516
  310TMC3    H2 4669   3.733   3.686  16.685  0.4085 -1.0492 -1.7635
  310TMC3    C7 4670   3.725   3.432  16.608 -0.4853 -0.2145 -0.6237
  310TMC3    C8 4671   3.573   3.863  16.658  0.6452 -0.5506 -0.2700
  310TMC3    O1 4672   3.719   3.360  16.510 -0.0280 -0.0695  0.7472
  310TMC3    O2 4673   3.679   3.884  16.598  0.4918 -0.1287 -0.0978
  311MPD2     C 4674   1.127   4.100  12.857  0.6455  0.0889 -0.3161
  311MPD2    C1 4675   1.120   4.234  12.870  0.3771  0.3552  0.6999
  311MPD2    C2 4676   0.997   4.286  12.917 -0.2688 -0.3371  0.0035
  311MPD2    C3 4677   0.898   4.204  12.971  0.1439  0.1753  0.1345
  311MPD2    C4 4678   0.921   4.069  12.969  0.1578 -0.0856 -1.0630
  311MPD2    C5 4679   1.025   4.018  12.895  0.3437  0.1346 -0.2598
  311MPD2     H 4680   0.985   4.394  12.915  0.4196 -0.2628  0.0642
  311MPD2    H1 4681   0.845   3.998  13.000 -0.2451 -0.1321 -2.1246
  311MPD2    H2 4682   1.214   4.060  12.806  1.2413  2.3279 -1.0413
  311MPD2    H3 4683   1.037   3.910  12.887  2.1428  0.2550  0.8127
  311MPD2     N 4684   0.783   4.261  13.027 -0.3572  0.2021  0.5875
  311MPD2    H5 4685   0.786   4.362  13.022 -0.0294  0.1810  0.3308
  311MPD2    N1 4686   1.213   4.337  12.828  1.0759  0.1443 -0.2290
  311MPD2    H7 4687   1.183   4.433  12.840 -1.2557 -0.3306 -2.1726
  312TMC3    C1 4688   0.572   4.285  13.124  0.2470 -0.0971  0.3996
  312TMC3    C2 4689   0.449   4.245  13.071  0.4044  0.8830 -0.8580
  312TMC3    C3 4690   0.362   4.354  13.045  0.4793  0.6691  0.2657
  312TMC3    C4 4691   0.609   4.415  13.145  0.3647 -0.3679  1.1087
  312TMC3    C5 4692   0.527   4.514  13.096 -0.2100 -0.4678  0.5280
  312TMC3    C6 4693   0.407   4.484  13.046  0.3276  0.2825  0.1435
  312TMC3     C 4694   0.676   4.192  13.088  0.6950 -0.0075  0.1611
  312TMC3     O 4695   0.657   4.073  13.112  0.0458  0.2989  0.0651
  312TMC3     H 4696   0.419   4.142  13.083  0.2763  1.1409  1.0696
  312TMC3    H1 4697   0.707   4.432  13.189 -0.1435 -0.1193  2.1450
  312TMC3    H2 4698   0.338   4.562  13.017 -0.4092 -0.1097  0.8076
  312TMC3    C7 4699   0.543   4.647  13.150 -0.1136 -0.5626 -0.3243
  312TMC3    C8 4700   0.223   4.316  13.010  0.4160 -0.1324  0.4745
  312TMC3    O1 4701   0.478   0.016  13.097 -0.6165 -0.2139  0.5807
  312TMC3    O2 4702   0.210   4.197  12.989  0.1314 -0.2301 -0.1726
  313MPD2     C 4703   0.137   3.933  10.648 -0.5834 -0.2385  0.2008
  313MPD2    C1 4704   0.222   3.908  10.540  0.5281  0.3345 -1.0785
  313MPD2    C2 4705   0.178   3.813  10.445  0.0448 -0.0625  0.2649
  313MPD2    C3 4706   0.059   3.747  10.463 -0.3550 -0.7954  0.1528
  313MPD2    C4 4707   4.712   3.759  10.576  0.0753 -0.7564  0.5292
  313MPD2    C5 4708   0.035   3.847  10.671 -0.3033 -0.3485 -0.3719
  313MPD2     H 4709   0.232   3.802  10.351  0.5021  0.6848  0.4396
  313MPD2    H1 4710   4.628   3.695  10.601 -1.0811  0.7648  0.5548
  313MPD2    H2 4711   0.150   4.012  10.721 -0.0413  0.4834 -0.6720
  313MPD2    H3 4712   4.695   3.877  10.754 -0.1513  0.0048 -0.3878
  313MPD2     N 4713   0.022   3.656  10.361  0.1511 -0.2166  0.2116
  313MPD2    H5 4714   0.094   3.644  10.291  0.1878  2.5010 -0.2196
  313MPD2    N1 4715   0.339   3.978  10.513 -0.0740  0.4127  0.6775
  313MPD2    H7 4716   0.382   3.954  10.424 -2.0989 -2.2251  0.4104
  314TMC3    C1 4717   0.530   4.106  10.574  1.0668 -0.4130  0.1419
  314TMC3    C2 4718   0.598   4.153  10.679 -0.6346  0.1863 -0.9661
  314TMC3    C3 4719   0.678   4.266  10.663 -0.2704 -0.0725  0.2279
  314TMC3    C4 4720   0.521   4.178  10.457  0.7718  0.1455 -0.6678
  314TMC3    C5 4721   0.596   4.293  10.441 -0.6498 -0.8106  0.3767
  314TMC3    C6 4722   0.671   4.341  10.544  0.4058 -0.2425 -0.6144
  314TMC3     C 4723   0.411   4.042  10.616 -0.4886 -0.3212  0.1016
  314TMC3     O 4724   0.387   4.052  10.736 -0.6547 -0.2673 -0.0263
  314TMC3     H 4725   0.606   4.095  10.770  0.1238 -0.2415 -1.3022
  314TMC3    H1 4726   0.448   4.150  10.383  0.0447 -0.9401  0.4605
  314TMC3    H2 4727   0.726   4.434  10.533  1.6234 -1.0381 -1.2949
  314TMC3    C7 4728   0.546   4.400  10.351 -0.2089 -0.6310  1.0970
  314TMC3    C8 4729   0.726   4.332  10.784 -0.1966 -0.1622 -0.3253
  314TMC3    O1 4730   0.427   4.402  10.317  0.4397  0.2741 -0.3332
  314TMC3    O2 4731   0.766   4.447  10.759 -0.2542  0.0592 -0.1049
  315MPD2     C 4732   4.390   3.713   0.411 -0.2668  0.2323  0.3327
  315MPD2    C1 4733   4.517   3.686   0.436  1.1660 -0.7269  0.3826
  315MPD2    C2 4734   4.612   3.789   0.433 -0.7904  0.2826 -0.6959
  315MPD2    C3 4735   4.565   3.918   0.393 -0.8542 -1.0130 -0.1021
  315MPD2    C4 4736   4.426   3.938   0.369 -0.7751 -0.4122 -0.1042
  315MPD2    C5 4737   4.343   3.837   0.397  0.2928 -0.3000 -0.6820
  315MPD2     H 4738   4.719   3.777   0.443 -0.4753  2.2364 -1.7959
  315MPD2    H1 4739   4.384   4.037   0.358  1.0890  0.2479 -1.2074
  315MPD2    H2 4740   4.310   3.640   0.419 -1.9355  1.8433 -1.8798
  315MPD2    H3 4741   4.237   3.858   0.385  0.6729  0.8424 -1.9727
  315MPD2     N 4742   4.660   4.016   0.372  0.0161 -0.0607 -0.5604
  315MPD2    H5 4743   0.032   3.996   0.402  0.1517  3.5793  1.4704
  315MPD2    N1 4744   4.558   3.552   0.453 -0.4101  1.1830 -0.3329
  315MPD2    H7 4745   4.645   3.544   0.504 -0.7073 -1.3416 -0.2278
  316TMC3    C1 4746   0.029   4.228   0.301  0.1845 -0.8028 -0.3901
  316TMC3    C2 4747   0.102   4.232   0.417 -0.3624 -0.1408 -0.0204
  316TMC3    C3 4748   0.179   4.346   0.434  0.4065  0.1692 -0.5685
  316TMC3    C4 4749   0.023   4.332   0.209 -0.0505  0.3935 -0.5344
  316TMC3    C5 4750   0.094   4.442   0.240 -0.4557 -0.2243  0.0698
  316TMC3    C6 4751   0.166   4.450   0.352 -0.3955  0.1732  0.0652
  316TMC3     C 4752   4.642   4.131   0.296 -0.2819  0.0593  0.1459
  316TMC3     O 4753   4.546   4.178   0.243 -0.8553  0.1696 -0.3054
  316TMC3     H 4754   0.110   4.143   0.478 -1.3575  0.7829  1.4839
  316TMC3    H1 4755   4.674   4.343   0.128 -1.9424 -3.6251  0.6421
  316TMC3    H2 4756   0.217   4.544   0.371 -0.7671  0.5530 -0.8206
  316TMC3    C7 4757   0.094   4.557   0.152 -0.1421  0.6657  0.2565
  316TMC3    C8 4758   0.284   4.356   0.538  0.1661  0.2811  0.4556
  316TMC3    O1 4759   0.160   4.658   0.185  0.4616 -0.1459 -0.9259
  316TMC3    O2 4760   0.353   4.456   0.551  0.3968  0.4442 -0.3435
  317MPD2     C 4761   1.730   1.460  12.335  0.3219  0.5669  0.4267
  317MPD2    C1 4762   1.867   1.455  12.313  0.7370  0.4622  0.3317
  317MPD2    C2 4763   1.943   1.441  12.426  0.0006 -0.2242  0.6358
  317MPD2    C3 4764   1.886   1.438  12.551  0.1524 -0.5149  0.5601
  317MPD2    C4 4765   1.755   1.437  12.571 -0.1842 -0.3951  0.3752
  317MPD2    C5 4766   1.679   1.442  12.459 -0.8855  0.2267 -0.2313
  317MPD2     H 4767   2.050   1.435  12.413 -0.1834 -0.0204 -1.0163
  317MPD2    H1 4768   1.707   1.419  12.666 -1.0167 -0.9757 -0.1521
  317MPD2    H2 4769   1.654   1.457  12.258 -1.0265 -1.1958  1.8371
  317MPD2    H3 4770   1.572   1.443  12.477 -0.9127 -1.1474 -0.3178
  317MPD2     N 4771   1.956   1.423  12.678  1.0491 -0.5852  0.5666
  317MPD2    H5 4772   1.893   1.411  12.757  2.4412  0.7121  1.8607
  317MPD2    N1 4773   1.930   1.477  12.184  0.0002  0.2910 -0.2537
  317MPD2    H7 4774   2.030   1.465  12.201 -0.0693 -1.4801 -1.1265
  318TMC3    C1 4775   2.131   1.384  12.834 -0.1217  0.5835 -0.0620
  318TMC3    C2 4776   2.049   1.313  12.921 -0.3092  0.5756 -0.6299
  318TMC3    C3 4777   2.097   1.249  13.030  0.2849  0.0586 -0.0070
  318TMC3    C4 4778   2.269   1.379  12.853 -0.2951  0.1095  0.2350
  318TMC3    C5 4779   2.317   1.306  12.963  0.2710  0.0202  0.2580
  318TMC3    C6 4780   2.234   1.245  13.052  0.2614 -0.2378 -0.0863
  318TMC3     C 4781   2.089   1.416  12.693  0.1533  0.2083  0.2495
  318TMC3     O 4782   2.181   1.422  12.612 -0.0591 -0.5103 -0.2342
  318TMC3     H 4783   1.942   1.313  12.904 -0.3163  1.7566 -0.5590
  318TMC3    H1 4784   2.335   1.442  12.795  0.2652 -1.7186 -1.1103
  318TMC3    H2 4785   2.277   1.193  13.137 -1.8887  0.7292  1.5852
  318TMC3    C7 4786   2.449   1.352  13.013  0.4724  0.4227 -0.7400
  318TMC3    C8 4787   2.023   1.161  13.115  0.1430  0.8476 -0.7209
  318TMC3    O1 4788   2.500   1.455  12.973 -0.2629  0.0497  0.2190
  318TMC3    O2 4789   2.082   1.132  13.219  0.2699  0.2967  0.7596
  319MPD2     C 4790   2.386   3.433  16.900  0.1881 -0.3942 -0.0970
  319MPD2    C1 4791   2.452   3.318  16.855 -0.5184  0.2197  0.0190
  319MPD2    C2 4792   2.424   3.268  16.729  0.0482 -0.0094 -0.1170
  319MPD2    C3 4793   2.312   3.318  16.656  0.0432  0.4199  0.0384
  319MPD2    C4 4794   2.250   3.440  16.699 -0.7594  0.7120  0.4109
  319MPD2    C5 4795   2.289   3.498  16.820  0.4688 -0.2091  0.3693
  319MPD2     H 4796   2.495   3.197  16.688 -0.8457 -1.6613  1.1854
  319MPD2    H1 4797   2.159   3.486  16.660  0.5315  1.4017 -1.7647
  319MPD2    H2 4798   2.405   3.480  16.996 -0.1520 -2.1307  0.8178
  319MPD2    H3 4799   2.238   3.590  16.849 -1.0684 -1.5192  1.8781
  319MPD2     N 4800   2.273   3.263  16.527 -0.6807 -0.5310 -0.2338
  319MPD2    H5 4801   2.218   3.316  16.459  3.9307  0.6086 -3.0719
  319MPD2    N1 4802   2.548   3.247  16.939 -0.5649  0.6802 -0.6483
  319MPD2    H7 4803   2.588   3.160  16.907  0.4563  0.4413  1.2244
  320TMC3    C1 4804   2.273   3.107  16.356  0.1332 -0.5393 -0.3566
  320TMC3    C2 4805   2.277   3.190  16.248  0.1340 -0.3532  0.8674
  320TMC3    C3 4806   2.245   3.143  16.123  0.4906 -0.2713  0.3653
  320TMC3    C4 4807   2.235   2.974  16.337  0.0044 -0.1414 -0.3212
  320TMC3    C5 4808   2.187   2.930  16.219  0.2550  0.3676 -0.2273
  320TMC3    C6 4809   2.199   3.010  16.110  0.4099  0.0079 -0.3618
  320TMC3     C 4810   2.315   3.140  16.490 -0.3136  0.5321 -0.4275
  320TMC3     O 4811   2.359   3.049  16.557  0.0592 -0.1251  0.4589
  320TMC3     H 4812   2.310   3.293  16.248  0.0023 -0.3043 -1.8921
  320TMC3    H1 4813   2.230   2.903  16.419  2.3580 -2.5264 -2.2410
  320TMC3    H2 4814   2.166   2.974  16.013  0.6240  0.2024 -0.5057
  320TMC3    C7 4815   2.199   2.795  16.186 -0.2166 -1.0215 -0.3887
  320TMC3    C8 4816   2.240   3.233  16.007  0.9336 -0.0575 -0.0856
  320TMC3    O1 4817   2.100   2.747  16.127  0.1397 -0.1170 -0.1100
  320TMC3    O2 4818   2.259   3.356  16.032 -0.5015  0.7509 -0.2833
  321TMC3    C1 4819   2.661   3.168  17.130 -0.0003  0.2156 -0.1963
  321TMC3    C2 4820   2.641   3.039  17.095 -0.0483  0.2808 -0.4311
  321TMC3    C3 4821   2.708   2.942  17.163 -0.4886  0.0152 -0.6918
  321TMC3    C4 4822   2.755   3.208  17.220  0.4227  0.0042 -0.2410
  321TMC3    C5 4823   2.821   3.111  17.288 -0.0021  0.5724 -0.3574
  321TMC3    C6 4824   2.796   2.978  17.262  0.2367  0.4234  0.0724
  321TMC3     C 4825   2.590   3.277  17.065  0.2988  0.0087  0.4757
  321TMC3     O 4826   2.591   3.387  17.121 -0.2308 -0.1371  0.9211
  321TMC3     H 4827   2.562   2.997  17.034 -0.4134  0.5151 -0.1190
  321TMC3    H1 4828   2.785   3.311  17.227  2.4867 -0.4804 -1.7709
  321TMC3    H2 4829   2.849   2.902  17.319  1.0575  0.0497 -1.1922
  321TMC3    C7 4830   2.964   3.131  17.291  0.9511  0.3517 -0.2671
  321TMC3    C8 4831   2.762   2.841  17.064  0.3330  0.5004  0.8170
  321TMC3    O1 4832   3.027   3.036  17.250  0.6899  0.3286 -0.2287
  321TMC3    O2 4833   2.707   2.818  16.956 -0.3019 -0.3500 -0.2696
  322MPD2     C 4834   1.599   4.089  14.278 -0.1289 -0.1151 -0.5043
  322MPD2    C1 4835   1.684   4.130  14.176 -0.3831 -0.4944 -0.8360
  322MPD2    C2 4836   1.714   4.036  14.079 -0.3132 -0.2271 -0.4559
  322MPD2    C3 4837   1.681   3.907  14.083  0.6844 -0.0511 -0.2556
  322MPD2    C4 4838   1.596   3.870  14.189  0.2805 -0.4262 -0.3522
  322MPD2    C5 4839   1.561   3.959  14.286  0.6940 -0.2695 -0.8071
  322MPD2     H 4840   1.782   4.077  14.005  0.4768 -2.6478 -1.0639
  322MPD2    H1 4841   1.552   3.771  14.186  1.2535 -0.8541 -0.2392
  322MPD2    H2 4842   1.584   4.152  14.365  3.0579  1.7635 -1.3057
  322MPD2    H3 4843   1.501   3.924  14.369  0.4758 -1.9449 -1.6692
  322MPD2     N 4844   1.732   3.819  13.986  0.5260 -0.8173  0.1729
  322MPD2    H5 4845   1.767   3.858  13.899 -2.4908  2.8173  0.5884
  322MPD2    N1 4846   1.744   4.256  14.184  0.0081 -0.0848  0.1870
  322MPD2    H7 4847   1.738   4.301  14.275 -0.5705 -0.0980  0.1592
  323TMC3    C1 4848   1.892   4.435  14.137 -0.2740  0.3680 -0.7975
  323TMC3    C2 4849   1.984   4.469  14.034 -1.1258 -0.1011  0.3726
  323TMC3    C3 4850   2.118   4.475  14.068 -0.1168 -0.0400 -0.3520
  323TMC3    C4 4851   1.940   4.418  14.266 -0.0064 -0.1354  0.2770
  323TMC3    C5 4852   2.073   4.437  14.291 -0.0389  0.6674 -0.0337
  323TMC3    C6 4853   2.164   4.457  14.193  0.6794  0.1080 -0.5745
  323TMC3     C 4854   1.810   4.326  14.084  0.1026  0.1235 -0.0402
  323TMC3     O 4855   1.815   4.306  13.965 -0.0407  0.0146 -0.1422
  323TMC3     H 4856   1.949   4.482  13.932 -1.6824 -2.8015  0.2129
  323TMC3    H1 4857   1.872   4.389  14.345 -1.4015  0.0478 -0.8602
  323TMC3    H2 4858   2.270   4.467  14.212 -0.0343  0.5790  3.1149
  323TMC3    C7 4859   2.132   4.374  14.408  0.3825 -0.0325 -0.3539
  323TMC3    C8 4860   2.224   4.494  13.968 -0.7129  0.0524 -0.3629
  323TMC3    O1 4861   2.232   4.304  14.389 -0.1886 -0.3289  0.1251
  323TMC3    O2 4862   2.337   4.453  13.992  0.6632 -0.1562 -0.0804
  324MPD2     C 4863   3.429   0.431  14.368 -0.4971  0.0527 -0.3355
  324MPD2    C1 4864   3.439   0.551  14.308  0.8924  0.3305  0.4619
  324MPD2    C2 4865   3.321   0.621  14.281 -0.3734  0.2769 -0.1532
  324MPD2    C3 4866   3.199   0.560  14.315 -0.9298  0.4762  0.2728
  324MPD2    C4 4867   3.200   0.443  14.377 -0.3497 -1.0173 -0.5482
  324MPD2    C5 4868   3.310   0.376  14.399  0.3438  0.4717 -0.2189
  324MPD2     H 4869   3.324   0.717  14.231  0.6394 -0.2337 -1.0526
  324MPD2    H1 4870   3.109   0.406  14.424 -2.2202  2.5649 -1.3249
  324MPD2    H2 4871   3.519   0.372  14.384 -1.7638 -2.1621 -1.3944
  324MPD2    H3 4872   3.307   0.281  14.451  0.5653 -0.0863 -1.2246
  324MPD2     N 4873   3.077   0.623  14.306  0.0240  0.2700  0.4236
  324MPD2    H5 4874   3.000   0.563  14.334  1.6307 -1.6523  0.7123
  324MPD2    N1 4875   3.565   0.617  14.294 -0.2090  0.1439 -0.0911
  324MPD2    H7 4876   3.560   0.710  14.254  1.6330 -0.8075 -2.4975
  325TMC3    C1 4877   2.919   0.805  14.285 -0.5474 -0.3639  0.0534
  325TMC3    C2 4878   2.812   0.729  14.249  0.2968  0.3209 -0.3883
  325TMC3    C3 4879   2.707   0.792  14.200 -0.9478 -0.5562  0.1980
  325TMC3    C4 4880   2.914   0.938  14.291 -0.0743 -0.4176 -0.0196
  325TMC3    C5 4881   2.802   1.004  14.248 -0.3962  0.0911  0.4145
  325TMC3    C6 4882   2.692   0.928  14.202 -0.7099 -0.8744 -0.1919
  325TMC3     C 4883   3.062   0.759  14.272 -0.5483 -0.4819  0.2141
  325TMC3     O 4884   3.138   0.858  14.270 -0.4165 -0.3196  0.5092
  325TMC3     H 4885   2.820   0.622  14.233 -3.3994 -0.1156  0.5275
  325TMC3    H1 4886   2.998   1.002  14.318 -0.1928  0.3595 -1.4811
  325TMC3    H2 4887   2.614   0.977  14.145 -2.4407 -1.3192  1.8128
  325TMC3    C7 4888   2.794   1.148  14.264 -0.1901  0.0753  0.6852
  325TMC3    C8 4889   2.604   0.712  14.138  0.0628 -0.3378 -0.3863
  325TMC3    O1 4890   2.895   1.210  14.280 -0.1974  0.2027  0.2820
  325TMC3    O2 4891   2.635   0.598  14.106  0.2746 -0.6422 -0.1719
  326MPD2     C 4892   4.447   1.765  11.057 -0.1436  0.3136 -0.2899
  326MPD2    C1 4893   4.505   1.797  10.934 -0.2867 -0.1598  0.6426
  326MPD2    C2 4894   4.596   1.895  10.926  0.0666 -0.1402 -0.2783
  326MPD2    C3 4895   4.636   1.969  11.032  0.0186 -0.1087 -0.2718
  326MPD2    C4 4896   4.570   1.944  11.149 -0.6080  0.3389 -0.1034
  326MPD2    C5 4897   4.492   1.839  11.170  0.3074 -0.5489 -0.0157
  326MPD2     H 4898   4.638   1.898  10.826 -1.0213  2.2162 -0.6593
  326MPD2    H1 4899   4.598   1.998  11.239  0.0845 -0.6785  0.2972
  326MPD2    H2 4900   4.372   1.688  11.067 -0.0113  0.2352  0.0957
  326MPD2    H3 4901   4.453   1.811  11.268 -1.1835 -1.0323 -0.7478
  326MPD2     N 4902   0.011   2.072  11.019  0.1954 -0.0276  0.1447
  326MPD2    H5 4903   0.029   2.135  11.097  0.9569 -1.5409  1.1810
  326MPD2    N1 4904   4.482   1.725  10.817 -0.4158  0.1521  0.6147
  326MPD2    H7 4905   4.530   1.759  10.734 -1.8375 -1.3123 -0.8049
  327TMC3    C1 4906   4.403   1.563  10.666  0.4884  1.1766  0.0478
  327TMC3    C2 4907   4.289   1.563  10.581  0.7893  0.0601 -0.5838
  327TMC3    C3 4908   4.313   1.562  10.444  0.6976 -0.3917 -0.6814
  327TMC3    C4 4909   4.536   1.575  10.619  0.4989 -0.4771  0.6713
  327TMC3    C5 4910   4.551   1.581  10.484 -0.3495 -0.2614 -0.4504
  327TMC3    C6 4911   4.444   1.574  10.398 -0.4616 -0.8300  0.3725
  327TMC3     C 4912   4.388   1.628  10.799  0.5444 -0.4449 -0.2112
  327TMC3     O 4913   4.291   1.597  10.873 -0.5609  0.0443 -0.1369
  327TMC3     H 4914   4.192   1.578  10.625 -0.1785 -1.0025 -2.3402
  327TMC3    H1 4915   4.617   1.572  10.690  1.8254 -1.5682 -0.8776
  327TMC3    H2 4916   4.457   1.589  10.291  2.7446 -1.0584  0.7422
  327TMC3    C7 4917   4.671   1.652  10.435 -0.4343 -0.2667 -0.1147
  327TMC3    C8 4918   4.207   1.612  10.357 -0.1467  0.2854 -0.1713
  327TMC3    O1 4919   4.653   1.685  10.320 -0.8847  0.1100  0.5991
  327TMC3    O2 4920   4.241   1.651  10.247 -0.3732 -0.1716 -0.2979
  328MPD2     C 4921   2.605   1.717  16.744  0.2067  0.0674 -0.1021
  328MPD2    C1 4922   2.474   1.688  16.765  0.7727 -1.3618  0.4174
  328MPD2    C2 4923   2.388   1.789  16.822 -0.0099  0.2350  0.2260
  328MPD2    C3 4924   2.440   1.908  16.870  0.5978 -0.3965  0.8461
  328MPD2    C4 4925   2.576   1.923  16.853 -0.6164 -0.0767  0.0891
  328MPD2    C5 4926   2.654   1.839  16.784  0.5124 -0.6109  0.3838
  328MPD2     H 4927   2.282   1.767  16.821  0.1909 -0.8340  1.0140
  328MPD2    H1 4928   2.607   2.027  16.860  1.8261 -0.6459 -2.3616
  328MPD2    H2 4929   2.668   1.649  16.689  0.6455  1.8182 -1.7527
  328MPD2    H3 4930   2.753   1.866  16.747 -0.6856  0.8169 -1.7526
  328MPD2     N 4931   2.362   2.017  16.912 -0.0341 -0.8436  0.5349
  328MPD2    H5 4932   2.408   2.104  16.938 -2.1832  0.2080  0.9057
  328MPD2    N1 4933   2.428   1.557  16.729  0.8188 -0.0505 -0.6597
  328MPD2    H7 4934   2.483   1.497  16.669  0.4466  1.7728 -2.8174
  329TMC3    C1 4935   2.279   1.368  16.736 -0.7620  0.1704 -0.0665
  329TMC3    C2 4936   2.154   1.325  16.787 -0.1226  0.4989  0.0172
  329TMC3    C3 4937   2.070   1.238  16.719 -0.4300  0.1337  0.2356
  329TMC3    C4 4938   2.311   1.337  16.604 -0.1026 -0.4917  0.4637
  329TMC3    C5 4939   2.225   1.245  16.544 -0.4764  0.0929  0.6524
  329TMC3    C6 4940   2.114   1.188  16.597  0.1886 -0.1607 -0.7622
  329TMC3     C 4941   2.324   1.495  16.798 -0.3655 -0.0506  0.1773
  329TMC3     O 4942   2.258   1.529  16.894 -0.5161 -0.0037 -0.7667
  329TMC3     H 4943   2.149   1.338  16.895 -1.2052  0.1809 -0.0014
  329TMC3    H1 4944   2.389   1.385  16.547  0.4862 -1.6924  0.2398
  329TMC3    H2 4945   2.050   1.122  16.540 -1.4020  1.4028 -0.7820
  329TMC3    C7 4946   2.262   1.216  16.406 -0.1525 -0.8473 -0.4101
  329TMC3    C8 4947   1.929   1.267  16.732  0.1022  0.0778  0.3903
  329TMC3    O1 4948   2.343   1.289  16.344 -0.1295  0.0426 -0.1234
  329TMC3    O2 4949   1.873   1.252  16.624  0.0232 -0.2033  0.1408
  330TMC3    C1 4950   0.504   1.053   9.652  0.6617 -0.3486  0.7208
  330TMC3    C2 4951   0.412   0.979   9.588 -0.5113 -0.2294 -0.0729
  330TMC3    C3 4952   0.407   0.847   9.619  0.2041 -0.0507  0.3653
  330TMC3    C4 4953   0.603   0.999   9.737  1.1043  1.0348  1.1844
  330TMC3    C5 4954   0.566   0.881   9.789  0.2030 -0.7572  0.1709
  330TMC3    C6 4955   0.475   0.804   9.727  0.0120  0.2039  0.5583
  330TMC3     C 4956   0.502   1.199   9.634 -0.2788 -0.1211 -0.0304
  330TMC3     O 4957   0.588   1.263   9.687 -0.1577 -0.4112  0.2292
  330TMC3     H 4958   0.360   1.016   9.500  1.3705  0.6126 -0.8286
  330TMC3    H1 4959   0.693   1.048   9.772  1.4834  1.1692  0.0289
  330TMC3    H2 4960   0.459   0.704   9.765  3.4061 -0.7800 -0.6659
  330TMC3    C7 4961   0.626   0.829   9.914  0.8024  0.8694  0.0316
  330TMC3    C8 4962   0.298   0.761   9.564 -1.1255 -0.1562  0.0595
  330TMC3    O1 4963   0.626   0.708   9.946  0.0841  0.2314  0.1110
  330TMC3    O2 4964   0.247   0.802   9.462  0.0967  0.1555 -0.0112
  331MPD2     C 4965   2.792   4.376  12.593  0.1720  0.1697 -0.0195
  331MPD2    C1 4966   2.904   4.396  12.521  0.0139 -0.0715  0.3018
  331MPD2    C2 4967   2.967   4.291  12.461  0.7464  0.7882 -0.1449
  331MPD2    C3 4968   2.922   4.164  12.475 -0.1571  0.1367 -1.0671
  331MPD2    C4 4969   2.803   4.147  12.546  0.0216  0.0486  0.9395
  331MPD2    C5 4970   2.745   4.249  12.607  0.0734 -0.1677  0.3186
  331MPD2     H 4971   3.053   4.299  12.397  1.4581 -1.1281  0.5665
  331MPD2    H1 4972   2.759   4.048  12.550  0.6032 -0.2006  1.2368
  331MPD2    H2 4973   2.732   4.453  12.641 -0.2163  0.7612 -1.4454
  331MPD2    H3 4974   2.657   4.227  12.666 -0.7799 -1.4829 -1.4440
  331MPD2     N 4975   2.998   4.057  12.414 -0.6004  0.2312 -0.7143
  331MPD2    H5 4976   3.086   4.084  12.371  0.0714 -0.0654  0.4781
  331MPD2    N1 4977   2.958   4.523  12.513 -0.2436 -0.2507 -0.3500
  331MPD2    H7 4978   2.901   4.603  12.537 -0.9980 -0.7605 -0.4241
  332TMC3    C1 4979   3.080   3.865  12.357  0.5934  0.2440  0.3288
  332TMC3    C2 4980   3.121   3.949  12.253  0.3130 -0.4254  0.4219
  332TMC3    C3 4981   3.254   3.951  12.219  0.1508  0.1373 -0.3558
  332TMC3    C4 4982   3.167   3.781  12.421  0.7435 -0.3713  0.1425
  332TMC3    C5 4983   3.299   3.803  12.400  0.5010  0.4033  0.2272
  332TMC3    C6 4984   3.345   3.891  12.301 -0.5095  0.5105 -0.4101
  332TMC3     C 4985   2.974   3.921  12.430 -0.4162  0.3072 -0.4977
  332TMC3     O 4986   2.899   3.868  12.510 -0.1957  0.3087 -0.4854
  332TMC3     H 4987   3.048   4.000  12.191 -0.2659 -0.4478  1.0875
  332TMC3    H1 4988   3.138   3.742  12.519 -1.8486  1.3137  0.0431
  332TMC3    H2 4989   3.449   3.903  12.271 -0.7667  2.6601 -0.4377
  332TMC3    C7 4990   3.392   3.722  12.472  0.5677  0.1944 -0.5688
  332TMC3    C8 4991   3.308   4.033  12.107 -0.2694 -0.0159  0.1034
  332TMC3    O1 4992   3.351   3.613  12.514 -0.0750 -0.1381 -0.0650
  332TMC3    O2 4993   3.428   4.064  12.112  0.5480 -0.2542 -0.3784
  333MPD2     C 4994   4.003   4.245  11.312 -0.1495 -0.8370  0.5673
  333MPD2    C1 4995   3.892   4.265  11.228  0.1250  0.6212  0.1050
  333MPD2    C2 4996   3.770   4.226  11.275 -0.2125 -0.2125 -0.3930
  333MPD2    C3 4997   3.755   4.165  11.408 -1.1403  0.0063 -0.2004
  333MPD2    C4 4998   3.867   4.147  11.491  0.1762  0.5220  0.5900
  333MPD2    C5 4999   3.990   4.177  11.435 -0.2256  0.1642 -0.4129
  333MPD2     H 5000   3.686   4.242  11.208 -2.3553  1.5104  2.6840
  333MPD2    H1 5001   3.862   4.100  11.588 -1.0986  1.6428  1.0589
  333MPD2    H2 5002   4.093   4.296  11.282 -1.4248  2.0527  1.6105
  333MPD2    H3 5003   4.070   4.179  11.508  0.4858 -0.3185 -1.1756
  333MPD2     N 5004   3.624   4.117  11.446 -0.3764 -0.7364  0.2056
  333MPD2    H5 5005   3.551   4.146  11.381 -1.2021 -1.7293  0.6901
  333MPD2    N1 5006   3.913   4.323  11.102  0.4980 -0.3517  0.3943
  333MPD2    H7 5007   4.010   4.329  11.074 -0.0527  1.0969 -1.1942
  334TMC3    C1 5008   3.875   4.431  10.901 -0.5380  0.1148  0.0708
  334TMC3    C2 5009   3.990   4.368  10.848 -0.2705  0.0091 -0.1125
  334TMC3    C3 5010   4.027   4.406  10.725  0.8797 -1.0359  0.2477
  334TMC3    C4 5011   3.796   4.512  10.822  0.1357 -0.1460 -1.0132
  334TMC3    C5 5012   3.845   4.548  10.700 -0.2119  0.1524  0.6004
  334TMC3    C6 5013   3.954   4.487  10.649  0.0195  0.0248 -0.2263
  334TMC3     C 5014   3.813   4.370  11.016 -0.0362 -0.7301  0.1219
  334TMC3     O 5015   3.691   4.389  11.031 -0.3638  0.2562 -0.0270
  334TMC3     H 5016   4.058   4.304  10.903  2.0611  0.1829 -2.7532
  334TMC3    H1 5017   3.696   4.544  10.848  0.4181 -0.7086  0.7417
  334TMC3    H2 5018   3.992   4.522  10.554  0.2192 -0.6464 -0.3908
  334TMC3    C7 5019   3.793   4.654  10.623 -0.1445 -0.3643  0.1073
  334TMC3    C8 5020   4.144   4.348  10.669  0.4655 -0.0550 -0.0809
  334TMC3    O1 5021   3.866   4.711  10.542  0.5272  0.0974 -0.7703
  334TMC3    O2 5022   4.168   4.235  10.701  0.0851 -0.1111  0.5402
  335TMC3    C1 5023   2.932   1.868  17.185 -0.8159  0.5180  0.5648
  335TMC3    C2 5024   2.890   1.762  17.117 -0.5996 -0.2500 -0.2060
  335TMC3    C3 5025   2.931   1.730  16.992 -0.5342 -0.3250  0.0615
  335TMC3    C4 5026   3.008   1.955  17.116 -0.2857  0.0787 -0.0911
  335TMC3    C5 5027   3.054   1.924  16.991  0.0688  0.0709 -1.2237
  335TMC3    C6 5028   3.019   1.807  16.922 -0.0954  0.1368 -0.0625
  335TMC3     C 5029   2.863   1.908  17.303 -0.5969  0.6000 -0.1234
  335TMC3     O 5030   2.775   1.832  17.343  0.0738 -0.4123  0.1584
  335TMC3     H 5031   2.832   1.690  17.173  0.8321 -1.4086 -0.2050
  335TMC3    H1 5032   3.055   2.045  17.156  0.8422 -0.3207 -0.5299
  335TMC3    H2 5033   3.066   1.781  16.828 -0.8549 -1.1292 -0.0854
  335TMC3    C7 5034   3.164   2.001  16.933  0.9663  0.6097  0.0806
  335TMC3    C8 5035   2.897   1.603  16.932 -0.3341 -0.5632 -0.3636
  335TMC3    O1 5036   3.248   1.935  16.875 -0.4081  0.2184  0.2193
  335TMC3    O2 5037   2.958   1.574  16.835 -0.5665  0.2698  0.0963
  336MPD2     C 5038   2.620   4.687  16.489  0.4559  0.0510 -1.0393
  336MPD2    C1 5039   2.564   4.597  16.405  0.4530  0.6925  0.2367
  336MPD2    C2 5040   2.583   4.463  16.435 -0.8673 -0.0525  0.2497
  336MPD2    C3 5041   2.658   4.423  16.548 -0.4108 -0.5303 -0.0695
  336MPD2    C4 5042   2.716   4.518  16.627  0.3719 -0.2447  0.3551
  336MPD2    C5 5043   2.699   4.651  16.593 -0.4238 -0.3588 -0.1208
  336MPD2     H 5044   2.539   4.386  16.373  2.0836 -1.0911 -0.5711
  336MPD2    H1 5045   2.784   4.491  16.707 -0.6226  0.7376  1.5284
  336MPD2    H2 5046   2.619   0.070  16.464 -3.2249  0.1153 -0.6658
  336MPD2    H3 5047   2.731   0.008  16.659  0.7620 -0.4546 -0.5632
  336MPD2     N 5048   2.677   4.288  16.577  0.7613  0.3110  0.1109
  336MPD2    H5 5049   2.734   4.264  16.657  2.7228 -0.4435 -1.4896
  336MPD2    N1 5050   2.481   4.630  16.295 -0.5822 -0.2018  0.8988
  336MPD2    H7 5051   2.465   4.557  16.226 -0.0211  2.5880 -2.1821
  337TMC3    C1 5052   2.395   0.041  16.121  0.0626  0.2722 -0.1667
  337TMC3    C2 5053   2.313   4.672  16.059 -0.0770 -0.6441 -0.7269
  337TMC3    C3 5054   2.273   4.683  15.932 -0.2599  0.3346  0.1817
  337TMC3    C4 5055   2.420   0.157  16.063 -0.2227 -0.4208 -0.8969
  337TMC3    C5 5056   2.369   0.178  15.942 -0.1352 -0.1040  0.0242
  337TMC3    C6 5057   2.296   0.084  15.872 -0.6396  0.1962 -0.5685
  337TMC3     C 5058   2.447   0.036  16.260  0.7222 -0.5901  0.3285
  337TMC3     O 5059   2.462   0.137  16.329  0.0681 -0.0490  0.0620
  337TMC3     H 5060   2.283   4.579  16.106  1.8231 -0.1951  1.3655
  337TMC3    H1 5061   2.486   0.228  16.111 -0.5064  0.1787 -1.3952
  337TMC3    H2 5062   2.249   0.117  15.780 -4.4197 -0.9435  0.9604
  337TMC3    C7 5063   2.373   0.307  15.878  0.0800  0.4036 -0.7614
  337TMC3    C8 5064   2.148   4.620  15.899  0.2344 -0.2240  0.0658
  337TMC3    O1 5065   2.367   0.403  15.955  0.5273  0.7310 -0.5322
  337TMC3    O2 5066   2.063   4.593  15.985  0.2334 -0.2662 -0.1904
  338MPD2     C 5067   2.852   3.690   0.758  0.0215  0.1496  0.2184
  338MPD2    C1 5068   2.719   3.675   0.729  0.3444  0.1702  0.7831
  338MPD2    C2 5069   2.623   3.758   0.782  0.3285  0.2140  0.3340
  338MPD2    C3 5070   2.655   3.838   0.893  0.1983 -0.6464  0.0172
  338MPD2    C4 5071   2.784   3.834   0.938  0.2323 -0.4032  0.2707
  338MPD2    C5 5072   2.882   3.769   0.865 -0.2274  0.6170  0.6000
  338MPD2     H 5073   2.520   3.763   0.747  1.1529  0.8798 -1.9851
  338MPD2    H1 5074   2.815   3.884   1.029  0.7756 -1.3152  0.5845
  338MPD2    H2 5075   2.935   3.638   0.712 -0.4753  0.6223 -1.2106
  338MPD2    H3 5076   2.985   3.785   0.896 -0.2048 -1.3373  1.5061
  338MPD2     N 5077   2.556   3.910   0.960 -0.3017 -0.5821 -0.1080
  338MPD2    H5 5078   2.461   3.918   0.926  0.2181  2.1362 -0.8520
  338MPD2    N1 5079   2.683   3.582   0.630  0.1915  0.1638  0.4585
  338MPD2    H7 5080   2.586   3.579   0.600  0.4192  2.6173 -0.5240
  339TMC3    C1 5081   2.441   4.039   1.111  0.2506 -0.3990  0.2244
  339TMC3    C2 5082   2.379   4.013   1.233 -0.0062  0.2352  0.0003
  339TMC3    C3 5083   2.258   4.068   1.254  0.4830  0.0007  0.1820
  339TMC3    C4 5084   2.372   4.107   1.013  0.0216 -0.7486  0.2782
  339TMC3    C5 5085   2.255   4.168   1.038  0.2433  0.5684  0.3099
  339TMC3    C6 5086   2.191   4.149   1.162 -0.9371  0.0231  0.3535
  339TMC3     C 5087   2.565   3.967   1.081  0.2966 -0.3420  0.7468
  339TMC3     O 5088   2.649   3.950   1.171  0.6566 -0.5135  0.4942
  339TMC3     H 5089   2.436   3.956   1.306  1.8548  1.8025 -0.2183
  339TMC3    H1 5090   2.409   4.109   0.911 -1.3670  1.0510 -0.1960
  339TMC3    H2 5091   2.095   4.192   1.190 -0.2974  0.1985  2.2587
  339TMC3    C7 5092   2.176   4.202   0.923  0.3025 -0.5210 -0.5842
  339TMC3    C8 5093   2.174   4.007   1.357  0.5036  0.1958 -0.9102
  339TMC3    O1 5094   2.220   4.173   0.811  0.3232 -0.0478  0.4683
  339TMC3    O2 5095   2.057   4.045   1.355 -0.1775 -0.3064 -0.9354
  340MPD2     C 5096   2.550   1.198   9.091  0.0809 -0.1167  0.4954
  340MPD2    C1 5097   2.683   1.154   9.116 -0.2730  0.0521 -0.1995
  340MPD2    C2 5098   2.757   1.199   9.222 -0.0330  0.5057  0.1866
  340MPD2    C3 5099   2.705   1.294   9.308  0.2425  0.5811 -0.2677
  340MPD2    C4 5100   2.579   1.340   9.290 -0.3765  0.1057  0.5561
  340MPD2    C5 5101   2.504   1.296   9.181 -0.2904 -0.0182  0.0172
  340MPD2     H 5102   2.853   1.156   9.245  0.4647  1.3208 -0.3647
  340MPD2    H1 5103   2.529   1.409   9.357 -0.6073  1.2438 -0.7932
  340MPD2    H2 5104   2.491   1.159   9.008  0.5646 -0.7189  0.4372
  340MPD2    H3 5105   2.403   1.337   9.179  0.3400  1.3075 -3.8495
  340MPD2     N 5106   2.766   1.342   9.422  0.8255  0.0157  0.5854
  340MPD2    H5 5107   2.720   1.421   9.467 -0.3352 -1.4945  2.0470
  340MPD2    N1 5108   2.729   1.060   9.017  0.6331 -0.5580  0.5667
  340MPD2    H7 5109   2.656   1.038   8.950  1.2038  0.1959 -0.2929
  341TMC3    C1 5110   2.836   0.892   8.909 -0.5829  0.5954  0.1708
  341TMC3    C2 5111   2.720   0.826   8.891 -0.2582  0.6875 -0.6166
  341TMC3    C3 5112   2.712   0.739   8.783 -0.0276  0.7269 -0.7715
  341TMC3    C4 5113   2.949   0.870   8.833  0.3510 -0.5616 -0.0871
  341TMC3    C5 5114   2.925   0.790   8.725  0.0956 -0.0952  0.0499
  341TMC3    C6 5115   2.814   0.721   8.696 -1.3437 -0.7226  0.3371
  341TMC3     C 5116   2.845   0.987   9.010 -0.0031  1.0789  0.6020
  341TMC3     O 5117   2.954   0.992   9.070 -0.1931 -0.4950 -0.1072
  341TMC3     H 5118   2.636   0.832   8.960 -1.2402  1.9693 -1.9342
  341TMC3    H1 5119   3.036   0.930   8.856  1.0976 -0.7559 -2.4632
  341TMC3    H2 5120   2.815   0.652   8.612 -1.1335 -1.4306  0.9240
  341TMC3    C7 5121   3.035   0.776   8.640 -0.3891  0.0441  0.0043
  341TMC3    C8 5122   2.636   0.620   8.814 -0.2072 -0.4200 -0.8442
  341TMC3    O1 5123   3.018   0.787   8.519 -0.6359  0.0221 -0.1932
  341TMC3    O2 5124   2.629   0.595   8.936  0.2519 -0.2164  0.0797
  342MPD2     C 5125   0.627   0.036  17.447 -0.4889 -0.7220 -0.4321
  342MPD2    C1 5126   0.676   0.062  17.317  0.4857  0.4663 -0.4457
  342MPD2    C2 5127   0.725   0.190  17.285 -0.0020  0.5247  0.4450
  342MPD2    C3 5128   0.708   0.294  17.375  0.9274 -0.4958 -0.0095
  342MPD2    C4 5129   0.647   0.270  17.491 -0.9329  0.3976 -0.4575
  342MPD2    C5 5130   0.616   0.144  17.529 -0.0366 -0.5779 -0.6255
  342MPD2     H 5131   0.776   0.200  17.190  2.5365 -2.8021  1.4309
  342MPD2    H1 5132   0.632   0.340  17.572 -1.4038 -1.1571  0.7948
  342MPD2    H2 5133   0.608   4.664  17.497 -0.5089  0.6876  2.1929
  342MPD2    H3 5134   0.577   0.118  17.627 -1.5663 -0.4574 -1.1948
  342MPD2     N 5135   0.746   0.427  17.346  0.4689 -0.3609  0.4756
  342MPD2    H5 5136   0.724   0.480  17.430  0.1948  0.4750 -0.1241
  342MPD2    N1 5137   0.698   4.679  17.231  0.0902  0.5809  0.6504
  342MPD2    H7 5138   0.753   4.697  17.148  1.8958 -0.2639  1.6677
  343TMC3    C1 5139   0.689   4.453  17.163  0.4700 -0.0945 -0.1074
  343TMC3    C2 5140   0.777   4.481  17.058 -0.6574  0.0659  0.9480
  343TMC3    C3 5141   0.836   4.375  16.992 -0.2583  0.3652 -0.3407
  343TMC3    C4 5142   0.656   4.319  17.187  0.2304 -0.4230  0.3253
  343TMC3    C5 5143   0.724   4.221  17.125  0.1931 -0.3345 -0.6347
  343TMC3    C6 5144   0.813   4.243  17.030  0.3102 -0.0163 -0.2371
  343TMC3     C 5145   0.640   4.559  17.242  0.5489  0.0412 -0.0408
  343TMC3     O 5146   0.552   4.517  17.320  0.1718 -0.5518  0.4151
  343TMC3     H 5147   0.805   4.585  17.049 -1.2620  0.1495  0.0381
  343TMC3    H1 5148   0.585   4.299  17.266 -0.8707  1.0001 -0.3086
  343TMC3    H2 5149   0.854   4.162  16.970 -3.9536 -2.1402 -0.2691
  343TMC3    C7 5150   0.693   4.081  17.159  0.6153 -0.1300 -0.1736
  343TMC3    C8 5151   0.926   4.416  16.883  0.1452  0.5707  0.9284
  343TMC3    O1 5152   0.594   4.053  17.223 -0.4347 -0.2249  0.4983
  343TMC3    O2 5153   0.925   4.534  16.848  0.5500  0.6969  0.1742
  344MPD2     C 5154   2.214   3.936  10.304  1.2832  0.7376 -0.3136
  344MPD2    C1 5155   2.097   3.982  10.250 -0.0675  0.2925 -0.3563
  344MPD2    C2 5156   2.099   4.051  10.129 -0.3709 -0.1007  0.6456
  344MPD2    C3 5157   2.223   4.088  10.078 -0.0543  0.4236  0.6228
  344MPD2    C4 5158   2.339   4.042  10.139  0.3930 -0.0136  1.1700
  344MPD2    C5 5159   2.335   3.968  10.253  0.0068 -0.2044  0.8423
  344MPD2     H 5160   2.008   4.067  10.072  1.2958  1.8917 -1.4771
  344MPD2    H1 5161   2.432   4.054  10.086 -1.9621 -1.2616 -3.2086
  344MPD2    H2 5162   2.206   3.881  10.397 -0.5261 -2.3305 -2.3060
  344MPD2    H3 5163   2.423   3.929  10.304  0.8513 -0.3428 -0.7314
  344MPD2     N 5164   2.239   4.155   9.952 -0.2109 -0.1657 -0.1063
  344MPD2    H5 5165   2.337   4.157   9.928  0.3973 -0.0956  2.3899
  344MPD2    N1 5166   1.980   3.958  10.314 -0.2193  1.0533  0.5251
  344MPD2    H7 5167   1.894   3.962  10.259 -0.0711  1.7634  0.3360
  345TMC3    C1 5168   2.217   4.276   9.758  0.2539 -0.4794  0.1974
  345TMC3    C2 5169   2.342   4.234   9.753 -0.2649  0.5189 -0.4216
  345TMC3    C3 5170   2.437   4.327   9.765  0.3677 -0.6192 -0.3354
  345TMC3    C4 5171   2.174   4.407   9.744  0.0169  0.1532 -0.1941
  345TMC3    C5 5172   2.273   4.497   9.733  0.2608 -0.3295 -0.0174
  345TMC3    C6 5173   2.411   4.462   9.737 -0.6456  0.4211  0.2446
  345TMC3     C 5174   2.141   4.216   9.872 -0.3676  0.0775  0.1783
  345TMC3     O 5175   2.024   4.238   9.886  0.0624  0.0736  0.2605
  345TMC3     H 5176   2.358   4.127   9.757  1.7209  0.7918 -0.8787
  345TMC3    H1 5177   2.073   4.437   9.770  0.4515  0.2587  1.3297
  345TMC3    H2 5178   2.471   4.552   9.743 -0.3787  0.3467 -1.4081
  345TMC3    C7 5179   2.244   4.627   9.695 -0.3383  0.1086  0.2021
  345TMC3    C8 5180   2.550   4.283   9.851  0.0554 -0.6785 -0.6653
  345TMC3    O1 5181   2.335   4.706   9.673 -0.2574 -0.3924 -0.1825
  345TMC3    O2 5182   2.537   4.168   9.887  0.0039 -0.0956 -0.0804
  346MPD2     C 5183   1.657   0.934  13.849 -0.6424 -0.1227  0.0977
  346MPD2    C1 5184   1.791   0.923  13.876 -0.0801 -0.4797  0.1128
  346MPD2    C2 5185   1.848   0.990  13.981 -0.1492  0.6023  0.1570
  346MPD2    C3 5186   1.774   1.080  14.054  0.0673  0.4955 -0.5866
  346MPD2    C4 5187   1.639   1.094  14.024 -0.3220  0.5877 -0.4009
  346MPD2    C5 5188   1.579   1.018  13.928  0.4534 -0.4044 -0.9294
  346MPD2     H 5189   1.954   0.980  13.999 -0.2425  1.3658  1.1391
  346MPD2    H1 5190   1.580   1.176  14.062  0.3072  1.3901 -1.1748
  346MPD2    H2 5191   1.608   0.894  13.761 -0.0239  1.9617 -1.2023
  346MPD2    H3 5192   1.472   1.035  13.916  0.6612  1.2711 -0.3562
  346MPD2     N 5193   1.835   1.159  14.155 -0.0414  0.4369 -0.0356
  346MPD2    H5 5194   1.934   1.142  14.168 -0.3960 -1.0533  0.6324
  346MPD2    N1 5195   1.883   0.862  13.789 -0.1472  0.6645  0.4505
  346MPD2    H7 5196   1.982   0.869  13.812 -0.4638 -0.4220  2.1954
  347TMC3    C1 5197   1.870   1.289  14.331  0.6936 -0.0101 -0.5920
  347TMC3    C2 5198   1.988   1.328  14.281 -0.2105  0.2522  0.1345
  347TMC3    C3 5199   2.072   1.403  14.361  0.5905 -0.5284  0.0619
  347TMC3    C4 5200   1.836   1.323  14.461 -0.2504  0.1898  0.0051
  347TMC3    C5 5201   1.928   1.384  14.540 -0.5042 -0.5822  0.3595
  347TMC3    C6 5202   2.048   1.426  14.489 -0.2155  0.1179 -0.2355
  347TMC3     C 5203   1.776   1.219  14.258 -0.4071 -0.0095  0.8108
  347TMC3     O 5204   1.656   1.234  14.291  0.2993 -0.0905  0.4920
  347TMC3     H 5205   2.021   1.295  14.183  0.2739 -0.5630  0.5736
  347TMC3    H1 5206   1.747   1.284  14.510 -0.0035  0.0566  0.3443
  347TMC3    H2 5207   2.116   1.467  14.563  0.0568  1.1688 -1.0679
  347TMC3    C7 5208   1.900   1.398  14.680 -0.5125  0.4166 -0.1381
  347TMC3    C8 5209   2.206   1.376  14.329 -0.8178 -0.0420 -0.4906
  347TMC3    O1 5210   1.789   1.436  14.713 -0.3340 -0.3862 -0.1744
  347TMC3    O2 5211   2.223   1.284  14.249  0.5483 -0.6054 -0.4050
  348MPD2     C 5212   0.398   0.023  12.090 -0.0058 -0.2994 -0.1353
  348MPD2    C1 5213   0.511   0.105  12.067 -1.0056 -0.0644  0.2232
  348MPD2    C2 5214   0.510   0.184  11.958  0.5158 -0.1521 -0.3491
  348MPD2    C3 5215   0.402   0.203  11.879 -0.1212 -0.2647 -0.3259
  348MPD2    C4 5216   0.290   0.123  11.903  0.0709 -0.1603  0.0287
  348MPD2    C5 5217   0.288   0.040  12.011 -0.0127 -0.7937 -0.1362
  348MPD2     H 5218   0.605   0.233  11.938 -0.8023  2.5489  0.0632
  348MPD2    H1 5219   0.197   0.133  11.847 -0.6692 -1.8255  0.9520
  348MPD2    H2 5220   0.392   4.673  12.171  1.1783 -2.2814 -1.8235
  348MPD2    H3 5221   0.200   4.711  12.046  0.4403 -0.7746  1.0340
  348MPD2     N 5222   0.408   0.296  11.780 -0.8972  0.7415 -0.1237
  348MPD2    H5 5223   0.495   0.346  11.767 -0.3150  0.0790  1.2541
  348MPD2    N1 5224   0.630   0.091  12.146  0.0925 -0.1722  0.4233
  348MPD2    H7 5225   0.689   0.169  12.118  0.8626 -1.6146 -1.9580
  349TMC3    C1 5226   0.804   4.722  12.282  0.0581  0.1010 -0.6685
  349TMC3    C2 5227   0.873   4.608  12.303 -0.1271 -0.0527  0.1182
  349TMC3    C3 5228   1.005   4.627  12.318 -0.3399  0.0618  0.0758
  349TMC3    C4 5229   0.860   0.123  12.291  0.8078  0.1579 -0.3318
  349TMC3    C5 5230   0.994   0.137  12.331 -0.6035  1.0310  0.2220
  349TMC3    C6 5231   1.069   0.025  12.329 -0.1878 -0.2722  0.3324
  349TMC3     C 5232   0.674   4.706  12.227  0.0586  0.5752  0.0809
  349TMC3     O 5233   0.614   4.605  12.255  0.5517 -0.0822 -0.1480
  349TMC3     H 5234   0.832   4.510  12.282  1.6094 -0.6516 -0.5016
  349TMC3    H1 5235   0.796   0.211  12.283  2.6853  1.7753  2.7792
  349TMC3    H2 5236   1.175   0.015  12.348 -0.9232 -3.6762  2.6693
  349TMC3    C7 5237   1.054   0.266  12.293 -1.3161 -0.4038  0.5744
  349TMC3    C8 5238   1.077   4.498  12.349  0.4584 -0.7624 -0.1718
  349TMC3    O1 5239   0.982   0.351  12.238 -0.4162  0.8623 -0.1729
  349TMC3    O2 5240   1.020   4.430  12.435 -0.0148 -0.1400 -0.1833
  350MPD2     C 5241   4.306   3.182   9.695 -0.2474 -0.4671  0.0404
  350MPD2    C1 5242   4.412   3.092   9.711  0.0407  0.1667  0.6107
  350MPD2    C2 5243   4.526   3.135   9.768  0.2017 -0.0610 -0.9027
  350MPD2    C3 5244   4.540   3.263   9.813 -0.2401  0.0469  0.6155
  350MPD2    C4 5245   4.432   3.351   9.800  1.0119 -0.7507 -0.1695
  350MPD2    C5 5246   4.318   3.307   9.735  0.2301  0.0655 -1.0370
  350MPD2     H 5247   4.612   3.070   9.778  0.4338  0.6765  1.9711
  350MPD2    H1 5248   4.426   3.454   9.834  1.1465 -1.0209  0.6806
  350MPD2    H2 5249   4.215   3.151   9.645  0.6224 -1.0583 -1.1714
  350MPD2    H3 5250   4.232   3.371   9.720 -0.8969 -1.7098 -2.0940
  350MPD2     N 5251   4.662   3.286   9.880  1.0224  0.0810  0.1044
  350MPD2    H5 5252   0.004   3.210   9.898  0.7738 -0.4065 -1.0699
  350MPD2    N1 5253   4.399   2.959   9.676 -0.1860 -0.0750 -0.2348
  350MPD2    H7 5254   4.475   2.895   9.694  1.4707  2.0117  0.2801
  351TMC3    C1 5255   4.309   2.761   9.594  0.2462 -0.0657  1.0680
  351TMC3    C2 5256   4.437   2.720   9.574  0.3913 -0.2157 -0.1348
  351TMC3    C3 5257   4.460   2.585   9.581 -0.9687  0.2614 -0.4732
  351TMC3    C4 5258   4.207   2.674   9.620  0.1476 -0.5269 -0.1409
  351TMC3    C5 5259   4.238   2.541   9.633  0.0299 -0.3401 -0.1179
  351TMC3    C6 5260   4.361   2.495   9.615 -0.0309 -0.0275  0.4564
  351TMC3     C 5261   4.289   2.902   9.618 -0.3701 -0.0140  0.5901
  351TMC3     O 5262   4.178   2.947   9.597  0.3246  0.6865  0.1411
  351TMC3     H 5263   4.524   2.781   9.551  1.1524 -0.5464  1.9102
  351TMC3    H1 5264   4.111   2.712   9.654 -0.7137 -3.0639  0.2442
  351TMC3    H2 5265   4.390   2.395   9.645  0.6115  0.0102 -0.0498
  351TMC3    C7 5266   4.128   2.450   9.683 -0.2823 -0.2731  0.4239
  351TMC3    C8 5267   4.593   2.536   9.550  0.1370 -0.7864  0.4391
  351TMC3    O1 5268   4.028   2.502   9.735  0.2377  0.2174  0.1602
  351TMC3    O2 5269   4.687   2.613   9.563  0.7967  0.3939 -0.3198
  352MPD2     C 5270   2.560   1.240   0.962  0.8605  0.0538  0.9276
  352MPD2    C1 5271   2.429   1.222   0.987  0.4740  0.1567 -0.6375
  352MPD2    C2 5272   2.398   1.130   1.090 -0.8178  0.0243 -0.4580
  352MPD2    C3 5273   2.497   1.054   1.153  0.2353 -0.3031 -0.0465
  352MPD2    C4 5274   2.623   1.070   1.107  0.4763 -0.1580 -0.2989
  352MPD2    C5 5275   2.655   1.167   1.020 -0.0602 -0.2573 -0.4798
  352MPD2     H 5276   2.292   1.120   1.109 -1.3635  1.4164 -2.8617
  352MPD2    H1 5277   2.703   1.005   1.142 -1.1326 -1.5995  0.6732
  352MPD2    H2 5278   2.590   1.312   0.888 -1.3167 -0.6463 -0.6258
  352MPD2    H3 5279   2.755   1.192   0.986 -0.4426 -0.1358 -1.5153
  352MPD2     N 5280   2.470   0.945   1.247 -0.6033 -0.2089 -0.1196
  352MPD2    H5 5281   2.548   0.886   1.274 -0.0927  1.0010  1.0738
  352MPD2    N1 5282   2.336   1.306   0.921  0.4242 -0.0326 -0.2400
  352MPD2    H7 5283   2.367   1.389   0.871  1.4505 -0.2142  0.1032
  353TMC3    C1 5284   2.352   0.793   1.385  0.3072  0.2297 -0.2447
  353TMC3    C2 5285   2.468   0.751   1.446  0.4525  0.5509  0.3862
  353TMC3    C3 5286   2.451   0.662   1.550 -0.6309  0.7510 -0.2544
  353TMC3    C4 5287   2.228   0.737   1.417 -0.7486 -0.1537 -0.3083
  353TMC3    C5 5288   2.220   0.659   1.531 -0.1476 -0.0297  0.1078
  353TMC3    C6 5289   2.330   0.612   1.593  0.5412 -0.1772  0.4941
  353TMC3     C 5290   2.346   0.902   1.290 -0.1322 -0.2596 -0.3209
  353TMC3     O 5291   2.235   0.939   1.250  0.4776  0.2419 -0.2900
  353TMC3     H 5292   2.563   0.794   1.416  0.3812  1.6705  1.7514
  353TMC3    H1 5293   2.132   0.774   1.382  0.4521  1.7962 -1.5053
  353TMC3    H2 5294   2.314   0.536   1.668  0.8324  0.2652  1.0082
  353TMC3    C7 5295   2.108   0.572   1.525  0.5660 -1.1558  0.4440
  353TMC3    C8 5296   2.568   0.596   1.586  0.9164 -0.5870  0.8339
  353TMC3    O1 5297   2.085   0.497   1.616  0.0004 -0.0735  0.1511
  353TMC3    O2 5298   2.668   0.662   1.590 -0.8887 -0.5564  0.3515
  354TMC3    C1 5299   4.683   1.912  13.505 -1.0373  0.5837  0.4105
  354TMC3    C2 5300   0.025   2.034  13.504  0.0418 -0.0544 -0.5169
  354TMC3    C3 5301   0.047   2.094  13.380 -0.3188 -1.1314  0.3179
  354TMC3    C4 5302   4.640   1.849  13.391 -0.5832  0.4461 -0.5296
  354TMC3    C5 5303   4.690   1.904  13.274  0.0374  0.2463 -0.3516
  354TMC3    C6 5304   0.022   2.028  13.261 -0.2266 -0.5558 -0.2460
  354TMC3     C 5305   4.649   1.834  13.626  0.1305  0.0338 -0.6010
  354TMC3     O 5306   4.556   1.760  13.614 -0.5662 -0.1624 -0.3053
  354TMC3     H 5307   0.047   2.080  13.599 -0.8732 -1.1684  0.2290
  354TMC3    H1 5308   4.607   1.745  13.394  0.9979 -0.0355  0.1614
  354TMC3    H2 5309   0.053   2.057  13.161  1.4353  0.0824  0.4510
  354TMC3    C7 5310   4.722   1.805  13.174  0.4377 -0.3020 -0.0104
  354TMC3    C8 5311   0.088   2.233  13.374  0.3817 -0.3333  0.4908
  354TMC3    O1 5312   4.651   1.702  13.180 -0.1352  0.2282 -0.8671
  354TMC3    O2 5313   0.078   2.291  13.480  0.0496  0.3684 -0.6246
  355MPD2     C 5314   0.065   2.928  11.875 -0.3571  0.0674 -0.0655
  355MPD2    C1 5315   0.055   2.974  11.741 -0.2111 -0.1037  0.2605
  355MPD2    C2 5316   0.170   3.003  11.664  0.7828 -0.1092  0.4347
  355MPD2    C3 5317   0.292   2.961  11.712 -0.1888 -0.2739 -0.3572
  355MPD2    C4 5318   0.301   2.889  11.830 -0.2504 -0.0046 -0.9643
  355MPD2    C5 5319   0.187   2.880  11.912 -0.0701  0.3236  0.7578
  355MPD2     H 5320   0.154   3.047  11.566  0.1521  0.6875  0.8942
  355MPD2    H1 5321   0.397   2.843  11.851 -0.2950  0.3803  0.1212
  355MPD2    H2 5322   4.703   2.926  11.942  0.1050  0.1172  0.5199
  355MPD2    H3 5323   0.185   2.821  12.003 -0.3501 -0.4193  0.2719
  355MPD2     N 5324   0.419   2.980  11.643 -0.1174 -0.2311 -0.4175
  355MPD2    H5 5325   0.501   2.946  11.692 -0.2231 -1.3285 -0.9765
  355MPD2    N1 5326   4.650   3.005  11.700 -0.1306  0.5104 -0.0240
  355MPD2    H7 5327   4.577   2.956  11.750  0.1335 -3.3497 -3.4205
  356TMC3    C1 5328   0.586   3.053  11.509 -0.0941 -0.8686 -0.0298
  356TMC3    C2 5329   0.625   3.078  11.385  0.2998  0.5228  0.6203
  356TMC3    C3 5330   0.744   3.149  11.371  0.3484  0.2780  0.3682
  356TMC3    C4 5331   0.670   3.069  11.616  0.5505 -0.0919  0.5294
  356TMC3    C5 5332   0.796   3.119  11.594 -0.5449 -0.2609  0.2427
  356TMC3    C6 5333   0.834   3.170  11.473 -0.5524  0.0748  0.5972
  356TMC3     C 5334   0.446   3.054  11.532 -0.0676  0.0333  0.1192
  356TMC3     O 5335   0.374   3.094  11.441 -0.6370 -0.1707  0.6168
  356TMC3     H 5336   0.549   3.078  11.307  0.0128  3.1988  0.8993
  356TMC3    H1 5337   0.637   3.049  11.717 -0.8668  2.8321  0.6452
  356TMC3    H2 5338   0.935   3.201  11.451 -0.7209  0.0808 -0.1633
  356TMC3    C7 5339   0.880   3.125  11.717  0.3809  0.0932  0.8414
  356TMC3    C8 5340   0.764   3.220  11.251 -0.2432 -0.1586  0.5244
  356TMC3    O1 5341   0.843   3.072  11.820 -0.4687  0.2507 -0.0473
  356TMC3    O2 5342   0.708   3.174  11.152 -0.1618 -0.4333 -0.3410
  357MPD2     C 5343   4.488   2.812   1.461 -0.0829 -0.6914 -0.1842
  357MPD2    C1 5344   4.593   2.726   1.453 -0.2629  0.5325  0.1498
  357MPD2    C2 5345   4.618   2.649   1.566 -0.2433 -1.0315  0.1761
  357MPD2    C3 5346   4.539   2.653   1.683  0.0202 -0.4358 -0.6979
  357MPD2    C4 5347   4.432   2.740   1.679 -0.3847  0.7681 -0.1912
  357MPD2    C5 5348   4.408   2.822   1.567  0.3941  0.2816 -0.1817
  357MPD2     H 5349   4.708   2.589   1.571  3.0487  3.9379  0.8394
  357MPD2    H1 5350   4.373   2.753   1.768  0.1837 -2.4234  0.6412
  357MPD2    H2 5351   4.455   2.862   1.371  0.8104 -1.1728 -0.7795
  357MPD2    H3 5352   4.321   2.887   1.574 -0.7830 -1.3933  0.8203
  357MPD2     N 5353   4.562   2.584   1.804  0.4828  0.3194 -0.2271
  357MPD2    H5 5354   4.490   2.593   1.875  1.3151  1.6912  0.4409
  357MPD2    N1 5355   4.677   2.734   1.338 -0.2242  0.1153 -0.6335
  357MPD2    H7 5356   4.660   2.814   1.278  1.5475  0.7929 -0.2252
  358TMC3    C1 5357   0.115   2.678   1.180 -0.2888  0.8742 -0.1035
  358TMC3    C2 5358   0.170   2.573   1.107 -0.4597 -0.4454 -0.3899
  358TMC3    C3 5359   0.180   2.592   0.972 -0.2374  0.2161 -0.8685
  358TMC3    C4 5360   0.075   2.795   1.114 -0.4102 -0.7105 -0.1716
  358TMC3    C5 5361   0.075   2.801   0.980  0.4212  0.0101 -0.1214
  358TMC3    C6 5362   0.118   2.699   0.901  0.3060 -0.5655  0.4676
  358TMC3     C 5363   0.052   2.646   1.305 -0.1848  0.0651 -0.0232
  358TMC3     O 5364   0.091   2.550   1.370  0.8010  0.4574  0.1934
  358TMC3     H 5365   0.214   2.494   1.167 -2.2140  1.2584  3.1361
  358TMC3    H1 5366   0.039   2.880   1.171  0.4621 -2.4611  2.9697
  358TMC3    H2 5367   0.144   2.728   0.800  0.9244 -0.3480  0.6873
  358TMC3    C7 5368   0.005   2.911   0.925  0.6108 -0.4692  1.1701
  358TMC3    C8 5369   0.219   2.488   0.889  0.2182  0.3245  0.2726
  358TMC3    O1 5370   4.689   2.998   1.004  0.5719 -0.5503 -0.0400
  358TMC3    O2 5371   0.178   2.507   0.776 -0.1100 -0.1395 -0.2317
  359MPD2     C 5372   0.472   0.670  12.018  0.4550 -0.1075  0.4995
  359MPD2    C1 5373   0.403   0.780  11.982  0.3239 -0.2867 -0.0005
  359MPD2    C2 5374   0.265   0.774  11.951 -0.2983  0.8401 -0.6982
  359MPD2    C3 5375   0.190   0.661  11.973  0.3510  0.7809  0.3356
  359MPD2    C4 5376   0.258   0.548  12.013 -0.5998 -0.3511 -0.1151
  359MPD2    C5 5377   0.396   0.554  12.029  0.0335  0.3220 -0.3687
  359MPD2     H 5378   0.211   0.864  11.926 -0.6863  1.3407  1.8588
  359MPD2    H1 5379   0.194   0.465  12.042 -0.3656 -0.8585 -1.0418
  359MPD2    H2 5380   0.579   0.667  12.032  0.6402 -0.3772 -0.9871
  359MPD2    H3 5381   0.449   0.462  12.052 -0.8218 -1.2617 -4.7111
  359MPD2     N 5382   0.042   0.654  11.968 -0.4650 -0.9660 -0.1887
  359MPD2    H5 5383   4.716   0.567  11.988  0.0829 -1.0289  0.8640
  359MPD2    N1 5384   0.469   0.904  11.977 -0.2288 -0.3980  0.6413
  359MPD2    H7 5385   0.416   0.977  11.930  2.6422 -1.0489 -3.5834
  360TMC3    C1 5386   0.671   1.044  11.947 -0.0265 -0.5038  0.5431
  360TMC3    C2 5387   0.786   1.097  12.008 -0.4692  0.6031  0.7019
  360TMC3    C3 5388   0.866   1.193  11.945 -0.4185  0.2447  0.1987
  360TMC3    C4 5389   0.649   1.087  11.821  0.1226  0.2257 -1.0426
  360TMC3    C5 5390   0.729   1.178  11.759  0.7490 -0.3780  0.1182
  360TMC3    C6 5391   0.834   1.240  11.826  0.7830 -0.5070  0.6939
  360TMC3     C 5392   0.603   0.927  12.005  0.0027  0.2619 -0.7047
  360TMC3     O 5393   0.679   0.860  12.077  0.8316 -0.0692 -0.2104
  360TMC3     H 5394   0.831   1.044  12.091  2.1100 -1.1884 -1.8648
  360TMC3    H1 5395   0.556   1.054  11.775 -0.9531 -2.5147  3.1572
  360TMC3    H2 5396   0.888   1.324  11.782  0.3427 -1.0115 -0.8268
  360TMC3    C7 5397   0.678   1.239  11.637 -0.3027  0.2400  0.4154
  360TMC3    C8 5398   0.990   1.221  12.007 -0.4290 -0.5520  0.8320
  360TMC3    O1 5399   0.722   1.350  11.607  0.6902  0.2585 -0.3458
  360TMC3    O2 5400   0.991   1.231  12.127  0.4738  0.3304  0.3345
  361MPD2     C 5401   1.914   0.714  16.674  0.5924  0.9178  0.4635
  361MPD2    C1 5402   1.839   0.703  16.786 -0.2429 -0.0167 -0.1190
  361MPD2    C2 5403   1.843   0.588  16.859 -0.5259 -0.0993  0.1040
  361MPD2    C3 5404   1.911   0.478  16.817 -0.3927  0.2010 -0.5473
  361MPD2    C4 5405   1.977   0.486  16.700 -0.2350  0.4581  0.1690
  361MPD2    C5 5406   1.983   0.605  16.628  0.2901  0.3830  0.5482
  361MPD2     H 5407   1.786   0.580  16.951  2.9827 -0.3215  2.2533
  361MPD2    H1 5408   2.041   0.405  16.666  1.7503  1.5838  1.2161
  361MPD2    H2 5409   1.931   0.802  16.614  3.4272 -0.8187 -1.2999
  361MPD2    H3 5410   2.042   0.614  16.537 -0.3771 -3.8113 -0.3001
  361MPD2     N 5411   1.934   0.366  16.895 -0.2471  0.4311 -0.4644
  361MPD2    H5 5412   1.979   0.285  16.853  1.0944  0.5855  0.6744
  361MPD2    N1 5413   1.779   0.815  16.839  0.3353  0.2298  0.4293
  361MPD2    H7 5414   1.744   0.806  16.934 -1.2003 -2.6801 -0.4166
  362TMC3    C1 5415   1.684   1.032  16.848  0.2459 -0.0721  0.0179
  362TMC3    C2 5416   1.675   1.016  16.984 -0.2055 -0.3306 -0.3039
  362TMC3    C3 5417   1.600   1.107  17.052  0.2705 -0.1138 -0.3606
  362TMC3    C4 5418   1.601   1.118  16.776 -0.4329  0.4198  0.3383
  362TMC3    C5 5419   1.518   1.200  16.846 -0.0276 -0.0805 -0.7124
  362TMC3    C6 5420   1.517   1.194  16.986  1.1115  0.0353  0.4910
  362TMC3     C 5421   1.746   0.933  16.768  0.3765 -0.0439  0.2056
  362TMC3     O 5422   1.755   0.948  16.645  0.3755 -0.2520 -0.2519
  362TMC3     H 5423   1.734   0.945  17.040  2.2127  1.4504 -0.5809
  362TMC3    H1 5424   1.606   1.115  16.668 -0.1940  0.0916  0.3584
  362TMC3    H2 5425   1.452   1.265  17.035 -1.7865 -0.7938 -2.1295
  362TMC3    C7 5426   1.426   1.279  16.769 -0.6654 -0.1405  0.0243
  362TMC3    C8 5427   1.571   1.084  17.192  0.7176  0.0995 -0.2291
  362TMC3    O1 5428   1.452   1.294  16.649 -0.1322  0.6592 -0.4223
  362TMC3    O2 5429   1.605   0.976  17.242  0.6036 -0.7910  0.1764
  363TMC3    C1 5430   1.082   2.819   9.489 -0.2795 -0.7345  0.6877
  363TMC3    C2 5431   1.067   2.738   9.599  0.1500 -0.2314  1.1383
  363TMC3    C3 5432   0.941   2.719   9.648 -0.7449  0.0249 -0.7807
  363TMC3    C4 5433   0.979   2.890   9.434 -1.1441 -0.4040 -0.5064
  363TMC3    C5 5434   0.864   2.887   9.506  0.1565 -0.3714  0.1179
  363TMC3    C6 5435   0.843   2.808   9.608  0.0638  0.5935 -0.1597
  363TMC3     C 5436   1.203   2.812   9.417 -0.5541  0.0373 -0.1182
  363TMC3     O 5437   1.283   2.728   9.456  0.7563 -0.2251  0.6259
  363TMC3     H 5438   1.160   2.703   9.642  2.0883  2.2048 -1.0900
  363TMC3    H1 5439   0.984   2.929   9.333 -1.4110 -1.0674 -0.7716
  363TMC3    H2 5440   0.744   2.799   9.651  0.2087 -0.9668 -0.1422
  363TMC3    C7 5441   0.758   2.948   9.438  0.4864  0.0626 -0.2621
  363TMC3    C8 5442   0.903   2.615   9.743  0.2545 -0.4052  0.6021
  363TMC3    O1 5443   0.646   2.901   9.454 -0.0052  0.6122  0.3540
  363TMC3    O2 5444   0.787   2.620   9.791  0.4939 -0.3259  0.2373
  364MPD2     C 5445   3.766   1.870  10.280  0.5684  0.5755 -0.1433
  364MPD2    C1 5446   3.896   1.905  10.236 -0.3334 -0.2381  0.3790
  364MPD2    C2 5447   4.004   1.822  10.279 -0.4465  0.0469  0.2027
  364MPD2    C3 5448   3.978   1.706  10.363 -0.3311 -0.0096  0.0928
  364MPD2    C4 5449   3.851   1.678  10.400 -0.4004 -0.9288  0.0477
  364MPD2    C5 5450   3.747   1.752  10.347 -0.1727 -0.3455 -0.5431
  364MPD2     H 5451   4.107   1.853  10.269 -1.3480  2.8034 -0.4466
  364MPD2    H1 5452   3.829   1.593  10.463 -2.7862 -1.4236 -1.4506
  364MPD2    H2 5453   3.684   1.937  10.258 -0.5203  0.0128  2.1787
  364MPD2    H3 5454   3.645   1.743  10.383  0.1398  0.2037  0.4864
  364MPD2     N 5455   4.081   1.619  10.413  0.0319  0.0527  0.8765
  364MPD2    H5 5456   4.060   1.551  10.485  0.7021  1.0687  2.0324
  364MPD2    N1 5457   3.920   2.032  10.177 -0.4526  0.0572 -0.1911
  364MPD2    H7 5458   3.847   2.099  10.201 -1.4528 -0.9285 -0.4410
  365TMC3    C1 5459   4.062   2.219  10.119 -0.7700 -0.3577 -0.1191
  365TMC3    C2 5460   4.174   2.253  10.052 -0.8992  0.0227 -0.1861
  365TMC3    C3 5461   4.247   2.353  10.111  0.1572 -0.0808  0.0643
  365TMC3    C4 5462   4.010   2.295  10.223 -0.3163 -0.0062  0.1567
  365TMC3    C5 5463   4.083   2.399  10.277  0.3928 -0.1348 -0.2816
  365TMC3    C6 5464   4.200   2.436  10.212 -0.1728  0.1739  0.5098
  365TMC3     C 5465   4.037   2.071  10.120  0.3084  0.0991  0.5991
  365TMC3     O 5466   4.127   1.992  10.084 -0.4016 -0.3113  0.3493
  365TMC3     H 5467   4.204   2.197   9.965  2.7036  0.6013  0.6368
  365TMC3    H1 5468   3.934   2.253  10.288 -0.1317  1.3009  1.2093
  365TMC3    H2 5469   4.256   2.522  10.245  0.6793  0.3822 -1.5031
  365TMC3    C7 5470   4.104   2.379  10.421  0.4247 -0.4995  0.0599
  365TMC3    C8 5471   4.386   2.387  10.063 -0.3437  0.3113 -0.3983
  365TMC3    O1 5472   4.080   2.269  10.475  0.0058  0.1185  0.2169
  365TMC3    O2 5473   4.454   2.462  10.131 -0.1230 -0.2797 -0.0488
  366MPD2     C 5474   2.731   3.052  15.651  0.7545 -0.0718 -0.6738
  366MPD2    C1 5475   2.729   3.174  15.713  0.8015 -0.0507  0.0754
  366MPD2    C2 5476   2.848   3.218  15.768  0.3419 -1.2586 -0.0221
  366MPD2    C3 5477   2.966   3.150  15.748  0.6843  0.1176 -0.5239
  366MPD2    C4 5478   2.964   3.036  15.684  0.1821 -0.1050  0.3811
  366MPD2    C5 5479   2.845   2.978  15.644 -0.6422 -0.3771  0.0141
  366MPD2     H 5480   2.863   3.318  15.805  0.0161 -1.1190 -0.2632
  366MPD2    H1 5481   3.056   2.983  15.664  1.1759  1.1585  1.5571
  366MPD2    H2 5482   2.646   3.016  15.595 -2.1081  3.2156  1.5547
  366MPD2    H3 5483   2.838   2.882  15.593  1.3638 -1.4988  1.8558
  366MPD2     N 5484   3.082   3.221  15.782 -0.3909  0.3990 -0.3195
  366MPD2    H5 5485   3.081   3.302  15.843 -1.2609  0.0415  0.1524
  366MPD2    N1 5486   2.627   3.271  15.697 -0.2016  0.2464  0.0947
  366MPD2    H7 5487   2.639   3.362  15.741 -2.5190 -0.2822  1.8221
  367TMC3    C1 5488   2.423   3.366  15.649 -0.2639  0.2188 -0.3789
  367TMC3    C2 5489   2.466   3.460  15.744  0.0759 -0.0540  0.0340
  367TMC3    C3 5490   2.470   3.593  15.709  0.1763  0.2023 -0.0430
  367TMC3    C4 5491   2.384   3.412  15.524 -0.1509 -0.5036  0.1942
  367TMC3    C5 5492   2.395   3.541  15.491 -1.4413  0.0481  0.5155
  367TMC3    C6 5493   2.435   3.634  15.587 -0.3264  0.2101  0.2118
  367TMC3     C 5494   2.510   3.253  15.635 -0.6800  0.4383  0.1788
  367TMC3     O 5495   2.478   3.164  15.553  0.5589  0.0958 -0.4011
  367TMC3     H 5496   2.488   3.440  15.849 -0.5967  1.4618  0.4684
  367TMC3    H1 5497   2.365   3.335  15.450  1.3796 -0.0625 -0.6501
  367TMC3    H2 5498   2.451   3.737  15.557 -0.7389  1.2145  3.4828
  367TMC3    C7 5499   2.325   3.607  15.384  0.0383  0.2283  0.2370
  367TMC3    C8 5500   2.585   3.664  15.762  1.1854 -0.2494  0.5051
  367TMC3    O1 5501   2.337   3.728  15.389  0.2351  0.1512 -0.0437
  367TMC3    O2 5502   2.681   3.600  15.809  0.4314  0.2257  0.5340
  368MPD2     C 5503   3.442   0.681  13.321 -0.3920  0.1749  0.3167
  368MPD2    C1 5504   3.444   0.624  13.196 -0.1055  0.1686 -0.5327
  368MPD2    C2 5505   3.560   0.616  13.124 -0.5218  0.8328 -0.3671
  368MPD2    C3 5506   3.677   0.666  13.181 -0.2675 -0.3182  0.0900
  368MPD2    C4 5507   3.678   0.731  13.304  0.4946 -0.5421 -0.1302
  368MPD2    C5 5508   3.562   0.727  13.378  0.2455 -0.5608 -0.6857
  368MPD2     H 5509   3.555   0.570  13.026 -0.8488 -1.0261  0.5245
  368MPD2    H1 5510   3.760   0.790  13.344 -0.7129  0.7381  0.4838
  368MPD2    H2 5511   3.358   0.687  13.390 -0.0072  1.4652  0.6682
  368MPD2    H3 5512   3.557   0.771  13.477 -2.1101 -1.8426 -0.2360
  368MPD2     N 5513   3.797   0.662  13.110  0.3620  0.2837 -0.4539
  368MPD2    H5 5514   3.878   0.698  13.160  0.6575  0.2755 -0.9263
  368MPD2    N1 5515   3.324   0.577  13.142  0.5945 -0.1726  0.5942
  368MPD2    H7 5516   3.246   0.627  13.183  0.3642 -0.3053  0.3161
  369TMC3    C1 5517   3.180   0.489  12.981 -0.0022  0.3583  0.0288
  369TMC3    C2 5518   3.182   0.511  12.851 -0.9771 -0.2166 -0.5199
  369TMC3    C3 5519   3.073   0.565  12.791 -0.4798  0.4654 -0.3102
  369TMC3    C4 5520   3.071   0.516  13.053  0.1675  0.0432 -0.2763
  369TMC3    C5 5521   2.953   0.557  12.985  0.8028 -0.2401  0.3107
  369TMC3    C6 5522   2.954   0.590  12.852  0.1632  0.5443 -0.0380
  369TMC3     C 5523   3.310   0.488  13.040 -0.1813 -0.7682 -0.2526
  369TMC3     O 5524   3.391   0.409  12.994  0.2210  0.4045 -0.1221
  369TMC3     H 5525   3.276   0.490  12.802 -0.0861 -0.7603  1.4348
  369TMC3    H1 5526   3.082   0.520  13.161 -0.0690 -0.1193 -0.2451
  369TMC3    H2 5527   2.872   0.643  12.804 -0.6381 -1.1674 -0.5554
  369TMC3    C7 5528   2.825   0.513  13.046 -0.2558  0.1118  0.2334
  369TMC3    C8 5529   3.082   0.614  12.654 -0.1150  0.1417  1.0759
  369TMC3    O1 5530   2.836   0.476  13.162  0.8426 -0.3091 -0.3136
  369TMC3    O2 5531   2.980   0.623  12.585 -0.3756  0.5358 -0.3101
  370TMC3    C1 5532   3.151   1.263  16.284 -0.2187 -0.0901 -0.4417
  370TMC3    C2 5533   3.146   1.195  16.405 -0.1077  0.3585 -0.3565
  370TMC3    C3 5534   3.039   1.111  16.423 -0.7761  0.2387 -0.8506
  370TMC3    C4 5535   3.052   1.246  16.182 -0.2918  0.1331  0.0541
  370TMC3    C5 5536   2.949   1.159  16.216 -0.2507  0.6475  0.0559
  370TMC3    C6 5537   2.941   1.091  16.332  0.7946 -0.0463  0.2447
  370TMC3     C 5538   3.266   1.335  16.248  0.1041 -0.5996  0.2344
  370TMC3     O 5539   3.359   1.312  16.326  0.4201  0.2200  0.0960
  370TMC3     H 5540   3.230   1.197  16.474  0.6560 -2.5087 -1.2362
  370TMC3    H1 5541   3.050   1.296  16.086 -0.8806 -0.7884 -0.4155
  370TMC3    H2 5542   2.871   1.011  16.352  0.5353  0.0455 -0.2819
  370TMC3    C7 5543   2.876   1.096  16.108  0.3779  0.3088 -0.6219
  370TMC3    C8 5544   3.022   1.035  16.543  0.1990  0.5124 -0.2070
  370TMC3    O1 5545   2.848   1.158  16.007 -0.5605  0.5777 -0.6125
  370TMC3    O2 5546   2.977   0.922  16.540 -0.3193 -0.6522  0.8201
  371TMC3    C1 5547   4.106   4.229  15.784 -0.5112  0.4430 -0.1044
  371TMC3    C2 5548   3.976   4.220  15.831 -0.8230  0.4513  0.0551
  371TMC3    C3 5549   3.885   4.303  15.780 -0.1627 -0.0503  0.6646
  371TMC3    C4 5550   4.140   4.324  15.693 -0.3709  0.7356 -0.0947
  371TMC3    C5 5551   4.039   4.400  15.640  0.0552  0.0328 -0.6680
  371TMC3    C6 5552   3.911   4.391  15.676 -0.4374  0.7671 -0.5929
  371TMC3     C 5553   4.196   4.129  15.820 -0.4300  0.4516  0.3244
  371TMC3     O 5554   4.312   4.155  15.790  0.3155  0.9395  0.0842
  371TMC3     H 5555   3.941   4.146  15.903 -0.9121  0.8289  0.4004
  371TMC3    H1 5556   4.241   4.343  15.658 -0.0778  0.2094  0.4686
  371TMC3    H2 5557   3.837   4.466  15.650  0.1238  1.8487  0.8997
  371TMC3    C7 5558   4.077   4.518  15.566  0.4908  0.7201  0.1674
  371TMC3    C8 5559   3.744   4.268  15.807 -0.3023 -0.2918  0.9287
  371TMC3    O1 5560   4.002   4.618  15.564  0.0378  0.1858  0.6489
  371TMC3    O2 5561   3.704   4.156  15.839 -0.4479 -0.2382  0.3053
  372MPD2     C 5562   4.465   0.983  13.253  0.0087 -0.0935 -0.5406
  372MPD2    C1 5563   4.514   0.898  13.347 -0.2500  0.1685 -0.3849
  372MPD2    C2 5564   4.418   0.807  13.395  0.5017  0.3641  0.1355
  372MPD2    C3 5565   4.287   0.792  13.347 -0.6679  0.8311  0.0446
  372MPD2    C4 5566   4.254   0.880  13.250  0.1120  0.1599  0.6039
  372MPD2    C5 5567   4.335   0.984  13.215 -0.7779 -0.3133  0.5376
  372MPD2     H 5568   4.460   0.734  13.464  0.4014  0.1120 -0.0697
  372MPD2    H1 5569   4.164   0.872  13.190  0.7106  0.1480 -0.2862
  372MPD2    H2 5570   4.530   1.052  13.201 -1.0466  1.0087 -0.3934
  372MPD2    H3 5571   4.296   1.053  13.140  0.8090 -0.4463 -0.4106
  372MPD2     N 5572   4.206   0.684  13.381  0.0737 -0.0506 -0.0346
  372MPD2    H5 5573   4.255   0.608  13.427  0.5733 -0.2978 -0.9650
  372MPD2    N1 5574   4.649   0.880  13.385 -0.0168 -0.0845  0.3670
  372MPD2    H7 5575   4.646   0.835  13.476 -2.0354  0.5505  0.6123
  373TMC3    C1 5576   4.034   0.523  13.379  0.0268  0.4142  0.3935
  373TMC3    C2 5577   3.913   0.508  13.435  0.1663  0.1981 -0.0894
  373TMC3    C3 5578   3.856   0.386  13.436 -0.0884 -0.3455 -0.0515
  373TMC3    C4 5579   4.095   0.427  13.302  0.3763 -1.0782 -0.4825
  373TMC3    C5 5580   4.030   0.306  13.311  0.1645 -0.0791  0.2476
  373TMC3    C6 5581   3.909   0.281  13.367 -0.2861  0.0750  0.1766
  373TMC3     C 5582   4.071   0.664  13.352  0.1765 -0.0042  0.3775
  373TMC3     O 5583   3.992   0.735  13.296  0.7239  0.3428  0.3101
  373TMC3     H 5584   3.873   0.595  13.487 -1.9513 -0.6080 -0.3657
  373TMC3    H1 5585   4.196   0.436  13.263  0.5741  0.8952  0.4860
  373TMC3    H2 5586   3.876   0.180  13.389 -2.7727  0.8798  0.1760
  373TMC3    C7 5587   4.115   0.193  13.279  0.1499  0.4560 -0.5447
  373TMC3    C8 5588   3.787   0.356  13.559  0.3725  0.2281 -0.7655
  373TMC3    O1 5589   4.237   0.213  13.279 -0.0001  0.4040  0.5430
  373TMC3    O2 5590   3.715   0.257  13.558  0.0746  0.7776  0.3923
  374TMC3    C1 5591   4.493   0.872   9.648 -0.2924  0.2132  0.4705
  374TMC3    C2 5592   4.611   0.913   9.703  0.0163 -0.3798  0.0912
  374TMC3    C3 5593   4.702   0.969   9.616 -1.3868  0.1307 -0.4621
  374TMC3    C4 5594   4.463   0.882   9.513 -0.3504  0.0324 -1.0266
  374TMC3    C5 5595   4.558   0.939   9.435  0.1961  0.4563 -0.3602
  374TMC3    C6 5596   4.671   0.992   9.485 -0.0261  0.3932 -0.4083
  374TMC3     C 5597   4.396   0.826   9.739 -0.3515 -0.5056 -0.0070
  374TMC3     O 5598   4.402   0.867   9.855 -0.0628 -0.0054 -0.5863
  374TMC3     H 5599   4.620   0.924   9.810 -2.0765 -2.6666  0.4908
  374TMC3    H1 5600   4.367   0.855   9.470 -0.4177 -3.2691  1.1452
  374TMC3    H2 5601   0.021   1.049   9.428 -1.3784  1.2717 -1.2356
  374TMC3    C7 5602   4.537   0.958   9.294  0.4531 -0.5337  0.6469
  374TMC3    C8 5603   0.098   1.045   9.674 -0.2386 -0.7254 -0.2101
  374TMC3    O1 5604   4.616   1.031   9.234  0.1219  0.2951 -0.7795
  374TMC3    O2 5605   0.157   1.121   9.603 -0.3071 -0.1016 -0.4685
  375MPD2     C 5606   4.306   1.947  17.097 -0.3781 -0.1183 -0.0478
  375MPD2    C1 5607   4.313   1.943  16.964 -0.1482  0.3784 -0.6489
  375MPD2    C2 5608   4.364   1.831  16.900 -0.0448 -0.0535 -0.1398
  375MPD2    C3 5609   4.422   1.732  16.972 -0.2538  1.4964  0.0042
  375MPD2    C4 5610   4.450   1.757  17.105  0.4350 -0.2324  0.9334
  375MPD2    C5 5611   4.385   1.862  17.170  0.3428  0.2287 -0.1055
  375MPD2     H 5612   4.352   1.833  16.792 -0.2896 -1.9148 -0.1541
  375MPD2    H1 5613   4.505   1.686  17.166  0.6091 -0.5208  0.4451
  375MPD2    H2 5614   4.257   2.025  17.153 -0.0225  0.9824 -1.2668
  375MPD2    H3 5615   4.390   1.885  17.276  0.3273  0.0883 -0.0748
  375MPD2     N 5616   4.467   1.617  16.903 -0.2389  0.3139 -0.4361
  375MPD2    H5 5617   4.518   1.545  16.952 -2.7437 -0.0083  1.7366
  375MPD2    N1 5618   4.232   2.023  16.879 -0.6024 -0.6146 -0.8605
  375MPD2    H7 5619   4.249   2.013  16.780  0.5671 -1.7284 -0.5498
  376TMC3    C1 5620   4.507   1.464  16.732 -0.6110 -0.1407 -0.3396
  376TMC3    C2 5621   4.618   1.422  16.805  0.9975  0.5633 -0.6654
  376TMC3    C3 5622   4.688   1.314  16.760 -0.0434 -0.3110  0.0041
  376TMC3    C4 5623   4.467   1.397  16.621  0.4918 -0.5558  0.3026
  376TMC3    C5 5624   4.539   1.293  16.586  0.1037  0.0346  0.3284
  376TMC3    C6 5625   4.649   1.248  16.648  0.4923 -0.7191 -0.5048
  376TMC3     C 5626   4.443   1.592  16.768  0.3457  0.2309 -0.0765
  376TMC3     O 5627   4.380   1.643  16.677 -0.0473 -0.1761  0.9374
  376TMC3     H 5628   4.649   1.476  16.894 -0.0003  0.5536 -0.3123
  376TMC3    H1 5629   4.380   1.439  16.573 -0.6610 -2.5362  0.6894
  376TMC3    H2 5630   4.710   1.161  16.623  0.2617 -1.5496  1.8860
  376TMC3    C7 5631   4.524   1.264  16.443 -0.0699  0.3128 -0.3721
  376TMC3    C8 5632   0.106   1.350  16.767  0.3237  0.3593 -0.1831
  376TMC3    O1 5633   4.452   1.343  16.381 -0.5730  0.0653 -0.3556
  376TMC3    O2 5634   0.132   1.474  16.780  0.2044  0.0133  0.4009
  377MPD2     C 5635   2.335   0.787  12.307 -1.0176  0.5902  0.2560
  377MPD2    C1 5636   2.383   0.692  12.400 -0.7560  0.0405 -0.5613
  377MPD2    C2 5637   2.294   0.639  12.492 -0.1020 -0.2696  0.5861
  377MPD2    C3 5638   2.170   0.675  12.501 -0.1599 -0.3706  1.1178
  377MPD2    C4 5639   2.120   0.765  12.408 -0.3377  0.3394 -0.4485
  377MPD2    C5 5640   2.203   0.824  12.314  0.0714 -0.5405  0.1723
  377MPD2     H 5641   2.339   0.577  12.569 -0.9005  0.2143  1.4410
  377MPD2    H1 5642   2.014   0.790  12.405 -0.0820  1.4848  0.0210
  377MPD2    H2 5643   2.399   0.820  12.226 -1.9359  1.8097  0.0284
  377MPD2    H3 5644   2.164   0.896  12.242 -0.3803  0.1411  1.0885
  377MPD2     N 5645   2.078   0.620  12.590 -0.0249 -0.3626  0.9886
  377MPD2    H5 5646   1.992   0.672  12.604  0.8304  1.3283 -0.0375
  377MPD2    N1 5647   2.515   0.643  12.381  0.2677  0.0212  0.5340
  377MPD2    H7 5648   2.567   0.691  12.308  0.4600 -0.2699  0.4806
  378TMC3    C1 5649   2.877   0.492  12.249  0.6882  0.2501 -0.2595
  378TMC3    C2 5650   2.754   0.544  12.290  0.2310  0.0891 -0.4160
  378TMC3    C3 5651   2.709   0.508  12.416 -0.0790 -0.3574  1.2211
  378TMC3    C4 5652   2.945   0.414  12.331  0.4762 -0.1030 -0.2411
  378TMC3    C5 5653   2.899   0.384  12.456 -0.2719  0.3468 -0.5448
  378TMC3    C6 5654   2.774   0.422  12.495 -0.1410  0.3201 -0.4374
  378TMC3     C 5655   2.909   0.491  12.103  0.3598  0.8239  0.3069
  378TMC3     O 5656   2.817   0.537  12.029  0.1351 -0.1368 -0.3389
  378TMC3     H 5657   2.698   0.612  12.227 -1.2933 -1.4214 -0.6952
  378TMC3    H1 5658   3.038   0.371  12.296  1.6019 -0.3691  3.0387
  378TMC3    H2 5659   2.734   0.397  12.593  1.0727 -2.3010 -0.6084
  378TMC3    C7 5660   2.973   0.311  12.555  0.0590  0.0653  0.7496
  378TMC3    C8 5661   2.579   0.546  12.461  0.3717  0.2666 -1.1131
  378TMC3    O1 5662   2.917   0.259  12.653  0.0282 -0.0225 -0.2870
  378TMC3    O2 5663   2.551   0.508  12.577  0.2219  0.0011  0.7742
  379MPD2     C 5664   3.365   4.267  16.416  0.1263  0.6252  0.1005
  379MPD2    C1 5665   3.429   4.151  16.370  0.5430 -1.0975 -0.4903
  379MPD2    C2 5666   3.461   4.047  16.452  0.7759 -0.0608  0.2279
  379MPD2    C3 5667   3.437   4.056  16.584  0.6323 -0.0464 -0.0047
  379MPD2    C4 5668   3.361   4.162  16.632  0.2308  0.4320  0.1307
  379MPD2    C5 5669   3.326   4.266  16.547 -0.2430  0.0516 -0.0481
  379MPD2     H 5670   3.518   3.958  16.425 -1.6185 -1.2476 -0.9116
  379MPD2    H1 5671   3.321   4.169  16.732 -0.6469 -0.8295 -0.1269
  379MPD2    H2 5672   3.353   4.355  16.353 -2.6054  0.1969  0.0176
  379MPD2    H3 5673   3.264   4.349  16.579 -1.8727 -1.8036  1.5887
  379MPD2     N 5674   3.468   3.948  16.671 -0.6393  0.3004  0.3189
  379MPD2    H5 5675   3.396   3.924  16.739 -1.5002 -1.6781 -1.2894
  379MPD2    N1 5676   3.440   4.134  16.230  0.1132 -0.6293  0.4983
  379MPD2    H7 5677   3.372   4.185  16.175  0.7485 -3.3212 -2.7658
  380TMC3    C1 5678   3.425   4.009  16.042 -0.0778 -0.3313 -0.0291
  380TMC3    C2 5679   3.465   3.917  15.952  0.0124 -0.4265 -0.4871
  380TMC3    C3 5680   3.384   3.884  15.848  0.0154  1.1491 -1.0454
  380TMC3    C4 5681   3.300   4.050  16.046  0.6941  0.1177 -0.6713
  380TMC3    C5 5682   3.211   3.998  15.952 -0.2258 -0.3602 -0.1706
  380TMC3    C6 5683   3.250   3.923  15.844 -0.3401 -0.6861 -0.6217
  380TMC3     C 5684   3.504   4.032  16.160  0.1059 -0.4597  0.0151
  380TMC3     O 5685   3.595   3.953  16.192  0.1867  0.4448  0.0708
  380TMC3     H 5686   3.567   3.883  15.943  0.0449 -0.3931 -0.2433
  380TMC3    H1 5687   3.249   4.099  16.128  2.4891 -0.0383  0.5184
  380TMC3    H2 5688   3.187   3.895  15.760 -0.5195  0.3545 -0.8294
  380TMC3    C7 5689   3.080   4.063  15.955  0.5317  0.4641  0.4411
  380TMC3    C8 5690   3.440   3.880  15.712 -0.4187  0.2245  0.7489
  380TMC3    O1 5691   3.062   4.168  16.011 -0.2237 -0.7156 -0.2081
  380TMC3    O2 5692   3.363   3.901  15.619 -0.0348 -0.3602 -0.2470
  381TMC3    C1 5693   2.891   0.297  16.376 -0.5318  0.4532 -0.3832
  381TMC3    C2 5694   2.979   0.404  16.352  0.2726 -0.2191  0.2556
  381TMC3    C3 5695   3.012   0.484  16.466  0.1231 -0.7628  0.8880
  381TMC3    C4 5696   2.837   0.267  16.496  0.0679 -0.4954 -0.5192
  381TMC3    C5 5697   2.863   0.361  16.591  0.6054 -0.1736  0.6120
  381TMC3    C6 5698   2.949   0.465  16.580  0.2757 -0.3982 -0.1806
  381TMC3     C 5699   2.887   0.186  16.280 -0.1148  0.4460  0.7230
  381TMC3     O 5700   2.919   0.070  16.315 -0.0894  0.2582  0.3635
  381TMC3     H 5701   3.035   0.412  16.259  0.0478 -1.4206  0.0259
  381TMC3    H1 5702   2.777   0.176  16.499  0.4864 -0.6894  1.9375
  381TMC3    H2 5703   2.970   0.533  16.661 -1.4043 -0.9989  0.7629
  381TMC3    C7 5704   2.803   0.334  16.723 -0.0332  1.5327 -0.9233
  381TMC3    C8 5705   3.102   0.593  16.437  0.6395  0.1982  0.2616
  381TMC3    O1 5706   2.753   0.221  16.737 -0.3012  0.3725 -0.5834
  381TMC3    O2 5707   3.126   0.618  16.318  0.1130  0.0984 -0.3942
  382MPD2     C 5708   2.332   3.136   0.008  0.0657 -0.6619 -0.1806
  382MPD2    C1 5709   2.225   3.186  17.628  0.1550 -0.3101  0.2802
  382MPD2    C2 5710   2.140   3.088  17.570  0.1615 -0.9946 -0.3611
  382MPD2    C3 5711   2.158   2.957  17.601 -0.7129  0.4299 -0.3475
  382MPD2    C4 5712   2.265   2.913  17.684  0.2468 -0.1356 -0.2165
  382MPD2    C5 5713   2.355   3.005   0.038 -0.2797  0.6603  0.9286
  382MPD2     H 5714   2.057   3.112  17.504  0.3180  1.0461  0.1734
  382MPD2    H1 5715   2.281   2.809   0.018  2.0195  0.2473  0.2338
  382MPD2    H2 5716   2.402   3.205   0.053 -1.1133 -0.3692  1.1891
  382MPD2    H3 5717   2.432   2.976   0.108  0.6780  0.2115 -0.3187
  382MPD2     N 5718   2.066   2.853  17.557 -0.4146  0.0625  0.0076
  382MPD2    H5 5719   2.090   2.762  17.595 -0.4983  0.9069  2.0817
  382MPD2    N1 5720   2.186   3.320  17.599  0.0287  0.0014  0.3697
  382MPD2    H7 5721   2.110   3.336  17.534  0.6575 -1.1709 -0.6511
  383TMC3    C1 5722   1.885   2.741  17.470  0.0924  0.2322 -0.1410
  383TMC3    C2 5723   1.886   2.673  17.352  0.0530  0.0665  0.0829
  383TMC3    C3 5724   1.870   2.541  17.367 -0.3023  0.1173  0.4525
  383TMC3    C4 5725   1.891   2.680  17.596 -0.2195 -0.3331  0.1016
  383TMC3    C5 5726   1.870   2.545  17.595  0.1542  0.2042 -0.2269
  383TMC3    C6 5727   1.864   2.467  17.482 -0.6543  0.3247 -0.5598
  383TMC3     C 5728   1.958   2.864  17.477  0.1281  0.3241 -0.2292
  383TMC3     O 5729   1.919   2.951  17.400 -0.2049  0.6144 -0.9255
  383TMC3     H 5730   1.889   2.733  17.262  2.6433 -0.3328 -0.0953
  383TMC3    H1 5731   1.901   2.746  17.681  0.9620  0.5473 -0.7197
  383TMC3    H2 5732   1.855   2.359  17.484  0.5717  0.2153 -1.1641
  383TMC3    C7 5733   1.853   2.481   0.031  0.0321  0.4734 -0.2813
  383TMC3    C8 5734   1.843   2.470  17.242  0.0820  0.6284 -0.0136
  383TMC3    O1 5735   1.868   2.555   0.131  0.6091  0.3689 -0.3360
  383TMC3    O2 5736   1.797   2.531  17.144  0.6563  0.3161 -0.3929
  384MPD2     C 5737   4.190   3.114  11.884 -0.4886  0.5359 -1.0315
  384MPD2    C1 5738   4.218   3.087  12.014 -0.5312  0.2364 -0.8144
  384MPD2    C2 5739   4.305   2.982  12.042 -0.5013  0.2634 -0.1872
  384MPD2    C3 5740   4.366   2.900  11.952 -0.7267  0.3982  0.2587
  384MPD2    C4 5741   4.341   2.933  11.822 -0.5022 -0.6528 -0.0170
  384MPD2    C5 5742   4.263   3.042  11.787  0.1341 -0.5036  0.0772
  384MPD2     H 5743   4.327   2.959  12.146 -0.5031 -0.9688 -0.4571
  384MPD2    H1 5744   4.388   2.882  11.738 -0.8616  0.3505 -0.8285
  384MPD2    H2 5745   4.126   3.197  11.857 -1.9305 -0.3135 -0.2362
  384MPD2    H3 5746   4.254   3.069  11.682  1.0310 -0.3546  0.0315
  384MPD2     N 5747   4.441   2.795  12.002  0.0062 -0.1289 -0.5625
  384MPD2    H5 5748   4.444   2.785  12.103  1.0937 -3.0249 -0.8778
  384MPD2    N1 5749   4.143   3.154  12.117 -1.0214 -0.2595 -0.0735
  384MPD2    H7 5750   4.169   3.123  12.210  1.0864 -1.5900 -1.0964
  385TMC3    C1 5751   4.584   2.610  12.013 -0.1630 -0.2669  0.2981
  385TMC3    C2 5752   4.549   2.489  11.970 -0.0605  0.5146  0.2550
  385TMC3    C3 5753   4.506   2.395  12.060  0.1804  0.1401  0.0094
  385TMC3    C4 5754   4.581   2.638  12.144 -0.3093  0.1569  0.4742
  385TMC3    C5 5755   4.513   2.546  12.228 -0.1728  0.3115 -0.1437
  385TMC3    C6 5756   4.478   2.426  12.188 -0.4196 -0.0100  0.6856
  385TMC3     C 5757   4.524   2.719  11.934  0.3750  0.0247 -0.5345
  385TMC3     O 5758   4.553   2.723  11.813  0.6163 -0.3278  0.4995
  385TMC3     H 5759   4.537   2.479  11.863  2.1347  0.5998 -0.0056
  385TMC3    H1 5760   4.607   2.736  12.182 -1.8526  1.4518 -1.8528
  385TMC3    H2 5761   4.427   2.360  12.256 -0.8598  0.1337  0.4939
  385TMC3    C7 5762   4.423   2.630  12.312 -0.4101  0.0733  0.3755
  385TMC3    C8 5763   4.476   2.259  12.026 -0.4169 -0.2847  0.9746
  385TMC3    O1 5764   4.419   2.746  12.279  0.4618 -0.2017 -0.0837
  385TMC3    O2 5765   4.453   2.178  12.115  0.8030 -0.8461  0.4458
  386TMC3    C1 5766   4.047   0.449  11.407 -0.1788  0.6198 -0.1415
  386TMC3    C2 5767   4.061   0.437  11.270  0.1253  0.0078 -0.6214
  386TMC3    C3 5768   3.956   0.464  11.188 -0.4133 -0.3720 -0.2451
  386TMC3    C4 5769   3.926   0.495  11.460 -0.3256 -0.2516  0.2578
  386TMC3    C5 5770   3.817   0.507  11.376  0.4008  0.1872  0.4642
  386TMC3    C6 5771   3.838   0.505  11.240  0.1194 -0.5169  0.5475
  386TMC3     C 5772   4.164   0.439  11.494 -0.1991  0.4568 -0.1158
  386TMC3     O 5773   4.181   0.508  11.594 -0.3585 -0.2444  0.4378
  386TMC3     H 5774   4.146   0.400  11.214 -2.1817 -2.1499 -2.6924
  386TMC3    H1 5775   3.917   0.500  11.568 -0.0990  0.3353  0.2517
  386TMC3    H2 5776   3.763   0.529  11.166  0.1558 -2.0713  0.0145
  386TMC3    C7 5777   3.692   0.580  11.417  0.4019 -0.2920  0.0343
  386TMC3    C8 5778   3.981   0.486  11.045  0.4899  0.0265  0.0456
  386TMC3    O1 5779   3.683   0.619  11.533 -0.0938 -0.2672  0.8746
  386TMC3    O2 5780   3.879   0.465  10.983  0.3804 -1.2247 -0.0913
  387MPD2     C 5781   1.999   1.407   9.238  0.1924 -0.1384  0.0153
  387MPD2    C1 5782   1.962   1.366   9.358  0.2965  0.8023  0.3017
  387MPD2    C2 5783   1.991   1.233   9.392 -0.1419  0.5859  0.4905
  387MPD2    C3 5784   2.047   1.146   9.305  0.4859 -0.4702  0.8157
  387MPD2    C4 5785   2.090   1.196   9.181 -0.3437  0.3127  0.4246
  387MPD2    C5 5786   2.063   1.326   9.150  0.2604 -0.2027  0.1452
  387MPD2     H 5787   1.967   1.196   9.491 -0.9903  1.7982  0.7345
  387MPD2    H1 5788   2.152   1.140   9.111 -0.9867  0.9041 -0.6204
  387MPD2    H2 5789   1.982   1.511   9.213 -1.1950 -0.3456  0.0544
  387MPD2    H3 5790   2.099   1.361   9.053 -0.0028 -0.1478  0.0676
  387MPD2     N 5791   2.087   1.027   9.366  0.5981  0.1161  0.0737
  387MPD2    H5 5792   2.060   1.001   9.460 -0.7621  2.4632  0.3466
  387MPD2    N1 5793   1.908   1.444   9.462  0.6778 -0.0194  0.5349
  387MPD2    H7 5794   1.866   1.391   9.538  1.4690 -1.9219 -0.3578
  388TMC3    C1 5795   1.889   1.616   9.624  0.2209  0.5584  0.3174
  388TMC3    C2 5796   1.862   1.743   9.663 -0.2790 -0.3872  0.2995
  388TMC3    C3 5797   1.872   1.782   9.797 -0.7712  1.0196 -0.3748
  388TMC3    C4 5798   1.891   1.517   9.720  0.0257  1.0849 -0.1593
  388TMC3    C5 5799   1.881   1.552   9.852  0.7229 -0.9563  0.0733
  388TMC3    C6 5800   1.871   1.683   9.894  0.1130 -0.4917 -0.0116
  388TMC3     C 5801   1.930   1.577   9.486  0.1621 -0.2931 -0.0526
  388TMC3     O 5802   1.992   1.648   9.408  0.2880 -0.0666 -0.5307
  388TMC3     H 5803   1.859   1.815   9.581 -0.4918 -2.6668 -1.6976
  388TMC3    H1 5804   1.933   1.419   9.696 -0.7343  0.6938  0.1198
  388TMC3    H2 5805   1.877   1.716   9.996 -0.2568 -0.2113 -0.0809
  388TMC3    C7 5806   1.932   1.458   9.952  0.1897 -0.6310  0.3849
  388TMC3    C8 5807   1.836   1.917   9.837 -0.4646  0.0482  0.0581
  388TMC3    O1 5808   1.974   1.491  10.062 -0.3206  0.1586  0.3660
  388TMC3    O2 5809   1.805   1.938   9.954 -0.0054 -0.6060 -0.1658
  389MPD2     C 5810   1.331   4.338  11.064  0.3783  0.0273  0.0054
  389MPD2    C1 5811   1.226   4.278  10.998  0.4272 -0.4961 -0.1244
  389MPD2    C2 5812   1.140   4.197  11.070  0.6832 -0.0173  0.4128
  389MPD2    C3 5813   1.148   4.181  11.208  0.0682  0.3959  0.8288
  389MPD2    C4 5814   1.244   4.248  11.278 -0.2866  0.0593  0.4487
  389MPD2    C5 5815   1.334   4.324  11.201 -0.1481  0.6133 -0.2348
  389MPD2     H 5816   1.062   4.150  11.010  1.2477 -0.2172 -0.1665
  389MPD2    H1 5817   1.242   4.258  11.386 -0.8501  1.9810  0.2638
  389MPD2    H2 5818   1.412   4.397  11.024  1.8202 -1.2368  1.0530
  389MPD2    H3 5819   1.409   4.374  11.261 -2.2163  2.7361  0.5726
  389MPD2     N 5820   1.065   4.093  11.279 -0.1057  0.3171  0.3211
  389MPD2    H5 5821   1.065   4.109  11.379 -1.1471  3.6275 -0.2058
  389MPD2    N1 5822   1.217   4.288  10.857 -0.4316 -0.1131 -0.4818
  389MPD2    H7 5823   1.285   4.351  10.814  0.6247  0.3507  1.8715
  390TMC3    C1 5824   0.898   3.946  11.334 -0.0927  0.1718  0.0729
  390TMC3    C2 5825   0.892   3.808  11.342 -0.4834  0.1536  0.6012
  390TMC3    C3 5826   0.873   3.755  11.471 -0.4659  0.0445 -0.4609
  390TMC3    C4 5827   0.881   4.028  11.447  0.8177  0.2289  0.2784
  390TMC3    C5 5828   0.843   3.974  11.562  0.2413  0.3470  0.2622
  390TMC3    C6 5829   0.844   3.838  11.578  0.7350 -0.2376 -0.3446
  390TMC3     C 5830   0.978   4.001  11.232  0.2032  0.9171 -0.0732
  390TMC3     O 5831   0.988   3.940  11.124  0.4515 -0.2880  0.1984
  390TMC3     H 5832   0.900   3.745  11.254  0.2697  0.2546  0.6001
  390TMC3    H1 5833   0.876   4.137  11.448 -1.3678  0.1410 -1.0030
  390TMC3    H2 5834   0.839   3.804  11.680 -2.2712  2.3251  0.3411
  390TMC3    C7 5835   0.723   4.033  11.631  1.3273  0.5945 -0.4981
  390TMC3    C8 5836   0.795   3.631  11.471 -0.1705  0.2842  0.6958
  390TMC3    O1 5837   0.694   4.147  11.591  0.2957  0.3078  0.1819
  390TMC3    O2 5838   0.722   3.614  11.377 -0.8040  0.1963 -0.1309
  391MPD2     C 5839   0.123   0.358  11.019  0.0732 -0.5088  0.2305
  391MPD2    C1 5840   0.180   0.470  11.070 -0.0813  0.3879  0.0008
  391MPD2    C2 5841   0.234   0.567  10.985 -0.2465  0.0859  0.5027
  391MPD2    C3 5842   0.219   0.550  10.849 -0.0019 -1.1032  0.6747
  391MPD2    C4 5843   0.155   0.447  10.797 -0.8493  0.0532 -0.6113
  391MPD2    C5 5844   0.100   0.358  10.884 -0.2702  0.1488 -0.7633
  391MPD2     H 5845   0.295   0.649  11.022 -1.7964  1.0516  0.9135
  391MPD2    H1 5846   0.157   0.425  10.691  0.5951  2.1092 -1.0050
  391MPD2    H2 5847   0.073   0.285  11.080 -2.9163  0.7196 -0.7392
  391MPD2    H3 5848   0.037   0.277  10.848  1.1972 -1.9936  1.4570
  391MPD2     N 5849   0.292   0.641  10.766 -0.5663  0.1016  0.1225
  391MPD2    H5 5850   0.353   0.703  10.818 -0.0842  1.7421 -2.3776
  391MPD2    N1 5851   0.193   0.476  11.213  0.0694 -0.6783  0.3093
  391MPD2    H7 5852   0.159   0.396  11.264 -1.4638  0.6771  1.4210
  392TMC3    C1 5853   0.350   0.779  10.586  0.7272 -0.6170 -0.1652
  392TMC3    C2 5854   0.355   0.796  10.452 -0.0404 -0.5624  0.1948
  392TMC3    C3 5855   0.414   0.909  10.405 -0.0814 -0.0610 -0.0079
  392TMC3    C4 5856   0.418   0.868  10.666  0.1837  0.0292 -0.8498
  392TMC3    C5 5857   0.486   0.974  10.611 -0.1370 -0.3831  0.3450
  392TMC3    C6 5858   0.483   0.998  10.479  0.2132  0.7863  0.1996
  392TMC3     C 5859   0.260   0.679  10.636  0.2377 -0.6456  0.3375
  392TMC3     O 5860   0.182   0.623  10.559 -0.0322  0.0254  0.1591
  392TMC3     H 5861   0.294   0.730  10.392  1.7301 -3.3138  1.4249
  392TMC3    H1 5862   0.418   0.848  10.772 -0.7336 -1.8069 -1.1863
  392TMC3    H2 5863   0.547   1.075  10.438 -1.2205  2.4093  1.0091
  392TMC3    C7 5864   0.555   1.061  10.700 -0.9293  0.6894 -0.4779
  392TMC3    C8 5865   0.374   0.930  10.270  0.0695 -0.4525 -0.1601
  392TMC3    O1 5866   0.553   1.018  10.817 -0.4334  0.0161 -0.1981
  392TMC3    O2 5867   0.334   0.838  10.200 -0.4019  0.1969  0.1996
  393TMC3    C1 5868   3.795   3.151   9.662  0.2350 -0.3544 -0.6011
  393TMC3    C2 5869   3.665   3.094   9.672  0.1412  0.4561  0.0383
  393TMC3    C3 5870   3.656   2.985   9.761 -0.0408  0.4911 -0.3594
  393TMC3    C4 5871   3.902   3.103   9.732 -0.3938  0.0157  0.4161
  393TMC3    C5 5872   3.886   3.012   9.833  0.4932 -0.0213  0.1650
  393TMC3    C6 5873   3.760   2.954   9.846 -0.2498  0.0668  0.2598
  393TMC3     C 5874   3.825   3.263   9.581  0.1396  0.1575  0.4684
  393TMC3     O 5875   3.928   3.326   9.598  0.1411 -0.1611 -0.4720
  393TMC3     H 5876   3.577   3.119   9.614  0.0211 -0.4094 -0.1523
  393TMC3    H1 5877   4.003   3.139   9.714 -0.4639  0.1304  0.2535
  393TMC3    H2 5878   3.754   2.865   9.907  0.1629 -0.1711 -0.0514
  393TMC3    C7 5879   3.996   2.922   9.860 -0.1393  0.5117  0.8889
  393TMC3    C8 5880   3.531   2.915   9.767 -0.3222  0.3952 -0.2466
  393TMC3    O1 5881   3.970   2.804   9.853  0.1423 -0.5992  0.6300
  393TMC3    O2 5882   3.457   2.912   9.668 -0.6002  0.1988 -0.0406
  394TMC3    C1 5883   1.143   4.255  10.630 -0.2221 -0.3442  0.6440
  394TMC3    C2 5884   1.032   4.245  10.550 -0.1282 -0.0491  0.0731
  394TMC3    C3 5885   1.044   4.302  10.422 -0.0794  0.2575 -0.4632
  394TMC3    C4 5886   1.256   4.314  10.581  0.1292  0.4817  0.2149
  394TMC3    C5 5887   1.260   4.371  10.454 -0.3079 -0.9972 -0.2629
  394TMC3    C6 5888   1.160   4.361  10.368 -0.4385 -0.2416 -0.1245
  394TMC3     C 5889   1.116   4.237  10.772  0.1719  0.2839  0.5878
  394TMC3     O 5890   1.003   4.191  10.803 -0.0917 -0.0277 -0.4428
  394TMC3     H 5891   0.941   4.197  10.583  0.1374 -0.8929 -0.4273
  394TMC3    H1 5892   1.342   4.330  10.646  0.3453 -0.4478  0.1657
  394TMC3    H2 5893   1.154   4.414  10.274  1.1550 -0.8765 -0.5914
  394TMC3    C7 5894   1.396   4.370  10.407 -0.0067 -0.2662 -0.1763
  394TMC3    C8 5895   0.934   4.294  10.326  0.5579 -0.4693  0.0638
  394TMC3    O1 5896   1.487   4.384  10.492  0.4823  0.2036 -0.0319
  394TMC3    O2 5897   0.901   4.391  10.261 -0.0697  0.1031 -0.2361
  395TMC3    C1 5898   0.857   1.452  14.712 -0.2822  0.8311 -0.0099
  395TMC3    C2 5899   0.843   1.422  14.578  0.4219 -0.0398  0.2612
  395TMC3    C3 5900   0.906   1.502  14.486  0.0381  0.2979  0.6683
  395TMC3    C4 5901   0.942   1.554  14.756  0.0715 -0.5661  0.3767
  395TMC3    C5 5902   1.005   1.626  14.664 -0.4646 -0.0708  0.0316
  395TMC3    C6 5903   0.988   1.602  14.528 -0.0850  0.1155  0.3119
  395TMC3     C 5904   0.759   1.402  14.808 -0.3630  0.1277  0.1075
  395TMC3     O 5905   0.758   1.447  14.920 -0.7080  0.0138  0.2177
  395TMC3     H 5906   0.783   1.343  14.536  0.6623  0.5528 -1.1902
  395TMC3    H1 5907   0.946   1.584  14.861 -0.9680  2.9323 -0.5820
  395TMC3    H2 5908   1.029   1.662  14.448 -1.3405 -0.2819 -0.6419
  395TMC3    C7 5909   1.095   1.734  14.697  0.7615 -0.1987  0.9579
  395TMC3    C8 5910   0.875   1.486  14.342 -0.0658 -0.2844 -0.7492
  395TMC3    O1 5911   1.074   1.797  14.802 -0.3441 -0.0875 -0.3596
  395TMC3    O2 5912   0.905   1.578  14.266  0.1029 -0.0717 -0.3280
  396MPD2     C 5913   0.426   2.587  17.379  0.3527 -0.3539  0.3126
  396MPD2    C1 5914   0.532   2.579  17.293  0.5263  0.1241 -0.3786
  396MPD2    C2 5915   0.559   2.690  17.211 -0.0976 -1.3437 -0.3531
  396MPD2    C3 5916   0.469   2.799  17.210  0.0969  0.5527  0.0292
  396MPD2    C4 5917   0.366   2.804  17.307  0.1606  0.1800  0.1942
  396MPD2    C5 5918   0.345   2.699  17.387 -0.9521 -0.6068 -1.1099
  396MPD2     H 5919   0.644   2.681  17.145  0.8138 -4.2733  1.2081
  396MPD2    H1 5920   0.310   2.896  17.317 -0.0177  0.4264 -3.1635
  396MPD2    H2 5921   0.401   2.510  17.451 -0.9896 -0.2842 -0.0746
  396MPD2    H3 5922   0.267   2.697  17.462 -2.5510 -0.9386 -2.7974
  396MPD2     N 5923   0.500   2.906  17.126  0.6285 -0.5601 -0.6346
  396MPD2    H5 5924   0.584   2.893  17.071  0.6019  1.7533 -1.2396
  396MPD2    N1 5925   0.601   2.453  17.284 -0.4418  0.4738  0.0787
  396MPD2    H7 5926   0.553   2.380  17.335 -1.6221  0.9358 -0.3635
  397TMC3    C1 5927   0.752   2.290  17.227  0.0013  0.9045  0.6619
  397TMC3    C2 5928   0.751   2.237  17.105 -0.5230 -0.7941 -0.2322
  397TMC3    C3 5929   0.663   2.138  17.072  0.4838  0.2135 -0.4811
  397TMC3    C4 5930   0.681   2.219  17.325  0.0885 -0.1115  0.0850
  397TMC3    C5 5931   0.621   2.096  17.300 -0.6745 -0.4314 -0.5968
  397TMC3    C6 5932   0.605   2.060  17.173  0.7151 -0.1942 -0.8690
  397TMC3     C 5933   0.716   2.426  17.214 -0.0703 -0.1292 -0.5143
  397TMC3     O 5934   0.785   2.490  17.137  0.1389 -0.1720  0.5553
  397TMC3     H 5935   0.800   2.293  17.026  1.6927 -0.6021  1.2986
  397TMC3    H1 5936   0.667   2.261  17.424 -1.9096  3.0651 -1.5353
  397TMC3    H2 5937   0.560   1.964  17.150  0.4692 -0.3031  0.0962
  397TMC3    C7 5938   0.595   2.003  17.407  0.1644 -0.4553  0.3052
  397TMC3    C8 5939   0.607   2.151  16.941 -0.2637  0.3266 -0.1389
  397TMC3    O1 5940   0.535   1.899  17.380 -0.1606 -0.4958  0.1643
  397TMC3    O2 5941   0.614   2.257  16.889  0.4425  0.1866 -0.4532
  398MPD2     C 5942   3.008   3.577   0.256  0.6427  1.4019 -0.2381
  398MPD2    C1 5943   3.104   3.491   0.301  0.3669 -0.3550  0.2209
  398MPD2    C2 5944   3.182   3.531   0.409 -0.3630  0.3575  0.0747
  398MPD2    C3 5945   3.140   3.640   0.485  0.5567 -0.2576 -0.6674
  398MPD2    C4 5946   3.041   3.726   0.445  0.3080  0.2531 -0.2047
  398MPD2    C5 5947   2.982   3.692   0.325 -0.3548 -0.4959  0.0647
  398MPD2     H 5948   3.259   3.459   0.436 -1.1370 -0.3063  0.5254
  398MPD2    H1 5949   3.008   3.803   0.513 -1.4135  0.2923 -1.0676
  398MPD2    H2 5950   2.952   3.568   0.164  0.2620  2.6957 -0.1363
  398MPD2    H3 5951   2.904   3.754   0.281  1.1891  0.2216 -1.6517
  398MPD2     N 5952   3.213   3.665   0.604 -0.2906 -0.0275  0.3590
  398MPD2    H5 5953   3.261   3.595   0.660 -0.7343  1.4548  2.6032
  398MPD2    N1 5954   3.142   3.382   0.219 -0.2336  0.8408  0.2330
  398MPD2    H7 5955   3.231   3.344   0.252 -0.5400  2.5638  3.0646
  399TMC3    C1 5956   3.164   3.217   0.050  0.0718 -0.0734  0.2525
  399TMC3    C2 5957   3.298   3.203   0.089 -0.3851 -0.0705 -0.1601
  399TMC3    C3 5958   3.369   3.104   0.029 -0.0229 -0.6411  0.1914
  399TMC3    C4 5959   3.099   3.131  17.662  0.3042 -0.5306  0.4644
  399TMC3    C5 5960   3.176   3.037  17.604  0.1976  0.6684 -0.6812
  399TMC3    C6 5961   3.307   3.014  17.634 -0.8587  0.3689  0.0882
  399TMC3     C 5962   3.086   3.332   0.107  0.9933  0.9147  0.0487
  399TMC3     O 5963   2.995   3.381   0.042  0.4991 -0.3200  0.6950
  399TMC3     H 5964   3.347   3.266   0.163 -2.1495  0.4771  0.5357
  399TMC3    H1 5965   2.997   3.147  17.631  0.0279  0.3102  1.7590
  399TMC3    H2 5966   3.376   2.950  17.580 -0.4239 -0.3121  1.4398
  399TMC3    C7 5967   3.099   2.939  17.530 -0.1422  0.5560  0.3836
  399TMC3    C8 5968   3.513   3.101   0.049 -0.1266  0.0840  0.5799
  399TMC3    O1 5969   2.980   2.935  17.562  0.0952 -0.0102 -0.0359
  399TMC3    O2 5970   3.550   3.197   0.113  0.0223  0.2465  0.1022
  400TMC3    C1 5971   2.180   2.158  16.928  1.1999  0.4331 -0.1384
  400TMC3    C2 5972   2.069   2.199  16.859 -0.2372 -0.3493 -0.5862
  400TMC3    C3 5973   2.040   2.335  16.866  0.6860 -0.5350 -0.3088
  400TMC3    C4 5974   2.261   2.246  17.000 -0.4407  0.3227  0.0920
  400TMC3    C5 5975   2.218   2.374  17.016 -0.1496 -0.5918  0.0339
  400TMC3    C6 5976   2.108   2.418  16.951 -0.3862 -0.9349  1.0296
  400TMC3     C 5977   2.223   2.025  16.906  0.5061  0.1072 -0.4203
  400TMC3     O 5978   2.140   1.944  16.869  0.1711  0.4077  0.0151
  400TMC3     H 5979   2.007   2.129  16.805 -0.2865  0.7257 -1.9314
  400TMC3    H1 5980   2.341   2.206  17.061 -1.3628  0.4486  1.3714
  400TMC3    H2 5981   2.076   2.522  16.959 -2.0787 -1.4302  0.7090
  400TMC3    C7 5982   2.294   2.457  17.102 -0.1970  0.2761  0.3278
  400TMC3    C8 5983   1.948   2.397  16.776 -0.7126 -0.0642 -0.3821
  400TMC3    O1 5984   2.343   2.405  17.199 -0.4808 -0.3848 -0.3873
  400TMC3    O2 5985   1.936   2.519  16.781  0.3713  0.2228  0.2366
  401MPD2     C 5986   0.551   1.170   1.480 -0.6589  0.0005 -0.6173
  401MPD2    C1 5987   0.666   1.151   1.406 -0.2442  0.3367  0.7562
  401MPD2    C2 5988   0.689   1.024   1.353  0.1882  0.4549 -0.3339
  401MPD2    C3 5989   0.594   0.925   1.368 -0.1623 -0.1883  0.2371
  401MPD2    C4 5990   0.480   0.954   1.435 -0.0162 -0.1724  0.4189
  401MPD2    C5 5991   0.452   1.075   1.494  0.0837 -0.1606  0.4792
  401MPD2     H 5992   0.787   0.997   1.313  0.2367 -0.7061  0.5705
  401MPD2    H1 5993   0.408   0.875   1.454  1.6749 -1.8844 -0.2677
  401MPD2    H2 5994   0.534   1.263   1.533  2.1250  0.1977 -0.0969
  401MPD2    H3 5995   0.363   1.095   1.552 -0.9719 -3.2786 -0.0686
  401MPD2     N 5996   0.623   0.799   1.311 -0.2477 -0.7075 -0.2223
  401MPD2    H5 5997   0.709   0.798   1.257  0.8405  0.2811  1.4903
  401MPD2    N1 5998   0.771   1.243   1.399  0.0098 -0.3231  0.2949
  401MPD2    H7 5999   0.843   1.223   1.329  0.3730  0.6375  0.3868
  402TMC3    C1 6000   0.591   0.582   1.219  1.3156  0.1498 -0.4640
  402TMC3    C2 6001   0.570   0.448   1.253 -0.0325  0.2533 -0.1551
  402TMC3    C3 6002   0.610   0.356   1.158  0.1158  0.4378 -0.7711
  402TMC3    C4 6003   0.662   0.621   1.106 -0.2890 -0.1030  0.0228
  402TMC3    C5 6004   0.703   0.529   1.017  0.0647 -0.0492  0.6006
  402TMC3    C6 6005   0.672   0.394   1.037 -0.4758  0.2466 -0.0293
  402TMC3     C 6006   0.547   0.684   1.312 -0.1999 -0.4231 -0.3872
  402TMC3     O 6007   0.452   0.661   1.383  0.6231 -0.0755 -0.5281
  402TMC3     H 6008   0.518   0.415   1.342 -0.6557  2.0085  0.1510
  402TMC3    H1 6009   0.681   0.726   1.087  1.2879 -0.6416 -1.4089
  402TMC3    H2 6010   0.689   0.316   0.964 -1.5521  1.6887 -1.8205
  402TMC3    C7 6011   0.777   0.579   0.906  0.6040  0.2636  1.4249
  402TMC3    C8 6012   0.606   0.212   1.180  0.0036 -0.0976 -0.5392
  402TMC3    O1 6013   0.821   0.695   0.921  0.1802  0.3356  0.2373
  402TMC3    O2 6014   0.673   0.145   1.102 -0.2370  0.6908 -0.3811
  403MPD2     C 6015   3.626   2.998  13.116 -0.6432  0.2446 -0.0727
  403MPD2    C1 6016   3.697   2.978  13.241  0.6499  0.7914  0.8741
  403MPD2    C2 6017   3.804   3.055  13.280 -0.1470 -0.6384  0.0124
  403MPD2    C3 6018   3.851   3.148  13.189 -0.6365  0.0414 -0.4895
  403MPD2    C4 6019   3.776   3.172  13.073  0.4511 -0.5854 -0.2972
  403MPD2    C5 6020   3.672   3.095  13.035 -0.6766  0.6946  0.3043
  403MPD2     H 6021   3.850   3.043  13.377 -0.6889 -1.0486  0.2184
  403MPD2    H1 6022   3.792   3.260  13.013 -1.1366 -0.4811 -0.5565
  403MPD2    H2 6023   3.537   2.941  13.091  0.6405 -0.7168 -2.4099
  403MPD2    H3 6024   3.616   3.113  12.944  1.9805  0.1551 -1.4356
  403MPD2     N 6025   3.955   3.232  13.233 -0.0800 -0.1604  0.5843
  403MPD2    H5 6026   4.006   3.191  13.311  1.2298  1.6538  0.6862
  403MPD2    N1 6027   3.647   2.871  13.316  1.0957 -0.6739  0.4842
  403MPD2    H7 6028   3.600   2.804  13.256  1.3040  0.4230 -0.8769
  404TMC3    C1 6029   3.633   2.705  13.493  0.4738  1.0051  0.5187
  404TMC3    C2 6030   3.670   2.678  13.621  0.4304 -0.0187  0.6520
  404TMC3    C3 6031   3.590   2.588  13.684  0.1765 -0.1622  0.1417
  404TMC3    C4 6032   3.534   2.636  13.430 -0.4056  0.6446 -0.4888
  404TMC3    C5 6033   3.466   2.538  13.499 -0.0427  0.1319 -0.2044
  404TMC3    C6 6034   3.493   2.507  13.627 -0.5852 -0.4987 -0.0588
  404TMC3     C 6035   3.686   2.835  13.447 -0.2085 -0.3794 -0.0381
  404TMC3     O 6036   3.738   2.910  13.529  0.3971 -0.3113 -0.5170
  404TMC3     H 6037   3.743   2.740  13.671  0.8929 -0.3413  0.3814
  404TMC3    H1 6038   3.512   2.653  13.326 -2.2970  0.3454 -0.1467
  404TMC3    H2 6039   3.434   2.431  13.675  1.2786 -0.7554  1.7916
  404TMC3    C7 6040   3.389   2.438  13.426  0.1616  0.8318  0.3669
  404TMC3    C8 6041   3.597   2.583  13.827 -0.3058  0.1404 -0.3790
  404TMC3    O1 6042   3.366   2.331  13.485 -0.2022  0.3464 -0.1587
  404TMC3    O2 6043   3.710   2.566  13.875  0.0232 -0.1830 -0.1502
  405MPD2     C 6044   3.331   3.261  13.898 -0.0537 -0.4638  0.2835
  405MPD2    C1 6045   3.414   3.348  13.841 -0.0196 -0.3576  0.7490
  405MPD2    C2 6046   3.411   3.479  13.888  0.3474  0.9689 -0.8849
  405MPD2    C3 6047   3.316   3.519  13.983 -0.6945  0.5700  0.2023
  405MPD2    C4 6048   3.226   3.428  14.034 -0.1870 -0.0467 -0.1225
  405MPD2    C5 6049   3.239   3.296  13.994  0.0325 -0.0898  0.1373
  405MPD2     H 6050   3.473   3.556  13.843  1.3884  0.9372  0.5067
  405MPD2    H1 6051   3.142   3.456  14.096 -1.6344 -2.7459 -0.8586
  405MPD2    H2 6052   3.318   3.157  13.871 -0.4448  0.0495 -1.4627
  405MPD2    H3 6053   3.168   3.220  14.026  0.3180 -0.2111  0.4854
  405MPD2     N 6054   3.309   3.662  14.003  0.0519 -0.5592 -0.0738
  405MPD2    H5 6055   3.390   3.712  13.968 -0.9429  0.3626 -1.0650
  405MPD2    N1 6056   3.495   3.296  13.733  0.1655 -0.2821 -0.1182
  405MPD2    H7 6057   3.470   3.208  13.689 -1.3623  0.4362 -0.6893
  406TMC3    C1 6058   3.166   4.094  14.091  0.7424  0.2180 -0.6328
  406TMC3    C2 6059   3.273   4.151  14.032 -0.4870  0.1247  0.2667
  406TMC3    C3 6060   3.369   4.063  13.991 -0.1836 -0.6924 -0.1546
  406TMC3    C4 6061   3.146   3.964  14.127  0.2859  0.0622  0.2496
  406TMC3    C5 6062   3.233   3.878  14.070 -0.7663  0.7147  0.3763
  406TMC3    C6 6063   3.344   3.928  14.014 -0.0534  0.5661 -0.0379
  406TMC3     C 6064   3.056   4.190  14.106  0.1165 -0.3576 -0.1184
  406TMC3     O 6065   3.057   4.290  14.036  0.1700 -0.3441  0.6272
  406TMC3     H 6066   3.298   4.255  14.018 -1.5096  0.5395  1.5707
  406TMC3    H1 6067   3.056   3.922  14.169  0.0238 -0.1703 -0.5478
  406TMC3    H2 6068   3.434   3.867  14.016 -0.5363 -0.1862 -1.2850
  406TMC3    C7 6069   3.212   3.734  14.066 -0.2918  0.0246  0.5667
  406TMC3    C8 6070   3.443   4.095  13.867  0.4478  0.2394  0.1062
  406TMC3    O1 6071   3.115   3.698  14.134 -0.2657  0.6513 -0.3810
  406TMC3    O2 6072   3.424   4.207  13.823 -0.4469  1.0470  0.1487
  407MPD2     C 6073   1.611   0.671   9.271  0.4182  0.4290  0.8164
  407MPD2    C1 6074   1.736   0.633   9.313  0.3118 -0.2522  0.7939
  407MPD2    C2 6075   1.766   0.634   9.447 -0.5263 -0.0152  0.1876
  407MPD2    C3 6076   1.665   0.684   9.540 -0.8860 -0.0667 -0.4546
  407MPD2    C4 6077   1.534   0.686   9.498 -0.0688  0.5929  0.5254
  407MPD2    C5 6078   1.513   0.678   9.363  0.0730 -0.0481 -0.0654
  407MPD2     H 6079   1.868   0.614   9.480  0.7602  1.1575 -3.0979
  407MPD2    H1 6080   1.452   0.718   9.562  1.7674  0.2257  3.0698
  407MPD2    H2 6081   1.588   0.674   9.165 -1.7970  0.4795  1.3035
  407MPD2    H3 6082   1.412   0.692   9.324  0.0375 -1.9532 -0.6630
  407MPD2     N 6083   1.687   0.713   9.680 -0.7824 -0.2661 -0.0674
  407MPD2    H5 6084   1.611   0.743   9.740  1.1989  2.5160  1.0517
  407MPD2    N1 6085   1.828   0.593   9.220 -0.1954 -0.5227  0.0084
  407MPD2    H7 6086   1.904   0.544   9.266 -1.6773 -1.4932  1.4446
  408TMC3    C1 6087   1.958   0.565   9.020 -0.3502 -0.7038  0.0646
  408TMC3    C2 6088   2.007   0.446   9.063 -0.1109 -0.5475 -0.0196
  408TMC3    C3 6089   2.124   0.420   9.007 -0.2082  0.5080  0.1421
  408TMC3    C4 6090   1.998   0.641   8.909  0.2572 -0.3451  0.7514
  408TMC3    C5 6091   2.124   0.607   8.865  0.0263  0.3371  0.2106
  408TMC3    C6 6092   2.190   0.502   8.916 -0.0115  0.6600  0.0161
  408TMC3     C 6093   1.832   0.613   9.084 -0.1677 -0.1497  0.4536
  408TMC3     O 6094   1.765   0.690   9.019  0.2206 -0.1671  0.8949
  408TMC3     H 6095   1.966   0.387   9.145 -0.6526 -2.1224 -1.4307
  408TMC3    H1 6096   1.950   0.734   8.881  0.4799 -0.2438  0.7129
  408TMC3    H2 6097   2.281   0.464   8.872 -0.7235 -1.1957  0.1484
  408TMC3    C7 6098   2.205   0.707   8.792 -0.9863  0.2213  0.6637
  408TMC3    C8 6099   2.209   0.341   9.099 -1.0572 -0.2411 -0.1148
  408TMC3    O1 6100   2.325   0.701   8.809 -0.2133 -0.5390  0.3912
  408TMC3    O2 6101   2.176   0.231   9.134 -0.6182  0.4958 -0.5437
  409MPD2     C 6102   0.754   1.735  17.092  0.5401  0.2883 -0.5495
  409MPD2    C1 6103   0.867   1.778  17.150  0.6347  0.0173 -0.0909
  409MPD2    C2 6104   0.958   1.850  17.071  0.5186 -0.4491  0.5416
  409MPD2    C3 6105   0.936   1.876  16.933 -0.0154  0.3023 -0.0574
  409MPD2    C4 6106   0.805   1.851  16.889 -0.1455  0.1136  0.5265
  409MPD2    C5 6107   0.730   1.764  16.967 -0.6304  0.8405  0.3006
  409MPD2     H 6108   1.052   1.863  17.125  1.5016 -0.8206 -1.0757
  409MPD2    H1 6109   0.769   1.867  16.788 -0.2717 -0.5834  0.4569
  409MPD2    H2 6110   0.690   1.671  17.150  3.0092 -1.5168  0.2085
  409MPD2    H3 6111   0.633   1.744  16.923 -0.5323 -0.6641  0.7704
  409MPD2     N 6112   1.030   1.950  16.852 -0.4806  0.2770 -0.3566
  409MPD2    H5 6113   0.994   1.975  16.761 -0.7245 -1.0288 -0.6234
  409MPD2    N1 6114   0.912   1.746  17.278 -0.8519  0.0061 -0.2038
  409MPD2    H7 6115   1.001   1.777  17.315 -0.8406  1.0598 -1.1114
  410TMC3    C1 6116   1.229   2.069  16.809  0.1448  0.0506  0.0519
  410TMC3    C2 6117   1.353   2.097  16.847  0.0551  0.5511 -0.1858
  410TMC3    C3 6118   1.408   2.220  16.805 -0.0611 -0.4312  0.3021
  410TMC3    C4 6119   1.167   2.144  16.713 -0.8784  0.6588 -0.3755
  410TMC3    C5 6120   1.223   2.259  16.673  0.2965  0.4094  0.3482
  410TMC3    C6 6121   1.343   2.308  16.724  0.2082 -0.0007 -0.7952
  410TMC3     C 6122   1.151   1.985  16.898 -0.2199 -0.2948  0.2917
  410TMC3     O 6123   1.212   1.944  16.990  0.0751  0.0170 -0.0757
  410TMC3     H 6124   1.404   2.033  16.918  1.5235  0.1950 -1.5801
  410TMC3    H1 6125   1.068   2.118  16.676 -0.6801  1.9165 -1.8123
  410TMC3    H2 6126   1.406   2.383  16.678  1.0039  0.4865  1.0844
  410TMC3    C7 6127   1.155   2.329  16.567 -0.4063  0.4204 -0.5813
  410TMC3    C8 6128   1.535   2.266  16.862 -0.0219 -0.4836 -0.8904
  410TMC3    O1 6129   1.054   2.273  16.517 -0.2878  0.0975  0.2506
  410TMC3    O2 6130   1.530   2.380  16.907  0.3635 -0.7972  0.1238
  411MPD2     C 6131   1.410   2.749  14.606 -0.5390  0.1406 -0.1434
  411MPD2    C1 6132   1.284   2.715  14.652  0.6247  0.1400  0.1524
  411MPD2    C2 6133   1.221   2.596  14.621  0.1111  0.9823 -0.3481
  411MPD2    C3 6134   1.291   2.498  14.554  0.5665 -0.6216 -0.1294
  411MPD2    C4 6135   1.424   2.527  14.524  0.1383 -0.7921  0.3608
  411MPD2    C5 6136   1.481   2.650  14.545  0.2344 -0.2498  0.0088
  411MPD2     H 6137   1.116   2.588  14.645 -0.3441  0.2352 -2.6198
  411MPD2    H1 6138   1.495   2.449  14.497  0.9528  1.1852 -3.1217
  411MPD2    H2 6139   1.438   2.852  14.620 -1.7497  0.5360 -0.5949
  411MPD2    H3 6140   1.576   2.670  14.497 -0.0055 -0.2469 -0.4574
  411MPD2     N 6141   1.245   2.376  14.508  0.7023  0.2870 -0.2167
  411MPD2    H5 6142   1.307   2.311  14.461  0.8086  0.5684 -0.4670
  411MPD2    N1 6143   1.220   2.815  14.729  0.3738 -0.2670 -0.2154
  411MPD2    H7 6144   1.246   2.909  14.701 -1.4188  0.5906  0.9803
  412TMC3    C1 6145   1.085   2.205  14.481 -0.6808  0.4721  0.9511
  412TMC3    C2 6146   0.964   2.150  14.528 -0.7417  0.4943  0.4076
  412TMC3    C3 6147   0.909   2.043  14.463 -0.2302 -0.6474  0.2223
  412TMC3    C4 6148   1.132   2.167  14.355  0.3985  0.3149 -1.0546
  412TMC3    C5 6149   1.062   2.061  14.293 -0.0782 -0.1751  0.2553
  412TMC3    C6 6150   0.954   2.003  14.340  0.4955 -0.3052 -0.4365
  412TMC3     C 6151   1.109   2.341  14.515 -0.1156  0.4055  0.5670
  412TMC3     O 6152   1.020   2.406  14.568 -0.4160 -0.0758  0.1646
  412TMC3     H 6153   0.915   2.195  14.613  1.7586  0.1716  2.0043
  412TMC3    H1 6154   1.223   2.204  14.310  0.5428 -2.4090 -2.9299
  412TMC3    H2 6155   0.902   1.926  14.285  0.6696 -0.3126 -0.5926
  412TMC3    C7 6156   1.078   2.051  14.151 -0.2517 -0.0400  0.2651
  412TMC3    C8 6157   0.808   1.974  14.544 -0.6679 -0.5626  0.0665
  412TMC3    O1 6158   0.986   2.007  14.083  0.3153  0.2688 -0.1083
  412TMC3    O2 6159   0.813   2.003  14.665 -0.0951 -0.3351  0.2853
  413MPD2     C 6160   2.487   1.042  15.503  0.1057  0.0499 -0.6848
  413MPD2    C1 6161   2.447   0.975  15.390 -0.4538 -0.5711  0.5309
  413MPD2    C2 6162   2.542   0.895  15.324 -0.0517  0.8206 -0.4364
  413MPD2    C3 6163   2.671   0.889  15.364  0.6027  0.7327  0.2444
  413MPD2    C4 6164   2.702   0.957  15.486 -0.2323  0.0838 -0.3904
  413MPD2    C5 6165   2.610   1.027  15.553 -0.3027 -0.4192  0.4822
  413MPD2     H 6166   2.509   0.828  15.246 -0.5290  0.0783  0.4030
  413MPD2    H1 6167   2.801   0.946  15.531  0.7575 -0.5152 -2.7214
  413MPD2    H2 6168   2.419   1.104  15.561  1.7967 -1.7691  3.2676
  413MPD2    H3 6169   2.639   1.072  15.647  1.2204 -1.9301  0.7389
  413MPD2     N 6170   2.774   0.813  15.303  0.5749 -0.2050 -0.6685
  413MPD2    H5 6171   2.744   0.782  15.211  2.3019 -2.3287 -0.5412
  413MPD2    N1 6172   2.317   0.986  15.345  0.3528  0.3274  0.8011
  413MPD2    H7 6173   2.261   1.049  15.402 -1.2629  1.7425 -2.3756
  414TMC3    C1 6174   2.959   0.681  15.260  0.2036 -0.5411 -0.2090
  414TMC3    C2 6175   3.013   0.568  15.325  0.0328 -0.0726  0.3098
  414TMC3    C3 6176   3.034   0.453  15.245  0.0046  0.0189  0.4141
  414TMC3    C4 6177   2.927   0.687  15.125  1.0386 -0.4601 -0.6799
  414TMC3    C5 6178   2.959   0.568  15.055  0.1143 -0.7327 -0.1819
  414TMC3    C6 6179   2.996   0.454  15.117  0.2316  0.5578  0.0035
  414TMC3     C 6180   2.895   0.775  15.353  0.2503 -0.6880 -0.5445
  414TMC3     O 6181   2.955   0.803  15.461 -0.5564 -0.2367 -0.1037
  414TMC3     H 6182   3.037   0.570  15.431 -0.2799 -0.2334  0.3836
  414TMC3    H1 6183   2.888   0.778  15.081 -1.9106 -1.4757 -0.2255
  414TMC3    H2 6184   3.008   0.366  15.054 -1.4129  0.0219  0.4485
  414TMC3    C7 6185   2.895   0.552  14.923  0.2933  1.3216 -0.0596
  414TMC3    C8 6186   3.122   0.343  15.293  0.0759 -0.2432  0.5804
  414TMC3    O1 6187   2.799   0.622  14.906 -0.1276 -0.0993  0.3914
  414TMC3    O2 6188   3.159   0.258  15.212  0.4397 -0.1125  0.4877
  415TMC3    C1 6189   3.655   2.441   9.833 -0.6535  0.2445 -0.5617
  415TMC3    C2 6190   3.692   2.529   9.735 -0.0187  0.1148  0.3005
  415TMC3    C3 6191   3.641   2.508   9.604 -0.3182 -0.4211 -0.0819
  415TMC3    C4 6192   3.572   2.337   9.801 -0.0242  0.0555  0.4419
  415TMC3    C5 6193   3.526   2.319   9.677 -0.4262 -0.5095  0.6745
  415TMC3    C6 6194   3.563   2.398   9.574 -0.7534 -0.7515  0.1992
  415TMC3     C 6195   3.700   2.453   9.971  0.2572 -0.3715 -0.3748
  415TMC3     O 6196   3.657   2.374  10.055 -0.2153 -0.5878  0.3774
  415TMC3     H 6197   3.765   2.608   9.750  0.9062 -0.8338  0.7333
  415TMC3    H1 6198   3.540   2.267   9.878  0.3484  1.0159  1.4698
  415TMC3    H2 6199   3.533   2.377   9.472 -3.0605 -0.2125  0.7504
  415TMC3    C7 6200   3.402   2.235   9.655 -0.2774 -0.8004 -0.1801
  415TMC3    C8 6201   3.646   2.605   9.495  1.1194 -0.1016  0.1870
  415TMC3    O1 6202   3.365   2.227   9.538 -0.5270  0.3931  0.2046
  415TMC3    O2 6203   3.578   2.589   9.396 -0.4911  0.3746 -0.2108
  416MPD2     C 6204   0.581   2.563  11.061 -0.2891 -0.2087 -0.0994
  416MPD2    C1 6205   0.547   2.485  11.172 -0.0326 -0.4893  0.0295
  416MPD2    C2 6206   0.571   2.349  11.172 -0.9686 -0.8778 -0.1376
  416MPD2    C3 6207   0.643   2.289  11.064  0.0238  0.1354  0.1135
  416MPD2    C4 6208   0.683   2.369  10.963 -0.0076  0.0277 -0.2442
  416MPD2    C5 6209   0.633   2.498  10.957  0.3139 -0.4314 -0.4171
  416MPD2     H 6210   0.531   2.287  11.252  0.2471  0.9372  1.8781
  416MPD2    H1 6211   0.712   2.322  10.869  0.8616  1.5461 -0.7259
  416MPD2    H2 6212   0.567   2.670  11.051 -0.4436 -0.2717 -0.5876
  416MPD2    H3 6213   0.642   2.556  10.866 -1.7395  0.7807  0.1576
  416MPD2     N 6214   0.661   2.151  11.047  0.1458 -0.0734  0.0706
  416MPD2    H5 6215   0.701   2.119  10.959  2.4196 -0.1654  1.1509
  416MPD2    N1 6216   0.482   2.558  11.278 -0.1690 -0.6207  0.1018
  416MPD2    H7 6217   0.451   2.654  11.267  1.8345  0.1542  1.0947
  417TMC3    C1 6218   0.378   2.582  11.480  0.7121  0.5546  0.3069
  417TMC3    C2 6219   0.391   2.568  11.615  0.5556 -0.2703  0.1893
  417TMC3    C3 6220   0.282   2.594  11.692 -0.2353 -0.3085 -0.4720
  417TMC3    C4 6221   0.260   2.642  11.432  0.7853 -0.1573  0.3232
  417TMC3    C5 6222   0.156   2.665  11.515  0.7590 -0.7445  0.5723
  417TMC3    C6 6223   0.156   2.626  11.648  0.4884  0.0723  0.3108
  417TMC3     C 6224   0.454   2.499  11.395 -0.0597  1.6034  0.3252
  417TMC3     O 6225   0.504   2.400  11.446  0.3391 -0.1248 -0.2115
  417TMC3     H 6226   0.477   2.512  11.650 -0.0001 -0.5444  1.1072
  417TMC3    H1 6227   0.252   2.654  11.325  0.5795 -4.5291 -0.1431
  417TMC3    H2 6228   0.082   2.662  11.719  0.0768 -0.3897  0.1161
  417TMC3    C7 6229   0.054   2.737  11.449  0.5120 -0.8047  0.7914
  417TMC3    C8 6230   0.289   2.537  11.831  1.0766 -0.1856  0.3639
  417TMC3    O1 6231   0.077   2.824  11.363  0.0410  0.0165 -0.0453
  417TMC3    O2 6232   0.384   2.572  11.897  0.5338 -0.0799 -0.4219
  418TMC3    C1 6233   3.470   3.859   0.902 -0.3597 -0.6625  0.0151
  418TMC3    C2 6234   3.360   3.886   0.821  0.1566  0.3198  0.2327
  418TMC3    C3 6235   3.273   3.785   0.790 -0.2587  0.1602  0.4348
  418TMC3    C4 6236   3.489   3.734   0.959  0.0629  0.2986 -0.0560
  418TMC3    C5 6237   3.398   3.637   0.923  0.2652 -0.3843 -0.1221
  418TMC3    C6 6238   3.290   3.662   0.842 -0.5821 -0.4065  0.6804
  418TMC3     C 6239   3.587   3.942   0.895  0.2562 -0.3600 -0.3047
  418TMC3     O 6240   3.639   3.984   0.997 -0.5983  0.0028 -0.1331
  418TMC3     H 6241   3.366   3.970   0.753 -0.3773  0.9881  1.0248
  418TMC3    H1 6242   3.577   3.721   1.021  0.2801  3.3471  0.2973
  418TMC3    H2 6243   3.227   3.577   0.818  0.8329 -0.6138 -2.2135
  418TMC3    C7 6244   3.427   3.502   0.956  0.3498 -0.1852 -0.2283
  418TMC3    C8 6245   3.202   3.788   0.666  0.7253  0.5475  0.2890
  418TMC3    O1 6246   3.371   3.414   0.889 -0.1269  0.7793 -0.3262
  418TMC3    O2 6247   3.175   3.903   0.625 -0.1368 -1.0874  0.0312
  419MPD2     C 6248   2.606   1.643  12.431 -0.0826 -0.2449 -0.2674
  419MPD2    C1 6249   2.499   1.732  12.425  0.1591  0.5408  0.8770
  419MPD2    C2 6250   2.416   1.750  12.532 -0.6645 -0.1336  0.7749
  419MPD2    C3 6251   2.438   1.690  12.655 -0.4971  0.0250 -0.3468
  419MPD2    C4 6252   2.545   1.603  12.666 -0.5375 -0.2663  0.2088
  419MPD2    C5 6253   2.617   1.582  12.556 -0.2983  0.0346  0.3141
  419MPD2     H 6254   2.327   1.811  12.520  0.5522  1.5944  0.6323
  419MPD2    H1 6255   2.587   1.556  12.754 -1.9161 -2.0782 -0.1077
  419MPD2    H2 6256   2.680   1.624  12.354 -0.7936 -0.0794 -1.0003
  419MPD2    H3 6257   2.700   1.516  12.580  0.6686  1.3474  0.5958
  419MPD2     N 6258   2.357   1.712  12.764  0.0725  0.1722  0.5761
  419MPD2    H5 6259   2.396   1.695  12.856 -0.0540 -0.9759  0.4188
  419MPD2    N1 6260   2.478   1.804  12.314 -0.1516  0.1922  0.5081
  419MPD2    H7 6261   2.407   1.876  12.308  0.2241  0.4612 -0.6750
  420TMC3    C1 6262   2.175   1.788  12.900 -0.1461  0.3707  0.5614
  420TMC3    C2 6263   2.109   1.910  12.916  0.0878 -0.4174 -0.3195
  420TMC3    C3 6264   2.107   1.972  13.041 -0.1267  0.6398  0.3426
  420TMC3    C4 6265   2.262   1.742  12.997 -0.5456  0.7739 -0.1397
  420TMC3    C5 6266   2.257   1.805  13.116 -0.0734  0.5187 -0.0153
  420TMC3    C6 6267   2.184   1.916  13.142  0.0511  0.4474  0.0562
  420TMC3     C 6268   2.230   1.772  12.764 -0.1031 -0.7712 -0.5924
  420TMC3     O 6269   2.161   1.818  12.671 -0.0898  0.5198 -0.0007
  420TMC3     H 6270   2.050   1.941  12.831  0.7896 -0.8033 -0.9378
  420TMC3    H1 6271   2.316   1.648  13.001 -2.4586 -0.2241  2.0423
  420TMC3    H2 6272   2.185   1.959  13.241  2.9123  1.2809 -0.3410
  420TMC3    C7 6273   2.327   1.753  13.233 -0.7387 -0.1645  0.1233
  420TMC3    C8 6274   2.063   2.109  13.041  0.4562  0.9293 -0.1875
  420TMC3    O1 6275   2.265   1.760  13.338 -0.0100 -0.3461  0.3100
  420TMC3    O2 6276   1.981   2.137  12.955  0.3680  0.9742  0.3618
  421TMC3    C1 6277   4.098   3.424  13.258 -0.2137 -0.2055 -0.1759
  421TMC3    C2 6278   4.109   3.559  13.236  0.9381  0.1125 -0.2022
  421TMC3    C3 6279   4.183   3.632  13.327  0.9347  0.5854 -0.4286
  421TMC3    C4 6280   4.166   3.365  13.357 -0.0817  0.5148 -0.8043
  421TMC3    C5 6281   4.251   3.444  13.435  0.0549  0.3063 -0.1915
  421TMC3    C6 6282   4.257   3.575  13.428 -0.3308 -0.1233 -0.3007
  421TMC3     C 6283   3.987   3.359  13.192 -0.5452 -0.0034  0.3822
  421TMC3     O 6284   3.932   3.420  13.103 -0.0082 -0.2130 -0.2803
  421TMC3     H 6285   4.062   3.601  13.148  3.1878  2.0366 -0.4872
  421TMC3    H1 6286   4.164   3.256  13.354 -1.4880  0.5711 -1.7643
  421TMC3    H2 6287   4.310   3.636  13.501  0.6100  0.4165 -1.4406
  421TMC3    C7 6288   4.328   3.388  13.544  0.4425  0.5959  0.0315
  421TMC3    C8 6289   4.164   3.778  13.336 -0.0509  0.0745  0.3742
  421TMC3    O1 6290   4.362   3.462  13.634 -0.3743  0.3386  0.5053
  421TMC3    O2 6291   4.245   3.840  13.400 -0.4668  0.0302 -0.4772
  422TMC3    C1 6292   1.539   4.511  12.535  0.1004 -0.2271  0.3830
  422TMC3    C2 6293   1.483   4.635  12.540  0.7430 -0.2978 -0.1526
  422TMC3    C3 6294   1.366   4.645  12.606 -0.0594 -0.2081  0.0633
  422TMC3    C4 6295   1.493   4.405  12.608 -0.0545  0.6086 -0.7026
  422TMC3    C5 6296   1.389   4.426  12.696  0.5055  0.7908 -0.7173
  422TMC3    C6 6297   1.323   4.541  12.688 -0.0245  0.0076 -0.0430
  422TMC3     C 6298   1.665   4.507  12.457 -0.2452 -0.2118  0.0176
  422TMC3     O 6299   1.710   4.604  12.391  0.3668 -0.1644 -0.5555
  422TMC3     H 6300   1.502   4.716  12.471 -1.7531  0.4619  0.0284
  422TMC3    H1 6301   1.555   4.317  12.622  0.2387  0.6839 -1.5664
  422TMC3    H2 6302   1.233   4.557  12.747 -0.4544 -2.9567  0.1162
  422TMC3    C7 6303   1.333   4.304  12.760  0.7315  0.4598 -0.7097
  422TMC3    C8 6304   1.296   0.048  12.603 -0.0777  0.4792 -0.2414
  422TMC3    O1 6305   1.393   4.204  12.754 -0.4763 -0.1280  0.1575
  422TMC3    O2 6306   1.345   0.147  12.551  0.0352  0.1035  0.1113
  423MPD2     C 6307   2.316   1.480   0.242 -0.0032 -0.7260 -0.1478
  423MPD2    C1 6308   2.299   1.366   0.321 -0.2436  0.0456  0.5155
  423MPD2    C2 6309   2.371   1.251   0.281 -0.0186 -0.6400 -0.0975
  423MPD2    C3 6310   2.454   1.254   0.169 -0.3039 -0.3278 -0.9369
  423MPD2    C4 6311   2.462   1.367   0.091 -0.6089  0.4394 -0.5217
  423MPD2    C5 6312   2.396   1.475   0.130 -0.8788 -0.0268 -0.4729
  423MPD2     H 6313   2.358   1.169   0.351  0.8290 -1.2314 -0.6356
  423MPD2    H1 6314   2.509   1.360  17.686 -0.5172 -0.4029 -0.4130
  423MPD2    H2 6315   2.278   1.580   0.261 -0.1049 -1.2173  2.2778
  423MPD2    H3 6316   2.401   1.564   0.067 -0.9487  0.0772 -0.3319
  423MPD2     N 6317   2.522   1.143   0.112 -0.5844 -0.8659 -0.1265
  423MPD2    H5 6318   2.581   1.165   0.032 -2.3487  2.2248 -0.5842
  423MPD2    N1 6319   2.210   1.367   0.434 -0.0904  0.6204 -0.2811
  423MPD2    H7 6320   2.200   1.279   0.484  0.9734  2.0428  2.4254
  424TMC3    C1 6321   2.091   1.450   0.619  0.1967  0.2289  0.3946
  424TMC3    C2 6322   2.176   1.391   0.709  0.9821 -0.4132  0.0595
  424TMC3    C3 6323   2.138   1.394   0.840  0.3919 -0.2713 -0.6775
  424TMC3    C4 6324   1.970   1.506   0.641  0.3185  0.7830  0.1653
  424TMC3    C5 6325   1.934   1.504   0.775 -0.0929 -0.0227  0.5862
  424TMC3    C6 6326   2.015   1.439   0.873 -0.1739  0.0488  0.2804
  424TMC3     C 6327   2.146   1.475   0.488  0.7968  0.0018 -0.4123
  424TMC3     O 6328   2.126   1.588   0.440 -0.2485 -0.0600  0.4676
  424TMC3     H 6329   2.280   1.371   0.688  1.1016  0.6015 -0.2842
  424TMC3    H1 6330   1.910   1.552   0.563 -1.7525 -0.4141  1.0554
  424TMC3    H2 6331   1.988   1.435   0.978 -0.7932  0.4877  0.1416
  424TMC3    C7 6332   1.848   1.612   0.805  0.4030  0.6741  0.6346
  424TMC3    C8 6333   2.201   1.308   0.936  0.4492  0.4075  0.2040
  424TMC3    O1 6334   1.819   1.684   0.715 -0.2874  0.1085  0.2055
  424TMC3    O2 6335   2.126   1.242   1.009 -0.5326  0.5866 -0.3644
  425MPD2     C 6336   1.435   0.784  16.779  0.0084  0.1394 -0.5268
  425MPD2    C1 6337   1.418   0.679  16.861 -0.3751  0.3676 -0.4476
  425MPD2    C2 6338   1.330   0.699  16.968 -0.2802  0.0980  0.3017
  425MPD2    C3 6339   1.264   0.814  17.001 -0.7106  0.1355  0.5184
  425MPD2    C4 6340   1.282   0.920  16.921  0.9790  0.1333  0.0672
  425MPD2    C5 6341   1.366   0.904  16.811  0.3650  0.3509  0.7373
  425MPD2     H 6342   1.297   0.616  17.030 -1.3201  1.5868  1.7297
  425MPD2    H1 6343   1.216   1.006  16.924 -0.9394 -1.3028 -0.9351
  425MPD2    H2 6344   1.497   0.763  16.693 -0.7578 -0.9748 -0.8095
  425MPD2    H3 6345   1.383   0.987  16.744 -1.1975  2.5147  3.0344
  425MPD2     N 6346   1.169   0.800  17.102 -0.3361  0.0447 -0.1880
  425MPD2    H5 6347   1.173   0.719  17.163  0.3599  1.1988  1.3023
  425MPD2    N1 6348   1.472   0.551  16.823 -0.4171  1.2284 -0.5352
  425MPD2    H7 6349   1.529   0.549  16.739  0.0926  1.2603 -0.1925
  426TMC3    C1 6350   1.524   0.320  16.844 -0.2066 -0.0775  0.6220
  426TMC3    C2 6351   1.511   0.298  16.706 -0.0432  0.4438 -0.6025
  426TMC3    C3 6352   1.517   0.165  16.670 -0.3275 -0.7168  0.0176
  426TMC3    C4 6353   1.537   0.210  16.932  0.2449 -0.1546 -0.2459
  426TMC3    C5 6354   1.571   0.088  16.883  0.1821 -0.5905  0.2117
  426TMC3    C6 6355   1.558   0.062  16.751 -0.2268  0.0485 -0.2234
  426TMC3     C 6356   1.445   0.429  16.888 -0.4685 -0.3570 -0.2823
  426TMC3     O 6357   1.389   0.405  16.995 -0.2057  0.4902  0.2701
  426TMC3     H 6358   1.479   0.376  16.639 -3.6971  0.3776  1.0778
  426TMC3    H1 6359   1.547   0.238  17.037 -1.5624  1.9891 -0.6451
  426TMC3    H2 6360   1.559   4.680  16.722 -2.0192  0.1235 -0.5157
  426TMC3    C7 6361   1.556   4.680  16.966 -0.0459  0.6710  0.5076
  426TMC3    C8 6362   1.539   0.129  16.531  0.2790 -0.8762  0.4129
  426TMC3    O1 6363   1.570   4.569  16.912  0.3112  0.2164  0.0811
  426TMC3    O2 6364   1.510   0.013  16.494 -0.2249 -0.0868  0.4364
  427MPD2     C 6365   0.512   2.213  14.794  0.4601 -0.8345  0.1834
  427MPD2    C1 6366   0.459   2.228  14.919  1.0661  0.4835 -0.4205
  427MPD2    C2 6367   0.318   2.233  14.927  0.6351 -0.6538 -0.2649
  427MPD2    C3 6368   0.238   2.210  14.818  0.3111 -0.2909  0.2681
  427MPD2    C4 6369   0.295   2.186  14.694 -0.1017  0.0525  0.3385
  427MPD2    C5 6370   0.429   2.198  14.687  0.3360  0.4060 -0.1208
  427MPD2     H 6371   0.282   2.269  15.022  2.1314 -0.7551  0.3476
  427MPD2    H1 6372   0.236   2.179  14.603  0.2185 -2.3655  0.3224
  427MPD2    H2 6373   0.619   2.204  14.781  0.2058 -1.8741 -1.1390
  427MPD2    H3 6374   0.459   2.188  14.583  1.0394 -0.0265  0.1232
  427MPD2     N 6375   0.096   2.208  14.825  0.4965  0.3591 -0.3452
  427MPD2    H5 6376   0.048   2.185  14.739  1.0258  0.0042 -0.5472
  427MPD2    N1 6377   0.534   2.255  15.035 -0.1207 -0.4296  0.0344
  427MPD2    H7 6378   0.482   2.241  15.121 -1.2204  0.3018 -0.4957
  428TMC3    C1 6379   0.705   2.268  15.184  0.0648  0.4303  0.3763
  428TMC3    C2 6380   0.667   2.155  15.247 -0.4398 -0.0321  0.1224
  428TMC3    C3 6381   0.695   2.143  15.380 -0.3980 -0.0315  1.0374
  428TMC3    C4 6382   0.775   2.372  15.244 -0.3447 -0.4718  0.2332
  428TMC3    C5 6383   0.797   2.353  15.377 -0.4852 -0.8417  0.2977
  428TMC3    C6 6384   0.762   2.242  15.449 -0.3441 -0.0179 -0.0091
  428TMC3     C 6385   0.665   2.292  15.049 -0.7307 -0.5126 -0.3699
  428TMC3     O 6386   0.755   2.309  14.969  0.0617  0.2880 -0.5642
  428TMC3     H 6387   0.611   2.078  15.194 -1.9629  1.0802  0.1292
  428TMC3    H1 6388   0.807   2.463  15.196 -0.5262  1.0831  3.0540
  428TMC3    H2 6389   0.805   2.229  15.548  1.2845 -0.4183 -0.7712
  428TMC3    C7 6390   0.834   2.462  15.464 -0.0352 -0.8659  0.1060
  428TMC3    C8 6391   0.648   2.012  15.440 -0.5299  0.8797  0.9179
  428TMC3    O1 6392   0.778   2.458  15.570 -0.1639 -0.4655 -0.4367
  428TMC3    O2 6393   0.622   1.921  15.366  0.2890 -0.8466  0.2129
  429MPD2     C 6394   1.542   3.039  17.624 -0.8494  0.4654  0.4141
  429MPD2    C1 6395   1.497   3.062  17.494 -0.5810  0.0903  0.4418
  429MPD2    C2 6396   1.575   3.126  17.404 -0.1250 -0.5432  0.6531
  429MPD2    C3 6397   1.689   3.183  17.438  0.2265  0.4226 -0.0094
  429MPD2    C4 6398   1.732   3.164  17.564  0.3249 -0.3748 -0.2996
  429MPD2    C5 6399   1.668   3.085  17.653  0.4168 -0.3014  0.8252
  429MPD2     H 6400   1.545   3.130  17.300  2.0840  0.7235  0.0755
  429MPD2    H1 6401   1.829   3.201  17.595 -0.2569  0.8586  0.0486
  429MPD2    H2 6402   1.491   2.981   0.009  0.7237 -2.2058 -0.5335
  429MPD2    H3 6403   1.712   3.066   0.057 -0.3307 -0.9590  1.0373
  429MPD2     N 6404   1.772   3.240  17.337  0.0586 -0.3243 -0.3033
  429MPD2    H5 6405   1.750   3.211  17.242 -0.2447  0.0012 -0.3322
  429MPD2    N1 6406   1.379   2.997  17.447 -0.2212 -0.5468  0.5660
  429MPD2    H7 6407   1.364   2.993  17.346 -0.5206 -2.0638  0.6745
  430TMC3    C1 6408   1.969   3.324  17.235  0.1417  0.4189  0.3896
  430TMC3    C2 6409   1.895   3.365  17.131 -0.1369 -0.3746 -0.0452
  430TMC3    C3 6410   1.940   3.353  17.002 -0.1653 -0.1832  0.1295
  430TMC3    C4 6411   2.076   3.249  17.213  0.1995 -0.1694  0.0791
  430TMC3    C5 6412   2.121   3.238  17.085  0.4836  0.3151 -0.1427
  430TMC3    C6 6413   2.048   3.273  16.977 -0.2270 -0.0289 -0.1551
  430TMC3     C 6414   1.898   3.303  17.360 -0.6194  0.0861  0.0449
  430TMC3     O 6415   1.954   3.333  17.467  0.0547 -0.1934 -1.1820
  430TMC3     H 6416   1.809   3.423  17.162  0.4036  0.9334 -1.0084
  430TMC3    H1 6417   2.127   3.207  17.299 -1.6006  0.3988  1.4054
  430TMC3    H2 6418   2.089   3.259  16.877 -0.1845  1.7069 -0.3897
  430TMC3    C7 6419   2.195   3.115  17.055  0.0249  0.4136 -0.5197
  430TMC3    C8 6420   1.845   3.377  16.899 -0.0854 -1.0587  0.1861
  430TMC3    O1 6421   2.186   3.059  16.952  0.1385 -0.3259  0.0971
  430TMC3    O2 6422   1.856   3.320  16.793  0.6260 -0.1125 -0.7520
  431MPD2     C 6423   2.898   2.679  12.207 -0.9050  0.2800  0.4051
  431MPD2    C1 6424   2.925   2.565  12.268 -0.0241  0.2231  0.8790
  431MPD2    C2 6425   2.842   2.457  12.261 -0.2151 -0.1930  0.5662
  431MPD2    C3 6426   2.743   2.463  12.167  0.5258  0.1636 -0.2290
  431MPD2    C4 6427   2.727   2.574  12.094  0.5592  0.0893  0.6182
  431MPD2    C5 6428   2.799   2.689  12.119 -0.2282 -0.2685 -0.4538
  431MPD2     H 6429   2.856   2.366  12.318 -1.0931 -0.7764 -0.1560
  431MPD2    H1 6430   2.643   2.586  12.026  1.5659 -1.1555 -0.8431
  431MPD2    H2 6431   2.961   2.766  12.222 -0.3634 -0.1247  0.4751
  431MPD2    H3 6432   2.780   2.774  12.054  1.1120  0.2882 -0.1056
  431MPD2     N 6433   2.661   2.364  12.120  0.0118  0.3346 -0.1392
  431MPD2    H5 6434   2.585   2.386  12.056  0.7593 -1.0313 -1.4992
  431MPD2    N1 6435   3.047   2.545  12.340  0.9056 -0.1587 -0.4382
  431MPD2    H7 6436   3.061   2.457  12.389 -2.5823 -0.5016 -0.0505
  432TMC3    C1 6437   2.580   2.138  12.104  0.4767  0.2018  0.2218
  432TMC3    C2 6438   2.600   2.134  11.968  0.2644  0.1957  0.5157
  432TMC3    C3 6439   2.595   2.010  11.907 -0.9875 -0.2086 -0.1110
  432TMC3    C4 6440   2.559   2.023  12.179  0.3390  0.4290 -0.1409
  432TMC3    C5 6441   2.548   1.902  12.115 -0.1164  0.0378  0.6941
  432TMC3    C6 6442   2.573   1.894  11.978 -1.0708  0.1235 -0.1659
  432TMC3     C 6443   2.659   2.236  12.183 -0.9485 -0.2772 -0.3061
  432TMC3     O 6444   2.734   2.183  12.267  0.0691 -0.2011 -0.1148
  432TMC3     H 6445   2.625   2.221  11.908 -1.8767  0.7253  0.3589
  432TMC3    H1 6446   2.544   2.028  12.287 -1.3721  1.7197 -0.4443
  432TMC3    H2 6447   2.571   1.801  11.923  1.3586  0.4442 -0.8272
  432TMC3    C7 6448   2.541   1.781  12.194  0.5411  0.0193  0.2432
  432TMC3    C8 6449   2.660   2.010  11.780 -0.6397 -0.0943  0.3846
  432TMC3    O1 6450   2.590   1.678  12.144  0.3531  0.0883 -0.0398
  432TMC3    O2 6451   2.608   2.083  11.698  0.1856 -0.0091 -0.0628
  433MPD2     C 6452   1.537   1.142  10.889 -0.2515 -0.1381 -0.2527
  433MPD2    C1 6453   1.548   1.016  10.938  0.3776 -0.2042 -0.3771
  433MPD2    C2 6454   1.595   1.005  11.068 -0.7117 -0.2943 -0.1524
  433MPD2    C3 6455   1.631   1.116  11.143  0.0993  0.0589  0.5376
  433MPD2    C4 6456   1.634   1.239  11.082 -0.3433 -0.1263  0.0663
  433MPD2    C5 6457   1.586   1.248  10.950  0.0259 -0.1128  0.3294
  433MPD2     H 6458   1.603   0.905  11.109  0.4088 -1.1810 -2.5820
  433MPD2    H1 6459   1.681   1.325  11.129 -1.0810  0.8978 -1.0769
  433MPD2    H2 6460   1.494   1.158  10.791  1.1290 -0.8714 -0.9780
  433MPD2    H3 6461   1.581   1.341  10.896  1.3204 -0.3655 -0.2228
  433MPD2     N 6462   1.677   1.088  11.273  0.4428  0.0731  0.5785
  433MPD2    H5 6463   1.659   0.998  11.317 -1.4333  0.2907  0.2674
  433MPD2    N1 6464   1.497   0.906  10.869  0.0118 -0.1251 -0.1788
  433MPD2    H7 6465   1.460   0.933  10.779  1.4285 -0.8135 -0.9724
  434TMC3    C1 6466   1.452   0.687  10.802  0.5917  0.2379 -0.8271
  434TMC3    C2 6467   1.501   0.563  10.840 -0.0323 -0.3946  0.3003
  434TMC3    C3 6468   1.584   0.498  10.757 -0.0429  0.0649 -0.2386
  434TMC3    C4 6469   1.465   0.733  10.677  0.1577 -0.6881  0.9095
  434TMC3    C5 6470   1.545   0.662  10.594  0.4166  0.2137 -0.1543
  434TMC3    C6 6471   1.609   0.550  10.633 -0.2211  0.1673  0.0836
  434TMC3     C 6472   1.469   0.784  10.910 -0.4654 -0.1640 -0.1539
  434TMC3     O 6473   1.493   0.732  11.016 -0.6366 -0.1637  0.2012
  434TMC3     H 6474   1.494   0.527  10.942 -1.5836 -3.3337 -0.8573
  434TMC3    H1 6475   1.422   0.831  10.656 -1.4068 -1.2721  1.3763
  434TMC3    H2 6476   1.651   0.487  10.555 -1.3002  2.4777 -2.3865
  434TMC3    C7 6477   1.532   0.679  10.446  0.6167  0.0693  0.1423
  434TMC3    C8 6478   1.677   0.411  10.828 -0.0895  1.0641  0.4757
  434TMC3    O1 6479   1.434   0.748  10.420  0.4928  0.1905  0.5868
  434TMC3    O2 6480   1.651   0.362  10.937  0.0593  0.1462 -0.1664
  435MPD2     C 6481   2.923   1.247  15.528  0.4350  0.4222 -0.2524
  435MPD2    C1 6482   2.912   1.236  15.664 -0.5055  0.1421  0.2228
  435MPD2    C2 6483   3.025   1.211  15.737  0.3618  0.6048 -0.1581
  435MPD2    C3 6484   3.144   1.175  15.675 -0.5485 -0.0320  0.6406
  435MPD2    C4 6485   3.154   1.178  15.535  0.2583  0.2724  0.4803
  435MPD2    C5 6486   3.046   1.214  15.462 -0.6745 -0.6671  1.1264
  435MPD2     H 6487   3.014   1.212  15.845 -0.5082  1.1580 -0.2498
  435MPD2    H1 6488   3.253   1.171  15.492 -0.0485 -2.0761  0.1925
  435MPD2    H2 6489   2.838   1.267  15.464 -0.8104 -2.4995  0.4667
  435MPD2    H3 6490   3.058   1.219  15.354  0.8195 -1.3492  1.2637
  435MPD2     N 6491   3.245   1.142  15.773 -0.3566 -0.1080 -0.0590
  435MPD2    H5 6492   3.220   1.132  15.871 -0.8257  1.7627  0.0054
  435MPD2    N1 6493   2.794   1.275  15.741  0.2431  0.5075  0.4784
  435MPD2    H7 6494   2.803   1.277  15.842 -1.1193  0.1537  0.5981
  436TMC3    C1 6495   2.546   1.492  15.982 -0.3353  0.6213  0.1461
  436TMC3    C2 6496   2.624   1.405  15.911 -0.1005  0.5576  0.4373
  436TMC3    C3 6497   2.578   1.362  15.791 -0.8361  0.3347  1.1842
  436TMC3    C4 6498   2.418   1.522  15.940 -0.5166 -0.7542 -0.7473
  436TMC3    C5 6499   2.379   1.472  15.817 -0.3361  0.5327  0.5294
  436TMC3    C6 6500   2.451   1.386  15.747 -0.2439  0.1006 -0.1414
  436TMC3     C 6501   2.624   1.560  16.092  0.3966 -0.5644  0.9486
  436TMC3     O 6502   2.745   1.549  16.090  0.1983  0.2206  0.4069
  436TMC3     H 6503   2.721   1.373  15.948  0.3069  0.4283 -0.7652
  436TMC3    H1 6504   2.364   1.599  15.993  0.4811  2.6211 -4.6589
  436TMC3    H2 6505   2.407   1.348  15.655  1.0169 -2.2560  0.2436
  436TMC3    C7 6506   2.236   1.447  15.808 -0.3233  0.7456 -0.6901
  436TMC3    C8 6507   2.671   1.317  15.686 -0.2507  0.0220 -0.0126
  436TMC3    O1 6508   2.208   1.347  15.748  0.1376  0.2323  0.4391
  436TMC3    O2 6509   2.641   1.338  15.569  0.4893 -0.1266 -0.3169
  437TMC3    C1 6510   1.825   3.216  12.565 -0.3952 -0.3573 -0.7911
  437TMC3    C2 6511   1.701   3.205  12.509  0.0903 -0.2779  0.6657
  437TMC3    C3 6512   1.687   3.230  12.373  0.1410  0.1645 -0.2227
  437TMC3    C4 6513   1.936   3.248  12.493  0.5116 -0.6033 -0.1085
  437TMC3    C5 6514   1.921   3.278  12.356  0.3911 -0.8185  0.6579
  437TMC3    C6 6515   1.796   3.264  12.295 -0.4135  0.3178 -0.6371
  437TMC3     C 6516   1.842   3.172  12.698 -0.6176  0.1987  0.1729
  437TMC3     O 6517   1.739   3.175  12.763  0.3546  0.0106 -0.1030
  437TMC3     H 6518   1.616   3.177  12.570  0.5756 -3.0209  0.0928
  437TMC3    H1 6519   2.027   3.277  12.545  0.2513 -0.4773  0.2755
  437TMC3    H2 6520   1.785   3.283  12.189 -1.0872 -3.5437 -1.2598
  437TMC3    C7 6521   2.030   3.285  12.266  0.2603  0.0068  0.0620
  437TMC3    C8 6522   1.549   3.255  12.319  0.0735 -0.4656  0.0326
  437TMC3    O1 6523   2.009   3.280  12.147  0.0313 -0.0400  0.3884
  437TMC3    O2 6524   1.542   3.248  12.195 -0.1716 -0.2892  0.0973
  438MPD2     C 6525   3.805   3.355  17.026 -0.0301  0.4869 -0.7386
  438MPD2    C1 6526   3.926   3.412  17.068  0.3156  0.0693 -0.0837
  438MPD2    C2 6527   4.010   3.326  17.134 -0.2512  1.1507 -0.0825
  438MPD2    C3 6528   3.989   3.190  17.146 -0.4126  0.4951  0.5011
  438MPD2    C4 6529   3.868   3.143  17.114 -0.2700 -0.1383  0.0485
  438MPD2    C5 6530   3.773   3.224  17.052 -0.4086  0.2929 -0.6810
  438MPD2     H 6531   4.105   3.366  17.170  0.3329 -1.3836  1.1825
  438MPD2    H1 6532   3.845   3.038  17.128  1.0546 -0.6190 -1.3472
  438MPD2    H2 6533   3.730   3.417  16.978 -0.8810  0.7586  0.9318
  438MPD2    H3 6534   3.680   3.185  17.013  0.7474 -4.0323  0.9539
  438MPD2     N 6535   4.081   3.099  17.199  0.3771  0.0488  0.0659
  438MPD2    H5 6536   4.050   3.006  17.175 -0.5837  0.5800 -0.7589
  438MPD2    N1 6537   3.965   3.548  17.060 -0.0854  0.2153 -0.1102
  438MPD2    H7 6538   4.060   3.567  17.090  0.4579 -3.2946  0.4158
  439TMC3    C1 6539   3.966   3.769  16.969  0.3259 -0.2656  0.2860
  439TMC3    C2 6540   3.935   3.824  16.848  0.0069 -0.1267  0.3294
  439TMC3    C3 6541   4.036   3.889  16.782 -0.1148  0.2366  0.0368
  439TMC3    C4 6542   4.090   3.789  17.030  0.3414 -0.3122  0.0922
  439TMC3    C5 6543   4.182   3.868  16.964 -0.3376  0.3231  0.2549
  439TMC3    C6 6544   4.154   3.920  16.842  0.5929 -0.1449  0.4831
  439TMC3     C 6545   3.889   3.648  17.001 -0.7450  0.7144  0.5013
  439TMC3     O 6546   3.786   3.632  16.931  0.3126  0.2048 -0.0310
  439TMC3     H 6547   3.846   3.799  16.792  0.4849  0.8096 -0.8337
  439TMC3    H1 6548   4.118   3.744  17.125  1.2596  0.5297  0.2261
  439TMC3    H2 6549   4.233   3.982  16.802 -2.1809  1.4663 -2.4152
  439TMC3    C7 6550   4.313   3.802  16.963 -0.3702  0.2064 -0.2965
  439TMC3    C8 6551   4.068   3.850  16.642 -0.5136 -0.3401 -0.0136
  439TMC3    O1 6552   4.374   3.766  17.061  0.1837 -0.2585 -0.0281
  439TMC3    O2 6553   4.188   3.844  16.614  1.0447 -0.4215 -0.0481
  440MPD2     C 6554   3.037   4.439  14.711  0.0638  0.2218 -0.1228
  440MPD2    C1 6555   3.055   4.551  14.790  0.5549  0.3203  0.1687
  440MPD2    C2 6556   3.168   4.562  14.870 -0.5371  1.1890 -0.0808
  440MPD2    C3 6557   3.247   4.449  14.886  0.5498  0.0080 -0.5463
  440MPD2    C4 6558   3.233   4.341  14.798 -0.5136  0.1787  0.0958
  440MPD2    C5 6559   3.126   4.339  14.714  0.2719 -0.3728  0.9072
  440MPD2     H 6560   3.183   4.651  14.930  2.2251  0.5059  0.2251
  440MPD2    H1 6561   3.305   4.260  14.793 -0.1155  0.4830  1.0213
  440MPD2    H2 6562   2.956   4.413  14.644  1.0479 -1.2255 -0.7302
  440MPD2    H3 6563   3.109   4.249  14.655  1.4893 -0.1514  0.2273
  440MPD2     N 6564   3.360   4.442  14.963 -0.6001 -0.3459  0.3596
  440MPD2    H5 6565   3.419   4.361  14.944  1.8932  1.6574 -0.4250
  440MPD2    N1 6566   2.963   4.660  14.803  0.1384  0.4186  0.2207
  440MPD2    H7 6567   2.988   4.722  14.879 -0.2802 -0.5702  1.1534
  441TMC3    C1 6568   3.526   4.503  15.115 -0.7368 -0.2319  0.5448
  441TMC3    C2 6569   3.573   4.607  15.193  0.6476  0.1830  0.1853
  441TMC3    C3 6570   3.639   4.588  15.310 -0.4802  0.3163  0.2575
  441TMC3    C4 6571   3.544   4.372  15.152 -0.8985  0.6789  0.7877
  441TMC3    C5 6572   3.594   4.366  15.276 -0.5120  0.3613 -0.4188
  441TMC3    C6 6573   3.651   4.462  15.355 -0.0258 -0.0190  0.7137
  441TMC3     C 6574   3.404   4.540  15.045 -0.3207 -0.0602  0.2000
  441TMC3     O 6575   3.346   4.644  15.073 -0.2500  0.9739  0.1944
  441TMC3     H 6576   3.551   4.701  15.144 -1.0540  0.7652  2.0629
  441TMC3    H1 6577   3.485   4.288  15.118  0.1400  0.3299 -0.1305
  441TMC3    H2 6578   3.678   4.431  15.455  2.4662 -1.0886 -0.2870
  441TMC3    C7 6579   3.572   4.239  15.349 -0.4279  1.0349  0.3075
  441TMC3    C8 6580   3.610   4.676  15.418  0.8195  0.8806 -0.1313
  441TMC3    O1 6581   3.462   4.190  15.348  0.2782  0.1521  0.0053
  441TMC3    O2 6582   3.645   4.641  15.530 -0.1819  0.1607  0.8616
  442MPD2     C 6583   1.110   0.286  16.453 -0.0584  0.1673  0.3910
  442MPD2    C1 6584   1.003   0.208  16.488 -0.0365  0.2379 -0.4778
  442MPD2    C2 6585   1.004   0.077  16.458  0.0951  0.6328 -0.4642
  442MPD2    C3 6586   1.110   0.023  16.387 -0.2752 -0.1512 -0.3670
  442MPD2    C4 6587   1.212   0.107  16.341  0.0270 -0.2222  0.2132
  442MPD2    C5 6588   1.217   0.233  16.389 -0.3992 -0.5998  0.1637
  442MPD2     H 6589   0.922   0.010  16.481  0.1677  0.0756 -1.7898
  442MPD2    H1 6590   1.298   0.079  16.281 -0.2390 -1.2789  0.3121
  442MPD2    H2 6591   1.112   0.393  16.474  0.4627  0.0670  0.8565
  442MPD2    H3 6592   1.300   0.296  16.358  1.2177 -2.7386  0.1966
  442MPD2     N 6593   1.123   4.611  16.356  0.2803  0.6372 -0.1037
  442MPD2    H5 6594   1.201   4.584  16.298  0.3031  2.1415 -0.7618
  442MPD2    N1 6595   0.888   0.268  16.548 -0.2502 -0.4893  0.1011
  442MPD2    H7 6596   0.811   0.210  16.579 -1.5030  0.8970 -0.4009
  443TMC3    C1 6597   0.742   0.439  16.615 -0.3488 -0.4860 -0.0686
  443TMC3    C2 6598   0.669   0.549  16.574 -0.0366  0.1278  0.0860
  443TMC3    C3 6599   0.552   0.584  16.642  0.0179 -0.3108 -0.2199
  443TMC3    C4 6600   0.706   0.369  16.727 -1.0601  0.0757  0.0244
  443TMC3    C5 6601   0.589   0.415  16.796  0.7894  0.7380  0.2248
  443TMC3    C6 6602   0.509   0.521  16.753  0.0181  0.8469  0.2485
  443TMC3     C 6603   0.859   0.402  16.538 -0.3103  0.7300 -0.5166
  443TMC3     O 6604   0.905   0.490  16.460  0.0440  0.0118 -0.0704
  443TMC3     H 6605   0.692   0.617  16.493  1.6155  0.6357  0.9853
  443TMC3    H1 6606   0.765   0.287  16.768 -1.9271 -0.7627 -0.4166
  443TMC3    H2 6607   0.420   0.558  16.802  1.5587 -0.4608  4.0601
  443TMC3    C7 6608   0.549   0.344  16.911  0.1413  0.1624 -0.6976
  443TMC3    C8 6609   0.484   0.699  16.606 -0.7285 -0.2521  0.2024
  443TMC3    O1 6610   0.570   0.227  16.920  0.3462  0.7684 -0.4160
  443TMC3    O2 6611   0.456   0.771  16.700  0.1320  0.0009  0.2396
  444MPD2     C 6612   1.173   4.451  16.725  0.5341  0.1235 -0.4791
  444MPD2    C1 6613   1.124   4.326  16.756 -0.5152 -0.7033 -0.0437
  444MPD2    C2 6614   1.181   4.206  16.699 -0.1106  0.5217  0.7801
  444MPD2    C3 6615   1.299   4.227  16.631  0.2443  0.6235  0.0666
  444MPD2    C4 6616   1.337   4.356  16.597  0.4508  0.2002 -0.6120
  444MPD2    C5 6617   1.288   4.465  16.656 -0.2140 -0.3862  0.0409
  444MPD2     H 6618   1.144   4.109  16.729 -0.0229 -0.0922 -1.0928
  444MPD2    H1 6619   1.422   4.374  16.532  0.2463  0.3028 -0.8516
  444MPD2    H2 6620   1.133   4.545  16.762  1.6747  0.2545  0.4152
  444MPD2    H3 6621   1.332   4.558  16.622  0.8765 -0.7641  0.3935
  444MPD2     N 6622   1.362   4.109  16.585  0.0133  0.3672 -0.0168
  444MPD2    H5 6623   1.317   4.021  16.608 -1.2836  0.8795 -0.6260
  444MPD2    N1 6624   1.012   4.313  16.846 -0.3963 -0.3027 -0.4146
  444MPD2    H7 6625   0.991   4.224  16.891  0.4250 -0.9063 -1.2174
  445TMC3    C1 6626   1.537   3.982  16.507  0.1414  0.2929  0.3949
  445TMC3    C2 6627   1.450   3.894  16.452 -0.0335  0.1583 -1.1271
  445TMC3    C3 6628   1.498   3.775  16.414  1.0398 -0.5037 -0.0690
  445TMC3    C4 6629   1.670   3.953  16.527  0.2478 -0.1302  0.8924
  445TMC3    C5 6630   1.712   3.829  16.488 -0.2697  0.4176  0.6551
  445TMC3    C6 6631   1.631   3.736  16.430 -0.5397  0.0862 -0.0852
  445TMC3     C 6632   1.494   4.114  16.542 -0.1871 -0.6043  0.0308
  445TMC3     O 6633   1.570   4.206  16.512 -0.2032 -0.5884 -0.2123
  445TMC3     H 6634   1.348   3.924  16.430 -0.3919  1.6238  2.4975
  445TMC3    H1 6635   1.721   4.035  16.577 -0.3247 -0.0302  1.3129
  445TMC3    H2 6636   1.670   3.640  16.397 -2.0114 -0.4151 -0.3906
  445TMC3    C7 6637   1.859   3.814  16.507  0.6084  0.1087 -0.2505
  445TMC3    C8 6638   1.410   3.690  16.330  0.7233  0.0598  0.0402
  445TMC3    O1 6639   1.923   3.912  16.544 -0.2979  0.0902 -0.2143
  445TMC3    O2 6640   1.300   3.734  16.295  0.3153 -0.4843  0.3480
  446MPD2     C 6641   1.366   0.398  11.456 -0.5882 -0.5230  0.0283
  446MPD2    C1 6642   1.327   0.444  11.332 -0.7032 -0.4105 -0.8877
  446MPD2    C2 6643   1.419   0.505  11.256 -0.8560 -0.4732 -0.0748
  446MPD2    C3 6644   1.558   0.503  11.292  0.6244  0.0707  0.1255
  446MPD2    C4 6645   1.591   0.469  11.424 -0.3446 -0.2204  0.2302
  446MPD2    C5 6646   1.488   0.421  11.506 -0.0063  0.1252  0.0711
  446MPD2     H 6647   1.390   0.538  11.157  2.0333  1.5122 -0.2588
  446MPD2    H1 6648   1.689   0.485  11.466 -0.4645  0.3057  0.3111
  446MPD2    H2 6649   1.301   0.350  11.527 -0.9537  1.7320  1.2085
  446MPD2    H3 6650   1.519   0.396  11.607 -1.4158  0.1887  0.5195
  446MPD2     N 6651   1.660   0.549  11.200 -0.4636 -0.5200  0.0856
  446MPD2    H5 6652   1.633   0.593  11.113  1.2315  0.1623 -0.0853
  446MPD2    N1 6653   1.202   0.413  11.268 -0.8613 -0.2604 -0.3441
  446MPD2    H7 6654   1.193   0.447  11.173 -0.8763 -3.0384 -1.3410
  447TMC3    C1 6655   1.881   0.611  11.134 -0.1767  0.3801  0.4005
  447TMC3    C2 6656   1.839   0.697  11.043  0.2669  0.2461 -0.0143
  447TMC3    C3 6657   1.924   0.795  11.006  0.3415 -0.0576 -0.5301
  447TMC3    C4 6658   2.010   0.611  11.178  0.2163 -0.0058  0.1463
  447TMC3    C5 6659   2.095   0.715  11.143  0.1525 -0.0405  0.3016
  447TMC3    C6 6660   2.047   0.810  11.059  0.3468  0.9192  0.7678
  447TMC3     C 6661   1.792   0.538  11.224 -0.8801 -0.1290  0.0219
  447TMC3     O 6662   1.853   0.461  11.299  0.2052 -0.4591  0.0153
  447TMC3     H 6663   1.746   0.682  10.989 -0.5083  0.1516  1.3614
  447TMC3    H1 6664   2.053   0.519  11.215  2.4223  1.5592  1.4584
  447TMC3    H2 6665   2.120   0.886  11.031  2.2554 -0.7912  1.1090
  447TMC3    C7 6666   2.230   0.671  11.095 -0.1650  0.7546 -0.4208
  447TMC3    C8 6667   1.922   0.807  10.859 -0.3541  0.0393  0.5209
  447TMC3    O1 6668   2.260   0.717  10.981  0.1850  0.4014 -0.0800
  447TMC3    O2 6669   1.817   0.813  10.793 -0.0988 -0.2987  0.3744
  448TMC3    C1 6670   4.097   1.039  17.051  0.4059 -0.0521  0.2032
  448TMC3    C2 6671   4.080   0.914  16.999  0.1086 -0.0519  0.7385
  448TMC3    C3 6672   4.116   0.802  17.085  0.6362  0.1887  0.2107
  448TMC3    C4 6673   4.146   1.064  17.176 -0.4965  0.2753  0.1554
  448TMC3    C5 6674   4.183   0.952  17.250  0.7982 -1.0989 -0.9392
  448TMC3    C6 6675   4.171   0.823  17.202  0.3291  0.3653  0.1631
  448TMC3     C 6676   4.031   1.145  16.979  0.3240 -0.3143 -0.2997
  448TMC3     O 6677   3.960   1.111  16.888  0.4286  0.1771 -0.6114
  448TMC3     H 6678   4.032   0.885  16.907  1.8521 -2.0790  0.4621
  448TMC3    H1 6679   4.166   1.163  17.216  1.8615 -0.6094  1.1912
  448TMC3    H2 6680   4.191   0.735  17.261 -0.7812  0.0481  0.0716
  448TMC3    C7 6681   4.248   0.970  17.378 -0.3995 -0.4363 -0.4000
  448TMC3    C8 6682   4.113   0.666  17.036  0.5006  0.4385  0.4093
  448TMC3    O1 6683   4.231   1.075  17.434 -0.2833  0.4811  0.3769
  448TMC3    O2 6684   4.207   0.601  17.089 -0.1889 -0.3362 -0.6439
  449MPD2     C 6685   1.050   3.468  14.166 -0.3278 -0.7489 -0.7369
  449MPD2    C1 6686   0.969   3.574  14.122  0.6488  0.3011  0.1128
  449MPD2    C2 6687   0.834   3.565  14.145  0.4055  0.8963  0.3051
  449MPD2    C3 6688   0.784   3.466  14.223 -0.1901  0.1379  0.6303
  449MPD2    C4 6689   0.864   3.373  14.279  0.7721 -0.5897  0.6539
  449MPD2    C5 6690   1.000   3.383  14.258  0.0614  0.2660  0.5139
  449MPD2     H 6691   0.762   3.639  14.109 -0.4893 -0.9317 -1.6517
  449MPD2    H1 6692   0.834   3.289  14.341  1.0500 -1.4571 -0.3943
  449MPD2    H2 6693   1.156   3.480  14.145  0.0118 -0.4454  1.0891
  449MPD2    H3 6694   1.061   3.307  14.306 -0.1839  0.1139  0.5793
  449MPD2     N 6695   0.644   3.468  14.227 -0.0322 -0.1428  0.2495
  449MPD2    H5 6696   0.597   3.545  14.181  0.3283 -0.0388  0.0628
  449MPD2    N1 6697   1.007   3.669  14.022 -0.4199 -0.6435  0.6427
  449MPD2    H7 6698   0.936   3.736  13.993  0.7967  0.0498 -0.6908
  450TMC3    C1 6699   1.118   3.783  13.863  0.2924 -0.3121  0.1932
  450TMC3    C2 6700   1.149   3.731  13.742 -0.2457  0.4816 -1.0467
  450TMC3    C3 6701   1.068   3.765  13.639  0.7117 -0.2398  0.4357
  450TMC3    C4 6702   1.025   3.882  13.883  0.1665 -0.4225 -0.6394
  450TMC3    C5 6703   0.944   3.910  13.778  0.2991 -0.2607  0.3905
  450TMC3    C6 6704   0.968   3.854  13.651 -0.0550  0.2626 -0.1825
  450TMC3     C 6705   1.126   3.683  13.968  1.1221  0.2231 -0.2735
  450TMC3     O 6706   1.224   3.613  13.967  0.5507  0.3227 -0.5560
  450TMC3     H 6707   1.228   3.656  13.740 -0.7973 -0.1683  2.0215
  450TMC3    H1 6708   1.009   3.926  13.981  3.0152 -0.1306 -0.3059
  450TMC3    H2 6709   0.895   3.867  13.572  1.1072 -0.1886 -1.3138
  450TMC3    C7 6710   0.802   3.883  13.810  0.0753  0.3553  0.2623
  450TMC3    C8 6711   1.099   3.716  13.504 -0.2049 -0.1301 -0.0066
  450TMC3    O1 6712   0.789   3.825  13.910  0.2718 -0.0393 -0.2329
  450TMC3    O2 6713   1.004   3.717  13.426 -0.3981 -0.1913  0.2346
  451MPD2     C 6714   1.681   2.828   1.048 -0.8071 -0.4251 -0.3009
  451MPD2    C1 6715   1.811   2.811   1.100 -0.9989  0.2999  0.1716
  451MPD2    C2 6716   1.888   2.716   1.039  0.2098  0.6093 -0.1022
  451MPD2    C3 6717   1.848   2.645   0.925 -0.3851 -0.3334  0.6319
  451MPD2    C4 6718   1.724   2.663   0.874  0.1194 -0.4415 -0.2738
  451MPD2    C5 6719   1.640   2.753   0.944  0.1357  0.4550  0.2319
  451MPD2     H 6720   1.989   2.694   1.075 -0.5566  0.3843  1.9152
  451MPD2    H1 6721   1.693   2.615   0.782 -0.3451 -1.3030  0.3291
  451MPD2    H2 6722   1.595   2.875   1.095  1.4064  1.5276  1.7225
  451MPD2    H3 6723   1.538   2.771   0.911 -0.1743 -0.6470  0.5857
  451MPD2     N 6724   1.944   2.558   0.868 -0.6183  0.0360 -0.1966
  451MPD2    H5 6725   2.031   2.536   0.916 -0.6043  1.2505  0.3305
  451MPD2    N1 6726   1.848   2.890   1.214  0.6617  0.0166  0.0349
  451MPD2    H7 6727   1.778   2.952   1.252  1.3681  0.6144  0.3485
  452TMC3    C1 6728   2.034   2.391   0.715 -0.6015 -0.0334 -0.1775
  452TMC3    C2 6729   2.082   2.320   0.822  0.4583 -0.0294 -0.7711
  452TMC3    C3 6730   2.155   2.210   0.790  0.8628 -0.2708 -0.5061
  452TMC3    C4 6731   2.051   2.353   0.584 -0.4633  0.3367  0.0575
  452TMC3    C5 6732   2.114   2.232   0.560 -0.2741  0.0774 -0.4085
  452TMC3    C6 6733   2.166   2.163   0.664 -0.4883  1.2172  0.6447
  452TMC3     C 6734   1.925   2.489   0.746  0.0969 -0.3683 -0.8207
  452TMC3     O 6735   1.850   2.509   0.651  0.5042  0.4003 -0.9099
  452TMC3     H 6736   2.053   2.342   0.924  1.7485  0.1200 -0.4336
  452TMC3    H1 6737   2.033   2.418   0.499 -0.4391  0.5580  0.2209
  452TMC3    H2 6738   2.214   2.067   0.645 -2.0250 -0.0711  3.2382
  452TMC3    C7 6739   2.144   2.199   0.423 -0.1963  0.0855  0.3742
  452TMC3    C8 6740   2.247   2.172   0.892  0.5475 -0.0098  0.5027
  452TMC3    O1 6741   2.145   2.299   0.348 -0.4503  0.5298  0.4887
  452TMC3    O2 6742   2.237   2.242   0.993  0.8862 -0.2014 -0.5236
  453TMC3    C1 6743   3.816   3.754  11.689 -0.4960 -0.2598 -0.0663
  453TMC3    C2 6744   3.714   3.680  11.731  0.4718  1.2878 -0.7736
  453TMC3    C3 6745   3.632   3.630  11.630 -0.4732 -0.4878  0.3914
  453TMC3    C4 6746   3.836   3.802  11.562  0.1284  0.1286 -0.4122
  453TMC3    C5 6747   3.749   3.744  11.468 -0.2935  0.3880 -0.4656
  453TMC3    C6 6748   3.647   3.665  11.504  0.0560  0.0714  0.0946
  453TMC3     C 6749   3.898   3.814  11.791 -0.0771 -0.2395 -0.4603
  453TMC3     O 6750   3.953   3.920  11.774 -0.5277  0.3520  0.0280
  453TMC3     H 6751   3.686   3.665  11.834 -0.4666  0.9424 -1.0744
  453TMC3    H1 6752   3.924   3.862  11.540  0.1259 -0.0537 -0.9306
  453TMC3    H2 6753   3.579   3.629  11.428 -0.8396  2.0684 -0.0473
  453TMC3    C7 6754   3.754   3.792  11.331  0.1811  0.6445  0.2171
  453TMC3    C8 6755   3.541   3.523  11.666  0.1766 -0.1339 -0.3807
  453TMC3    O1 6756   3.654   3.767  11.265  0.3413  0.7405  0.3894
  453TMC3    O2 6757   3.431   3.501  11.617  0.3602  0.0085 -0.4530
  454MPD2     C 6758   2.329   3.880  16.038 -0.1484 -0.2567 -0.2198
  454MPD2    C1 6759   2.263   3.991  15.989 -0.8115 -0.8541 -0.2088
  454MPD2    C2 6760   2.249   4.094  16.077  0.0254 -0.5658  0.4154
  454MPD2    C3 6761   2.294   4.090  16.202 -0.0332 -0.5425  0.9038
  454MPD2    C4 6762   2.372   3.981  16.239 -0.8153  0.2386  0.2024
  454MPD2    C5 6763   2.393   3.880  16.153  0.1728 -0.4390 -0.0447
  454MPD2     H 6764   2.202   4.184  16.040  1.1898 -0.3209 -0.4626
  454MPD2    H1 6765   2.422   3.971  16.334  0.8528  1.8753 -0.4927
  454MPD2    H2 6766   2.336   3.791  15.977 -1.7524  1.6891 -3.1823
  454MPD2    H3 6767   2.440   3.791  16.192 -1.0064 -1.3510 -0.7190
  454MPD2     N 6768   2.282   4.201  16.298  0.6685  0.1784  0.2303
  454MPD2    H5 6769   2.341   4.188  16.379  0.4427  0.3704  0.4256
  454MPD2    N1 6770   2.199   3.992  15.865 -0.2079  0.3226 -0.1536
  454MPD2    H7 6771   2.154   4.082  15.849  1.1178  0.7673 -1.3552
  455TMC3    C1 6772   2.055   4.271  16.235  0.0090 -0.6981 -0.8896
  455TMC3    C2 6773   1.982   4.382  16.216  0.3151 -0.0038  0.7035
  455TMC3    C3 6774   1.847   4.366  16.225  0.1678  0.3084  0.1882
  455TMC3    C4 6775   1.992   4.148  16.269  0.1060 -0.2231  0.1649
  455TMC3    C5 6776   1.854   4.135  16.272 -0.1026 -0.2097 -0.0991
  455TMC3    C6 6777   1.782   4.247  16.242  0.2648 -0.2293  0.1184
  455TMC3     C 6778   2.188   4.301  16.288  0.6564  0.2820 -0.1704
  455TMC3     O 6779   2.201   4.407  16.350  0.1633  0.4767  0.2624
  455TMC3     H 6780   2.034   4.475  16.192  0.0456 -0.3174 -1.0732
  455TMC3    H1 6781   2.058   4.079  16.321 -0.1733 -0.3762  0.3145
  455TMC3    H2 6782   1.674   4.246  16.230  0.5098 -1.9650 -1.9531
  455TMC3    C7 6783   1.801   4.022  16.203  0.1991 -0.1761  0.0918
  455TMC3    C8 6784   1.772   4.482  16.229  0.4957  0.0000  0.4098
  455TMC3    O1 6785   1.685   4.022  16.167  0.0916 -0.0534 -0.6392
  455TMC3    O2 6786   1.662   4.480  16.288  0.7890 -0.2464  0.7988
  456MPD2     C 6787   4.257   4.133  16.545  0.3272 -0.2622 -0.3276
  456MPD2    C1 6788   4.366   4.127  16.627  0.1846  0.3324 -0.2829
  456MPD2    C2 6789   4.365   4.186  16.751 -0.1133 -0.1524  0.0715
  456MPD2    C3 6790   4.250   4.248  16.795  0.2055  1.2111 -0.3169
  456MPD2    C4 6791   4.138   4.249  16.712  0.3996 -0.2098  0.0069
  456MPD2    C5 6792   4.140   4.193  16.586 -0.2935 -0.3057 -0.3264
  456MPD2     H 6793   4.451   4.187  16.817  0.5389 -2.5727 -0.7456
  456MPD2    H1 6794   4.046   4.297  16.743 -0.0600 -1.1949  0.1775
  456MPD2    H2 6795   4.247   4.087  16.447  0.4817  0.1961 -0.5595
  456MPD2    H3 6796   4.060   4.202  16.513 -1.5495  1.1895  1.2314
  456MPD2     N 6797   4.260   4.325  16.916  0.6151  0.7043  0.0147
  456MPD2    H5 6798   4.348   4.332  16.967  0.5315  0.9433  0.1311
  456MPD2    N1 6799   4.475   4.051  16.577  0.4360 -0.1990 -0.3484
  456MPD2    H7 6800   4.474   4.034  16.477 -0.0794  0.7670 -0.5033
  457TMC3    C1 6801   4.208   4.510  17.057  0.4778  1.0205  0.3661
  457TMC3    C2 6802   4.132   4.628  17.055 -0.9278  0.5477 -0.3521
  457TMC3    C3 6803   4.173   0.010  17.130  0.1173 -0.4223 -0.0987
  457TMC3    C4 6804   4.332   4.514  17.119 -0.7568 -0.1406 -0.0538
  457TMC3    C5 6805   4.373   4.625  17.178 -0.4232 -0.1730  0.3248
  457TMC3    C6 6806   4.299   0.015  17.185 -0.5349  0.6783  0.0052
  457TMC3     C 6807   4.161   4.415  16.961 -0.0956 -0.2994  0.0968
  457TMC3     O 6808   4.054   4.438  16.907 -0.2947 -0.3879  0.0551
  457TMC3     H 6809   4.031   4.627  17.016 -1.0468  0.4244 -0.0400
  457TMC3    H1 6810   4.387   4.421  17.126  1.4669  1.3591  2.3015
  457TMC3    H2 6811   4.332   0.095  17.249  0.0241 -1.1757  2.0120
  457TMC3    C7 6812   4.465   4.598  17.283 -0.6629 -0.3165  0.3127
  457TMC3    C8 6813   4.130   0.146  17.081  0.3706  1.3209  0.1880
  457TMC3    O1 6814   4.467   4.487  17.340  0.0872  0.1504  0.2547
  457TMC3    O2 6815   4.191   0.237  17.132 -0.0302  0.1692  0.6725
  458MPD2     C 6816   2.520   3.215  12.154  0.0631  0.1279 -0.0357
  458MPD2    C1 6817   2.515   3.221  12.290 -0.7341  0.4303 -0.0171
  458MPD2    C2 6818   2.390   3.240  12.346 -0.0042 -0.1500 -0.1594
  458MPD2    C3 6819   2.278   3.257  12.264  0.2191 -0.3113 -0.0448
  458MPD2    C4 6820   2.284   3.256  12.127  0.1971  0.3095  0.1229
  458MPD2    C5 6821   2.408   3.239  12.078  0.3523  0.7989 -0.4170
  458MPD2     H 6822   2.373   3.242  12.453  0.9907  1.5883 -0.0384
  458MPD2    H1 6823   2.209   3.297  12.060 -0.9994 -1.6892  0.2541
  458MPD2    H2 6824   2.611   3.188  12.103 -0.3367 -0.8390 -0.2528
  458MPD2    H3 6825   2.424   3.245  11.971 -2.9012 -1.0444 -0.9910
  458MPD2     N 6826   2.152   3.272  12.328 -0.2955 -0.0000 -0.3928
  458MPD2    H5 6827   2.151   3.254  12.428  0.6839  0.3499 -0.3171
  458MPD2    N1 6828   2.630   3.189  12.364  0.7678  0.3232  0.5163
  458MPD2    H7 6829   2.715   3.168  12.312  1.1762  0.9060  0.9423
  459TMC3    C1 6830   2.771   3.091  12.538  0.5800 -0.2120 -0.6707
  459TMC3    C2 6831   2.881   3.115  12.459 -0.4149 -0.2339 -0.2534
  459TMC3    C3 6832   2.994   3.047  12.488 -0.6835 -0.0797  0.6509
  459TMC3    C4 6833   2.774   2.994  12.639  0.0017 -0.1914 -0.2407
  459TMC3    C5 6834   2.882   2.916  12.652 -0.3444  0.3755 -0.1748
  459TMC3    C6 6835   2.996   2.941  12.578 -0.2024 -0.1641  1.0700
  459TMC3     C 6836   2.635   3.132  12.493  0.7798  0.4759 -0.3336
  459TMC3     O 6837   2.536   3.127  12.568  0.7000  0.7935  0.4225
  459TMC3     H 6838   2.871   3.202  12.396 -1.4342  1.7527  2.6436
  459TMC3    H1 6839   2.685   2.959  12.689 -0.3540 -0.6538 -1.2005
  459TMC3    H2 6840   3.080   2.873  12.584  1.4993  1.8512  0.1962
  459TMC3    C7 6841   2.906   2.845  12.771 -0.0283  0.7873 -0.1347
  459TMC3    C8 6842   3.119   3.092  12.432  0.5256  0.1014  0.0969
  459TMC3    O1 6843   2.998   2.764  12.767  0.2094  0.1958  0.6795
  459TMC3    O2 6844   3.219   3.024  12.452  0.0294  0.0078 -0.1992
  460MPD2     C 6845   2.227   0.775  10.664 -0.4229  0.2513  0.4059
  460MPD2    C1 6846   2.090   0.786  10.677 -0.1528  0.1817 -0.2881
  460MPD2    C2 6847   2.007   0.794  10.565 -0.7467 -0.2056  0.3933
  460MPD2    C3 6848   2.063   0.783  10.437 -0.0286  0.1080 -0.1838
  460MPD2    C4 6849   2.199   0.758  10.422  0.3187 -0.0347 -0.1625
  460MPD2    C5 6850   2.278   0.744  10.536 -0.1110 -0.5572  0.8710
  460MPD2     H 6851   1.902   0.811  10.582 -0.3740  1.9436  0.6328
  460MPD2    H1 6852   2.250   0.748  10.328 -0.9775 -1.3392 -0.7292
  460MPD2    H2 6853   2.296   0.775  10.748 -2.4024 -2.0217  2.0603
  460MPD2    H3 6854   2.381   0.711  10.528  0.1300  0.8666 -1.9130
  460MPD2     N 6855   1.973   0.794  10.321  0.0492 -0.3561  0.2047
  460MPD2    H5 6856   1.881   0.828  10.345 -0.5772 -1.9925  0.0933
  460MPD2    N1 6857   2.049   0.802  10.810 -0.2788  0.1043  0.3188
  460MPD2    H7 6858   2.118   0.797  10.883 -1.0229 -0.1295  1.0072
  461TMC3    C1 6859   1.910   0.803  10.096 -0.1685 -0.2435 -1.0355
  461TMC3    C2 6860   1.908   0.733   9.975 -0.0123 -0.2607  1.0131
  461TMC3    C3 6861   1.811   0.768   9.879  0.2868  0.6466  0.0373
  461TMC3    C4 6862   1.820   0.904  10.122  0.5382 -0.1509 -0.0192
  461TMC3    C5 6863   1.736   0.942  10.021 -0.6937  0.0202  0.1892
  461TMC3    C6 6864   1.730   0.876   9.900 -0.4741 -0.1123  0.0583
  461TMC3     C 6865   2.014   0.764  10.191 -0.0852 -0.5711  0.0952
  461TMC3     O 6866   2.116   0.700  10.155  0.3105 -0.3171  0.6161
  461TMC3     H 6867   1.983   0.655   9.966 -0.9474 -1.1569  0.9743
  461TMC3    H1 6868   1.829   0.964  10.212  0.8443 -0.3321  0.0719
  461TMC3    H2 6869   1.661   0.913   9.824 -1.9123  1.5596  2.1696
  461TMC3    C7 6870   1.689   1.076  10.019  0.7273  0.5657 -0.7011
  461TMC3    C8 6871   1.815   0.705   9.749  0.1629  0.3593 -0.3087
  461TMC3    O1 6872   1.651   1.122   9.907  0.0944 -0.1427 -0.1835
  461TMC3    O2 6873   1.922   0.662   9.700  0.1083  0.3736  0.0222
  462TMC3    C1 6874   1.551   2.019  17.392 -0.3356 -0.0989  0.0869
  462TMC3    C2 6875   1.571   1.972  17.263  0.1511 -0.0477 -0.0220
  462TMC3    C3 6876   1.597   1.840  17.247 -0.3274  0.0360  0.1885
  462TMC3    C4 6877   1.579   1.948  17.507  0.2018 -0.6402  0.0252
  462TMC3    C5 6878   1.595   1.817  17.484 -0.4928 -0.4843 -0.0804
  462TMC3    C6 6879   1.610   1.760  17.357  0.5272  0.1777 -0.4322
  462TMC3     C 6880   1.556   2.167  17.411  0.6530  0.3530 -0.3975
  462TMC3     O 6881   1.629   2.202  17.503 -0.0020  0.2952  0.1734
  462TMC3     H 6882   1.558   2.029  17.172  0.3344 -0.0331 -0.0386
  462TMC3    H1 6883   1.565   1.992  17.605  0.9843  0.1466 -0.2262
  462TMC3    H2 6884   1.622   1.652  17.350 -0.2149 -0.0541  1.9853
  462TMC3    C7 6885   1.564   1.737  17.602  0.2102  0.3561 -0.1075
  462TMC3    C8 6886   1.585   1.787  17.117  0.7150 -0.3895  0.0658
  462TMC3    O1 6887   1.503   1.790   0.002 -0.0819  0.0902 -0.0685
  462TMC3    O2 6888   1.499   1.839  17.042  0.9440  0.2971  0.3273
  463MPD2     C 6889   2.332   1.024   1.627 -0.2483  0.0122 -0.1740
  463MPD2    C1 6890   2.256   1.089   1.537 -0.5069 -0.0324  0.2925
  463MPD2    C2 6891   2.316   1.181   1.450  0.2598 -0.2738 -0.0506
  463MPD2    C3 6892   2.452   1.209   1.468  0.1415  0.0504 -0.0131
  463MPD2    C4 6893   2.531   1.129   1.548  0.2168  0.1470  0.9076
  463MPD2    C5 6894   2.471   1.040   1.625  0.1977 -0.1983 -0.4243
  463MPD2     H 6895   2.262   1.219   1.365 -1.8627 -0.1951  1.3332
  463MPD2    H1 6896   2.637   1.145   1.563  0.2544  1.3151 -0.5626
  463MPD2    H2 6897   2.287   0.958   1.701  0.2887  0.8790  0.9323
  463MPD2    H3 6898   2.534   0.978   1.687 -0.5092  1.2039  1.6955
  463MPD2     N 6899   2.515   1.290   1.375 -0.2229  0.3019  0.0333
  463MPD2    H5 6900   2.616   1.292   1.361 -0.2678  0.7559 -0.2575
  463MPD2    N1 6901   2.121   1.070   1.523  0.0057 -0.0501  0.4529
  463MPD2    H7 6902   2.082   1.112   1.439  3.0077 -1.2124 -1.5481
  464TMC3    C1 6903   1.913   0.970   1.532  0.0864  0.0969 -0.0490
  464TMC3    C2 6904   1.858   1.073   1.455  0.6001  0.3239  0.3262
  464TMC3    C3 6905   1.719   1.067   1.441 -0.4021  0.6934 -0.7370
  464TMC3    C4 6906   1.843   0.862   1.579 -0.3071 -0.3536  0.1015
  464TMC3    C5 6907   1.711   0.860   1.550  0.1562 -0.7116 -0.3539
  464TMC3    C6 6908   1.653   0.955   1.470  0.1798 -0.6953  0.0319
  464TMC3     C 6909   2.047   0.975   1.590 -0.1419 -0.2664 -0.4014
  464TMC3     O 6910   2.072   0.902   1.688  0.1702 -0.4284  0.1865
  464TMC3     H 6911   1.902   1.171   1.449  1.3898 -0.0865 -0.5220
  464TMC3    H1 6912   1.890   0.773   1.619 -0.3749 -1.0598 -1.3984
  464TMC3    H2 6913   1.546   0.950   1.452  0.1370  0.5353 -0.0529
  464TMC3    C7 6914   1.639   0.740   1.564  0.2013  0.5425 -0.3002
  464TMC3    C8 6915   1.650   1.191   1.441 -0.1688  0.4985 -0.6713
  464TMC3    O1 6916   1.669   0.680   1.667  0.2222 -0.4785  0.4667
  464TMC3    O2 6917   1.703   1.283   1.383 -0.6583  0.0088 -0.1749
  465MPD2     C 6918   3.486   3.761  17.352 -0.7811  0.2485  0.5681
  465MPD2    C1 6919   3.380   3.830  17.404  0.9491  0.1089  0.1296
  465MPD2    C2 6920   3.282   3.878  17.317  0.8398 -0.1038  0.2055
  465MPD2    C3 6921   3.284   3.857  17.184  0.5667  0.2845 -0.0297
  465MPD2    C4 6922   3.383   3.781  17.131  0.2064 -0.4492  0.4524
  465MPD2    C5 6923   3.488   3.733  17.214  0.4104 -0.0760  0.2901
  465MPD2     H 6924   3.204   3.934  17.366  0.5130 -0.0506 -0.3818
  465MPD2    H1 6925   3.362   3.746  17.031 -2.2328  0.3870  0.6708
  465MPD2    H2 6926   3.568   3.721  17.410 -0.0216  1.5392  0.3702
  465MPD2    H3 6927   3.573   3.678  17.175 -0.0598 -0.4564 -0.1924
  465MPD2     N 6928   3.182   3.921  17.107  0.3472  0.5216  0.8348
  465MPD2    H5 6929   3.111   3.978  17.152 -0.4962 -0.3353  0.5906
  465MPD2    N1 6930   3.362   3.847  17.544  0.3189 -0.6743  0.3056
  465MPD2    H7 6931   3.285   3.909  17.571  2.6437  2.0863  0.6183
  466TMC3    C1 6932   2.855   4.090  17.021  0.5229  0.1807  0.1786
  466TMC3    C2 6933   2.871   4.201  16.938  0.4051 -0.1534  0.0384
  466TMC3    C3 6934   2.972   4.189  16.848  0.2380  0.2051 -0.1037
  466TMC3    C4 6935   2.945   3.986  17.020  0.1487 -0.1904 -0.2784
  466TMC3    C5 6936   3.048   3.981  16.936 -0.1017  0.3015  0.5899
  466TMC3    C6 6937   3.061   4.085  16.855 -0.8159  0.1528  0.3962
  466TMC3     C 6938   2.778   4.109  17.147 -0.1027 -0.1519  0.1689
  466TMC3     O 6939   2.798   4.037  17.239  0.4476 -0.0865  0.2664
  466TMC3     H 6940   2.812   4.291  16.945 -1.6525 -1.4773 -0.2585
  466TMC3    H1 6941   2.932   3.910  17.097 -0.0163 -0.9751 -1.0849
  466TMC3    H2 6942   3.145   4.099  16.788 -0.1459 -2.6578  0.6839
  466TMC3    C7 6943   3.175   3.919  16.972 -0.0698 -0.3134 -0.0866
  466TMC3    C8 6944   3.003   4.294  16.765  0.0638  0.0355  0.3566
  466TMC3    O1 6945   3.263   3.901  16.886 -0.8039  0.2123 -0.2774
  466TMC3    O2 6946   3.028   4.265  16.647 -0.3192 -0.4616 -0.3937
  467TMC3    C1 6947   0.163   2.260  13.849  0.1052  0.2704  0.3366
  467TMC3    C2 6948   0.183   2.394  13.855 -0.1510 -0.0973  0.5683
  467TMC3    C3 6949   0.072   2.476  13.882  0.0868  0.0503  0.0482
  467TMC3    C4 6950   0.029   2.212  13.849 -0.0824 -0.5304 -0.2604
  467TMC3    C5 6951   4.643   2.296  13.869  0.6550  0.1125 -0.1265
  467TMC3    C6 6952   4.665   2.429  13.891  0.6226 -0.3097  0.3128
  467TMC3     C 6953   0.249   2.180  13.769  0.4352  0.1014 -0.6673
  467TMC3     O 6954   0.225   2.059  13.770  0.6757 -0.1681  0.1698
  467TMC3     H 6955   0.280   2.441  13.863 -1.2271  1.9137  1.6017
  467TMC3    H1 6956   0.002   2.109  13.832 -1.0044 -0.0188 -1.8684
  467TMC3    H2 6957   4.585   2.499  13.869  2.4419  0.6644 -3.1758
  467TMC3    C7 6958   4.520   2.253  13.796 -0.0354  0.3606 -0.0426
  467TMC3    C8 6959   0.084   2.618  13.848  0.5674  0.2159 -0.4405
  467TMC3    O1 6960   4.535   2.159  13.719  0.0688 -0.2778  0.2174
  467TMC3    O2 6961   0.158   2.693  13.911  0.4430 -0.3518  0.2120
  468MPD2     C 6962   3.414   0.274  10.539  0.6661 -0.2608 -0.3344
  468MPD2    C1 6963   3.545   0.277  10.495  0.8593  0.1373  0.2336
  468MPD2    C2 6964   3.623   0.164  10.527 -0.2287  0.0442  0.0669
  468MPD2    C3 6965   3.576   0.053  10.599  0.0641  0.1643 -0.1889
  468MPD2    C4 6966   3.443   0.055  10.638  0.2557  0.8021 -0.1536
  468MPD2    C5 6967   3.369   0.162  10.603 -0.0537  0.5714 -0.2978
  468MPD2     H 6968   3.725   0.173  10.490 -0.4450  0.5240 -0.4238
  468MPD2    H1 6969   3.411   4.698  10.705  1.7663  1.2865  1.1661
  468MPD2    H2 6970   3.342   0.354  10.525  0.7601 -0.5337 -2.4243
  468MPD2    H3 6971   3.268   0.177  10.638 -0.1477  0.3021 -0.4545
  468MPD2     N 6972   3.657   4.669  10.641  0.3021 -0.5268  0.4857
  468MPD2    H5 6973   3.606   4.600  10.695 -0.9728  0.2020  0.2020
  468MPD2    N1 6974   3.607   0.387  10.441  0.0000  0.1414  0.1800
  468MPD2    H7 6975   3.703   0.372  10.412 -0.0102  0.0619  0.1887
  469TMC3    C1 6976   3.637   0.602  10.387  0.6941 -0.6755  0.3068
  469TMC3    C2 6977   3.772   0.579  10.403  0.4011 -0.2962 -0.0095
  469TMC3    C3 6978   3.855   0.673  10.362  1.0924  0.6437 -0.9806
  469TMC3    C4 6979   3.588   0.719  10.335 -1.5211  0.2190 -0.4897
  469TMC3    C5 6980   3.685   0.809  10.288  0.0580  0.3103 -1.0564
  469TMC3    C6 6981   3.817   0.783  10.297  0.8681  0.2228 -0.3070
  469TMC3     C 6982   3.545   0.498  10.413 -0.1073  0.1485 -0.1204
  469TMC3     O 6983   3.423   0.522  10.416  0.1268  0.2387 -0.1413
  469TMC3     H 6984   3.822   0.487  10.434  0.6088 -0.2317 -0.1579
  469TMC3    H1 6985   3.480   0.730  10.332 -1.5090  0.8323  1.2208
  469TMC3    H2 6986   3.882   0.866  10.269  2.6526 -1.3401 -0.7522
  469TMC3    C7 6987   3.660   0.954  10.288  0.7836  0.0478 -0.1412
  469TMC3    C8 6988   3.973   0.698  10.440  0.8286  0.1110  0.3434
  469TMC3    O1 6989   3.732   1.028  10.227 -0.2289 -0.1463  1.0036
  469TMC3    O2 6990   4.045   0.791  10.402 -0.1012  0.0163 -0.1142
  470TMC3    C1 6991   1.427   2.266   0.709 -0.0359 -0.4076 -0.6312
  470TMC3    C2 6992   1.350   2.367   0.755 -0.8584 -0.3104 -0.4811
  470TMC3    C3 6993   1.398   2.423   0.875 -0.3630 -0.5889  0.0405
  470TMC3    C4 6994   1.549   2.236   0.756  0.2093 -0.0449  0.3124
  470TMC3    C5 6995   1.602   2.303   0.864 -0.1171 -0.1842 -0.2583
  470TMC3    C6 6996   1.522   2.399   0.928  0.0823  0.0008 -0.3551
  470TMC3     C 6997   1.367   2.164   0.634  0.3555  0.6282  0.4771
  470TMC3     O 6998   1.382   2.048   0.667  0.1248  0.0286 -0.3361
  470TMC3     H 6999   1.243   2.372   0.737 -1.1602 -2.2469  0.8231
  470TMC3    H1 7000   1.599   2.146   0.722 -0.7024 -0.5673  0.3249
  470TMC3    H2 7001   1.550   2.444   1.023 -1.0164  0.5767 -0.3003
  470TMC3    C7 7002   1.716   2.242   0.917 -0.4386  0.2212 -0.4467
  470TMC3    C8 7003   1.310   2.519   0.946  0.1079  0.6273 -0.1987
  470TMC3    O1 7004   1.785   2.183   0.839 -0.1011  0.0608  0.5976
  470TMC3    O2 7005   1.340   2.553   1.060 -0.1346 -0.0241  0.0862
  471MPD2     C 7006   1.471   3.648  16.705 -0.2800  0.3290 -0.0153
  471MPD2    C1 7007   1.486   3.511  16.695  0.4692  0.1703  0.0177
  471MPD2    C2 7008   1.603   3.469  16.758  0.4247 -0.3960  0.3589
  471MPD2    C3 7009   1.676   3.549  16.844  0.3007 -0.0604  0.7131
  471MPD2    C4 7010   1.642   3.682  16.859  0.6701 -0.7045  0.3545
  471MPD2    C5 7011   1.547   3.735  16.775  0.8563  0.0785 -0.4158
  471MPD2     H 7012   1.636   3.367  16.742 -3.5250 -1.6976  0.4436
  471MPD2    H1 7013   1.704   3.745  16.921 -0.7883 -1.5204  2.6548
  471MPD2    H2 7014   1.396   3.706  16.652 -0.0577  0.2779 -0.3902
  471MPD2    H3 7015   1.528   3.842  16.771  1.1764  0.1699  0.3253
  471MPD2     N 7016   1.787   3.502  16.917 -0.6382  0.0017 -0.0277
  471MPD2    H5 7017   1.820   3.542  17.004  1.4644  0.5430 -1.0663
  471MPD2    N1 7018   1.391   3.422  16.624  0.0761  0.3414  0.3654
  471MPD2    H7 7019   1.422   3.325  16.625 -0.3920  0.1638 -3.0128
  472TMC3    C1 7020   1.200   3.349  16.515  0.3842 -0.1377 -0.4743
  472TMC3    C2 7021   1.098   3.387  16.432  0.4549  1.1132 -0.1019
  472TMC3    C3 7022   1.033   3.293  16.361  0.9724 -0.4474 -0.3626
  472TMC3    C4 7023   1.239   3.220  16.538 -0.3802  0.2789 -0.1239
  472TMC3    C5 7024   1.177   3.132  16.462  0.1302 -0.0504 -0.2947
  472TMC3    C6 7025   1.070   3.165  16.379 -0.1029  0.2059 -0.2518
  472TMC3     C 7026   1.272   3.459  16.571 -0.5708 -0.0737  0.5295
  472TMC3     O 7027   1.215   3.570  16.575 -0.2022  0.1341 -0.5133
  472TMC3     H 7028   1.072   3.492  16.425 -0.6424  0.7836 -0.9395
  472TMC3    H1 7029   1.326   3.186  16.594  1.1361  0.7917 -2.1548
  472TMC3    H2 7030   1.026   3.085  16.321 -0.6054  0.3017 -0.0064
  472TMC3    C7 7031   1.209   2.991  16.481  0.0411  0.1613 -0.1055
  472TMC3    C8 7032   0.902   3.318  16.306 -0.0190  0.3355  0.3752
  472TMC3    O1 7033   1.284   2.952  16.568  0.3468 -0.4994  0.0206
  472TMC3    O2 7034   0.866   3.436  16.297 -0.2143 -0.3017 -0.0787
  473MPD2     C 7035   1.165   0.228  14.099  0.0983 -0.1094 -0.2189
  473MPD2    C1 7036   1.167   0.324  14.004 -0.5553 -0.1312 -0.1246
  473MPD2    C2 7037   1.228   0.445  14.040  0.0237 -0.0811 -0.1753
  473MPD2    C3 7038   1.291   0.462  14.164  0.6176  0.2195 -0.8157
  473MPD2    C4 7039   1.293   0.356  14.253  0.1722 -0.2171  0.5198
  473MPD2    C5 7040   1.226   0.243  14.223 -0.0866  0.1658 -0.1985
  473MPD2     H 7041   1.236   0.523  13.966 -0.8256  1.0682  0.9556
  473MPD2    H1 7042   1.328   0.377  14.354  0.4003 -0.1227  0.4219
  473MPD2    H2 7043   1.112   0.134  14.085  0.9409 -0.7190  0.7263
  473MPD2    H3 7044   1.214   0.166  14.298 -2.1344  0.9134  0.2506
  473MPD2     N 7045   1.336   0.589  14.200 -0.0325 -0.2543  0.4952
  473MPD2    H5 7046   1.396   0.588  14.282  2.0143 -1.9350 -1.0091
  473MPD2    N1 7047   1.125   0.319  13.872 -0.0087 -0.4484  0.4803
  473MPD2    H7 7048   1.132   0.407  13.822 -0.6243  0.0201  1.2279
  474TMC3    C1 7049   1.376   0.820  14.198  0.0410 -0.7610 -0.4111
  474TMC3    C2 7050   1.319   0.938  14.165 -0.2192  0.0908 -0.2515
  474TMC3    C3 7051   1.355   1.046  14.235  0.1881  0.0154  0.6117
  474TMC3    C4 7052   1.478   0.811  14.290 -0.0252 -0.1203 -0.3439
  474TMC3    C5 7053   1.513   0.926  14.357 -0.5616 -0.1975 -0.3113
  474TMC3    C6 7054   1.443   1.050  14.340  0.0490 -0.1923  0.0899
  474TMC3     C 7055   1.311   0.707  14.138  0.3540 -0.6904 -0.4604
  474TMC3     O 7056   1.235   0.729  14.044 -0.2477  0.2795 -0.0862
  474TMC3     H 7057   1.260   0.948  14.075  0.2007 -0.1535 -0.5562
  474TMC3    H1 7058   1.535   0.720  14.305  0.0157 -0.0067  0.1576
  474TMC3    H2 7059   1.460   1.137  14.402 -1.4805  0.4227 -0.3482
  474TMC3    C7 7060   1.616   0.925  14.450  0.2547  0.3018  0.5595
  474TMC3    C8 7061   1.297   1.170  14.196  0.5905  0.3399  0.2267
  474TMC3    O1 7062   1.723   0.867  14.426  0.5012 -0.5966  0.1272
  474TMC3    O2 7063   1.191   1.153  14.134  0.2045 -0.1580 -0.2130
  475MPD2     C 7064   4.472   2.823  10.030 -0.9019 -0.3297  0.0833
  475MPD2    C1 7065   4.444   2.954  10.057 -0.3547 -0.0013  0.0181
  475MPD2    C2 7066   4.321   3.009  10.026 -0.0036 -0.2767 -0.0028
  475MPD2    C3 7067   4.232   2.931   9.956 -0.1592  0.2150  0.5368
  475MPD2    C4 7068   4.261   2.796   9.938  0.4573 -0.1937  0.3649
  475MPD2    C5 7069   4.380   2.742   9.982 -0.1511 -0.6751  0.2550
  475MPD2     H 7070   4.294   3.113  10.039  0.9503  0.1687 -1.6461
  475MPD2    H1 7071   4.186   2.730   9.896  1.4619  0.2995 -2.2701
  475MPD2    H2 7072   4.565   2.780  10.065 -2.2730 -1.7514  1.9494
  475MPD2    H3 7073   4.405   2.638   9.962  0.4596 -0.3006 -0.9753
  475MPD2     N 7074   4.110   2.991   9.904  0.5804 -0.1500  0.4203
  475MPD2    H5 7075   4.104   3.090   9.923  0.4548 -0.0829  0.0276
  475MPD2    N1 7076   4.543   3.028  10.129  0.3636  0.4649 -0.1359
  475MPD2    H7 7077   4.640   2.997  10.126  0.3092  0.3657 -1.0588
  476TMC3    C1 7078   4.634   3.233  10.213  0.0430  0.7111 -0.2639
  476TMC3    C2 7079   4.721   3.243  10.110  0.4334  0.1601  0.5942
  476TMC3    C3 7080   0.040   3.366  10.068 -0.2442 -0.3534  0.0895
  476TMC3    C4 7081   4.601   3.345  10.282 -0.0157 -0.2428  0.8044
  476TMC3    C5 7082   4.663   3.463  10.254  0.2134  0.1115 -0.1935
  476TMC3    C6 7083   0.021   3.478  10.143 -0.1524 -0.1886 -0.4403
  476TMC3     C 7084   4.516   3.153  10.186 -0.4704  0.1110  0.0003
  476TMC3     O 7085   4.408   3.181  10.233 -0.6860  0.3280 -0.4550
  476TMC3     H 7086   0.022   3.147  10.066 -0.7530 -0.2924  0.9432
  476TMC3    H1 7087   4.531   3.334  10.364  1.4513 -1.3891  1.8963
  476TMC3    H2 7088   0.064   3.574  10.116  1.3174 -0.5019  0.7458
  476TMC3    C7 7089   4.642   3.567  10.357  0.1919 -0.2271  0.2507
  476TMC3    C8 7090   4.691   3.397   9.948 -0.0642  0.3473 -0.4972
  476TMC3    O1 7091   4.537   3.567  10.421  0.1583  0.3036  0.0262
  476TMC3    O2 7092   4.633   3.504   9.951 -0.0015  0.3476  0.3677
  477MPD2     C 7093   2.570   4.561  11.566  0.4060  0.7189  0.3945
  477MPD2    C1 7094   2.446   4.497  11.566 -0.6513  0.1855  0.3502
  477MPD2    C2 7095   2.433   4.397  11.662 -0.1535  0.4207 -0.1994
  477MPD2    C3 7096   2.523   4.376  11.758 -0.2427  0.6103  0.4067
  477MPD2    C4 7097   2.637   4.445  11.758 -0.4890 -0.0010  0.2791
  477MPD2    C5 7098   2.662   4.530  11.660  0.2664 -0.4375 -0.1576
  477MPD2     H 7099   2.343   4.338  11.664  1.5621 -2.1895 -0.0246
  477MPD2    H1 7100   2.707   4.444  11.841  2.6725 -2.6043 -2.4539
  477MPD2    H2 7101   2.591   4.640  11.495  2.1558  1.1297  1.3753
  477MPD2    H3 7102   2.755   4.579  11.635  0.6033  0.2807  2.5517
  477MPD2     N 7103   2.489   4.283  11.863 -0.5867  0.6092  0.0465
  477MPD2    H5 7104   2.421   4.211  11.841 -0.7359  0.6361  0.4272
  477MPD2    N1 7105   2.350   4.546  11.482 -0.0476 -0.8057  0.6635
  477MPD2    H7 7106   2.370   4.602  11.399 -1.7056 -1.0323  0.1182
  478TMC3    C1 7107   2.136   4.614  11.423  0.0458 -0.4610  0.4322
  478TMC3    C2 7108   2.042   4.672  11.508 -0.0832 -0.0467  0.6889
  478TMC3    C3 7109   2.002   0.080  11.481 -0.1892  0.4405  0.7249
  478TMC3    C4 7110   2.197   4.685  11.322  0.0361  0.6062 -0.3542
  478TMC3    C5 7111   2.146   0.086  11.299  0.2570  0.6835 -0.1626
  478TMC3    C6 7112   2.060   0.149  11.380  0.2487 -1.2439 -0.0789
  478TMC3     C 7113   2.216   4.524  11.504  0.0697 -0.0053 -0.4941
  478TMC3     O 7114   2.162   4.463  11.596 -0.4572 -0.5379  0.7038
  478TMC3     H 7115   2.016   4.623  11.601  1.2330 -1.2730  0.4128
  478TMC3    H1 7116   2.265   4.644  11.247  0.6950  0.5820  0.2583
  478TMC3    H2 7117   2.011   0.241  11.349 -0.1277 -1.1278  0.8484
  478TMC3    C7 7118   2.181   0.148  11.175 -1.1126 -0.5634  0.0954
  478TMC3    C8 7119   1.910   0.148  11.572 -0.0726 -0.1238  0.6709
  478TMC3    O1 7120   2.288   0.125  11.127  1.0010 -0.6779  0.2799
  478TMC3    O2 7121   1.847   0.075  11.643  0.3775  0.3377 -0.0562
  479MPD2     C 7122   0.938   2.809  15.371 -0.3532  0.3144 -0.8088
  479MPD2    C1 7123   0.895   2.704  15.450  0.3339 -0.6532 -0.2402
  479MPD2    C2 7124   0.865   2.734  15.583 -0.1466  0.0801  0.4519
  479MPD2    C3 7125   0.881   2.862  15.634 -0.2781  0.0892 -1.1780
  479MPD2    C4 7126   0.926   2.963  15.557  0.0308 -0.2906  0.4352
  479MPD2    C5 7127   0.948   2.937  15.425  0.8690  0.1877  0.1286
  479MPD2     H 7128   0.847   2.651  15.652 -1.5328 -0.0074 -0.0125
  479MPD2    H1 7129   0.939   3.063  15.596  0.2820  0.8166 -2.5320
  479MPD2    H2 7130   0.964   2.801  15.266 -3.0589 -0.2207 -1.4271
  479MPD2    H3 7131   0.962   3.020  15.356 -0.1014 -1.1082 -1.6133
  479MPD2     N 7132   0.862   2.899  15.767 -0.8502  0.0606 -0.4844
  479MPD2    H5 7133   0.895   2.994  15.779  2.3523 -1.1960  0.7111
  479MPD2    N1 7134   0.889   2.574  15.399  0.7760 -0.0842  0.5651
  479MPD2    H7 7135   0.920   2.561  15.303  1.3028  1.0063  0.5876
  480TMC3    C1 7136   0.583   2.572  15.945 -0.2052  0.5650 -0.1142
  480TMC3    C2 7137   0.510   2.553  15.832  0.1222  0.5673  0.4499
  480TMC3    C3 7138   0.524   2.641  15.723  0.6873  0.5576 -0.8152
  480TMC3    C4 7139   0.691   2.649  15.950  0.2732  0.1111  0.1310
  480TMC3    C5 7140   0.710   2.727  15.848  0.2400  0.4156 -0.1203
  480TMC3    C6 7141   0.615   2.743  15.746  0.3321  0.7980 -0.0863
  480TMC3     C 7142   0.576   2.459  16.040 -0.9459 -0.3451  0.6480
  480TMC3     O 7143   0.662   2.438  16.124 -0.0583  0.0025  0.1569
  480TMC3     H 7144   0.451   2.463  15.814 -1.4756  1.6034  0.5296
  480TMC3    H1 7145   0.747   2.654  16.043 -1.0675 -2.9190  1.1112
  480TMC3    H2 7146   0.636   2.824  15.677  0.9680  2.0731  1.6038
  480TMC3    C7 7147   0.802   2.834  15.875  0.4483 -0.5712  0.0193
  480TMC3    C8 7148   0.461   2.606  15.594  0.0268  0.1526 -0.3153
  480TMC3    O1 7149   0.813   2.860  15.993  0.3670  0.6206 -0.1234
  480TMC3    O2 7150   0.367   2.529  15.584  0.2393  0.3411 -0.7010
  481MPD2     C 7151   2.132   1.998  14.117  0.3034  0.1517  0.5720
  481MPD2    C1 7152   2.176   1.876  14.153 -0.3778  0.0492  0.4445
  481MPD2    C2 7153   2.172   1.831  14.289 -0.6777  0.5578  0.0816
  481MPD2    C3 7154   2.114   1.910  14.384  0.1557 -0.0669  0.0534
  481MPD2    C4 7155   2.071   2.036  14.344  0.0264 -0.0092  0.1519
  481MPD2    C5 7156   2.085   2.082  14.211  0.0756 -0.1894 -0.5495
  481MPD2     H 7157   2.217   1.737  14.320 -2.5520 -0.4258 -0.2107
  481MPD2    H1 7158   2.024   2.099  14.419 -0.9181 -0.4908 -0.0291
  481MPD2    H2 7159   2.165   2.031  14.019 -2.0677 -1.3198 -0.7459
  481MPD2    H3 7160   2.055   2.186  14.198  0.2873 -0.0336  0.2071
  481MPD2     N 7161   2.127   1.888  14.523 -0.0079  0.4015 -0.4231
  481MPD2    H5 7162   2.097   1.966  14.580 -1.0442 -0.2629 -0.0618
  481MPD2    N1 7163   2.232   1.803  14.044  0.2046  0.0488  0.3748
  481MPD2    H7 7164   2.274   1.853  13.967 -1.3412  1.0583  0.1927
  482TMC3    C1 7165   2.376   1.617  13.999 -0.0834 -0.0069  0.6100
  482TMC3    C2 7166   2.371   1.481  13.990 -0.0886 -0.5392 -0.1001
  482TMC3    C3 7167   2.483   1.424  13.933  0.1307 -0.3977  0.7811
  482TMC3    C4 7168   2.481   1.693  13.948 -0.1526 -0.6491 -0.9405
  482TMC3    C5 7169   2.597   1.632  13.903  0.4139  0.1375 -0.3797
  482TMC3    C6 7170   2.593   1.498  13.886  0.0344  0.5357  0.3359
  482TMC3     C 7171   2.258   1.670  14.061 -0.3880  0.3820  0.0367
  482TMC3     O 7172   2.188   1.587  14.116  0.4982  0.1203  0.3138
  482TMC3     H 7173   2.281   1.420  13.987 -0.8950  0.6275  0.7526
  482TMC3    H1 7174   2.467   1.800  13.961 -3.4181 -0.9372 -2.0988
  482TMC3    H2 7175   2.677   1.449  13.839 -2.2691 -1.4739 -1.7041
  482TMC3    C7 7176   2.660   1.706  13.796  0.3252 -0.3768 -0.4846
  482TMC3    C8 7177   2.469   1.280  13.910  0.4576  0.1990 -0.6303
  482TMC3    O1 7178   2.774   1.744  13.807 -0.2220 -0.2991 -0.3803
  482TMC3    O2 7179   2.351   1.248  13.911 -0.4311  0.6477  0.3735
  483TMC3    C1 7180   0.894   1.433   1.416 -0.3533  0.5732 -0.2406
  483TMC3    C2 7181   0.880   1.509   1.302  0.2225  0.8321  0.3209
  483TMC3    C3 7182   0.978   1.492   1.205 -0.0333  0.6125 -0.2787
  483TMC3    C4 7183   1.003   1.351   1.431  0.1370 -0.7523  0.1925
  483TMC3    C5 7184   1.091   1.337   1.324 -1.0200  0.5641 -0.2968
  483TMC3    C6 7185   1.086   1.415   1.212 -0.2427  0.0776 -0.8500
  483TMC3     C 7186   0.769   1.375   1.444  0.6729 -0.1416 -0.0616
  483TMC3     O 7187   0.674   1.449   1.471 -0.5101 -0.1405 -0.1044
  483TMC3     H 7188   0.792   1.571   1.283 -1.1020 -0.8422  0.9794
  483TMC3    H1 7189   1.014   1.291   1.520  1.9047 -1.5847 -0.5772
  483TMC3    H2 7190   1.148   1.399   1.125 -1.5886  0.3682 -1.8588
  483TMC3    C7 7191   1.144   1.204   1.315  0.3313 -0.1307  0.4313
  483TMC3    C8 7192   0.928   1.498   1.070  0.3281  0.8654  0.3742
  483TMC3    O1 7193   1.089   1.118   1.381 -0.0637 -0.0666 -0.1938
  483TMC3    O2 7194   1.010   1.532   0.986 -0.3723 -0.1752  0.4452
  484MPD2     C 7195   3.188   3.404  12.258 -0.0363  0.0220 -0.2487
  484MPD2    C1 7196   3.221   3.291  12.326  0.5158  0.0267 -0.6321
  484MPD2    C2 7197   3.360   3.257  12.345 -0.8761 -0.5327  0.7974
  484MPD2    C3 7198   3.460   3.331  12.288 -0.0284  0.0428 -0.1155
  484MPD2    C4 7199   3.429   3.450  12.224 -0.6241  0.2395  0.7550
  484MPD2    C5 7200   3.292   3.485  12.211  0.3401 -0.1490  0.1397
  484MPD2     H 7201   3.390   3.169  12.402 -0.1630  0.2524  1.6173
  484MPD2    H1 7202   3.508   3.514  12.188  0.3177 -0.3546  1.7836
  484MPD2    H2 7203   3.084   3.432  12.246 -0.0766  1.1738  2.6907
  484MPD2    H3 7204   3.269   3.581  12.167 -2.2002 -0.3765  0.9630
  484MPD2     N 7205   3.600   3.301  12.303  0.1344  0.5594  0.0269
  484MPD2    H5 7206   3.665   3.359  12.250 -0.4617  0.7876 -0.4440
  484MPD2    N1 7207   3.113   3.217  12.371  0.1321  0.2207 -0.2744
  484MPD2    H7 7208   3.022   3.252  12.343 -0.0303  1.2697  1.5693
  485TMC3    C1 7209   3.802   3.194  12.347  0.1651  0.8852  0.3032
  485TMC3    C2 7210   3.875   3.124  12.441 -0.7344  0.7693 -0.3897
  485TMC3    C3 7211   4.014   3.147  12.438 -0.3046 -0.6160 -0.1505
  485TMC3    C4 7212   3.858   3.274  12.249 -0.0687  0.3129  0.0059
  485TMC3    C5 7213   3.998   3.281  12.238 -0.3515 -0.2038 -0.9172
  485TMC3    C6 7214   4.068   3.227  12.342 -0.1126  0.2424  0.1629
  485TMC3     C 7215   3.660   3.183  12.349 -0.2963 -0.2632 -0.0884
  485TMC3     O 7216   3.610   3.088  12.410  0.0157  0.3585 -0.5719
  485TMC3     H 7217   3.828   3.056  12.510  0.0957  0.2245 -0.3610
  485TMC3    H1 7218   3.806   3.313  12.163  0.9162  2.7412  0.4887
  485TMC3    H2 7219   4.175   3.246  12.348 -0.5074  1.9889  1.4678
  485TMC3    C7 7220   4.054   3.254  12.110 -0.3186  0.0580  0.7564
  485TMC3    C8 7221   4.091   3.028  12.466 -0.3311  0.0330  0.5013
  485TMC3    O1 7222   4.004   3.302  12.006  0.0042  0.1382 -0.0419
  485TMC3    O2 7223   4.193   3.019  12.393 -0.1791 -0.2652  0.4341
  486MPD2     C 7224   0.596   2.281  13.051 -0.0441  0.4743 -0.3144
  486MPD2    C1 7225   0.644   2.277  12.924 -0.1492  0.3664  0.1039
  486MPD2    C2 7226   0.650   2.392  12.852 -0.8123  0.0479 -0.2868
  486MPD2    C3 7227   0.611   2.514  12.908 -0.2662 -0.3022  0.2557
  486MPD2    C4 7228   0.567   2.510  13.040  0.4092 -0.1462 -0.2862
  486MPD2    C5 7229   0.548   2.395  13.109  0.2953 -0.1743  0.3683
  486MPD2     H 7230   0.708   2.408  12.762  1.4282  0.7883  1.2922
  486MPD2    H1 7231   0.552   2.611  13.076 -2.6988 -0.9814  0.7222
  486MPD2    H2 7232   0.581   2.190  13.107 -0.7113  0.4664 -0.5004
  486MPD2    H3 7233   0.507   2.404  13.209 -0.6171 -0.3404  0.0114
  486MPD2     N 7234   0.632   2.629  12.828  0.2374 -0.6067 -0.4763
  486MPD2    H5 7235   0.701   2.621  12.753 -0.2796 -2.0296 -0.7961
  486MPD2    N1 7236   0.691   2.156  12.869 -0.4281 -0.0516  0.5929
  486MPD2    H7 7237   0.692   2.078  12.934  2.0405 -1.7751 -1.4867
  487TMC3    C1 7238   0.766   1.997  12.732 -0.2419 -0.2638  0.5735
  487TMC3    C2 7239   0.666   1.907  12.721  0.0721 -0.1036 -0.1879
  487TMC3    C3 7240   0.704   1.778  12.758 -0.2819 -0.6383 -0.2670
  487TMC3    C4 7241   0.876   1.976  12.803  0.2840 -0.0133 -0.1218
  487TMC3    C5 7242   0.897   1.852  12.860  0.0017 -0.0107  0.6687
  487TMC3    C6 7243   0.820   1.741  12.823  0.6286  0.1449  0.1710
  487TMC3     C 7244   0.716   2.129  12.737 -0.1521  0.4465 -0.0451
  487TMC3     O 7245   0.702   2.193  12.636 -0.0959  0.1774  0.2584
  487TMC3     H 7246   0.576   1.938  12.670 -0.3155  1.4786  1.5156
  487TMC3    H1 7247   0.942   2.061  12.816  1.6546 -1.1505  0.3994
  487TMC3    H2 7248   0.827   1.650  12.881  0.0955 -0.1541 -0.2226
  487TMC3    C7 7249   0.966   1.855  12.991  0.4000 -0.7922  0.5779
  487TMC3    C8 7250   0.595   1.698  12.792  0.9921 -0.4739 -0.6832
  487TMC3    O1 7251   0.987   1.965  13.040  0.0754  0.1769 -0.3120
  487TMC3    O2 7252   0.617   1.577  12.806  0.8825  0.1451  0.1833
  488MPD2     C 7253   0.463   4.269  16.731 -0.0256 -0.1731 -0.3206
  488MPD2    C1 7254   0.441   4.403  16.743 -0.3800 -0.4576  0.4872
  488MPD2    C2 7255   0.386   4.441  16.863 -0.4826 -0.0760 -0.7681
  488MPD2    C3 7256   0.354   4.354  16.962  0.2546 -0.5066  0.0826
  488MPD2    C4 7257   0.384   4.218  16.953 -0.1911  0.5419  0.4519
  488MPD2    C5 7258   0.440   4.180  16.836 -0.2644  0.0666 -0.7299
  488MPD2     H 7259   0.360   4.544  16.884 -4.3251 -1.6625  2.2140
  488MPD2    H1 7260   0.375   4.147  17.034 -1.5436 -0.2386 -0.3818
  488MPD2    H2 7261   0.516   4.231  16.644 -1.6963 -1.2612 -0.8561
  488MPD2    H3 7262   0.461   4.074  16.823  1.6527  0.6116 -2.1491
  488MPD2     N 7263   0.281   4.408  17.068 -0.2382  0.7780 -0.0897
  488MPD2    H5 7264   0.275   4.508  17.084 -0.2962  0.8095 -0.3067
  488MPD2    N1 7265   0.466   4.499  16.639  0.1983  0.2985 -0.1232
  488MPD2    H7 7266   0.455   4.597  16.660 -0.1629  0.4960 -1.2571
  489TMC3    C1 7267   0.163   4.424  17.276  0.3323 -0.5734  0.5424
  489TMC3    C2 7268   0.156   4.557  17.243  0.3166 -0.1005 -0.1902
  489TMC3    C3 7269   0.226   4.642  17.323  0.7488  1.0949  0.1820
  489TMC3    C4 7270   0.220   4.385  17.395 -0.7589  0.2306 -0.1573
  489TMC3    C5 7271   0.279   4.476  17.472 -0.2249  0.2471 -0.0185
  489TMC3    C6 7272   0.279   4.609  17.444 -0.2944  0.1431 -0.1913
  489TMC3     C 7273   0.205   4.339  17.160 -0.5805 -0.4895  0.1070
  489TMC3     O 7274   0.189   4.221  17.175 -0.4697  0.6452  0.1810
  489TMC3     H 7275   0.108   4.583  17.149  1.3294  3.0388  0.1309
  489TMC3    H1 7276   0.236   4.281  17.422 -0.6037  0.6156  1.2738
  489TMC3    H2 7277   0.306   4.681  17.521 -0.2959 -1.3884  1.2483
  489TMC3    C7 7278   0.349   4.433  17.596  0.2392 -0.0765 -0.5629
  489TMC3    C8 7279   0.283   0.021  17.256 -0.2034 -0.0159 -0.0968
  489TMC3    O1 7280   0.418   4.510  17.658 -0.2562  0.0843  0.2488
  489TMC3    O2 7281   0.308   4.722  17.139 -0.4644 -0.3241  0.2363
  490MPD2     C 7282   1.675   3.711   0.027  0.2877  0.2488 -0.5429
  490MPD2    C1 7283   1.585   3.703  17.616 -0.0428 -0.5713  0.3348
  490MPD2    C2 7284   1.552   3.818  17.555 -0.0237  0.4369 -0.3529
  490MPD2    C3 7285   1.600   3.937  17.599  0.4505 -0.7277 -0.0213
  490MPD2    C4 7286   1.690   3.944   0.011  0.5666 -0.0697  0.6449
  490MPD2    C5 7287   1.728   3.828   0.075  0.4805  0.9658 -0.5929
  490MPD2     H 7288   1.481   3.813  17.473  3.0295 -1.6613 -2.8581
  490MPD2    H1 7289   1.711   4.044   0.045 -0.2039  0.6202 -0.9188
  490MPD2    H2 7290   1.695   3.625   0.090  1.1468  0.1191 -0.9969
  490MPD2    H3 7291   1.802   3.829   0.154 -0.0833  3.3631 -0.0933
  490MPD2     N 7292   1.581   4.062  17.529 -0.0335  0.6068  0.9307
  490MPD2    H5 7293   1.648   4.135  17.549  2.1733 -1.5133  1.3673
  490MPD2    N1 7294   1.509   3.584  17.588 -0.8150 -0.0262  0.3559
  490MPD2    H7 7295   1.420   3.598  17.542 -0.9864  0.6736  0.9013
  491TMC3    C1 7296   1.420   3.373  17.617 -0.1971  0.1496  0.8245
  491TMC3    C2 7297   1.351   3.330   0.033  0.4374 -0.1847 -0.0402
  491TMC3    C3 7298   1.235   3.256   0.016  0.1151  0.4403  0.3276
  491TMC3    C4 7299   1.363   3.361  17.490 -0.2887  0.1378  0.8587
  491TMC3    C5 7300   1.240   3.299  17.472 -0.3812  0.5659 -0.2978
  491TMC3    C6 7301   1.186   3.227  17.581  0.4261  0.2601 -0.1002
  491TMC3     C 7302   1.535   3.458  17.638 -0.0363 -0.2977 -0.2174
  491TMC3     O 7303   1.624   3.430   0.025  0.0718 -0.0397  0.0334
  491TMC3     H 7304   1.388   3.356   0.131 -0.4146  2.8341 -0.5054
  491TMC3    H1 7305   1.416   3.395  17.401  0.6480 -1.8139  0.6669
  491TMC3    H2 7306   1.100   3.160  17.577  1.3331 -0.9207  0.2314
  491TMC3    C7 7307   1.166   3.312  17.344 -0.5604  0.1890  1.1968
  491TMC3    C8 7308   1.150   3.218   0.128 -0.1050 -0.4438 -0.4235
  491TMC3    O1 7309   1.085   3.222  17.325 -0.3120  0.2284  0.5407
  491TMC3    O2 7310   1.029   3.216   0.112  0.1953  0.5256  0.7752
  492MPD2     C 7311   1.829   3.885  11.117 -0.1094  0.3395  0.2156
  492MPD2    C1 7312   1.758   3.800  11.033  0.2108 -0.1013 -0.0532
  492MPD2    C2 7313   1.696   3.696  11.092 -0.0268 -0.5381  0.1041
  492MPD2    C3 7314   1.694   3.671  11.231  0.2152  0.1738 -0.2049
  492MPD2    C4 7315   1.766   3.758  11.308 -0.2616  0.3029 -0.6464
  492MPD2    C5 7316   1.829   3.860  11.254  0.2188  0.1416  0.3801
  492MPD2     H 7317   1.640   3.629  11.028 -2.8020  1.4462  0.4814
  492MPD2    H1 7318   1.781   3.744  11.415  1.3161 -0.4822 -0.9668
  492MPD2    H2 7319   1.882   3.971  11.078  1.6647 -1.2502 -0.8475
  492MPD2    H3 7320   1.870   3.930  11.325  0.7861 -0.2721  0.4570
  492MPD2     N 7321   1.630   3.562  11.300  0.0380 -0.0301  0.2603
  492MPD2    H5 7322   1.640   3.546  11.400  0.6926 -0.2444  0.1636
  492MPD2    N1 7323   1.746   3.833  10.895  0.4216  0.0228 -0.8288
  492MPD2    H7 7324   1.809   3.905  10.860 -0.0138  0.2469 -1.1542
  493TMC3    C1 7325   1.688   3.790  10.670  0.2170  0.6430 -0.2056
  493TMC3    C2 7326   1.800   3.855  10.623 -0.1298 -0.3917 -0.2149
  493TMC3    C3 7327   1.834   3.861  10.489  0.1799  0.7146 -0.1551
  493TMC3    C4 7328   1.602   3.733  10.583 -0.7271  1.0622  0.2354
  493TMC3    C5 7329   1.630   3.747  10.451  0.3580  1.0089 -0.4871
  493TMC3    C6 7330   1.751   3.800  10.398 -0.6475 -0.0917 -0.1337
  493TMC3     C 7331   1.666   3.763  10.812 -0.3000 -0.0603  0.1086
  493TMC3     O 7332   1.562   3.702  10.842 -0.2904 -0.2158  0.0511
  493TMC3     H 7333   1.873   3.899  10.689  1.4446  0.8469 -2.7811
  493TMC3    H1 7334   1.509   3.689  10.615  0.6831 -0.9768  1.5010
  493TMC3    H2 7335   1.762   3.802  10.290  0.4115 -1.4220 -0.0581
  493TMC3    C7 7336   1.549   3.663  10.368  0.3272 -0.0714 -0.1707
  493TMC3    C8 7337   1.965   3.925  10.450  0.4715 -0.1534  0.3512
  493TMC3    O1 7338   1.435   3.660  10.400 -0.4118  0.1561 -0.2872
  493TMC3    O2 7339   2.036   3.950  10.547  0.0074 -0.5308  0.4363
  494TMC3    C1 7340   1.759   1.249   0.434 -0.6292  0.3724 -0.5430
  494TMC3    C2 7341   1.753   1.120   0.495  0.5294 -0.8369 -0.2486
  494TMC3    C3 7342   1.832   1.021   0.433 -0.5728 -0.8296 -0.5849
  494TMC3    C4 7343   1.841   1.280   0.323 -0.5595 -0.1795 -0.2578
  494TMC3    C5 7344   1.917   1.178   0.274  0.0605 -0.2529 -1.1149
  494TMC3    C6 7345   1.919   1.049   0.327 -0.0697 -0.2602 -0.1604
  494TMC3     C 7346   1.700   1.352   0.508  0.8179 -0.0847 -0.0507
  494TMC3     O 7347   1.663   1.328   0.620  0.3410 -0.4565  0.4052
  494TMC3     H 7348   1.680   1.101   0.573  1.3034  0.8548  0.8901
  494TMC3    H1 7349   1.853   1.384   0.294 -0.1252 -0.2436 -0.3161
  494TMC3    H2 7350   1.984   0.972   0.288 -1.3170 -0.1647 -2.4456
  494TMC3    C7 7351   1.990   1.204   0.157 -0.3427 -0.1411 -0.5833
  494TMC3    C8 7352   1.816   0.885   0.478 -0.3021 -0.0554 -0.2611
  494TMC3    O1 7353   2.056   1.110   0.119  0.9153 -0.3069  0.4609
  494TMC3    O2 7354   1.788   0.858   0.595 -0.2168 -0.4242  0.6516
  495TMC3    C1 7355   1.023   2.889  14.823  0.1089 -0.1687 -0.0057
  495TMC3    C2 7356   0.969   2.888  14.694  0.2591  0.1970  0.2230
  495TMC3    C3 7357   0.839   2.860  14.683  0.6015  0.1655  0.4542
  495TMC3    C4 7358   0.943   2.880  14.936  0.2748 -0.2792 -0.3150
  495TMC3    C5 7359   0.807   2.847  14.919  0.0728  0.5705 -0.2818
  495TMC3    C6 7360   0.754   2.838  14.794 -0.1095 -0.1149 -0.0115
  495TMC3     C 7361   1.128   2.787  14.823  0.4496  0.0695 -0.2746
  495TMC3     O 7362   1.106   2.679  14.874 -0.0754 -0.0236  0.6761
  495TMC3     H 7363   1.026   2.891  14.602 -1.3859  3.3384 -0.7024
  495TMC3    H1 7364   1.000   2.856  15.024 -0.0266 -0.2103 -0.1003
  495TMC3    H2 7365   0.654   2.802  14.775 -0.1957  0.6575 -0.9902
  495TMC3    C7 7366   0.725   2.820  15.034 -0.2951 -0.1628 -0.1376
  495TMC3    C8 7367   0.789   2.813  14.553 -0.4361  0.3047 -0.2821
  495TMC3    O1 7368   0.741   2.890  15.133 -0.1318 -0.4667  0.6450
  495TMC3    O2 7369   0.672   2.830  14.525  0.4280  0.3221  0.0144
  496MPD2     C 7370   3.193   2.484  15.532  0.1283 -0.0390  0.3150
  496MPD2    C1 7371   3.095   2.401  15.476 -0.1587  0.1316  0.2779
  496MPD2    C2 7372   2.964   2.427  15.516  0.3529  0.5440 -0.7049
  496MPD2    C3 7373   2.924   2.542  15.581 -0.0465  1.0597 -0.1709
  496MPD2    C4 7374   3.022   2.625  15.624  0.8549  0.3093  0.3691
  496MPD2    C5 7375   3.161   2.594  15.603 -0.0496  0.2571  0.9973
  496MPD2     H 7376   2.885   2.358  15.487 -0.0939 -0.2603  2.4313
  496MPD2    H1 7377   2.991   2.712  15.680  1.5976 -0.0328  1.3248
  496MPD2    H2 7378   3.296   2.465  15.505 -0.4252 -2.0840 -0.3282
  496MPD2    H3 7379   3.237   2.660  15.642  0.3646  0.2349  0.2205
  496MPD2     N 7380   2.792   2.574  15.622  0.1230  0.1691 -0.2321
  496MPD2    H5 7381   2.776   2.660  15.674  0.7957 -0.2131  0.5900
  496MPD2    N1 7382   3.136   2.293  15.392 -0.0247 -0.7737  0.8455
  496MPD2    H7 7383   3.225   2.299  15.343  0.0591 -2.6787  0.7717
  497TMC3    C1 7384   2.554   2.572  15.641  0.4793  0.0298  0.0711
  497TMC3    C2 7385   2.435   2.518  15.602 -1.0581 -0.0712 -0.5993
  497TMC3    C3 7386   2.320   2.585  15.637 -0.5172  0.1407 -0.2695
  497TMC3    C4 7387   2.555   2.680  15.723  0.3640  0.1966 -0.0590
  497TMC3    C5 7388   2.438   2.730  15.768  0.3176 -0.6723  0.6326
  497TMC3    C6 7389   2.318   2.691  15.720  0.3391 -0.1008 -0.0927
  497TMC3     C 7390   2.681   2.501  15.598  0.1656 -0.3651  0.7769
  497TMC3     O 7391   2.676   2.383  15.567  0.0836  0.1768 -0.0702
  497TMC3     H 7392   2.440   2.432  15.536 -0.3934  0.9194 -1.8287
  497TMC3    H1 7393   2.650   2.731  15.729  0.4853 -0.0224 -0.0937
  497TMC3    H2 7394   2.226   2.745  15.736  0.7185  0.7077 -0.6265
  497TMC3    C7 7395   2.447   2.846  15.855 -0.4462  0.2689 -0.4168
  497TMC3    C8 7396   2.192   2.531  15.596  0.0410 -0.1422 -0.6279
  497TMC3    O1 7397   2.345   2.915  15.853  0.2733  0.5142 -0.7962
  497TMC3    O2 7398   2.095   2.565  15.665  0.2437  0.2609 -0.2945
  498MPD2     C 7399   3.800   3.045   9.303 -0.7217 -0.0486 -0.0826
  498MPD2    C1 7400   3.902   2.997   9.381 -0.4355 -0.3038  0.6346
  498MPD2    C2 7401   3.886   2.882   9.450  0.7117  0.2483  0.3966
  498MPD2    C3 7402   3.764   2.815   9.444 -0.1072  0.1883 -0.2815
  498MPD2    C4 7403   3.665   2.857   9.363  0.8817  0.6757 -0.9229
  498MPD2    C5 7404   3.683   2.976   9.298 -0.2912  0.9479  0.7498
  498MPD2     H 7405   3.964   2.841   9.514  0.8378  0.0720  0.1321
  498MPD2    H1 7406   3.573   2.804   9.343  0.3605  2.4086 -3.1013
  498MPD2    H2 7407   3.800   3.144   9.260 -0.7157 -0.9163 -2.0943
  498MPD2    H3 7408   3.605   3.022   9.238 -0.9778  0.4368  1.2342
  498MPD2     N 7409   3.745   2.692   9.517  0.5633 -0.7457 -0.1707
  498MPD2    H5 7410   3.813   2.665   9.587  0.4935  0.2059  0.2691
  498MPD2    N1 7411   4.019   3.072   9.396  0.2414 -0.2657 -0.3634
  498MPD2    H7 7412   4.091   3.027   9.451  1.0021  1.3504 -0.0404
  499TMC3    C1 7413   4.181   3.226   9.334  0.2260  0.3208 -0.5724
  499TMC3    C2 7414   4.276   3.129   9.357  0.0444 -0.3913  0.0850
  499TMC3    C3 7415   4.402   3.174   9.347  0.0284  0.2595  0.3817
  499TMC3    C4 7416   4.211   3.355   9.297  0.3337 -0.7914 -0.0547
  499TMC3    C5 7417   4.341   3.390   9.284  0.4085 -0.5181  0.0683
  499TMC3    C6 7418   4.434   3.304   9.319 -0.1514 -0.5594 -0.2661
  499TMC3     C 7419   4.048   3.185   9.321  0.4201 -0.0772 -0.3140
  499TMC3     O 7420   3.985   3.255   9.246 -0.4138  0.0888  0.0171
  499TMC3     H 7421   4.256   3.023   9.358 -0.3805 -0.3032  0.6604
  499TMC3    H1 7422   4.131   3.428   9.297  0.8378 -0.2335  2.4507
  499TMC3    H2 7423   4.532   3.332   9.283 -0.7238  1.6906 -0.0608
  499TMC3    C7 7424   4.379   3.529   9.258 -0.0118  0.3799  0.8662
  499TMC3    C8 7425   4.512   3.078   9.353 -0.1317  0.2393 -0.4127
  499TMC3    O1 7426   4.479   3.571   9.311  0.3562  0.2611  0.3371
  499TMC3    O2 7427   4.476   2.960   9.331  0.4657  0.3571  0.1715
  500MPD2     C 7428   1.584   4.486   9.679 -0.1729  0.6540  0.5669
  500MPD2    C1 7429   1.559   4.593   9.767 -0.1424  0.1469  0.4260
  500MPD2    C2 7430   1.438   4.647   9.780  0.1578  0.1040 -0.4384
  500MPD2    C3 7431   1.331   4.594   9.706  0.2907 -0.7383  0.2877
  500MPD2    C4 7432   1.347   4.472   9.640 -0.0075 -0.3123  0.0755
  500MPD2    C5 7433   1.477   4.423   9.616 -0.1283  0.2214  0.6364
  500MPD2     H 7434   1.425   0.011   9.843 -0.5414  0.4629 -1.0738
  500MPD2    H1 7435   1.265   4.422   9.590  0.0936 -1.3931  0.9945
  500MPD2    H2 7436   1.683   4.445   9.663 -0.7365 -0.1483 -0.9408
  500MPD2    H3 7437   1.494   4.329   9.564  2.5443  2.0447 -1.8073
  500MPD2     N 7438   1.203   4.664   9.710  0.1158  0.0877 -0.1673
  500MPD2    H5 7439   1.205   0.033   9.752  0.5480 -0.1781  0.4001
  500MPD2    N1 7440   1.668   4.665   9.824 -0.2216 -0.5504  0.7294
  500MPD2    H7 7441   1.654   0.027   9.878 -0.6152  0.5591 -1.1292
  501TMC3    C1 7442   1.888   0.014   9.878 -0.5216  0.6801  0.2133
  501TMC3    C2 7443   1.855   0.151   9.861  0.0229 -0.1694 -0.0514
  501TMC3    C3 7444   1.938   0.247   9.913 -0.4829 -0.1832  0.2311
  501TMC3    C4 7445   2.000   4.708   9.946  0.4060  0.4034 -0.0667
  501TMC3    C5 7446   2.089   0.082   9.993 -0.0109 -0.5873 -0.5626
  501TMC3    C6 7447   2.063   0.211   9.967 -0.1071  0.6676 -0.0376
  501TMC3     C 7448   1.804   4.632   9.827  0.0456  0.2790 -0.3151
  501TMC3     O 7449   1.863   4.536   9.781  0.0912  0.0492 -0.2324
  501TMC3     H 7450   1.768   0.187   9.806 -0.2443  0.2440  0.6435
  501TMC3    H1 7451   2.015   4.605   9.977 -0.1637  1.0111  2.2502
  501TMC3    H2 7452   2.124   0.293  10.002  1.1195 -0.1979 -0.1466
  501TMC3    C7 7453   2.109   0.055  10.132  0.6285  0.3284 -0.2526
  501TMC3    C8 7454   1.877   0.357   9.987 -0.2130  0.7911 -0.2788
  501TMC3    O1 7455   2.044   4.685  10.175  0.2055 -0.3327 -0.0088
  501TMC3    O2 7456   1.950   0.421  10.065  0.4822 -0.2474  0.1696
  502TMC3    C1 7457   4.356   3.202  15.204 -0.0590 -0.2249  0.5448
  502TMC3    C2 7458   4.432   3.234  15.089 -0.4822  0.5675 -0.6354
  502TMC3    C3 7459   4.405   3.353  15.030 -0.1616  0.5489 -0.4252
  502TMC3    C4 7460   4.247   3.272  15.248  0.0467 -0.0814 -0.2308
  502TMC3    C5 7461   4.228   3.389  15.176  0.0953 -0.0564 -0.0116
  502TMC3    C6 7462   4.301   3.434  15.075 -1.0379  0.1463  0.6426
  502TMC3     C 7463   4.421   3.120  15.303  0.7780 -0.2794  1.3086
  502TMC3     O 7464   4.502   3.034  15.267  0.5261 -0.3728  0.4806
  502TMC3     H 7465   4.527   3.186  15.067 -0.4921  0.6931 -0.9538
  502TMC3    H1 7466   4.186   3.244  15.333  1.5831  0.6328  1.1143
  502TMC3    H2 7467   4.277   3.521  15.015  0.7053  1.7084  2.2301
  502TMC3    C7 7468   4.116   3.466  15.217 -0.1430  0.2048 -0.3352
  502TMC3    C8 7469   4.515   3.434  14.978 -0.8312  0.9370  0.2035
  502TMC3    O1 7470   4.099   3.480  15.334  0.4524 -0.2571 -0.0339
  502TMC3    O2 7471   4.518   3.555  14.991  0.0111 -0.1351 -0.6945
  503MPD2     C 7472   2.034   4.373  16.744 -0.2326 -0.3730  0.2783
  503MPD2    C1 7473   2.071   4.384  16.877 -0.1844  0.4220  0.0054
  503MPD2    C2 7474   2.150   4.290  16.936  0.2243  0.2580  0.3516
  503MPD2    C3 7475   2.194   4.176  16.871 -0.8967 -0.7306  0.2840
  503MPD2    C4 7476   2.155   4.167  16.736  0.5073 -0.4430 -0.5872
  503MPD2    C5 7477   2.075   4.259  16.675  0.1013  0.3914  0.5468
  503MPD2     H 7478   2.179   4.314  17.038 -0.0303  1.8729  0.0452
  503MPD2    H1 7479   2.181   4.082  16.674  3.4582 -0.7883  1.1183
  503MPD2    H2 7480   1.969   4.441  16.690  0.3039  1.1708  1.5648
  503MPD2    H3 7481   2.039   4.249  16.573 -0.9035  2.9165  0.6646
  503MPD2     N 7482   2.269   4.075  16.941 -0.0285 -0.4003 -0.7231
  503MPD2    H5 7483   2.288   4.093  17.039 -0.4788 -0.2932 -0.6550
  503MPD2    N1 7484   2.045   4.501  16.952 -0.0837  0.3298 -0.0379
  503MPD2    H7 7485   2.079   4.498  17.048  3.6035 -0.2944 -1.3770
  504TMC3    C1 7486   2.410   3.887  16.977 -0.2534 -0.2107 -0.4178
  504TMC3    C2 7487   2.406   3.916  17.106 -0.1341  0.5658 -0.0857
  504TMC3    C3 7488   2.505   3.856  17.183 -0.4151  0.4707  0.0090
  504TMC3    C4 7489   2.489   3.793  16.916 -0.4568 -0.3442  1.2620
  504TMC3    C5 7490   2.584   3.732  17.003  0.2472  0.1470 -0.2429
  504TMC3    C6 7491   2.592   3.765  17.133 -0.5402 -0.1435 -0.1344
  504TMC3     C 7492   2.318   3.955  16.884 -0.1883  0.3791  0.0711
  504TMC3     O 7493   2.309   3.916  16.767 -0.6455  0.8219  0.7196
  504TMC3     H 7494   2.339   3.985  17.156  0.9495  2.5800 -1.4490
  504TMC3    H1 7495   2.469   3.757  16.816  0.5433  0.9259  0.6080
  504TMC3    H2 7496   2.677   3.733  17.192 -1.3532 -0.1136  1.0695
  504TMC3    C7 7497   2.702   3.684  16.934 -0.1404  0.3865 -0.2437
  504TMC3    C8 7498   2.515   3.907  17.322  0.3198 -0.2422 -0.1707
  504TMC3    O1 7499   2.808   3.721  16.977 -0.3751  0.4938  0.1940
  504TMC3    O2 7500   2.442   4.000  17.351 -0.2268  0.0922  0.3090
  505MPD2     C 7501   2.964   2.510  10.400  0.2493  0.1043  0.9400
  505MPD2    C1 7502   2.987   2.392  10.472 -0.2726  0.7598 -0.1467
  505MPD2    C2 7503   3.088   2.399  10.566  0.3417 -0.1263  0.3774
  505MPD2    C3 7504   3.163   2.514  10.580 -0.5525  0.4008 -0.7190
  505MPD2    C4 7505   3.131   2.627  10.513 -0.5540 -0.5598 -0.3020
  505MPD2    C5 7506   3.027   2.628  10.429  0.1290  0.2105 -0.0879
  505MPD2     H 7507   3.105   2.317  10.635  2.3485  0.5270  0.6732
  505MPD2    H1 7508   3.193   2.715  10.525  1.0622 -1.6757 -0.4928
  505MPD2    H2 7509   2.882   2.508  10.329  1.6632  1.9416 -0.7195
  505MPD2    H3 7510   2.989   2.717  10.381 -0.7546 -0.4750 -0.6681
  505MPD2     N 7511   3.263   2.514  10.677  0.3717  0.5564  0.4717
  505MPD2    H5 7512   3.263   2.424  10.723 -0.0660 -0.2251 -1.0367
  505MPD2    N1 7513   2.927   2.274  10.429 -1.3284  0.2524 -0.3164
  505MPD2    H7 7514   2.871   2.278  10.345  0.5699  0.5319 -1.5786
  506TMC3    C1 7515   2.874   2.051  10.427 -1.4121  0.1758 -0.0861
  506TMC3    C2 7516   2.878   2.061  10.287  0.1245  0.1192 -0.8151
  506TMC3    C3 7517   2.881   1.938  10.223 -0.0073  0.3187  0.0943
  506TMC3    C4 7518   2.868   1.927  10.496  0.3846 -1.0753  0.3974
  506TMC3    C5 7519   2.901   1.816  10.430 -0.8684 -0.1171  0.2791
  506TMC3    C6 7520   2.892   1.821  10.291 -0.8448 -0.0400  0.5553
  506TMC3     C 7521   2.934   2.152  10.496 -0.0514 -0.2669 -0.1768
  506TMC3     O 7522   2.978   2.121  10.606 -0.1355 -0.0351  0.6688
  506TMC3     H 7523   2.872   2.151  10.228  1.9579 -0.3750 -1.7735
  506TMC3    H1 7524   2.862   1.929  10.604 -0.3592 -2.2467  0.3681
  506TMC3    H2 7525   2.902   1.729  10.235 -0.8794  0.9467 -1.0756
  506TMC3    C7 7526   3.029   1.771  10.471 -0.5646  0.4541  0.0704
  506TMC3    C8 7527   2.904   1.927  10.081 -0.7536 -0.5962 -0.7730
  506TMC3    O1 7528   3.062   1.666  10.418  1.5370  0.2472  0.2666
  506TMC3    O2 7529   2.849   1.836  10.026 -0.2782 -0.0508  0.1521
  507TMC3    C1 7530   3.545   3.296  13.342  0.5084  0.4047 -0.6647
  507TMC3    C2 7531   3.616   3.399  13.282  0.1113  0.1033  0.4913
  507TMC3    C3 7532   3.698   3.472  13.357 -0.4884 -0.4317 -0.0984
  507TMC3    C4 7533   3.561   3.262  13.476 -0.0706  0.1461  0.0277
  507TMC3    C5 7534   3.646   3.342  13.547 -0.1227 -0.5476 -0.7372
  507TMC3    C6 7535   3.710   3.442  13.488 -0.2870  0.8927  0.7425
  507TMC3     C 7536   3.425   3.238  13.277 -0.0065 -0.6290 -0.4580
  507TMC3     O 7537   3.342   3.206  13.355 -0.4667 -0.4650 -0.3667
  507TMC3     H 7538   3.590   3.429  13.181 -0.4906 -1.9941  0.0213
  507TMC3    H1 7539   3.516   3.175  13.521 -0.8335 -0.5564 -2.0925
  507TMC3    H2 7540   3.795   3.480  13.543 -0.8566 -0.0516  2.2864
  507TMC3    C7 7541   3.599   3.374  13.681  0.7830 -0.6753  0.5298
  507TMC3    C8 7542   3.652   3.611  13.349 -0.3660  0.4303  0.5139
  507TMC3    O1 7543   3.657   3.469  13.728 -0.7670 -0.4971  0.2679
  507TMC3    O2 7544   3.622   3.663  13.242 -0.4266 -0.0265  0.5758
  508MPD2     C 7545   4.630   0.980  16.233  0.2461  0.2868 -0.1461
  508MPD2    C1 7546   4.572   1.106  16.261  0.4937 -0.1057  0.3479
  508MPD2    C2 7547   4.508   1.177  16.158  0.2230  0.1876 -0.3606
  508MPD2    C3 7548   4.527   1.139  16.026  0.5505 -0.3671  0.1703
  508MPD2    C4 7549   4.602   1.030  16.001  1.0784  0.1950  0.8397
  508MPD2    C5 7550   4.650   0.953  16.101 -0.4359 -0.7824  0.2338
  508MPD2     H 7551   4.461   1.274  16.174 -1.5879 -0.5286 -1.3204
  508MPD2    H1 7552   4.624   1.001  15.899 -2.3858 -2.8249  0.9639
  508MPD2    H2 7553   4.678   0.909  16.301 -2.5500 -0.2524  1.2460
  508MPD2    H3 7554   4.709   0.863  16.087 -1.2008 -0.7932 -2.9517
  508MPD2     N 7555   4.482   1.238  15.926 -0.8581  0.4799 -0.0205
  508MPD2    H5 7556   4.453   1.331  15.953  1.3024  1.0317  0.4000
  508MPD2    N1 7557   4.575   1.144  16.396  0.6635  0.0018  0.2646
  508MPD2    H7 7558   4.616   1.079  16.462 -1.2699  1.9972  3.4191
  509TMC3    C1 7559   4.481   1.454  15.518  0.5288  0.2463 -0.3418
  509TMC3    C2 7560   4.560   1.549  15.565 -0.2230  1.1856  0.1980
  509TMC3    C3 7561   4.598   1.538  15.696  0.5778 -0.2107  0.9197
  509TMC3    C4 7562   4.452   1.345  15.595 -0.2443 -0.0273 -1.1737
  509TMC3    C5 7563   4.492   1.339  15.721 -0.4365 -0.2558 -0.0072
  509TMC3    C6 7564   4.573   1.433  15.777 -0.4822 -0.2782 -0.0329
  509TMC3     C 7565   4.453   1.448  15.377 -0.7967  0.7500  0.3951
  509TMC3     O 7566   4.421   1.346  15.320  0.5286 -0.2684 -0.3851
  509TMC3     H 7567   4.603   1.628  15.505  0.2318  1.0839  0.3963
  509TMC3    H1 7568   4.396   1.257  15.565  1.2038 -1.7605  1.1940
  509TMC3    H2 7569   4.621   1.414  15.873 -0.7383  1.8873  0.5323
  509TMC3    C7 7570   4.488   1.214  15.792 -0.2439  0.5483 -0.0014
  509TMC3    C8 7571   4.702   1.622  15.745 -0.1809  0.3712 -0.1458
  509TMC3    O1 7572   4.504   1.111  15.733  0.0679 -0.0626  0.5750
  509TMC3    O2 7573   0.065   1.571  15.819  0.2260  0.2420 -0.0586
  510MPD2     C 7574   2.512   2.986  15.042  0.7745  0.1395  0.4800
  510MPD2    C1 7575   2.434   2.893  14.970  0.4235  0.1885 -0.3492
  510MPD2    C2 7576   2.485   2.850  14.851 -0.1707 -0.0740 -0.0580
  510MPD2    C3 7577   2.606   2.895  14.795 -0.4499  0.1305  0.8342
  510MPD2    C4 7578   2.670   2.988  14.865 -0.6923  0.5283 -0.4522
  510MPD2    C5 7579   2.630   3.028  14.990 -0.1855 -0.5537 -0.3783
  510MPD2     H 7580   2.434   2.766  14.807 -0.0035  1.4414 -3.1205
  510MPD2    H1 7581   2.771   3.014  14.837  0.5552 -1.7099  1.9619
  510MPD2    H2 7582   2.470   3.014  15.138  2.0352 -2.6321  1.8448
  510MPD2    H3 7583   2.693   3.101  15.038  1.4174 -0.8213 -2.0592
  510MPD2     N 7584   2.645   2.843  14.674  0.1257 -0.2697  0.0549
  510MPD2    H5 7585   2.580   2.778  14.631  1.7678 -1.6123 -0.3924
  510MPD2    N1 7586   2.310   2.844  15.016  0.0449 -0.0003  0.0664
  510MPD2    H7 7587   2.271   2.784  14.944  1.3610 -0.8515  0.0581
  511TMC3    C1 7588   2.104   2.826  15.124 -0.4448 -0.1946  0.2714
  511TMC3    C2 7589   2.011   2.896  15.199  0.8427 -0.0344 -0.5402
  511TMC3    C3 7590   1.883   2.845  15.206  0.5513  0.4403 -0.1049
  511TMC3    C4 7591   2.078   2.705  15.063  1.0375  0.3527 -0.1141
  511TMC3    C5 7592   1.951   2.658  15.082 -0.2322  0.1108  0.1896
  511TMC3    C6 7593   1.845   2.731  15.140 -0.1009  0.0847  0.5476
  511TMC3     C 7594   2.243   2.875  15.127 -0.1988  0.4211  0.6453
  511TMC3     O 7595   2.262   2.958  15.213 -0.8187 -0.6511  0.2772
  511TMC3     H 7596   2.037   2.988  15.249 -0.6352  0.3147 -0.4206
  511TMC3    H1 7597   2.163   2.652  15.022  2.1452  1.0111  1.3561
  511TMC3    H2 7598   1.743   2.694  15.138  0.0692 -0.3294 -0.3264
  511TMC3    C7 7599   1.920   2.535  15.020  0.0669 -0.1035 -0.3220
  511TMC3    C8 7600   1.791   2.909  15.306  0.2477  0.1756  0.7614
  511TMC3    O1 7601   1.978   2.509  14.918 -0.2550 -0.5185  0.0425
  511TMC3    O2 7602   1.831   3.014  15.356  0.0282 -0.0772  0.0618
  512TMC3    C1 7603   1.314   2.067  12.878  0.3001 -0.1376 -0.7015
  512TMC3    C2 7604   1.438   2.048  12.935 -0.0149  0.5289  0.1214
  512TMC3    C3 7605   1.499   1.936  12.891 -0.5037 -0.5128  1.0917
  512TMC3    C4 7606   1.253   1.982  12.787 -0.0093  0.3660 -0.5409
  512TMC3    C5 7607   1.324   1.870  12.751  0.2884  0.1560 -0.1255
  512TMC3    C6 7608   1.446   1.844  12.803  0.4926  0.0381 -0.0816
  512TMC3     C 7609   1.264   2.199  12.914 -0.4123  0.0441  0.6184
  512TMC3     O 7610   1.295   2.255  13.018 -0.7324  0.7886 -0.3207
  512TMC3     H 7611   1.484   2.118  13.003  0.8337 -1.1586  1.2778
  512TMC3    H1 7612   1.154   2.001  12.746 -0.7041  1.8817  1.8775
  512TMC3    H2 7613   1.510   1.762  12.773 -1.4279 -1.5807  0.2589
  512TMC3    C7 7614   1.264   1.776  12.657  0.9446 -0.8260 -0.1488
  512TMC3    C8 7615   1.610   1.885  12.971  0.3350 -0.2198  0.5099
  512TMC3    O1 7616   1.185   1.825  12.575 -0.4427 -0.5608 -0.3588
  512TMC3    O2 7617   1.657   1.777  12.946  0.0808 -0.8026 -0.0856
  513MPD2     C 7618   2.910   1.422  13.061  0.4396 -0.3085  0.1333
  513MPD2    C1 7619   3.006   1.324  13.076  1.4707  0.1748 -0.3392
  513MPD2    C2 7620   3.120   1.358  13.143  0.1986 -0.2078 -0.5032
  513MPD2    C3 7621   3.143   1.496  13.172 -0.6025  0.8582  0.2920
  513MPD2    C4 7622   3.045   1.589  13.156  0.5255 -0.6808 -0.2833
  513MPD2    C5 7623   2.926   1.544  13.106  0.2034  0.2118 -0.0157
  513MPD2     H 7624   3.186   1.278  13.175 -0.2576 -0.2164  0.4159
  513MPD2    H1 7625   3.050   1.694  13.182  0.4631 -0.6813 -0.2680
  513MPD2    H2 7626   2.817   1.393  13.015  0.0518  1.2422 -0.0498
  513MPD2    H3 7627   2.836   1.603  13.099 -1.1088 -1.4279  2.8522
  513MPD2     N 7628   3.270   1.534  13.219  0.3212  0.1294  0.2081
  513MPD2    H5 7629   3.345   1.466  13.230  2.0492  2.0860  0.4942
  513MPD2    N1 7630   3.000   1.198  13.007 -0.0601 -0.5860 -0.0861
  513MPD2    H7 7631   2.924   1.200  12.940  0.8045  1.7313 -1.0166
  514TMC3    C1 7632   3.122   1.023  12.916  0.0881 -0.6414  0.1002
  514TMC3    C2 7633   3.108   1.089  12.797 -0.1770 -0.0048  0.6495
  514TMC3    C3 7634   3.206   1.077  12.699  0.2449 -0.7568 -0.2003
  514TMC3    C4 7635   3.235   0.948  12.943 -0.0522 -0.1071  0.0123
  514TMC3    C5 7636   3.344   0.961  12.858 -0.7346  0.5245  0.1941
  514TMC3    C6 7637   3.319   1.010  12.730  0.7489 -0.0639  0.6237
  514TMC3     C 7638   3.080   1.096  13.035 -0.4062  0.0495  0.6255
  514TMC3     O 7639   3.113   1.060  13.148  0.2270 -0.5302 -0.7654
  514TMC3     H 7640   3.017   1.139  12.766  1.6801  1.6206 -2.0923
  514TMC3    H1 7641   3.256   0.925  13.047  3.3498  0.5868 -0.5206
  514TMC3    H2 7642   3.389   0.991  12.649  0.0673  0.3075 -0.0497
  514TMC3    C7 7643   3.430   0.851  12.865  0.1051  0.0297 -0.0304
  514TMC3    C8 7644   3.141   1.078  12.570  0.5424 -0.3487 -0.0008
  514TMC3    O1 7645   3.365   0.746  12.850 -0.2388 -0.1564 -0.4766
  514TMC3    O2 7646   3.029   1.034  12.572 -0.3691  0.0217  0.5152
  515MPD2     C 7647   1.313   4.403  14.615  0.3673  0.5943  0.1017
  515MPD2    C1 7648   1.363   4.276  14.625  0.1884  0.0566 -0.4378
  515MPD2    C2 7649   1.486   4.250  14.686 -0.5412  0.2747 -0.0365
  515MPD2    C3 7650   1.551   4.353  14.751  0.9887 -0.0857 -0.1941
  515MPD2    C4 7651   1.491   4.476  14.755  0.4154 -0.4554  0.2659
  515MPD2    C5 7652   1.376   4.500  14.683 -0.2969 -0.4956 -0.9277
  515MPD2     H 7653   1.538   4.154  14.683 -0.0781  0.5311 -0.2113
  515MPD2    H1 7654   1.525   4.554  14.823 -0.6708 -0.9111  1.3209
  515MPD2    H2 7655   1.212   4.434  14.590  0.5929  2.9128  2.0512
  515MPD2    H3 7656   1.326   4.596  14.687  2.3570  0.9193 -1.5927
  515MPD2     N 7657   1.672   4.342  14.825  0.1115  0.5826  0.4338
  515MPD2    H5 7658   1.701   4.422  14.881  0.7558  0.9740 -0.4723
  515MPD2    N1 7659   1.283   4.182  14.564  0.7586 -0.5826 -0.0589
  515MPD2    H7 7660   1.200   4.213  14.515  0.3033 -0.0889  1.0280
  516TMC3    C1 7661   1.197   3.959  14.532  0.5300  0.7077 -0.4090
  516TMC3    C2 7662   1.144   4.002  14.408  0.2654 -0.2345 -0.2590
  516TMC3    C3 7663   1.045   3.917  14.368 -0.5986 -0.5256  0.2773
  516TMC3    C4 7664   1.162   3.840  14.590  0.5347  0.0832  0.0343
  516TMC3    C5 7665   1.070   3.757  14.531 -0.4625  0.0533  0.1153
  516TMC3    C6 7666   1.003   3.798  14.421  0.3707 -0.3825 -0.0549
  516TMC3     C 7667   1.295   4.048  14.593 -0.1149 -0.0144  0.3734
  516TMC3     O 7668   1.366   3.986  14.675  0.3968 -0.1046 -0.3067
  516TMC3     H 7669   1.181   4.088  14.354 -1.0629 -0.0993 -0.9463
  516TMC3    H1 7670   1.200   3.817  14.689 -1.0304 -0.0304  0.5974
  516TMC3    H2 7671   0.937   3.732  14.365 -2.7101  1.6094  1.2352
  516TMC3    C7 7672   1.032   3.635  14.605 -0.1041  0.0119  0.2028
  516TMC3    C8 7673   0.957   3.956  14.260 -0.7764 -0.0632 -0.1085
  516TMC3    O1 7674   1.086   3.616  14.712 -0.2112 -0.1006 -0.6875
  516TMC3    O2 7675   0.850   3.904  14.250  0.0409  0.0389 -0.0665
  517MPD2     C 7676   0.508   1.095  17.547  0.5563 -0.0313  0.6170
  517MPD2    C1 7677   0.642   1.106  17.522 -0.0048  1.1165  0.5569
  517MPD2    C2 7678   0.719   1.187  17.603  0.1903 -0.4912 -0.0373
  517MPD2    C3 7679   0.668   1.239   0.026 -0.3426  0.1181  0.0911
  517MPD2    C4 7680   0.531   1.222   0.057  1.2178  0.5343 -0.7372
  517MPD2    C5 7681   0.452   1.168  17.656 -0.3948  0.2143  0.8452
  517MPD2     H 7682   0.819   1.204  17.565 -0.4533 -0.2224 -1.6196
  517MPD2    H1 7683   0.486   1.257   0.149 -0.5383  0.3612 -1.5325
  517MPD2    H2 7684   0.441   1.024  17.501  1.0020  1.0957 -1.7424
  517MPD2    H3 7685   0.346   1.161  17.675 -0.3611 -0.1983  0.8813
  517MPD2     N 7686   0.751   1.299   0.128  0.1825  0.3334 -0.2976
  517MPD2    H5 7687   0.712   1.312   0.221 -0.5953 -0.1070 -0.5560
  517MPD2    N1 7688   0.703   1.023  17.431 -0.7644  0.7776 -0.2036
  517MPD2    H7 7689   0.803   1.039  17.417 -0.5530  0.7869  1.3053
  518TMC3    C1 7690   0.752   0.838  17.304 -0.4823 -0.6112  0.4951
  518TMC3    C2 7691   0.729   0.698  17.306 -0.1866  0.4955  0.7567
  518TMC3    C3 7692   0.836   0.625  17.264  0.3207 -0.3705 -0.0930
  518TMC3    C4 7693   0.872   0.893  17.272 -0.0082 -0.6616  0.2632
  518TMC3    C5 7694   0.962   0.816  17.211  0.0509 -0.3488  0.5789
  518TMC3    C6 7695   0.953   0.679  17.220 -0.1609 -0.1889  0.3524
  518TMC3     C 7696   0.651   0.913  17.363  0.2806 -0.4673 -0.3548
  518TMC3     O 7697   0.550   0.856  17.393  0.3424  0.2290 -0.3535
  518TMC3     H 7698   0.641   0.648  17.343 -1.5088  2.1256 -0.1564
  518TMC3    H1 7699   0.874   1.000  17.258  1.6576 -0.3929  2.4961
  518TMC3    H2 7700   1.028   0.617  17.171  1.3427  2.1742 -0.3498
  518TMC3    C7 7701   1.062   0.889  17.120 -0.1065  0.3758  0.2735
  518TMC3    C8 7702   0.816   0.482  17.244  0.6808  0.3610  0.4894
  518TMC3    O1 7703   1.040   0.997  17.069 -0.1398  0.1323 -0.1748
  518TMC3    O2 7704   0.872   0.435  17.144  0.4518  0.2888 -0.0892
  519MPD2     C 7705   2.757   3.738  14.207 -0.2841 -0.2258 -0.0859
  519MPD2    C1 7706   2.805   3.673  14.094  0.1560  0.4351  0.3727
  519MPD2    C2 7707   2.831   3.539  14.101  0.3474  0.4693  0.4715
  519MPD2    C3 7708   2.808   3.462  14.217  0.6312  0.2855 -0.3739
  519MPD2    C4 7709   2.760   3.526  14.332 -0.6765 -0.6600  0.8423
  519MPD2    C5 7710   2.735   3.663  14.321  0.1441 -0.1159  0.0532
  519MPD2     H 7711   2.864   3.484  14.014 -1.1216 -1.1341  0.9303
  519MPD2    H1 7712   2.720   3.474  14.418 -1.6924  2.5399  2.3043
  519MPD2    H2 7713   2.738   3.845  14.208 -1.6644 -0.4693 -0.7864
  519MPD2    H3 7714   2.681   3.710  14.402 -0.6672 -1.2752  0.1819
  519MPD2     N 7715   2.818   3.322  14.211 -0.2041  0.7058 -0.1582
  519MPD2    H5 7716   2.869   3.285  14.132  0.3765 -0.8309  0.9284
  519MPD2    N1 7717   2.826   3.731  13.972  0.0077  0.7496 -0.0081
  519MPD2    H7 7718   2.850   3.664  13.899 -1.9500 -0.9158  0.9100
  520TMC3    C1 7719   2.759   3.101  14.234 -0.4732 -0.4952 -0.1988
  520TMC3    C2 7720   2.657   3.056  14.156  0.4416 -0.3637 -0.6619
  520TMC3    C3 7721   2.684   2.966  14.055 -0.7919  0.6900 -1.2044
  520TMC3    C4 7722   2.882   3.073  14.190 -0.9941  0.1468 -0.2896
  520TMC3    C5 7723   2.911   2.978  14.095 -1.1436 -0.3473 -0.5654
  520TMC3    C6 7724   2.813   2.931  14.012 -1.0394 -0.5853  0.4756
  520TMC3     C 7725   2.742   3.237  14.291 -0.1018  0.6163 -0.6167
  520TMC3     O 7726   2.662   3.263  14.376  0.3674 -0.2771  0.2674
  520TMC3     H 7727   2.557   3.084  14.187  0.4642  0.9207 -1.7273
  520TMC3    H1 7728   2.964   3.121  14.243 -0.8444 -0.8528  0.3841
  520TMC3    H2 7729   2.838   2.849  13.946  0.8619 -0.2126  0.7255
  520TMC3    C7 7730   3.053   2.952  14.084 -0.6853  0.0253 -0.7413
  520TMC3    C8 7731   2.566   2.942  13.962  0.2661  0.4975 -0.3552
  520TMC3    O1 7732   3.128   2.971  14.180  0.2262  0.4148  0.4987
  520TMC3    O2 7733   2.571   2.852  13.880 -0.6918 -0.3726  0.1015
  521MPD2     C 7734   3.213   2.361  16.952  0.1516  0.4637 -0.7025
  521MPD2    C1 7735   3.247   2.232  16.929  0.1665 -0.2729 -1.0927
  521MPD2    C2 7736   3.372   2.194  16.899 -0.2291 -0.3224  0.3160
  521MPD2    C3 7737   3.469   2.286  16.897 -0.5766  0.6543  0.0656
  521MPD2    C4 7738   3.445   2.422  16.913  0.4491  0.4699 -0.6322
  521MPD2    C5 7739   3.315   2.453  16.936  0.1318  0.1344  0.3289
  521MPD2     H 7740   3.415   2.094  16.899 -0.1852 -0.3032 -0.4665
  521MPD2    H1 7741   3.520   2.500  16.918  0.4629  0.5706 -2.3332
  521MPD2    H2 7742   3.113   2.396  16.971  0.7413  0.5925  2.1773
  521MPD2    H3 7743   3.302   2.560  16.944 -0.6388  0.2283 -2.0975
  521MPD2     N 7744   3.599   2.239  16.859  0.4819  0.0044  0.2013
  521MPD2    H5 7745   3.599   2.146  16.818  0.5014  0.1743 -0.1834
  521MPD2    N1 7746   3.150   2.136  16.960  0.6100 -0.8658 -0.1468
  521MPD2    H7 7747   3.056   2.164  16.988  1.0094  0.2288  0.0941
  522TMC3    C1 7748   3.818   2.214  16.809 -0.1816 -0.1612  0.0583
  522TMC3    C2 7749   3.946   2.233  16.859 -0.4073 -0.2307  0.4616
  522TMC3    C3 7750   4.039   2.141  16.825 -0.0002  0.3939  0.5935
  522TMC3    C4 7751   3.783   2.117  16.727  0.1214 -0.3790  0.2316
  522TMC3    C5 7752   3.882   2.034  16.691  0.0206  0.3653  0.1248
  522TMC3    C6 7753   4.011   2.046  16.735 -0.2714 -0.2029 -0.5590
  522TMC3     C 7754   3.719   2.302  16.871 -0.3975  0.2259 -0.1145
  522TMC3     O 7755   3.750   2.404  16.929  0.8873 -0.4340  0.4531
  522TMC3     H 7756   3.967   2.304  16.938 -0.4701 -2.4684  2.5000
  522TMC3    H1 7757   3.684   2.117  16.683  0.8170 -1.4254 -1.3164
  522TMC3    H2 7758   4.080   1.971  16.699  0.9657  2.7865 -4.4360
  522TMC3    C7 7759   3.855   1.950  16.580 -0.2190  0.2791  1.3750
  522TMC3    C8 7760   4.124   2.096  16.927  0.7937 -0.4614 -0.7292
  522TMC3    O1 7761   3.955   1.893  16.536  0.0159  0.3829  0.0781
  522TMC3    O2 7762   4.101   2.129  17.042 -0.3789 -0.0526 -0.6307
  523MPD2     C 7763   1.659   1.320  10.307 -1.0561  0.0455 -0.2891
  523MPD2    C1 7764   1.641   1.276  10.174  0.3231 -0.1349  0.2630
  523MPD2    C2 7765   1.599   1.366  10.073  0.4798 -0.3248  0.2438
  523MPD2    C3 7766   1.582   1.502  10.103  0.1994  0.3050  0.0685
  523MPD2    C4 7767   1.612   1.543  10.232 -0.2117  0.6196 -0.1751
  523MPD2    C5 7768   1.641   1.453  10.332  0.8642 -0.0847 -0.3456
  523MPD2     H 7769   1.577   1.338   9.970  1.7375 -0.5101  0.0253
  523MPD2    H1 7770   1.605   1.645  10.268  1.2689  0.5424  0.3314
  523MPD2    H2 7771   1.684   1.251  10.386 -2.2413  0.2675  0.2754
  523MPD2    H3 7772   1.656   1.494  10.432  0.7544 -1.8722  0.4089
  523MPD2     N 7773   1.515   1.594  10.017 -0.2327  0.0109 -0.3236
  523MPD2    H5 7774   1.520   1.692  10.042  1.6967 -0.3445  0.6543
  523MPD2    N1 7775   1.682   1.134  10.148 -0.2724 -0.3348  0.1151
  523MPD2    H7 7776   1.709   1.076  10.227  1.2410 -0.0415 -0.2019
  524TMC3    C1 7777   1.439   1.695   9.814 -0.5325  0.5545 -0.1309
  524TMC3    C2 7778   1.506   1.737   9.699 -0.2681  0.5646  0.0278
  524TMC3    C3 7779   1.477   1.868   9.659 -0.5882 -0.0767  0.7658
  524TMC3    C4 7780   1.356   1.777   9.886 -0.0929  0.1129 -0.0379
  524TMC3    C5 7781   1.334   1.901   9.843 -0.0436  0.3956 -0.3080
  524TMC3    C6 7782   1.397   1.952   9.733 -0.2781  0.4457  0.2653
  524TMC3     C 7783   1.490   1.575   9.880 -0.0538  0.4574 -0.0383
  524TMC3     O 7784   1.541   1.489   9.807 -0.0313 -0.7669  0.3113
  524TMC3     H 7785   1.589   1.677   9.664 -1.8254 -0.6454 -1.5840
  524TMC3    H1 7786   1.299   1.741   9.971  0.7787 -0.3055  0.3758
  524TMC3    H2 7787   1.390   2.051   9.690 -0.5112  0.1455 -0.3938
  524TMC3    C7 7788   1.219   1.963   9.891 -0.3650  0.4636 -0.2292
  524TMC3    C8 7789   1.535   1.917   9.536  0.1380  0.0938  0.3338
  524TMC3    O1 7790   1.137   1.895   9.951  0.4740  0.4981 -0.1073
  524TMC3    O2 7791   1.533   2.038   9.523  0.1766  0.1661 -0.3115
  525MPD2     C 7792   4.192   2.960  14.163  0.0789 -0.8104 -0.7639
  525MPD2    C1 7793   4.183   3.034  14.277 -0.2370  0.4673  0.3865
  525MPD2    C2 7794   4.189   3.175  14.280  0.6467 -0.1164  0.5647
  525MPD2    C3 7795   4.202   3.239  14.159  0.1693 -0.1641 -0.3088
  525MPD2    C4 7796   4.216   3.168  14.044 -0.6554 -0.5834 -0.3688
  525MPD2    C5 7797   4.207   3.028  14.047 -0.3559  0.3700 -0.1286
  525MPD2     H 7798   4.193   3.234  14.371  0.0249 -1.8631  1.7163
  525MPD2    H1 7799   4.235   3.213  13.947 -1.2305  1.6151  0.5350
  525MPD2    H2 7800   4.168   2.854  14.156 -0.8561 -0.6387 -0.1206
  525MPD2    H3 7801   4.216   2.965  13.960  0.8545  0.4590 -0.0650
  525MPD2     N 7802   4.230   3.381  14.148 -0.7744 -0.6280 -0.5494
  525MPD2    H5 7803   4.243   3.426  14.058  1.4032 -0.1252  0.0034
  525MPD2    N1 7804   4.175   2.968  14.400 -0.6970 -0.7160  0.1110
  525MPD2    H7 7805   4.212   2.874  14.406 -1.3024 -0.9887 -0.4644
  526TMC3    C1 7806   4.143   2.929  14.628 -0.4138  0.1087 -0.7377
  526TMC3    C2 7807   4.066   2.966  14.728 -0.4108 -0.5957 -0.4617
  526TMC3    C3 7808   4.117   2.953  14.852  0.3505 -0.2009 -0.2180
  526TMC3    C4 7809   4.269   2.865  14.646 -0.1316 -0.3742  0.0828
  526TMC3    C5 7810   4.310   2.854  14.772  0.3029  0.0405 -0.0208
  526TMC3    C6 7811   4.234   2.893  14.882 -0.5817  0.2416  1.2043
  526TMC3     C 7812   4.138   3.024  14.520  0.1010 -0.3656 -0.1543
  526TMC3     O 7813   4.068   3.123  14.534  0.1602  0.5569  0.3319
  526TMC3     H 7814   3.968   3.010  14.712 -0.2802  1.0901  3.3733
  526TMC3    H1 7815   4.345   2.849  14.571 -0.6436 -1.2679 -0.2452
  526TMC3    H2 7816   4.264   2.894  14.986 -1.4281 -2.1048  1.4556
  526TMC3    C7 7817   4.419   2.762  14.800  0.7163 -0.2771 -0.4667
  526TMC3    C8 7818   4.029   3.008  14.955  0.5642 -0.4648 -1.0574
  526TMC3    O1 7819   4.453   2.745  14.918 -0.8121  0.1536 -0.0842
  526TMC3    O2 7820   4.039   2.955  15.067 -0.4662 -0.1418  0.1369
  527MPD2     C 7821   1.606   1.935   1.083 -0.0755 -0.2946 -0.0083
  527MPD2    C1 7822   1.657   1.851   1.176  0.9674 -0.0765  0.5064
  527MPD2    C2 7823   1.724   1.739   1.135 -0.0731 -0.4127 -0.3478
  527MPD2    C3 7824   1.739   1.725   0.992 -0.2549  0.3026 -0.0339
  527MPD2    C4 7825   1.666   1.808   0.905 -0.0113  0.8919  0.4045
  527MPD2    C5 7826   1.604   1.921   0.948  0.1330  0.4457 -1.1561
  527MPD2     H 7827   1.780   1.684   1.210 -1.6021  1.3228  2.1000
  527MPD2    H1 7828   1.640   1.771   0.807 -0.9843 -0.5947  1.2340
  527MPD2    H2 7829   1.549   2.021   1.117 -1.2471 -1.7417  1.6679
  527MPD2    H3 7830   1.541   1.973   0.877  0.8289 -0.8546 -2.7357
  527MPD2     N 7831   1.824   1.624   0.942  0.2180  0.4306 -0.1019
  527MPD2    H5 7832   1.879   1.565   1.005 -0.9872 -0.3548  0.2134
  527MPD2    N1 7833   1.639   1.869   1.316 -0.1219  0.1217  0.6900
  527MPD2    H7 7834   1.685   1.805   1.379  0.1571  1.1103  1.4912
  528TMC3    C1 7835   1.550   1.950   1.516  0.2009 -0.3420  0.7807
  528TMC3    C2 7836   1.660   1.908   1.574  0.3406  0.4091 -0.0604
  528TMC3    C3 7837   1.658   1.887   1.710  0.5015 -0.1643  0.1246
  528TMC3    C4 7838   1.431   1.966   1.587  0.5380 -0.1975 -0.2366
  528TMC3    C5 7839   1.436   1.951   1.728 -0.0062  0.5953  0.0550
  528TMC3    C6 7840   1.550   1.908   1.789  0.1021 -0.2484 -0.2774
  528TMC3     C 7841   1.548   1.954   1.368 -0.3771 -0.7155  0.0691
  528TMC3     O 7842   1.452   2.006   1.316  0.2146  0.3398  0.0685
  528TMC3     H 7843   1.753   1.911   1.519 -1.2652  1.4676 -2.7280
  528TMC3    H1 7844   1.348   2.003   1.528  0.4497  1.2845  0.8105
  528TMC3    H2 7845   1.562   1.882   1.894 -0.5808  0.3798 -0.0389
  528TMC3    C7 7846   1.311   1.920   1.793  0.2604 -0.0385 -0.8455
  528TMC3    C8 7847   1.789   1.869   1.775 -0.2693 -0.3286 -0.1222
  528TMC3    O1 7848   1.301   1.907   1.915  0.1049 -0.5490  0.5462
  528TMC3    O2 7849   1.879   1.829   1.697 -0.2940 -0.0782 -0.2105
  529MPD2     C 7850   0.126   4.633   0.814 -0.6068 -0.0765 -0.2751
  529MPD2    C1 7851   0.028   4.564   0.739  0.4682  0.5641  0.0647
  529MPD2    C2 7852   4.695   4.611   0.623  0.4998  0.0829  0.2200
  529MPD2    C3 7853   0.010   0.013   0.576  0.1694  0.1486  0.5589
  529MPD2    C4 7854   0.099   0.086   0.651 -0.4047 -0.2185  0.8783
  529MPD2    C5 7855   0.155   0.033   0.767  0.2831 -0.2998  0.8699
  529MPD2     H 7856   4.629   4.549   0.563  2.3953 -0.2090 -1.5565
  529MPD2    H1 7857   0.140   0.182   0.621 -0.6268  0.9172  4.2170
  529MPD2    H2 7858   0.174   4.601   0.906 -0.0539 -0.6947 -0.7815
  529MPD2    H3 7859   0.235   0.090   0.813 -0.0828 -0.5974  1.8781
  529MPD2     N 7860   4.688   0.070   0.455 -0.3919  0.0870 -0.2307
  529MPD2    H5 7861   0.002   0.162   0.432  2.3271 -0.9525 -0.1079
  529MPD2    N1 7862   4.710   4.434   0.775  0.1169 -0.4724 -0.3198
  529MPD2    H7 7863   4.643   4.396   0.709 -0.8783 -0.8795  0.9035
  530TMC3    C1 7864   4.619   4.286   0.932 -0.0616 -0.3722  0.0561
  530TMC3    C2 7865   4.643   4.181   1.014  0.0998  0.4387 -0.5907
  530TMC3    C3 7866   4.541   4.117   1.069  0.2835 -0.1388  0.9594
  530TMC3    C4 7867   4.498   4.333   0.923  0.3283  0.4345  0.7210
  530TMC3    C5 7868   4.400   4.280   0.989  0.5580  0.3531 -0.4127
  530TMC3    C6 7869   4.414   4.166   1.073 -0.1017 -0.0324 -0.1743
  530TMC3     C 7870   0.005   4.374   0.898 -0.0689  0.0420  0.0910
  530TMC3     O 7871   0.086   4.394   0.988  0.4180  0.3084  0.2071
  530TMC3     H 7872   0.019   4.137   1.012 -0.1450 -0.1391  0.5064
  530TMC3    H1 7873   4.481   4.412   0.851 -2.1693  0.9364  1.8523
  530TMC3    H2 7874   4.329   4.126   1.127  1.2076 -1.7537  0.6191
  530TMC3    C7 7875   4.273   4.359   0.990 -0.3989  0.4249 -0.1822
  530TMC3    C8 7876   4.551   3.980   1.109  0.6551 -0.0327 -0.3528
  530TMC3    O1 7877   4.256   4.467   0.936 -0.3008  0.7282 -0.3996
  530TMC3    O2 7878   4.447   3.916   1.098  0.0672 -0.3054 -0.4283
  531MPD2     C 7879   3.844   1.169  12.872  0.3232 -0.8127 -0.2075
  531MPD2    C1 7880   3.717   1.193  12.920 -0.4406 -0.3844  0.1150
  531MPD2    C2 7881   3.612   1.099  12.905 -0.2278  0.2484  0.4334
  531MPD2    C3 7882   3.642   0.986  12.831 -0.7259 -0.0373  0.1210
  531MPD2    C4 7883   3.759   0.975  12.766  0.5890  0.3563  0.0274
  531MPD2    C5 7884   3.866   1.054  12.803 -0.6781 -0.1534 -1.2669
  531MPD2     H 7885   3.515   1.113  12.952 -0.6652  0.3063 -0.4849
  531MPD2    H1 7886   3.773   0.889  12.702  0.1754  1.4047 -1.4962
  531MPD2    H2 7887   3.930   1.232  12.887  0.5676 -1.5722  1.6177
  531MPD2    H3 7888   3.969   1.038  12.772 -0.3999 -2.0142  0.6151
  531MPD2     N 7889   3.558   0.876  12.819 -0.0065  0.0360 -0.3721
  531MPD2    H5 7890   3.602   0.794  12.778  0.1390 -0.2416  0.3370
  531MPD2    N1 7891   3.703   1.311  13.000  0.2046  0.0215  0.1522
  531MPD2    H7 7892   3.775   1.382  13.003 -1.0451  1.4208 -2.3160
  532TMC3    C1 7893   3.593   1.494  13.097  0.7332  0.0414 -0.1065
  532TMC3    C2 7894   3.478   1.562  13.100 -0.0741  0.5606  0.2677
  532TMC3    C3 7895   3.459   1.660  13.188  0.3427 -0.8153  0.6176
  532TMC3    C4 7896   3.695   1.532  13.185 -0.3855 -0.2255  0.1026
  532TMC3    C5 7897   3.674   1.640  13.265 -0.3651 -0.4573 -0.2015
  532TMC3    C6 7898   3.551   1.702  13.283  0.2424 -0.8552  0.7032
  532TMC3     C 7899   3.580   1.362  13.037  0.4304 -0.3737  0.1611
  532TMC3     O 7900   3.463   1.331  13.008  0.4543  0.2437 -0.4675
  532TMC3     H 7901   3.400   1.544  13.027  1.1451  0.1964 -0.9420
  532TMC3    H1 7902   3.791   1.481  13.189 -0.0835  0.2159 -1.2785
  532TMC3    H2 7903   3.528   1.783  13.351  1.6562  0.6978 -0.6882
  532TMC3    C7 7904   3.787   1.703  13.327 -0.7332 -0.8563 -0.8912
  532TMC3    C8 7905   3.321   1.665  13.225  0.9987  0.7630  0.1256
  532TMC3    O1 7906   3.787   1.826  13.343  0.3432 -0.0316 -0.0253
  532TMC3    O2 7907   3.272   1.775  13.235  0.7218 -0.1728  0.0506
  533TMC3    C1 7908   4.275   3.606  14.212  0.0200  0.2037  0.3290
  533TMC3    C2 7909   4.362   3.675  14.278 -0.5057  0.0447  0.0273
  533TMC3    C3 7910   4.366   3.803  14.252  0.0153 -0.7361  0.4999
  533TMC3    C4 7911   4.193   3.659  14.118  0.3728 -0.3238 -0.5321
  533TMC3    C5 7912   4.206   3.793  14.083 -0.0288  0.6213  0.2962
  533TMC3    C6 7913   4.295   3.871  14.156  0.1047  0.2027  0.3033
  533TMC3     C 7914   4.247   3.469  14.252  0.3981  0.6135 -0.0022
  533TMC3     O 7915   4.223   3.468  14.375  0.5505 -0.4472 -0.0200
  533TMC3     H 7916   4.426   3.619  14.346  0.1468  0.1287 -0.5150
  533TMC3    H1 7917   4.119   3.597  14.070 -0.1746 -0.9434  1.1303
  533TMC3    H2 7918   4.322   3.972  14.126  0.6931 -0.1630 -0.4128
  533TMC3    C7 7919   4.093   3.876  14.043  0.1762  0.7816  0.3303
  533TMC3    C8 7920   4.459   3.870  14.337 -0.7737  0.2742 -0.2568
  533TMC3    O1 7921   4.117   3.990  14.010  0.1805  0.0585 -0.9652
  533TMC3    O2 7922   4.502   3.807  14.428  0.3663 -0.1437 -0.2366
  534MPD2     C 7923   1.475   0.500   1.518  0.5484 -1.1843 -0.1240
  534MPD2    C1 7924   1.538   0.565   1.417  0.5032 -0.0453 -0.3554
  534MPD2    C2 7925   1.530   0.518   1.288 -0.5311 -0.3922 -0.1649
  534MPD2    C3 7926   1.462   0.400   1.266 -0.1326  0.4863 -0.2397
  534MPD2    C4 7927   1.403   0.332   1.372 -0.3644  0.2598 -0.5540
  534MPD2    C5 7928   1.410   0.379   1.495 -0.4441 -0.6370 -0.3678
  534MPD2     H 7929   1.578   0.580   1.214  1.5137  0.9280  2.2551
  534MPD2    H1 7930   1.357   0.235   1.360 -1.8672  0.8668  0.2387
  534MPD2    H2 7931   1.475   0.547   1.615 -0.2810 -0.3018 -0.5532
  534MPD2    H3 7932   1.363   0.331   1.581  1.0875 -0.8711  0.3434
  534MPD2     N 7933   1.456   0.345   1.131 -0.3032 -0.1016  0.1641
  534MPD2    H5 7934   1.387   0.272   1.117  0.8206 -1.2301  0.4494
  534MPD2    N1 7935   1.591   0.690   1.442  0.1263  0.0268  0.2771
  534MPD2    H7 7936   1.612   0.752   1.364  0.4409 -1.1945 -0.6071
  535TMC3    C1 7937   1.502   0.330   0.901  0.5822 -0.6357  0.1749
  535TMC3    C2 7938   1.488   0.194   0.908 -0.5933  0.4476  0.1634
  535TMC3    C3 7939   1.440   0.131   0.799  0.8935  0.7989  0.1167
  535TMC3    C4 7940   1.479   0.407   0.794  0.5297 -0.2685 -0.3368
  535TMC3    C5 7941   1.431   0.340   0.678 -0.0897  0.7295 -0.1009
  535TMC3    C6 7942   1.416   0.205   0.683 -0.4096 -0.2249 -0.1345
  535TMC3     C 7943   1.506   0.411   1.021  0.7861  0.5609  0.0592
  535TMC3     O 7944   1.544   0.524   1.004  0.1972 -0.2636  0.7475
  535TMC3     H 7945   1.514   0.138   0.997  0.2805  2.2688  1.0577
  535TMC3    H1 7946   1.510   0.511   0.796 -0.8350  0.1146  1.1699
  535TMC3    H2 7947   1.386   0.138   0.603 -1.9426 -1.0217  1.1007
  535TMC3    C7 7948   1.406   0.409   0.551 -0.0168  0.4744  0.2808
  535TMC3    C8 7949   1.363   0.009   0.819  1.0029  0.3557  0.0367
  535TMC3    O1 7950   1.395   0.347   0.446  0.0688 -0.0583  0.1571
  535TMC3    O2 7951   1.302   4.719   0.924 -0.4117  0.4104  0.4615
  536MPD2     C 7952   0.470   3.563  16.463  0.0155  0.1754  0.0113
  536MPD2    C1 7953   0.384   3.480  16.534 -0.3681  0.4368  0.4881
  536MPD2    C2 7954   0.261   3.449  16.486 -0.6272 -1.0312  0.7879
  536MPD2    C3 7955   0.226   3.490  16.360 -0.2773  0.3637  0.5863
  536MPD2    C4 7956   0.307   3.576  16.289  0.0410  0.6755 -0.7766
  536MPD2    C5 7957   0.426   3.621  16.340 -0.0499  0.6469 -0.0911
  536MPD2     H 7958   0.193   3.389  16.545 -0.1528  0.0225  2.4069
  536MPD2    H1 7959   0.278   3.604  16.189 -0.6988 -1.0953 -1.0701
  536MPD2    H2 7960   0.570   3.584  16.501  0.2992  0.7366 -1.0632
  536MPD2    H3 7961   0.491   3.692  16.291  1.5018  0.4353  1.6437
  536MPD2     N 7962   0.100   3.446  16.301  0.4084  0.2070 -0.5689
  536MPD2    H5 7963   0.089   3.480  16.205 -3.0272  2.2756  0.5414
  536MPD2    N1 7964   0.432   3.422  16.659  0.3922 -0.7117 -0.2511
  536MPD2    H7 7965   0.532   3.428  16.674  0.2423 -1.2329  0.9274
  537TMC3    C1 7966   0.442   3.297  16.861 -0.6639 -0.6991  0.0307
  537TMC3    C2 7967   0.573   3.330  16.877 -0.0532  0.1097 -0.0115
  537TMC3    C3 7968   0.654   3.245  16.954  0.3182 -0.1665 -0.0841
  537TMC3    C4 7969   0.390   3.191  16.936 -0.1378 -0.4912  0.1560
  537TMC3    C5 7970   0.480   3.106  16.996 -0.5552  0.7793 -0.0377
  537TMC3    C6 7971   0.615   3.127  17.009  0.2228  0.4726  0.6068
  537TMC3     C 7972   0.361   3.360  16.759 -0.5633 -0.0827 -0.0333
  537TMC3     O 7973   0.237   3.343  16.768 -0.1266 -0.0920 -0.4388
  537TMC3     H 7974   0.611   3.427  16.847 -1.8175  1.3858  1.8554
  537TMC3    H1 7975   0.288   3.157  16.926  0.8222 -2.6949 -2.1352
  537TMC3    H2 7976   0.685   3.063  17.062  0.6475 -1.0543 -1.8207
  537TMC3    C7 7977   0.415   3.000  17.083 -0.4333  0.4525 -0.0557
  537TMC3    C8 7978   0.780   3.292  17.008 -0.1602  0.6153  0.7979
  537TMC3    O1 7979   0.299   3.014  17.116  0.1546  0.3938  0.0648
  537TMC3    O2 7980   0.788   3.257  17.123  0.1845  0.0816 -0.5403
  538TMC3    C1 7981   2.044   1.300  11.201 -0.3943 -0.5743  0.0926
  538TMC3    C2 7982   2.064   1.242  11.080  0.0979  0.1311 -0.0516
  538TMC3    C3 7983   2.029   1.311  10.973  0.4487  0.3567  0.2363
  538TMC3    C4 7984   1.998   1.431  11.220  0.0134 -0.5833 -1.0237
  538TMC3    C5 7985   1.973   1.501  11.106  0.2259 -0.0757  0.1050
  538TMC3    C6 7986   1.990   1.441  10.984 -0.1837  0.1672  0.0964
  538TMC3     C 7987   2.099   1.231  11.320  0.5142  0.1598 -0.2441
  538TMC3     O 7988   2.050   1.268  11.426 -0.4675  0.4911 -0.7271
  538TMC3     H 7989   2.103   1.143  11.064  0.3245  0.3366 -0.7488
  538TMC3    H1 7990   1.993   1.478  11.318 -1.0724  0.3278 -1.5113
  538TMC3    H2 7991   1.967   1.498  10.895  0.0716  0.3227  0.1290
  538TMC3    C7 7992   1.877   1.601  11.107 -0.7543 -0.2670 -0.2014
  538TMC3    C8 7993   2.043   1.241  10.849  0.3542 -0.4048  0.3734
  538TMC3    O1 7994   1.909   1.687  11.024 -0.2734  0.4908  0.3209
  538TMC3    O2 7995   2.037   1.118  10.844  0.8569  0.1360  0.4201
  539MPD2     C 7996   1.757   0.335  11.754 -0.3971 -0.3829  0.0133
  539MPD2    C1 7997   1.850   0.373  11.661  0.2623  0.8123 -0.3338
  539MPD2    C2 7998   1.877   0.508  11.646 -0.2647  0.0406 -0.6440
  539MPD2    C3 7999   1.815   0.605  11.722 -0.8511  0.9113 -0.0415
  539MPD2    C4 8000   1.733   0.565  11.825  1.0613 -0.4914  0.7753
  539MPD2    C5 8001   1.699   0.432  11.834  0.1775 -0.3366  0.2838
  539MPD2     H 8002   1.942   0.540  11.566  6.0532 -0.6047  4.2788
  539MPD2    H1 8003   1.679   0.626  11.897 -0.6530  1.0463 -1.8211
  539MPD2    H2 8004   1.723   0.232  11.760  0.3215 -0.4408  3.0830
  539MPD2    H3 8005   1.631   0.401  11.912 -0.6421  0.6693 -0.0324
  539MPD2     N 8006   1.826   0.746  11.701 -0.4584 -0.3656 -0.1204
  539MPD2    H5 8007   1.774   0.811  11.759 -0.1831 -0.0287 -0.2506
  539MPD2    N1 8008   1.912   0.284  11.569  0.2038  0.4595  0.9034
  539MPD2    H7 8009   1.974   0.329  11.502 -0.0490  0.9272  0.9825
  540TMC3    C1 8010   1.870   0.958  11.601  0.3020 -0.3874 -0.0818
  540TMC3    C2 8011   1.836   1.011  11.480 -0.0906  0.0459 -0.8267
  540TMC3    C3 8012   1.764   1.126  11.481  0.3086 -0.3464  0.0633
  540TMC3    C4 8013   1.851   1.021  11.718  0.5487 -0.4897  0.1999
  540TMC3    C5 8014   1.777   1.137  11.709  1.4351 -0.1422 -0.0563
  540TMC3    C6 8015   1.746   1.201  11.595  0.5171 -0.1438 -0.0973
  540TMC3     C 8016   1.888   0.807  11.592 -0.4700 -0.1720  0.7285
  540TMC3     O 8017   1.932   0.753  11.489 -0.2353  0.3464 -0.2070
  540TMC3     H 8018   1.872   0.961  11.391 -1.5703 -1.8856 -0.3275
  540TMC3    H1 8019   1.863   0.977  11.816  1.0606  0.6663  0.6610
  540TMC3    H2 8020   1.699   1.299  11.593 -0.0971 -0.4214  1.6080
  540TMC3    C7 8021   1.701   1.180  11.829  1.3893  0.0403  0.1857
  540TMC3    C8 8022   1.732   1.185  11.358  0.4573  0.2131  0.4256
  540TMC3    O1 8023   1.754   1.192  11.939 -0.4632  0.0720 -0.5039
  540TMC3    O2 8024   1.750   1.304  11.338 -0.5956 -0.4956 -0.2411
  541MPD2     C 8025   0.201   2.497  13.343  1.5336  0.7516  0.4491
  541MPD2    C1 8026   0.170   2.417  13.237 -0.0577 -0.1307 -0.0311
  541MPD2    C2 8027   0.195   2.472  13.112 -0.5177 -0.2835 -0.2136
  541MPD2    C3 8028   0.246   2.604  13.085 -0.2488  0.0755  0.1989
  541MPD2    C4 8029   0.252   2.685  13.199  0.5464  0.1476 -0.0104
  541MPD2    C5 8030   0.229   2.630  13.326  0.3940  0.3046  0.4811
  541MPD2     H 8031   0.171   2.406  13.028  0.7294 -1.3073  0.2369
  541MPD2    H1 8032   0.294   2.783  13.179 -0.4598  0.5892  0.0463
  541MPD2    H2 8033   0.201   2.467  13.448  1.1011  3.0402  1.0974
  541MPD2    H3 8034   0.239   2.692  13.414  0.8353  0.5320  0.2698
  541MPD2     N 8035   0.271   2.658  12.957 -0.4429  0.5216 -0.5077
  541MPD2    H5 8036   0.299   2.756  12.955  1.2440  0.0030 -1.7920
  541MPD2    N1 8037   0.119   2.289  13.256  0.5030  0.2053  0.1336
  541MPD2    H7 8038   0.118   2.228  13.175  0.3838  1.4810 -0.8070
  542TMC3    C1 8039   0.256   2.696  12.728  0.2398  0.3607  0.0739
  542TMC3    C2 8040   0.216   2.648  12.606 -0.1145 -0.6312 -0.4416
  542TMC3    C3 8041   0.262   2.710  12.488 -0.0543  0.0559 -0.1808
  542TMC3    C4 8042   0.319   2.817  12.743  0.1974  0.1791 -0.2084
  542TMC3    C5 8043   0.351   2.879  12.627  0.3926  0.0676  0.3058
  542TMC3    C6 8044   0.325   2.833  12.498  0.0428 -0.6896 -0.4519
  542TMC3     C 8045   0.227   2.608  12.841 -0.4652  0.2060 -0.1261
  542TMC3     O 8046   0.157   2.510  12.828 -0.1058 -0.3101 -0.6696
  542TMC3     H 8047   0.165   2.553  12.602  0.9906 -1.2001 -0.6881
  542TMC3    H1 8048   0.326   2.862  12.842 -1.1479 -0.3270  0.1079
  542TMC3    H2 8049   0.368   2.879  12.410 -1.5705 -3.0249 -2.4485
  542TMC3    C7 8050   0.376   3.017  12.651 -0.1373  0.3025 -0.1308
  542TMC3    C8 8051   0.262   2.645  12.355 -0.4948  0.3017 -0.0403
  542TMC3    O1 8052   0.423   3.052  12.759 -0.4049 -0.7163  0.1155
  542TMC3    O2 8053   0.280   2.715  12.263 -0.9128 -0.5879  0.4926
  543TMC3    C1 8054   4.272   2.992  17.290  0.1365  0.2996  0.4494
  543TMC3    C2 8055   4.301   2.906  17.193  0.2135 -1.0702 -0.0286
  543TMC3    C3 8056   4.386   2.802  17.224 -0.2142 -0.0313 -0.2826
  543TMC3    C4 8057   4.334   2.989  17.407  0.2902 -0.7040 -0.0582
  543TMC3    C5 8058   4.412   2.882  17.437 -0.2170  0.8086 -0.1670
  543TMC3    C6 8059   4.452   2.793  17.347 -0.3079 -0.4732  0.2408
  543TMC3     C 8060   4.207   3.119  17.252 -0.3474 -0.1581 -0.1609
  543TMC3     O 8061   4.246   3.223  17.304  0.1677 -0.9435 -0.3343
  543TMC3     H 8062   4.260   2.916  17.093  0.2220 -0.3619  0.0400
  543TMC3    H1 8063   4.314   3.069  17.477 -0.0353 -0.6413 -0.2213
  543TMC3    H2 8064   4.533   2.723  17.366  0.2530  0.7179  2.2750
  543TMC3    C7 8065   4.452   2.871  17.579 -0.1797 -0.1422  0.3091
  543TMC3    C8 8066   4.414   2.694  17.134  0.7099 -0.1134 -0.5519
  543TMC3    O1 8067   4.378   2.927  17.661  0.0209 -0.2583  0.1130
  543TMC3    O2 8068   4.513   2.624  17.160 -0.3633 -0.2558 -0.2796
  544MPD2     C 8069   4.300   2.391  16.733 -0.0460 -0.3633  0.1186
  544MPD2    C1 8070   4.395   2.370  16.831  0.1386 -0.5588  0.8637
  544MPD2    C2 8071   4.406   2.462  16.939 -0.3631 -0.1267 -0.0406
  544MPD2    C3 8072   4.335   2.584  16.930 -0.1368  0.5968  0.0018
  544MPD2    C4 8073   4.242   2.595  16.831  0.0747  0.5531  0.1405
  544MPD2    C5 8074   4.219   2.503  16.738 -0.4192 -0.4871 -0.2604
  544MPD2     H 8075   4.481   2.453  17.016  1.3722 -0.0438 -1.7268
  544MPD2    H1 8076   4.174   2.679  16.825  1.1825  1.5213  1.0635
  544MPD2    H2 8077   4.293   2.322  16.649 -1.9922 -0.2744  0.1910
  544MPD2    H3 8078   4.143   2.516  16.662 -0.9873 -1.8707  0.0725
  544MPD2     N 8079   4.332   2.684  17.028 -0.4642 -0.2140 -0.3525
  544MPD2    H5 8080   4.266   2.760  17.018  0.0275  0.3129  0.3713
  544MPD2    N1 8081   4.469   2.250  16.828  0.3500 -0.1315 -0.3739
  544MPD2    H7 8082   4.456   2.189  16.748  0.8151  0.4958 -0.9330
  545TMC3    C1 8083   4.645   2.088  16.872 -0.5012  0.2664 -0.3251
  545TMC3    C2 8084   4.640   2.036  16.739 -0.5689 -0.3582  0.3764
  545TMC3    C3 8085   4.694   1.911  16.726 -0.5050 -0.4490  0.3570
  545TMC3    C4 8086   4.702   2.014  16.973  0.8989  0.1348 -0.8914
  545TMC3    C5 8087   0.041   1.900  16.946  0.3401  0.4561 -0.4323
  545TMC3    C6 8088   0.035   1.839  16.824 -0.7280  0.1823  0.3621
  545TMC3     C 8089   4.567   2.206  16.923  0.6178 -0.4391  0.9235
  545TMC3     O 8090   4.601   2.253  17.030  0.2091 -0.7313 -0.4157
  545TMC3     H 8091   4.611   2.099  16.656  2.1635  0.9109  0.3770
  545TMC3    H1 8092   4.698   2.054  17.073  2.5096  1.9971 -1.5697
  545TMC3    H2 8093   0.075   1.741  16.802 -1.9038  0.0997 -1.3993
  545TMC3    C7 8094   0.062   1.815  17.065  0.1169  0.4867 -0.1287
  545TMC3    C8 8095   0.002   1.876  16.584  0.2127  0.0790 -0.7659
  545TMC3    O1 8096   0.083   1.700  17.046  0.4815  0.1356 -0.0525
  545TMC3    O2 8097   0.000   1.959  16.496 -0.7732 -0.4120 -0.1081
  546MPD2     C 8098   0.820   3.600  17.207  0.1093 -1.2711  0.0011
  546MPD2    C1 8099   0.696   3.645  17.184  0.0925  1.2049 -1.0414
  546MPD2    C2 8100   0.683   3.779  17.165  0.5753 -0.1287  0.3526
  546MPD2    C3 8101   0.799   3.859  17.165 -0.2286 -0.2939 -1.1626
  546MPD2    C4 8102   0.927   3.804  17.190  0.1952 -0.0738  0.3291
  546MPD2    C5 8103   0.931   3.669  17.224  0.3818 -0.3290  0.5169
  546MPD2     H 8104   0.584   3.820  17.153  0.0145 -1.7161 -0.5166
  546MPD2    H1 8105   1.016   3.865  17.199  0.1372 -0.3088  2.3296
  546MPD2    H2 8106   0.828   3.494  17.231  0.4547 -1.2543 -0.0324
  546MPD2    H3 8107   1.026   3.621  17.245 -0.6131 -2.9159 -0.9596
  546MPD2     N 8108   0.801   3.998  17.141  0.2862  0.5159  0.4313
  546MPD2    H5 8109   0.885   4.038  17.101  0.8714  0.6747  1.8196
  546MPD2    N1 8110   0.589   3.552  17.185 -0.1110  0.4647  0.2055
  546MPD2    H7 8111   0.601   3.459  17.225 -1.3396  0.1609 -0.1100
  547TMC3    C1 8112   0.368   3.476  17.140 -0.3228 -0.4043  0.1520
  547TMC3    C2 8113   0.263   3.475  17.049 -0.8539 -0.1270 -0.2991
  547TMC3    C3 8114   0.146   3.410  17.076 -0.5308  0.2829 -0.2754
  547TMC3    C4 8115   0.362   3.395  17.250 -0.0636  0.8029 -0.2819
  547TMC3    C5 8116   0.236   3.339  17.276 -0.8464  0.2219  0.2257
  547TMC3    C6 8117   0.129   3.350  17.194  0.2019  0.3863 -0.4740
  547TMC3     C 8118   0.469   3.582  17.122 -0.2233 -0.0222 -0.3923
  547TMC3     O 8119   0.445   3.682  17.057 -0.1885  0.4226 -0.4041
  547TMC3     H 8120   0.274   3.538  16.962  0.1973  0.6454  0.4001
  547TMC3    H1 8121   0.439   3.392  17.327  2.0175  4.0307 -2.2293
  547TMC3    H2 8122   0.038   3.294  17.212 -1.8012  3.3263 -1.3973
  547TMC3    C7 8123   0.218   3.250  17.391  0.1441 -0.3347 -1.0496
  547TMC3    C8 8124   0.024   3.455  17.012  0.1250  0.4031  0.2888
  547TMC3    O1 8125   0.100   3.218  17.413  0.0341 -0.0444  0.8666
  547TMC3    O2 8126   4.639   3.454  17.079 -0.1061 -0.0632  0.2164
  548MPD2     C 8127   0.924   4.181  12.257  0.0127  0.3478  0.1576
  548MPD2    C1 8128   0.948   4.080  12.353 -0.4456 -0.3664  0.8593
  548MPD2    C2 8129   1.045   3.985  12.319  0.2850  0.5973  1.0051
  548MPD2    C3 8130   1.115   3.986  12.205 -0.4712 -0.4309 -0.3415
  548MPD2    C4 8131   1.085   4.090  12.111 -0.6407 -0.1024 -0.1142
  548MPD2    C5 8132   0.989   4.183  12.141 -0.0228 -0.4638  0.5817
  548MPD2     H 8133   1.063   3.908  12.394  1.8897 -1.3314 -1.3482
  548MPD2    H1 8134   1.130   4.107  12.013 -1.1817 -2.0567 -0.6946
  548MPD2    H2 8135   0.842   4.252  12.270 -1.3749 -1.4709  1.4429
  548MPD2    H3 8136   0.963   4.254  12.064  1.0470 -1.0378 -0.2979
  548MPD2     N 8137   1.212   3.889  12.170 -0.2654  0.5286 -0.0613
  548MPD2    H5 8138   1.245   3.831  12.246 -0.5658  0.3060 -0.1009
  548MPD2    N1 8139   0.865   4.089  12.465  0.1599  0.0719  0.2721
  548MPD2    H7 8140   0.815   4.177  12.467 -0.0546 -0.0923  1.6826
  549TMC3    C1 8141   0.724   4.012  12.643 -0.5107 -0.0480  0.0575
  549TMC3    C2 8142   0.682   4.134  12.663  0.0824  0.4263 -0.4054
  549TMC3    C3 8143   0.569   4.135  12.734 -0.3594  0.2267 -0.6511
  549TMC3    C4 8144   0.669   3.897  12.703  0.0255  0.1392  0.0577
  549TMC3    C5 8145   0.574   3.918  12.799 -0.3608 -0.2044  0.3950
  549TMC3    C6 8146   0.516   4.034  12.812  0.3740 -0.2443 -0.1397
  549TMC3     C 8147   0.847   3.996  12.563 -1.4031 -0.0018 -0.1936
  549TMC3     O 8148   0.901   3.887  12.579 -0.1650 -0.1904  0.1990
  549TMC3     H 8149   0.713   4.226  12.614  1.7937 -0.2535 -0.5776
  549TMC3    H1 8150   0.689   3.797  12.667 -0.1287 -0.0407  0.4699
  549TMC3    H2 8151   0.431   4.052  12.877  1.2481  0.3113  0.8435
  549TMC3    C7 8152   0.522   3.805  12.873  0.2715 -0.0257  0.5709
  549TMC3    C8 8153   0.500   4.256  12.717  1.2411 -0.4405 -0.6210
  549TMC3    O1 8154   0.424   3.829  12.941  0.8767 -0.1319  0.2640
  549TMC3    O2 8155   0.557   4.368  12.705  0.0184 -0.3745 -0.1958
  550TMC3    C1 8156   4.217   1.499  12.587  0.9177  1.0411  0.6999
  550TMC3    C2 8157   4.182   1.592  12.675  0.1490  0.2143  0.2638
  550TMC3    C3 8158   4.166   1.717  12.631 -0.5252 -0.6358  0.0334
  550TMC3    C4 8159   4.259   1.539  12.466 -0.8100  0.2312  0.1230
  550TMC3    C5 8160   4.252   1.665  12.424 -0.0132  0.7298  0.0764
  550TMC3    C6 8161   4.208   1.756  12.507 -0.3492 -0.5226  0.1572
  550TMC3     C 8162   4.125   1.384  12.583 -0.1364 -0.3095  0.0849
  550TMC3     O 8163   4.090   1.343  12.691  0.6550  0.9701  0.2035
  550TMC3     H 8164   4.149   1.567  12.776  0.3614  0.1087  0.3075
  550TMC3    H1 8165   4.301   1.462  12.402  1.2932  2.6890 -1.4118
  550TMC3    H2 8166   4.192   1.860  12.478 -3.0769 -0.8102  0.5830
  550TMC3    C7 8167   4.181   1.663  12.301  0.0532  0.3669  0.2322
  550TMC3    C8 8168   4.092   1.818  12.700 -0.2454 -0.0664  0.2661
  550TMC3    O1 8169   4.136   1.559  12.264  0.1287 -0.4167 -0.4759
  550TMC3    O2 8170   4.119   1.931  12.674 -0.2055  0.1624 -0.3995
  551TMC3    C1 8171   1.835   4.193  13.494 -0.3868  0.5689 -0.5491
  551TMC3    C2 8172   1.951   4.218  13.432 -0.1331  0.2290  0.1270
  551TMC3    C3 8173   2.017   4.334  13.454 -0.5343  0.2586 -0.1989
  551TMC3    C4 8174   1.774   4.302  13.563 -0.5915  0.2336 -0.2468
  551TMC3    C5 8175   1.840   4.416  13.577 -0.5926  0.1683  0.3349
  551TMC3    C6 8176   1.961   4.435  13.518  0.5288 -0.5576 -0.2323
  551TMC3     C 8177   1.745   4.122  13.405  0.5191  0.1942  1.0297
  551TMC3     O 8178   1.787   4.071  13.304  0.7538  0.1461  0.7274
  551TMC3     H 8179   1.992   4.150  13.358 -0.2263  0.7543 -0.4025
  551TMC3    H1 8180   1.683   4.283  13.617  0.0846  0.2953  0.9226
  551TMC3    H2 8181   2.015   4.526  13.544 -0.9121  0.0777  0.5428
  551TMC3    C7 8182   1.807   4.506  13.682 -0.1519 -0.3361 -0.1464
  551TMC3    C8 8183   2.116   4.371  13.357 -0.1906  0.1224  0.0114
  551TMC3    O1 8184   1.900   4.562  13.742 -0.0208 -0.4287  0.6886
  551TMC3    O2 8185   2.190   4.290  13.308  0.2965  0.2439 -0.5915
  552MPD2     C 8186   3.878   1.732  13.735 -0.2596  0.1026  0.2056
  552MPD2    C1 8187   3.835   1.663  13.843 -0.1796 -0.4939 -0.1367
  552MPD2    C2 8188   3.924   1.626  13.937  0.0532  0.1425  0.0841
  552MPD2    C3 8189   4.058   1.643  13.928  0.5329 -0.5067  0.2978
  552MPD2    C4 8190   4.105   1.717  13.825 -0.0704 -0.1501  0.2764
  552MPD2    C5 8191   4.010   1.766  13.732  0.0503 -0.8738  0.6762
  552MPD2     H 8192   3.877   1.580  14.023 -0.0574  0.1091  0.0058
  552MPD2    H1 8193   4.205   1.756  13.808 -1.0050  1.6757 -1.1466
  552MPD2    H2 8194   3.812   1.743  13.649 -0.1411 -2.7472 -0.2477
  552MPD2    H3 8195   4.041   1.837  13.655  2.0110 -0.5778  1.7531
  552MPD2     N 8196   4.158   1.602  14.017  0.0096  0.9836  0.2114
  552MPD2    H5 8197   4.255   1.623  13.995  0.5136 -2.5015 -0.9547
  552MPD2    N1 8198   3.706   1.626  13.864 -0.3494 -0.5276 -0.5366
  552MPD2    H7 8199   3.690   1.548  13.927 -0.1014 -1.1675 -1.2618
  553TMC3    C1 8200   3.483   1.574  13.801 -1.0181 -0.6768 -0.4257
  553TMC3    C2 8201   3.406   1.572  13.687  0.3264 -0.8741 -0.8220
  553TMC3    C3 8202   3.362   1.450  13.644 -0.1133 -0.0329  0.1479
  553TMC3    C4 8203   3.494   1.464  13.886 -0.2886  0.0369  0.7381
  553TMC3    C5 8204   3.435   1.347  13.845 -0.1344  0.6098 -0.6564
  553TMC3    C6 8205   3.362   1.341  13.729 -0.4340  0.3378  0.2331
  553TMC3     C 8206   3.599   1.659  13.787 -0.1637  0.5442  0.2482
  553TMC3     O 8207   3.590   1.758  13.715 -0.3993  0.0323  0.4288
  553TMC3     H 8208   3.427   1.641  13.606 -0.7847 -0.3650 -0.6760
  553TMC3    H1 8209   3.534   1.467  13.987  0.9904 -0.0205  0.2409
  553TMC3    H2 8210   3.317   1.247  13.697 -1.5929 -0.0587  2.9718
  553TMC3    C7 8211   3.465   1.226  13.921  0.2126  0.4238  0.0732
  553TMC3    C8 8212   3.418   1.415  13.516  0.7369 -0.6719 -0.2358
  553TMC3    O1 8213   3.371   1.173  13.974  0.0403 -0.3210 -0.0633
  553TMC3    O2 8214   3.533   1.454  13.508 -0.5345  0.0467 -0.0910
  554TMC3    C1 8215   0.346   0.435  11.606 -0.1366 -0.5466  0.0667
  554TMC3    C2 8216   0.267   0.456  11.498 -0.1506 -0.5076  0.4149
  554TMC3    C3 8217   0.267   0.570  11.432  0.5171  0.4576 -0.3928
  554TMC3    C4 8218   0.402   0.543  11.673 -0.0526  0.0469 -0.4569
  554TMC3    C5 8219   0.401   0.655  11.601 -0.1922  0.4712  0.8585
  554TMC3    C6 8220   0.343   0.680  11.479  0.3099 -0.1531 -0.3648
  554TMC3     C 8221   0.308   0.323  11.690  0.0306  0.4830  0.4188
  554TMC3     O 8222   0.214   0.251  11.644  0.0504 -0.0671 -0.5781
  554TMC3     H 8223   0.212   0.379  11.444  2.0898 -1.1363 -0.9570
  554TMC3    H1 8224   0.446   0.545  11.772 -1.3346  1.0526  0.0893
  554TMC3    H2 8225   0.332   0.781  11.439 -0.9462 -0.0649  0.2145
  554TMC3    C7 8226   0.504   0.752  11.637  0.6408 -0.1997  0.2985
  554TMC3    C8 8227   0.240   0.580  11.283 -0.1189 -0.6541 -0.9164
  554TMC3    O1 8228   0.493   0.863  11.588  0.1108 -0.0279 -0.6931
  554TMC3    O2 8229   0.249   0.695  11.249  0.3974  0.2009 -0.4897
  555TMC3    C1 8230   4.204   0.594  15.178 -0.3949  0.2383  0.0979
  555TMC3    C2 8231   4.216   0.676  15.286  0.3760 -0.7589 -0.0298
  555TMC3    C3 8232   4.205   0.617  15.412 -0.1731 -0.0263  0.0808
  555TMC3    C4 8233   4.182   0.460  15.187 -0.2194  0.3266  0.6038
  555TMC3    C5 8234   4.162   0.412  15.310  0.7858 -0.4409  0.5410
  555TMC3    C6 8235   4.173   0.488  15.427 -0.1878  0.2948  0.8569
  555TMC3     C 8236   4.196   0.654  15.042  0.1255 -0.3203 -0.4302
  555TMC3     O 8237   4.101   0.614  14.972 -0.2635  0.5906 -0.2457
  555TMC3     H 8238   4.216   0.784  15.284 -0.3730 -0.7665 -0.7516
  555TMC3    H1 8239   4.175   0.400  15.097 -2.8648  0.2492  0.8361
  555TMC3    H2 8240   4.152   0.443  15.523  1.8195 -2.2354  0.1172
  555TMC3    C7 8241   4.148   0.271  15.336 -0.5415 -0.4275  0.3286
  555TMC3    C8 8242   4.221   0.695  15.526 -0.0484  0.5003 -0.0235
  555TMC3    O1 8243   4.080   0.247  15.435  0.2625  1.0715 -0.5032
  555TMC3    O2 8244   4.202   0.816  15.521 -0.0630 -0.0367  0.2499
  556MPD2     C 8245   2.581   2.408  10.439 -0.3791 -0.4256  0.2581
  556MPD2    C1 8246   2.569   2.287  10.513 -0.3571  0.2260  0.2707
  556MPD2    C2 8247   2.491   2.188  10.458  1.2191  0.3237  0.0957
  556MPD2    C3 8248   2.434   2.200  10.331  0.2557 -0.6114  0.0902
  556MPD2    C4 8249   2.451   2.319  10.261 -0.4868 -0.0988 -0.0784
  556MPD2    C5 8250   2.522   2.419  10.311 -0.6439  0.0335 -0.0943
  556MPD2     H 8251   2.478   2.094  10.510  1.7900 -1.2855 -2.7083
  556MPD2    H1 8252   2.400   2.333  10.166 -1.2899  1.1346  0.5298
  556MPD2    H2 8253   2.652   2.485  10.470 -1.0991 -0.2269  1.4065
  556MPD2    H3 8254   2.523   2.515  10.260 -0.8729 -0.4220 -0.9646
  556MPD2     N 8255   2.364   2.085  10.284 -0.7909 -1.0956 -0.1762
  556MPD2    H5 8256   2.375   1.998  10.334  0.1694 -0.6970  0.3069
  556MPD2    N1 8257   2.622   2.258  10.638  0.1111 -0.1003 -0.3389
  556MPD2    H7 8258   2.598   2.167  10.676  1.5637 -0.8014 -1.0963
  557TMC3    C1 8259   2.228   1.950  10.160  0.5967  0.1884 -0.0957
  557TMC3    C2 8260   2.213   1.895  10.028  0.3961 -0.0749  0.1540
  557TMC3    C3 8261   2.202   1.763  10.007  0.8899  0.1384  1.7042
  557TMC3    C4 8262   2.217   1.859  10.260  0.1433  0.9093 -0.3264
  557TMC3    C5 8263   2.202   1.725  10.233  0.7108  0.1103  0.2958
  557TMC3    C6 8264   2.184   1.676  10.107  1.2215  0.1145  0.3997
  557TMC3     C 8265   2.288   2.080  10.172 -0.2079  0.7245  0.0534
  557TMC3     O 8266   2.277   2.162  10.079 -0.4647 -0.5247  0.0030
  557TMC3     H 8267   2.231   1.968   9.950 -1.3033  0.7054  0.4903
  557TMC3    H1 8268   2.218   1.886  10.365 -4.2442 -1.6875  0.3842
  557TMC3    H2 8269   2.184   1.568  10.097 -0.2663  0.2919 -1.5464
  557TMC3    C7 8270   2.167   1.641  10.348  0.8927 -0.0279  0.3587
  557TMC3    C8 8271   2.223   1.703   9.882  0.3664  0.2503 -0.0152
  557TMC3    O1 8272   2.193   1.685  10.459  0.0775 -0.2985  0.1449
  557TMC3    O2 8273   2.207   1.779   9.789  0.0043 -0.2967 -0.3413
  558TMC3    C1 8274   0.977   0.002   9.656  0.0164  0.3390  0.1790
  558TMC3    C2 8275   0.946   0.054   9.778  0.3203 -0.2906  0.2209
  558TMC3    C3 8276   0.865   0.163   9.782 -0.0986  0.3605 -0.1846
  558TMC3    C4 8277   0.912   0.031   9.539  0.3416 -0.0257  0.1166
  558TMC3    C5 8278   0.832   0.147   9.541  0.0739 -0.0837 -0.2599
  558TMC3    C6 8279   0.813   0.213   9.664  0.8823 -0.7130  0.1775
  558TMC3     C 8280   1.085   4.627   9.642  0.0329  0.9981  0.1262
  558TMC3     O 8281   1.062   4.530   9.574 -0.1523 -0.3581 -0.1590
  558TMC3     H 8282   1.008   0.036   9.865  0.0035 -0.7041  0.3631
  558TMC3    H1 8283   0.930   4.699   9.447 -0.9075  1.0622 -0.7731
  558TMC3    H2 8284   0.761   0.308   9.672  1.5096 -0.3833  0.3335
  558TMC3    C7 8285   0.741   0.173   9.440 -0.2747 -0.1639 -0.0360
  558TMC3    C8 8286   0.788   0.192   9.896  0.4697 -0.2090  0.6116
  558TMC3    O1 8287   0.708   0.296   9.427  0.1136 -0.2241  0.3179
  558TMC3    O2 8288   0.702   0.278   9.880 -0.1761  0.2773  0.3947
  559MPD2     C 8289   0.574   0.548  10.527 -0.3217 -0.3006  0.1358
  559MPD2    C1 8290   0.516   0.441  10.578  0.4274 -0.1050  0.8286
  559MPD2    C2 8291   0.558   0.391  10.706 -0.3103 -0.3871 -0.1075
  559MPD2    C3 8292   0.651   0.462  10.772  1.1762  0.0391  0.1286
  559MPD2    C4 8293   0.716   0.570  10.713  0.0223  0.3692 -0.0236
  559MPD2    C5 8294   0.677   0.610  10.590  0.3468 -0.0018  0.4752
  559MPD2     H 8295   0.516   0.301  10.748  2.8301 -2.0586 -0.6142
  559MPD2    H1 8296   0.797   0.633  10.747 -0.5460  0.0053  2.0379
  559MPD2    H2 8297   0.551   0.579  10.426  1.0866 -1.9346 -0.6810
  559MPD2    H3 8298   0.725   0.694  10.540  0.0336 -1.6745 -2.6699
  559MPD2     N 8299   0.685   0.412  10.901 -0.1526  0.4156 -0.3297
  559MPD2    H5 8300   0.637   0.328  10.932 -2.2196  1.6420 -0.1882
  559MPD2    N1 8301   0.415   0.384  10.494 -0.6062 -0.0790 -0.8773
  559MPD2    H7 8302   0.408   0.433  10.406 -3.5834  2.7617  0.9149
  560TMC3    C1 8303   0.820   0.376  11.088  0.1470 -0.6845  1.0778
  560TMC3    C2 8304   0.762   0.251  11.087  0.2080  0.2295 -0.3499
  560TMC3    C3 8305   0.822   0.157  11.166  0.0418  0.1227 -0.2420
  560TMC3    C4 8306   0.939   0.402  11.150  1.0137 -0.1938 -0.5635
  560TMC3    C5 8307   0.998   0.299  11.221 -0.1780 -0.5238 -0.3177
  560TMC3    C6 8308   0.938   0.174  11.237 -0.4764 -0.0284  0.2432
  560TMC3     C 8309   0.792   0.463  10.975 -0.1963 -0.2637  0.0386
  560TMC3     O 8310   0.860   0.564  10.964  0.2486 -0.3987  0.0060
  560TMC3     H 8311   0.662   0.222  11.055 -1.5851  2.7662  2.9275
  560TMC3    H1 8312   0.972   0.505  11.155  0.2388  0.0188  0.2997
  560TMC3    H2 8313   0.984   0.091  11.289  1.9630  2.0847  1.4967
  560TMC3    C7 8314   1.111   0.318  11.310 -0.0553 -0.0519 -0.0922
  560TMC3    C8 8315   0.798   0.029  11.113  0.2554 -0.2208 -1.1577
  560TMC3    O1 8316   1.095   0.274  11.424  0.0291 -0.0715  0.3373
  560TMC3    O2 8317   0.767   0.031  10.997  0.0857 -0.4899  0.2572
  561TMC3    C1 8318   3.307   3.864  11.423  0.6608 -0.5077  0.2740
  561TMC3    C2 8319   3.229   3.832  11.535 -0.7233 -0.0328  0.2179
  561TMC3    C3 8320   3.285   3.869  11.655 -0.1007 -0.5320  0.0501
  561TMC3    C4 8321   3.422   3.937  11.427 -0.4239  0.4896 -0.4051
  561TMC3    C5 8322   3.470   3.981  11.550 -0.7926  0.2465  0.2291
  561TMC3    C6 8323   3.405   3.951  11.667 -0.1584 -0.6930 -0.5446
  561TMC3     C 8324   3.252   3.827  11.294  0.2474  0.2463 -0.0094
  561TMC3     O 8325   3.128   3.813  11.304  0.3286  0.0904 -0.0752
  561TMC3     H 8326   3.147   3.762  11.529  0.4685 -1.3851 -0.2639
  561TMC3    H1 8327   3.469   3.962  11.332  0.2944  0.9355  0.0700
  561TMC3    H2 8328   3.445   3.974  11.765 -1.4534  3.7949 -1.0890
  561TMC3    C7 8329   3.595   4.055  11.566 -0.0713  0.8285  0.2214
  561TMC3    C8 8330   3.231   3.826  11.785 -0.6957  0.3374 -0.3207
  561TMC3    O1 8331   3.658   4.041  11.670  0.2580 -0.2790 -0.2332
  561TMC3    O2 8332   3.313   3.788  11.868 -0.0960 -0.2842  0.2411
  562TMC3    C1 8333   4.236   0.786  16.433 -0.2891 -0.9693 -0.9119
  562TMC3    C2 8334   4.240   0.892  16.345 -0.1482 -0.0859 -0.3957
  562TMC3    C3 8335   4.158   0.883  16.235 -0.2365 -0.5803  0.3095
  562TMC3    C4 8336   4.166   0.671  16.399 -0.4698 -0.1709  0.6167
  562TMC3    C5 8337   4.086   0.671  16.286  0.1736  0.0235 -0.7307
  562TMC3    C6 8338   4.086   0.773  16.196  0.4169 -0.4924 -0.4614
  562TMC3     C 8339   4.282   0.805  16.568  0.2102  0.0687  0.0224
  562TMC3     O 8340   4.298   0.695  16.623 -0.2065 -0.3771  0.6782
  562TMC3     H 8341   4.310   0.975  16.352 -0.1702  0.0104 -1.3710
  562TMC3    H1 8342   4.143   0.606  16.483 -0.2112  0.0264  0.8395
  562TMC3    H2 8343   4.019   0.766  16.111 -0.2447 -0.8090  0.0892
  562TMC3    C7 8344   3.995   0.560  16.266 -0.5102  0.6182 -0.1376
  562TMC3    C8 8345   4.121   1.013  16.178  0.6079 -0.4773 -0.3263
  562TMC3    O1 8346   3.890   0.573  16.206  0.0154 -0.1368  0.1980
  562TMC3    O2 8347   4.146   1.119  16.236  0.5399  0.0974  0.5149
  563MPD2     C 8348   1.437   2.326  15.792 -0.4990 -0.1484  0.1942
  563MPD2    C1 8349   1.539   2.414  15.786  0.0220 -0.7487  0.2728
  563MPD2    C2 8350   1.658   2.360  15.773  0.0019 -0.6972  0.2921
  563MPD2    C3 8351   1.689   2.226  15.778  0.0732 -0.4137 -0.4188
  563MPD2    C4 8352   1.585   2.136  15.793 -0.4182 -0.4643 -0.0387
  563MPD2    C5 8353   1.456   2.189  15.802  0.1594 -0.6578 -0.9073
  563MPD2     H 8354   1.732   2.437  15.757 -0.7711  0.1065  0.6326
  563MPD2    H1 8355   1.598   2.030  15.812  1.3606 -0.2447  0.0448
  563MPD2    H2 8356   1.335   2.360  15.801 -0.4603  0.1750 -0.5329
  563MPD2    H3 8357   1.368   2.130  15.827 -0.5220  0.5483 -0.4877
  563MPD2     N 8358   1.827   2.186  15.788  0.4316  0.6056 -0.1111
  563MPD2    H5 8359   1.893   2.261  15.770 -0.7410  2.0417  1.5957
  563MPD2    N1 8360   1.504   2.553  15.791  0.1876 -0.3799 -0.5612
  563MPD2    H7 8361   1.407   2.570  15.815 -0.1015 -0.7174 -1.4773
  564TMC3    C1 8362   1.534   2.777  15.849 -0.2069  1.5548  0.4821
  564TMC3    C2 8363   1.401   2.788  15.826  0.5888  0.2786 -0.5474
  564TMC3    C3 8364   1.315   2.794  15.923 -0.0776 -0.0046  0.4767
  564TMC3    C4 8365   1.580   2.793  15.977  0.4779 -0.0527 -0.2328
  564TMC3    C5 8366   1.487   2.785  16.082 -0.6149 -0.5032 -0.6941
  564TMC3    C6 8367   1.356   2.795  16.050  0.8853  1.0815 -0.1150
  564TMC3     C 8368   1.594   2.654  15.799 -0.2195  0.1788 -1.0113
  564TMC3     O 8369   1.715   2.659  15.788  0.5401 -0.3989 -0.6371
  564TMC3     H 8370   1.368   2.760  15.726 -2.4734  1.1158  0.2549
  564TMC3    H1 8371   1.687   2.797  15.990  0.2540  0.9522  1.2992
  564TMC3    H2 8372   1.276   2.803  16.123  0.6983  0.0213 -0.2008
  564TMC3    C7 8373   1.506   2.666  16.156  0.1901 -0.7384 -0.0365
  564TMC3    C8 8374   1.199   2.714  15.896  0.5653  0.4988  0.5748
  564TMC3    O1 8375   1.402   2.604  16.167  0.5253  0.6153  0.2733
  564TMC3    O2 8376   1.145   2.726  15.786  0.1373 -0.5463 -0.1222
  565TMC3    C1 8377   2.087   2.251  10.563 -0.0065 -0.5458  0.6545
  565TMC3    C2 8378   2.121   2.266  10.698  0.1780 -0.2055  0.1210
  565TMC3    C3 8379   2.084   2.174  10.789 -0.8485  0.1637  0.5178
  565TMC3    C4 8380   2.007   2.149  10.526 -0.0822  0.0466 -0.3204
  565TMC3    C5 8381   1.976   2.052  10.619 -0.5001 -0.1444  0.3241
  565TMC3    C6 8382   2.018   2.060  10.755 -0.4242  0.3690 -0.3183
  565TMC3     C 8383   2.140   2.345  10.461 -0.4198 -0.4459 -0.1355
  565TMC3     O 8384   2.107   2.323  10.349  0.7561  0.0681 -0.2330
  565TMC3     H 8385   2.191   2.343  10.730 -1.0274  1.2645 -0.7422
  565TMC3    H1 8386   1.982   2.139  10.421 -0.2132 -1.0161 -0.1862
  565TMC3    H2 8387   1.974   1.987  10.823  3.5666  0.2366  2.0930
  565TMC3    C7 8388   1.882   1.954  10.573  0.0455  0.0807  0.0833
  565TMC3    C8 8389   2.118   2.185  10.931  0.3329  0.3836 -0.1166
  565TMC3    O1 8390   1.830   1.974  10.467 -0.1512  0.3326  0.1544
  565TMC3    O2 8391   2.075   2.104  11.011  0.4533  0.5877  0.2063
  566MPD2     C 8392   3.782   0.300  14.076  0.1554 -0.2587  0.1234
  566MPD2    C1 8393   3.876   0.396  14.043  0.2730 -0.0312 -0.3380
  566MPD2    C2 8394   3.889   0.432  13.912  0.4450  0.1731 -0.3413
  566MPD2    C3 8395   3.830   0.372  13.804 -0.0262  0.1577  0.0109
  566MPD2    C4 8396   3.736   0.274  13.846  0.3813 -0.1201 -0.0928
  566MPD2    C5 8397   3.708   0.242  13.976  0.5416 -0.0262  0.1453
  566MPD2     H 8398   3.968   0.504  13.890 -0.0489  0.2465 -1.8364
  566MPD2    H1 8399   3.672   0.220  13.778 -0.0798  0.6290 -0.2604
  566MPD2    H2 8400   3.766   0.254  14.172  0.3565 -0.4741  0.0537
  566MPD2    H3 8401   3.659   0.148  13.996  0.2772 -0.5743 -3.0161
  566MPD2     N 8402   3.861   0.400  13.669 -0.2546  0.0360  0.5497
  566MPD2    H5 8403   3.946   0.455  13.662 -0.1802 -0.0417  0.8782
  566MPD2    N1 8404   3.957   0.453  14.142  0.0203  0.6530 -0.0159
  566MPD2    H7 8405   3.963   0.396  14.226  0.9618  2.6397  1.2562
  567TMC3    C1 8406   4.145   0.575  14.222  0.4717 -0.0929  0.5517
  567TMC3    C2 8407   4.243   0.665  14.187 -0.3992 -0.4594  0.4772
  567TMC3    C3 8408   4.373   0.647  14.234 -0.4206 -0.1225  0.6396
  567TMC3    C4 8409   4.163   0.485  14.322  0.5800 -0.2971 -0.3435
  567TMC3    C5 8410   4.289   0.491  14.382 -0.3326  0.0860 -0.1682
  567TMC3    C6 8411   4.400   0.563  14.339  0.1020  0.7969  0.8872
  567TMC3     C 8412   4.033   0.567  14.128 -0.4542 -0.5827  0.1966
  567TMC3     O 8413   4.025   0.656  14.042 -0.0041 -0.1130 -0.1410
  567TMC3     H 8414   4.222   0.729  14.103  1.6411  0.6210  0.7813
  567TMC3    H1 8415   4.082   0.418  14.349  0.2254 -0.7274 -2.4151
  567TMC3    H2 8416   4.498   0.544  14.381 -0.5961 -4.0627  0.4141
  567TMC3    C7 8417   4.316   0.404  14.497  0.9105 -0.1632  0.6072
  567TMC3    C8 8418   4.480   0.705  14.146  0.4426 -0.3594  0.3380
  567TMC3    O1 8419   4.426   0.349  14.512  0.2182 -0.2161  0.1543
  567TMC3    O2 8420   4.455   0.722  14.028 -0.6382 -0.8517 -0.2018
  568MPD2     C 8421   1.118   1.441  16.876  0.5721 -0.7347  0.3278
  568MPD2    C1 8422   1.228   1.425  16.801 -0.2559  0.8010  0.1974
  568MPD2    C2 8423   1.258   1.515  16.699  0.0471  0.7977 -0.4642
  568MPD2    C3 8424   1.170   1.611  16.664  0.0619 -0.1021 -0.2521
  568MPD2    C4 8425   1.067   1.636  16.752 -0.1102  0.2660 -0.6674
  568MPD2    C5 8426   1.042   1.551  16.860  0.5851  0.0092 -0.2700
  568MPD2     H 8427   1.355   1.502  16.652 -0.6778 -1.8041 -1.2645
  568MPD2    H1 8428   1.001   1.719  16.730  0.8205  1.2150  0.0707
  568MPD2    H2 8429   1.092   1.376  16.959 -3.4045  0.1550 -0.1871
  568MPD2    H3 8430   0.965   1.583  16.929 -0.0197 -0.7872 -0.5767
  568MPD2     N 8431   1.218   1.702  16.566  0.5806 -0.2478  0.1730
  568MPD2    H5 8432   1.302   1.682  16.514 -0.6311 -0.8431 -1.5702
  568MPD2    N1 8433   1.323   1.323  16.841 -0.5753 -0.2076  0.1294
  568MPD2    H7 8434   1.308   1.284  16.933 -1.5056 -1.9781 -0.7603
  569TMC3    C1 8435   1.213   1.853  16.398 -0.3702 -0.2371  0.4047
  569TMC3    C2 8436   1.325   1.922  16.421  0.3125 -0.0579 -0.1358
  569TMC3    C3 8437   1.370   2.001  16.319 -0.1301 -0.4654  0.6083
  569TMC3    C4 8438   1.137   1.872  16.284 -0.2359  1.1155  0.3280
  569TMC3    C5 8439   1.189   1.946  16.181  0.1938 -0.5167 -0.2375
  569TMC3    C6 8440   1.305   2.012  16.203  0.5812 -0.1589  0.5843
  569TMC3     C 8441   1.145   1.805  16.512  0.4031  0.1773  0.2854
  569TMC3     O 8442   1.030   1.840  16.521  0.3276 -0.6391 -0.0636
  569TMC3     H 8443   1.375   1.920  16.518 -1.7376  0.8855  0.9494
  569TMC3    H1 8444   1.039   1.825  16.281 -0.0934  0.9646 -1.4555
  569TMC3    H2 8445   1.358   2.060  16.122 -1.2445  0.7603 -0.0770
  569TMC3    C7 8446   1.097   2.026  16.114  0.2143  0.3345 -0.0082
  569TMC3    C8 8447   1.413   2.137  16.351 -0.0835 -0.2688  0.6828
  569TMC3    O1 8448   0.987   1.982  16.081  0.1715 -0.3552  0.5085
  569TMC3    O2 8449   1.353   2.224  16.294  0.0107 -0.0568  0.4751
  570TMC3    C1 8450   0.555   4.577  16.431 -0.6009 -0.4718  0.0772
  570TMC3    C2 8451   0.640   4.547  16.327  0.4070  0.2660  0.6821
  570TMC3    C3 8452   0.679   4.647  16.245  0.6317  0.8215 -0.0792
  570TMC3    C4 8453   0.506   4.706  16.453  0.0230  0.8037 -0.5208
  570TMC3    C5 8454   0.528   0.065  16.352 -0.3582  0.0670  0.0225
  570TMC3    C6 8455   0.629   0.047  16.258  0.0476 -0.9606  0.2632
  570TMC3     C 8456   0.518   4.464  16.517 -0.5762  0.3294  0.2836
  570TMC3     O 8457   0.532   4.354  16.461  0.0262 -0.7680 -0.5764
  570TMC3     H 8458   0.690   4.451  16.322  0.2210  0.1842  0.3959
  570TMC3    H1 8459   0.442   0.009  16.537  0.1396 -2.6800  0.6195
  570TMC3    H2 8460   0.661   0.132  16.200  0.0634 -1.1549 -0.0117
  570TMC3    C7 8461   0.473   0.200  16.370  0.1559 -0.8361  0.2453
  570TMC3    C8 8462   0.790   4.642  16.153 -0.1739 -0.7730  0.7803
  570TMC3    O1 8463   0.406   0.231  16.468  0.1395 -0.3565  0.0337
  570TMC3    O2 8464   0.803   0.020  16.088  0.4346  0.4339 -0.5151
  571MPD2     C 8465   4.087   1.422  17.401  0.2316  0.5841  0.3981
  571MPD2    C1 8466   3.983   1.353  17.346 -0.0489  0.2578  0.3531
  571MPD2    C2 8467   3.901   1.405  17.248 -0.3338  0.2832 -0.3531
  571MPD2    C3 8468   3.919   1.540  17.215 -0.8155  0.4543 -1.5036
  571MPD2    C4 8469   4.023   1.611  17.271 -0.0811 -0.2002  0.3324
  571MPD2    C5 8470   4.109   1.555  17.358  0.7264 -0.8538 -0.6550
  571MPD2     H 8471   3.833   1.345  17.188 -0.5373 -0.1980  0.3578
  571MPD2    H1 8472   4.032   1.715  17.244  3.7536 -0.2717  1.3978
  571MPD2    H2 8473   4.150   1.388  17.482  1.8183 -0.6056 -1.3384
  571MPD2    H3 8474   4.186   1.614  17.408  0.2121 -1.7872  1.2197
  571MPD2     N 8475   3.834   1.610  17.115 -0.0181  0.3390 -0.3615
  571MPD2    H5 8476   3.862   1.702  17.081 -0.0182  1.3698  2.3799
  571MPD2    N1 8477   3.970   1.219  17.398  0.6255  0.0139  0.2040
  571MPD2    H7 8478   4.045   1.187  17.458  0.6728  2.0702  1.2394
  572TMC3    C1 8479   3.670   1.649  16.952  0.2127 -0.2922  0.3314
  572TMC3    C2 8480   3.542   1.605  16.951  0.1980 -0.1773 -0.4061
  572TMC3    C3 8481   3.442   1.677  17.005  0.0809 -0.0623  0.3170
  572TMC3    C4 8482   3.692   1.783  16.982  0.0339 -0.1916  0.1081
  572TMC3    C5 8483   3.594   1.856  17.045 -0.1129  0.1456  0.3691
  572TMC3    C6 8484   3.466   1.808  17.062  0.3461 -0.1867 -0.7634
  572TMC3     C 8485   3.740   1.554  17.041  0.1479 -0.0144 -0.2861
  572TMC3     O 8486   3.675   1.444  17.054  0.1692  0.4481  0.1415
  572TMC3     H 8487   3.516   1.503  16.926 -0.8075 -0.3461  1.2980
  572TMC3    H1 8488   3.793   1.821  16.980  0.5419 -1.3889  2.7512
  572TMC3    H2 8489   3.390   1.872  17.105 -0.2747 -0.3567 -1.5901
  572TMC3    C7 8490   3.618   1.980  17.107  0.1102 -0.7677  0.5207
  572TMC3    C8 8491   3.321   1.601  17.042  0.3148  0.1826  0.4713
  572TMC3    O1 8492   3.718   2.045  17.081  0.4874 -0.1101 -0.3760
  572TMC3    O2 8493   3.302   1.492  16.991  0.2179 -0.2736  0.0641
  573MPD2     C 8494   0.408   2.172   0.934  0.6305  0.1615 -0.8123
  573MPD2    C1 8495   0.350   2.279   0.867 -0.1080  0.3721  0.5807
  573MPD2    C2 8496   0.350   2.283   0.728  0.7817 -0.0795 -0.7477
  573MPD2    C3 8497   0.398   2.176   0.657 -0.3853  0.9825  0.2203
  573MPD2    C4 8498   0.459   2.069   0.720  0.2153 -0.0474 -0.3242
  573MPD2    C5 8499   0.470   2.072   0.861 -0.2110 -0.2994 -0.1268
  573MPD2     H 8500   0.306   2.359   0.665  1.9927 -0.3497 -1.9168
  573MPD2    H1 8501   0.501   1.992   0.656  1.3247  0.4752 -0.2252
  573MPD2    H2 8502   0.391   2.149   1.038  3.5280 -1.0549 -0.6126
  573MPD2    H3 8503   0.515   1.988   0.912  1.5767 -0.8807 -2.6758
  573MPD2     N 8504   0.386   2.168   0.515 -0.0637  1.2974  0.2393
  573MPD2    H5 8505   0.401   2.076   0.477 -1.6524  1.6490 -1.2234
  573MPD2    N1 8506   0.284   2.378   0.942  0.1927 -0.7318 -0.7972
  573MPD2    H7 8507   0.304   2.373   1.041  1.3104  0.4571 -0.9507
  574TMC3    C1 8508   0.389   2.247   0.291  0.7139  0.6491  0.1404
  574TMC3    C2 8509   0.321   2.143   0.228 -0.1665  0.7082 -0.1318
  574TMC3    C3 8510   0.327   2.133   0.090 -0.7782  0.4801 -0.0964
  574TMC3    C4 8511   0.482   2.320   0.229  0.3582  0.5863 -0.3723
  574TMC3    C5 8512   0.483   2.307   0.092  0.6098 -0.0045 -0.3396
  574TMC3    C6 8513   0.404   2.219   0.016  0.5700  0.1827  0.4260
  574TMC3     C 8514   0.367   2.279   0.431 -0.1541 -0.8714  0.4777
  574TMC3     O 8515   0.379   2.397   0.454  0.1480 -0.3993  0.2935
  574TMC3     H 8516   0.252   2.087   0.290 -0.3404  1.1897  0.1169
  574TMC3    H1 8517   0.548   2.382   0.290  0.4216 -0.3701  0.5265
  574TMC3    H2 8518   0.419   2.208  17.601  2.8956  0.1089  0.7541
  574TMC3    C7 8519   0.550   2.408   0.011  0.4248  0.1237  0.1509
  574TMC3    C8 8520   0.291   2.008   0.038  0.8145 -0.3052 -0.9020
  574TMC3    O1 8521   0.574   2.374  17.589  0.0008 -0.7694 -0.0305
  574TMC3    O2 8522   0.272   1.913   0.116  0.0201  0.2865 -0.3175
  575TMC3    C1 8523   2.442   1.734  11.531 -0.1688  0.0902  0.0146
  575TMC3    C2 8524   2.353   1.719  11.637  0.4336  0.0828 -0.2499
  575TMC3    C3 8525   2.291   1.830  11.682  0.0603  0.2364  1.2713
  575TMC3    C4 8526   2.458   1.852  11.467 -0.4241  0.4621  0.1962
  575TMC3    C5 8527   2.385   1.958  11.516 -0.1984  0.8781 -0.0763
  575TMC3    C6 8528   2.306   1.951  11.625 -0.0787  0.0156 -0.1377
  575TMC3     C 8529   2.546   1.635  11.531 -0.0279  0.1191  0.3121
  575TMC3     O 8530   2.515   1.527  11.576 -0.1079  0.2320  0.1200
  575TMC3     H 8531   2.330   1.621  11.676  0.2343  0.4303  0.4997
  575TMC3    H1 8532   2.507   1.863  11.372 -1.9191  1.1469 -0.4903
  575TMC3    H2 8533   2.248   2.035  11.661  1.1113 -0.9214  4.0337
  575TMC3    C7 8534   2.329   2.054  11.420 -0.2005 -0.0094 -0.3261
  575TMC3    C8 8535   2.226   1.830  11.814  0.1312  0.1601  0.2624
  575TMC3    O1 8536   2.212   2.083  11.430  0.6600  0.6393  0.3061
  575TMC3    O2 8537   2.139   1.917  11.825 -0.7492 -0.3379  0.0350
  576MPD2     C 8538   2.288   4.254  12.671 -0.1899 -0.0397  0.3518
  576MPD2    C1 8539   2.242   4.305  12.549 -0.3773  0.6853 -0.2944
  576MPD2    C2 8540   2.139   4.400  12.548 -0.3266  0.0489  1.0819
  576MPD2    C3 8541   2.085   4.457  12.668 -0.1122 -0.0481  0.8203
  576MPD2    C4 8542   2.135   4.400  12.786  1.7450  0.2961 -0.0677
  576MPD2    C5 8543   2.233   4.303  12.787  0.2258  0.2286  0.4345
  576MPD2     H 8544   2.105   4.429  12.450  2.4320  0.0754  0.1280
  576MPD2    H1 8545   2.097   4.427  12.883  0.4876 -1.8999  0.0363
  576MPD2    H2 8546   2.367   4.180  12.677 -0.7663 -0.6668  0.2380
  576MPD2    H3 8547   2.265   4.262  12.882 -2.1725 -1.2344  0.6185
  576MPD2     N 8548   1.978   4.557  12.668 -0.5247 -0.0207 -0.0088
  576MPD2    H5 8549   1.973   4.604  12.578  0.4780  0.7723  0.3544
  576MPD2    N1 8550   2.276   4.251  12.423  0.3917 -0.3397  0.0174
  576MPD2    H7 8551   2.244   4.295  12.337 -0.6326  0.6237  0.8886
  577TMC3    C1 8552   2.388   4.118  12.267  0.2969 -0.5305 -0.1270
  577TMC3    C2 8553   2.424   3.987  12.240  0.0648 -0.0057  0.2881
  577TMC3    C3 8554   2.485   3.969  12.124  0.6688 -0.7067 -0.7418
  577TMC3    C4 8555   2.417   4.224  12.188 -0.9354 -0.1215  0.9564
  577TMC3    C5 8556   2.471   4.189  12.067  0.3333  0.4296 -0.8034
  577TMC3    C6 8557   2.503   4.060  12.023  0.0451 -0.0499  0.5624
  577TMC3     C 8558   2.358   4.141  12.412 -0.2142  0.2849 -0.7110
  577TMC3     O 8559   2.376   4.051  12.494 -0.4569  0.0726 -0.0566
  577TMC3     H 8560   2.405   3.905  12.308  1.1432 -0.1370  0.4264
  577TMC3    H1 8561   2.391   4.327  12.206  0.4357  0.2683  0.6618
  577TMC3    H2 8562   2.552   4.048  11.927 -1.7094 -1.4303 -0.1654
  577TMC3    C7 8563   2.527   4.298  11.992 -0.5752 -0.1690 -0.0661
  577TMC3    C8 8564   2.599   3.878  12.139 -0.1004 -0.0514  0.1965
  577TMC3    O1 8565   2.584   4.388  12.050  0.0129  0.2028 -0.5185
  577TMC3    O2 8566   2.593   3.801  12.232  0.8607  0.1716  0.5276
  578MPD2     C 8567   0.392   0.019   1.407  1.1639  0.6471 -0.0190
  578MPD2    C1 8568   0.482   0.043   1.308 -0.1207  0.1889 -0.1556
  578MPD2    C2 8569   0.543   4.654   1.248  0.2704 -0.4389 -0.3145
  578MPD2    C3 8570   0.507   4.527   1.291  0.2082 -0.5565 -0.9934
  578MPD2    C4 8571   0.417   4.508   1.398 -0.4110 -0.5858 -0.7755
  578MPD2    C5 8572   0.358   4.617   1.449 -1.2082  0.0891 -0.4166
  578MPD2     H 8573   0.608   4.661   1.161 -1.7817  2.9081 -1.6024
  578MPD2    H1 8574   0.387   4.413   1.440 -0.8510 -0.3454 -0.5421
  578MPD2    H2 8575   0.332   0.093   1.459 -0.5699 -0.5715 -0.2826
  578MPD2    H3 8576   0.281   4.605   1.524 -0.4605 -1.3778  0.1227
  578MPD2     N 8577   0.551   4.408   1.228 -0.1043 -0.0921  0.4339
  578MPD2    H5 8578   0.538   4.317   1.270  2.1442 -0.7308 -0.2529
  578MPD2    N1 8579   0.508   0.180   1.269 -0.5729 -0.1874  0.0127
  578MPD2    H7 8580   0.454   0.252   1.316  0.8138  1.2811 -0.6675
  579TMC3    C1 8581   0.683   4.279   1.079 -0.3966 -0.6261  0.1471
  579TMC3    C2 8582   0.805   4.287   1.011  1.0586  0.9107 -0.4259
  579TMC3    C3 8583   0.872   4.172   0.989  0.1043  1.1376 -0.0676
  579TMC3    C4 8584   0.617   4.160   1.117 -1.1131 -0.2715  0.1794
  579TMC3    C5 8585   0.692   4.053   1.088  0.0989  0.5619  0.3297
  579TMC3    C6 8586   0.814   4.053   1.023 -0.7578  0.7868  0.3081
  579TMC3     C 8587   0.612   4.404   1.098  0.7216  1.3386 -0.7500
  579TMC3     O 8588   0.628   4.491   1.015 -0.1183  0.0366  0.2843
  579TMC3     H 8589   0.831   4.387   0.978 -0.6530  1.7617  0.7918
  579TMC3    H1 8590   0.520   4.157   1.164 -0.3741  1.2706  1.8140
  579TMC3    H2 8591   0.876   3.964   1.018  1.0161  1.9751  1.4948
  579TMC3    C7 8592   0.616   3.928   1.075  0.3750  0.1133 -0.4055
  579TMC3    C8 8593   0.995   4.177   0.910  0.3107  0.6966  0.3288
  579TMC3    O1 8594   0.684   3.826   1.085  0.1241  0.0478  0.2079
  579TMC3    O2 8595   1.040   4.067   0.877 -0.3209  0.1136  0.4579
  580TMC3    C1 8596   0.220   3.764  12.172 -0.1243  0.2819  0.2551
  580TMC3    C2 8597   0.129   3.739  12.074  0.0292 -0.1780 -0.3927
  580TMC3    C3 8598   0.123   3.619  12.004 -0.2091 -0.3363 -0.0442
  580TMC3    C4 8599   0.304   3.670  12.218  0.0405 -0.6926 -0.1971
  580TMC3    C5 8600   0.295   3.552  12.156 -0.8154 -0.3678  0.6319
  580TMC3    C6 8601   0.216   3.529  12.039  0.5402  0.0582  0.5000
  580TMC3     C 8602   0.275   3.893  12.166 -0.9890  0.4476  0.8045
  580TMC3     O 8603   0.197   3.987  12.170 -0.1119 -0.4573 -0.2195
  580TMC3     H 8604   0.090   3.822  12.016 -1.2067 -0.3394  0.2037
  580TMC3    H1 8605   0.377   3.689  12.296 -1.1262  3.1394 -0.0339
  580TMC3    H2 8606   0.235   3.456  11.961  2.0102  0.7594  0.1963
  580TMC3    C7 8607   0.394   3.452  12.195  0.4950  0.1591  0.2279
  580TMC3    C8 8608   0.144   3.658  11.868  0.0554  0.2029 -0.3153
  580TMC3    O1 8609   0.488   3.486  12.272  0.5140 -0.5563 -0.4664
  580TMC3    O2 8610   0.051   3.702  11.804 -0.4125  0.2249 -0.0001
  581MPD2     C 8611   2.798   3.299  15.393 -0.5091  0.2520  0.0406
  581MPD2    C1 8612   2.848   3.428  15.393  0.0175 -0.5505 -0.2098
  581MPD2    C2 8613   2.780   3.533  15.322 -0.4775 -0.0009  0.1838
  581MPD2    C3 8614   2.666   3.498  15.245 -0.1988  0.0571  0.2507
  581MPD2    C4 8615   2.624   3.365  15.243  0.4831  0.1994 -0.4326
  581MPD2    C5 8616   2.689   3.268  15.319  0.0321 -0.0169  0.2319
  581MPD2     H 8617   2.823   3.632  15.312 -0.1012 -0.1496  0.3483
  581MPD2    H1 8618   2.528   3.345  15.197 -0.6900 -1.5981  2.8081
  581MPD2    H2 8619   2.839   3.208  15.436  0.0170 -1.0323 -3.2094
  581MPD2    H3 8620   2.648   3.168  15.316  1.6708 -0.5857 -2.4036
  581MPD2     N 8621   2.588   3.587  15.167  0.1436 -0.2456 -0.1673
  581MPD2    H5 8622   2.506   3.556  15.116 -1.0594 -1.8525  2.7368
  581MPD2    N1 8623   2.971   3.442  15.462  0.1909  0.2058  0.4306
  581MPD2    H7 8624   3.008   3.366  15.517 -1.1244 -1.8910 -1.5825
  582TMC3    C1 8625   3.153   3.535  15.575 -0.1660 -0.3322 -0.2297
  582TMC3    C2 8626   3.145   3.613  15.686 -0.3959 -0.0631 -0.1841
  582TMC3    C3 8627   3.205   3.560  15.796 -0.4021  0.2915 -0.5119
  582TMC3    C4 8628   3.207   3.406  15.577 -0.0027 -0.1102 -0.7172
  582TMC3    C5 8629   3.246   3.353  15.690 -0.3056  0.3904 -0.4547
  582TMC3    C6 8630   3.239   3.428  15.803 -0.5687 -0.3534 -0.6060
  582TMC3     C 8631   3.033   3.561  15.494  0.9308 -0.6438 -0.7016
  582TMC3     O 8632   2.999   3.684  15.490  0.2756  0.4435  0.3899
  582TMC3     H 8633   3.125   3.719  15.684 -1.8900 -0.3271  0.7410
  582TMC3    H1 8634   3.206   3.344  15.488  0.5192  0.8191 -1.3777
  582TMC3    H2 8635   3.276   3.394  15.900  0.8908 -1.9726 -1.7224
  582TMC3    C7 8636   3.192   3.218  15.705 -0.1971 -0.1925 -0.3406
  582TMC3    C8 8637   3.164   3.616  15.923 -0.3622  0.0067 -0.2153
  582TMC3    O1 8638   3.218   3.133  15.619  0.4147 -0.5738 -0.1875
  582TMC3    O2 8639   3.077   3.697  15.915 -0.5790  0.3760  0.3401
  583MPD2     C 8640   2.698   0.339  17.001  0.2390 -0.0365 -0.0333
  583MPD2    C1 8641   2.721   0.451  16.923 -0.1976  0.4266 -0.3024
  583MPD2    C2 8642   2.685   0.582  16.970  0.3428 -0.8125  0.2911
  583MPD2    C3 8643   2.617   0.591  17.089  0.0216 -0.2711  0.2809
  583MPD2    C4 8644   2.599   0.477  17.159 -0.7102  0.3591 -0.3070
  583MPD2    C5 8645   2.642   0.350  17.123 -0.0150  0.3593  0.2799
  583MPD2     H 8646   2.703   0.668  16.907 -0.4124 -1.5771 -0.9564
  583MPD2    H1 8647   2.550   0.488  17.256 -0.6175  1.5097 -0.3924
  583MPD2    H2 8648   2.731   0.240  16.971  0.2218  0.7249 -2.5850
  583MPD2    H3 8649   2.625   0.261  17.181  0.2766  0.2129  0.1386
  583MPD2     N 8650   2.569   0.721  17.129 -0.4946  0.1642  0.2156
  583MPD2    H5 8651   2.580   0.798  17.065 -1.5929  2.2463  2.5331
  583MPD2    N1 8652   2.794   0.444  16.802 -0.6918 -0.5207  0.2745
  583MPD2    H7 8653   2.806   0.536  16.760 -0.7415 -0.7793 -0.3119
  584TMC3    C1 8654   2.430   0.868  17.229  1.3314 -0.5133 -0.4240
  584TMC3    C2 8655   2.373   0.904  17.107 -0.7245  0.2510 -0.1176
  584TMC3    C3 8656   2.326   1.032  17.097  0.1453  0.1433 -0.1149
  584TMC3    C4 8657   2.414   0.947  17.345 -0.6234 -0.7544 -0.2528
  584TMC3    C5 8658   2.360   1.076  17.325  0.2114 -0.5520  0.8066
  584TMC3    C6 8659   2.321   1.119  17.201 -0.0295 -0.5383  0.0332
  584TMC3     C 8660   2.505   0.754  17.247  0.2652  0.2855  0.5308
  584TMC3     O 8661   2.499   0.695  17.353 -0.1570  0.0071 -0.2954
  584TMC3     H 8662   2.398   0.856  17.013  0.8523 -0.8796  0.8904
  584TMC3    H1 8663   2.432   0.908  17.444 -0.1227 -2.4902 -1.0161
  584TMC3    H2 8664   2.274   1.214  17.180  1.5965 -0.5712 -3.8055
  584TMC3    C7 8665   2.326   1.145  17.452 -0.3020 -0.6254  0.5321
  584TMC3    C8 8666   2.367   1.098  16.979 -0.2616  0.3855  0.1295
  584TMC3    O1 8667   2.318   1.070  17.546 -0.0559 -1.0471 -0.3855
  584TMC3    O2 8668   2.343   1.046  16.869 -0.1933 -0.1713  0.6160
  585MPD2     C 8669   1.561   0.140   0.113 -1.0964 -0.6560  0.2150
  585MPD2    C1 8670   1.592   0.159  17.676  0.8880  0.5740 -0.2755
  585MPD2    C2 8671   1.634   0.053  17.593  0.0170 -0.2391 -0.2886
  585MPD2    C3 8672   1.628   4.649  17.643  0.9832 -0.0859 -0.2042
  585MPD2    C4 8673   1.607   4.628   0.086 -0.4622  0.4209 -1.1767
  585MPD2    C5 8674   1.584   0.014   0.169  0.6767  0.0738 -1.0982
  585MPD2     H 8675   1.641   0.055  17.485  3.1080  1.5697 -0.0560
  585MPD2    H1 8676   1.616   4.529   0.128 -3.6811  0.8463  0.5693
  585MPD2    H2 8677   1.524   0.218   0.179 -1.8656 -0.8212 -0.0167
  585MPD2    H3 8678   1.563   0.002   0.275 -1.7229  1.8640 -1.3617
  585MPD2     N 8679   1.658   4.535  17.567  0.5117  0.3721  0.1670
  585MPD2    H5 8680   1.647   4.445  17.611  1.0071  0.1712 -0.1214
  585MPD2    N1 8681   1.573   0.290  17.627  0.1547 -0.4689  0.1495
  585MPD2    H7 8682   1.520   0.362  17.675  1.6691  1.2872 -0.8515
  586TMC3    C1 8683   1.685   4.406  17.370 -0.4206 -0.1147 -0.7895
  586TMC3    C2 8684   1.734   4.398  17.243  0.0027 -0.0497  0.5335
  586TMC3    C3 8685   1.697   4.285  17.169  0.3161 -0.5716 -0.2149
  586TMC3    C4 8686   1.596   4.317  17.430 -0.6400  0.3916 -1.0329
  586TMC3    C5 8687   1.553   4.211  17.354 -0.1821  0.1934 -0.2848
  586TMC3    C6 8688   1.596   4.203  17.225 -0.2224  0.5688  0.0636
  586TMC3     C 8689   1.696   4.535  17.432  0.1779 -0.0810 -0.0625
  586TMC3     O 8690   1.739   4.629  17.361 -0.6198 -0.1377  0.2708
  586TMC3     H 8691   1.808   4.465  17.201  0.5725 -1.0610 -0.0691
  586TMC3    H1 8692   1.549   4.326  17.528  2.4754 -2.7621  0.7440
  586TMC3    H2 8693   1.580   4.105  17.182  0.1508 -0.0095  1.2441
  586TMC3    C7 8694   1.513   4.082  17.414  0.8633  0.6547  0.2168
  586TMC3    C8 8695   1.818   4.206  17.157 -0.4763 -0.0098  0.3179
  586TMC3    O1 8696   1.455   4.002  17.346 -0.2435  0.0678  0.1000
  586TMC3    O2 8697   1.907   4.225  17.236  0.0014  0.4538  0.0909
  587TMC3    C1 8698   4.175   2.787  16.361  0.3015  0.3535 -0.6334
  587TMC3    C2 8699   4.159   2.919  16.387  0.0992 -0.3481 -0.4087
  587TMC3    C3 8700   4.283   2.986  16.388 -0.2728  0.0698 -0.1664
  587TMC3    C4 8701   4.295   2.722  16.351  0.0857  0.3081 -0.4395
  587TMC3    C5 8702   4.407   2.796  16.360  0.1862  0.2528  0.9737
  587TMC3    C6 8703   4.405   2.934  16.368 -0.3918 -0.2093 -0.6383
  587TMC3     C 8704   4.062   2.710  16.308 -0.3583 -0.0975 -0.5846
  587TMC3     O 8705   4.079   2.593  16.274 -0.0656  0.2375 -0.0778
  587TMC3     H 8706   4.071   2.981  16.373  0.7463  0.5459 -0.5945
  587TMC3    H1 8707   4.306   2.617  16.323 -0.2195  0.5056 -1.2940
  587TMC3    H2 8708   4.491   2.999  16.367 -0.4000 -0.1976 -0.5653
  587TMC3    C7 8709   4.524   2.734  16.418  0.0454  0.0932 -0.2078
  587TMC3    C8 8710   4.287   3.104  16.471  0.2684 -0.4034 -0.5783
  587TMC3    O1 8711   4.579   2.795  16.510  0.3659 -0.3501 -1.2049
  587TMC3    O2 8712   4.402   3.131  16.516  0.3116 -0.7009 -0.7750
  588TMC3    C1 8713   2.193   0.826   9.404 -0.8380 -0.0149 -0.6346
  588TMC3    C2 8714   2.204   0.692   9.368 -0.7440  0.2578 -0.2982
  588TMC3    C3 8715   2.202   0.603   9.473  0.0735  0.2251 -0.5772
  588TMC3    C4 8716   2.203   0.869   9.535 -0.2269  0.3932 -0.2990
  588TMC3    C5 8717   2.208   0.770   9.624 -0.4937  0.6008  0.3099
  588TMC3    C6 8718   2.204   0.637   9.598 -0.2167 -0.2179 -0.0167
  588TMC3     C 8719   2.162   0.931   9.305 -0.4248  0.2110 -0.2955
  588TMC3     O 8720   2.190   0.914   9.186  0.0667  0.1539 -0.6605
  588TMC3     H 8721   2.193   0.661   9.265 -0.1919 -1.8406  0.2853
  588TMC3    H1 8722   2.219   0.975   9.548  2.1621 -0.2086  1.6459
  588TMC3    H2 8723   2.188   0.571   9.682  2.2116 -1.1563 -0.3028
  588TMC3    C7 8724   2.207   0.813   9.760 -0.7891  0.8179  0.1739
  588TMC3    C8 8725   2.127   0.492   9.445 -0.4304 -0.1097 -0.1498
  588TMC3    O1 8726   2.276   0.752   9.845 -0.3945  0.1339 -0.7681
  588TMC3    O2 8727   2.057   0.501   9.344  0.3817  0.1827  0.7091
  589TMC3    C1 8728   0.768   2.974   1.529  0.1776  0.8741 -0.1095
  589TMC3    C2 8729   0.840   2.969   1.647  0.4001  0.0664  0.1642
  589TMC3    C3 8730   0.956   2.890   1.640  0.3100  0.5730 -0.0971
  589TMC3    C4 8731   0.810   2.920   1.409 -0.7122  0.4392  1.0740
  589TMC3    C5 8732   0.917   2.835   1.409  0.2907 -0.1324 -0.6184
  589TMC3    C6 8733   0.989   2.824   1.524 -0.4730  0.2904 -0.6978
  589TMC3     C 8734   0.646   3.054   1.519 -0.2870  0.1956 -0.1669
  589TMC3     O 8735   0.558   3.029   1.440  0.2821  0.0134  0.6014
  589TMC3     H 8736   0.794   3.006   1.738  1.4784 -0.1000  0.7662
  589TMC3    H1 8737   0.737   2.938   1.331  1.3579  1.0400 -0.7307
  589TMC3    H2 8738   1.071   2.754   1.535 -1.9193 -1.4981 -1.2566
  589TMC3    C7 8739   0.951   2.751   1.294 -0.3751  0.3818 -0.0319
  589TMC3    C8 8740   1.058   2.948   1.720 -0.3778 -0.8600  0.0247
  589TMC3    O1 8741   1.019   2.655   1.315  0.2811 -0.0872 -0.0821
  589TMC3    O2 8742   1.016   2.997   1.826  0.1717 -0.7211  0.2281
  590MPD2     C 8743   0.405   1.133  16.733 -0.5949 -0.7673 -0.4268
  590MPD2    C1 8744   0.331   1.252  16.723  0.4426 -0.0560 -0.6863
  590MPD2    C2 8745   0.391   1.371  16.682 -0.7980  0.3204 -0.2606
  590MPD2    C3 8746   0.532   1.368  16.662  0.2125 -0.2974  0.3682
  590MPD2    C4 8747   0.606   1.252  16.695  0.1997  0.8099 -0.0160
  590MPD2    C5 8748   0.542   1.137  16.729 -0.3115  0.2599 -0.2805
  590MPD2     H 8749   0.339   1.463  16.657 -1.8392 -0.3547 -0.5540
  590MPD2    H1 8750   0.714   1.250  16.695  0.1588 -1.5727  0.5864
  590MPD2    H2 8751   0.355   1.041  16.761  2.0779 -1.5878  1.6829
  590MPD2    H3 8752   0.604   1.053  16.757  1.8289  1.5980 -1.0624
  590MPD2     N 8753   0.594   1.486  16.606 -0.1573 -0.1459 -0.1868
  590MPD2    H5 8754   0.525   1.556  16.581 -0.8245 -1.3754 -1.7477
  590MPD2    N1 8755   0.192   1.244  16.743  0.5174  0.4317 -0.1440
  590MPD2    H7 8756   0.154   1.152  16.760 -2.6528  1.4398 -1.7829
  591TMC3    C1 8757   0.756   1.606  16.487  0.0308 -0.0169 -0.1566
  591TMC3    C2 8758   0.854   1.574  16.392  0.2639 -0.7267 -0.2812
  591TMC3    C3 8759   0.855   1.653  16.285  0.7812  0.2279  0.3917
  591TMC3    C4 8760   0.673   1.713  16.484  0.0909 -0.4606  0.3693
  591TMC3    C5 8761   0.692   1.801  16.384  0.1614  0.7741  0.7436
  591TMC3    C6 8762   0.776   1.768  16.280  0.2189  0.2309 -0.2003
  591TMC3     C 8763   0.727   1.498  16.581 -0.3008 -0.0321  0.4128
  591TMC3     O 8764   0.822   1.424  16.599  0.0474 -0.3242  0.0209
  591TMC3     H 8765   0.910   1.482  16.398  0.7887 -0.3876  0.0307
  591TMC3    H1 8766   0.601   1.728  16.564  0.3348 -0.0695  0.5167
  591TMC3    H2 8767   0.784   1.828  16.189 -0.2171  2.2433  1.0797
  591TMC3    C7 8768   0.569   1.860  16.335 -0.1384  0.1919  1.0142
  591TMC3    C8 8769   0.902   1.585  16.168  0.6101  0.0810  0.1716
  591TMC3    O1 8770   0.475   1.784  16.342 -0.4650 -0.0506 -0.4879
  591TMC3    O2 8771   0.934   1.468  16.178  0.1637 -0.5986  0.5156
  592MPD2     C 8772   0.985   3.615  10.997 -0.2545 -0.4352 -0.3083
  592MPD2    C1 8773   1.055   3.585  11.109  0.0609 -0.1422  0.9384
  592MPD2    C2 8774   1.014   3.486  11.196 -0.7877 -0.3433  0.1665
  592MPD2    C3 8775   0.902   3.414  11.168 -0.1605  0.1132 -0.4180
  592MPD2    C4 8776   0.835   3.434  11.041 -1.1685 -0.0501  0.0847
  592MPD2    C5 8777   0.880   3.531  10.966 -0.7797  0.4518 -0.3614
  592MPD2     H 8778   1.071   3.462  11.285 -0.1170  0.4100 -0.0645
  592MPD2    H1 8779   0.747   3.379  11.012 -1.0892  0.3106 -0.8681
  592MPD2    H2 8780   1.010   3.698  10.932 -1.1512  1.2105  1.4488
  592MPD2    H3 8781   0.822   3.552  10.877  1.1755  2.6249 -1.1410
  592MPD2     N 8782   0.864   3.314  11.261  0.2608 -0.0397 -0.0034
  592MPD2    H5 8783   0.908   3.333  11.350 -0.9693 -0.2079  0.6451
  592MPD2    N1 8784   1.162   3.668  11.152  0.0316 -0.1561 -0.0400
  592MPD2    H7 8785   1.193   3.737  11.085  4.2838 -2.4515 -0.4410
  593TMC3    C1 8786   1.351   3.765  11.265 -0.5052 -0.3913  0.2906
  593TMC3    C2 8787   1.395   3.797  11.385  0.1799  0.2316 -0.0910
  593TMC3    C3 8788   1.462   3.914  11.404 -0.4038 -0.6362  0.0879
  593TMC3    C4 8789   1.382   3.839  11.154  1.0216  0.3870  0.0358
  593TMC3    C5 8790   1.453   3.951  11.175 -0.2141  0.8978  0.4833
  593TMC3    C6 8791   1.492   3.992  11.297 -0.7617 -0.1474  0.5112
  593TMC3     C 8792   1.250   3.655  11.260 -0.6378  0.1248 -0.5421
  593TMC3     O 8793   1.235   3.589  11.365 -0.0795  0.1907  0.0558
  593TMC3     H 8794   1.369   3.750  11.479  0.9328 -1.8055 -0.8908
  593TMC3    H1 8795   1.367   3.802  11.053  1.8404 -1.6383  0.6435
  593TMC3    H2 8796   1.559   4.075  11.312 -2.4456  0.7829  2.8996
  593TMC3    C7 8797   1.488   4.046  11.075 -0.4920  0.9794 -0.3959
  593TMC3    C8 8798   1.468   3.967  11.545  0.7980  0.3141 -0.4495
  593TMC3    O1 8799   1.559   4.139  11.104 -0.3076  0.0580 -0.6108
  593TMC3    O2 8800   1.441   4.084  11.561 -0.4772  0.0760 -0.0480
  594MPD2     C 8801   0.183   1.697  14.437 -0.4905  0.4462  0.3140
  594MPD2    C1 8802   0.075   1.751  14.365 -0.2280  0.3138  0.4332
  594MPD2    C2 8803   0.092   1.867  14.296  0.0045 -0.7184  0.0090
  594MPD2    C3 8804   0.203   1.945  14.309 -0.3462  0.0925  0.1301
  594MPD2    C4 8805   0.313   1.888  14.372 -0.6805 -0.7240  0.2211
  594MPD2    C5 8806   0.295   1.774  14.440 -1.0600 -0.0489  0.4340
  594MPD2     H 8807   0.016   1.920  14.239  0.5936 -0.4304 -0.5140
  594MPD2    H1 8808   0.410   1.934  14.381 -0.6102 -0.5231 -1.6184
  594MPD2    H2 8809   0.184   1.596  14.476  1.6549  0.7332  0.9869
  594MPD2    H3 8810   0.369   1.727  14.504 -0.0079  0.4327 -0.4220
  594MPD2     N 8811   0.209   2.072  14.249 -0.8839 -0.4711 -0.3178
  594MPD2    H5 8812   0.125   2.110  14.206 -0.6243  0.9608  0.4129
  594MPD2    N1 8813   4.676   1.676  14.359  0.3493  0.0609 -0.4351
  594MPD2    H7 8814   4.675   1.598  14.424 -1.9598  1.4270  1.1474
  595TMC3    C1 8815   0.378   2.495  14.132 -1.0611 -0.2401 -0.0975
  595TMC3    C2 8816   0.400   2.363  14.171  0.3942  0.0177 -0.4148
  595TMC3    C3 8817   0.289   2.287  14.197 -0.2212  0.1450 -0.0016
  595TMC3    C4 8818   0.253   2.552  14.153 -0.0105  0.0276  0.3994
  595TMC3    C5 8819   0.158   2.470  14.213  0.0222 -0.2794 -0.1283
  595TMC3    C6 8820   0.176   2.338  14.233 -0.3889 -0.6084 -0.1964
  595TMC3     C 8821   0.485   2.586  14.162  1.0178 -0.1916 -0.4926
  595TMC3     O 8822   0.456   2.694  14.217  0.1222 -0.3088 -0.3256
  595TMC3     H 8823   0.496   2.317  14.153  1.2472  2.3334 -1.8089
  595TMC3    H1 8824   0.241   2.660  14.152  2.7144  0.3658  3.6652
  595TMC3    H2 8825   0.098   2.285  14.286 -0.2995 -0.9446 -0.4045
  595TMC3    C7 8826   0.068   2.538  14.301  0.3683 -0.0912  0.2030
  595TMC3    C8 8827   0.319   2.160  14.247  0.0126  0.5852 -0.4164
  595TMC3    O1 8828   4.712   2.621  14.256  0.1672  0.4540  0.1726
  595TMC3    O2 8829   0.427   2.142  14.294 -0.2146 -0.3180 -0.5461
  596MPD2     C 8830   3.435   0.078  16.710 -0.7192  0.1186  0.4378
  596MPD2    C1 8831   3.444   0.205  16.659  0.1579 -0.1545 -0.0054
  596MPD2    C2 8832   3.408   0.231  16.528 -0.4272  0.0450  0.2454
  596MPD2    C3 8833   3.365   0.121  16.446 -0.1466  0.2271  0.0836
  596MPD2    C4 8834   3.362   4.714  16.494 -0.7820 -0.2281 -0.0038
  596MPD2    C5 8835   3.401   4.691  16.626 -0.1196  0.2515  0.2641
  596MPD2     H 8836   3.402   0.333  16.494  1.5933 -0.3740 -1.3614
  596MPD2    H1 8837   3.321   4.639  16.427 -1.0481  0.2327 -0.3545
  596MPD2    H2 8838   3.455   0.050  16.813  3.0907  0.1409 -0.2899
  596MPD2    H3 8839   3.394   4.589  16.663 -2.3475  0.2251 -0.2221
  596MPD2     N 8840   3.327   0.127  16.309  1.0202 -0.2803  0.6584
  596MPD2    H5 8841   3.297   0.039  16.267  0.0086  0.7047 -0.6934
  596MPD2    N1 8842   3.465   0.316  16.740  0.6342  0.1965  0.0297
  596MPD2    H7 8843   3.477   0.409  16.702 -2.2852  0.6266  0.2066
  597TMC3    C1 8844   3.495   0.442  16.936  0.6217  0.0518 -0.0113
  597TMC3    C2 8845   3.596   0.516  16.876  0.0211 -0.6949 -0.1284
  597TMC3    C3 8846   3.641   0.629  16.944 -0.5325  0.1038  0.2480
  597TMC3    C4 8847   3.424   0.485  17.043  0.8260 -0.1473  0.2493
  597TMC3    C5 8848   3.457   0.612  17.094 -0.3355  0.2710  0.1940
  597TMC3    C6 8849   3.569   0.676  17.049 -0.4090  0.4497 -0.5402
  597TMC3     C 8850   3.457   0.311  16.878 -0.1238  0.0242 -0.5683
  597TMC3     O 8851   3.415   0.233  16.965  0.7733  0.0946  0.6305
  597TMC3     H 8852   3.654   0.470  16.797 -1.7960 -2.1615 -0.6066
  597TMC3    H1 8853   3.344   0.425  17.085  0.0178  1.4891  1.0819
  597TMC3    H2 8854   3.591   0.769  17.100 -0.0652 -0.4019  0.8684
  597TMC3    C7 8855   3.356   0.660  17.192 -0.1764  0.8095  0.0855
  597TMC3    C8 8856   3.698   0.738  16.864  0.1531  0.5337 -0.3228
  597TMC3    O1 8857   3.277   0.583  17.247 -0.1981  0.2356  0.5214
  597TMC3    O2 8858   3.733   0.838  16.925 -0.0027  0.3678  0.9681
  598TMC3    C1 8859   1.317   1.842  15.448  0.0734  0.5979  0.4682
  598TMC3    C2 8860   1.232   1.747  15.405 -0.2173 -0.6600 -0.2117
  598TMC3    C3 8861   1.214   1.727  15.272 -0.9225 -0.0751  0.5612
  598TMC3    C4 8862   1.403   1.908  15.366 -0.1049 -0.2279 -0.0451
  598TMC3    C5 8863   1.391   1.885  15.232 -0.0116 -0.1160  0.2857
  598TMC3    C6 8864   1.287   1.803  15.183  0.2428 -0.6803 -0.0806
  598TMC3     C 8865   1.355   1.841  15.589 -0.3225  0.5395 -0.0415
  598TMC3     O 8866   1.438   1.923  15.622  0.5922  0.1613 -0.9119
  598TMC3     H 8867   1.195   1.667  15.468 -1.3087  0.8044  0.9834
  598TMC3    H1 8868   1.478   1.976  15.404 -0.9376 -0.7851  2.5678
  598TMC3    H2 8869   1.273   1.785  15.077  1.0503  0.7502 -0.4191
  598TMC3    C7 8870   1.472   1.958  15.132 -0.3879 -0.3025  0.5271
  598TMC3    C8 8871   1.132   1.612  15.229  0.1226 -0.1936 -0.4097
  598TMC3    O1 8872   1.454   1.932  15.012  0.7401 -0.5178 -0.0354
  598TMC3    O2 8873   1.053   1.558  15.307 -0.2058  0.0202 -0.2687
  599MPD2     C 8874   1.672   4.337  15.829  0.1796  0.1878  0.5002
  599MPD2    C1 8875   1.640   4.205  15.867  0.6803 -0.1896  0.2626
  599MPD2    C2 8876   1.535   4.180  15.951  0.4255  0.0922  0.3970
  599MPD2    C3 8877   1.457   4.286  16.000 -0.1808  0.0129  0.2247
  599MPD2    C4 8878   1.493   4.413  15.955 -0.1572  0.3928 -0.3144
  599MPD2    C5 8879   1.587   4.441  15.863 -0.1385 -0.7334  0.0656
  599MPD2     H 8880   1.520   4.079  15.985 -0.6365  0.6056  1.4594
  599MPD2    H1 8881   1.445   4.496  16.005  0.0618 -1.1367  2.3997
  599MPD2    H2 8882   1.756   4.356  15.763 -0.2260  1.1959  0.2845
  599MPD2    H3 8883   1.623   4.541  15.844  1.4914 -1.1097  1.1255
  599MPD2     N 8884   1.380   4.288  16.113  0.2063  0.5610  0.7724
  599MPD2    H5 8885   1.359   4.377  16.157  1.1314  0.5370  1.2622
  599MPD2    N1 8886   1.723   4.104  15.809  0.2710 -0.2986  0.5544
  599MPD2    H7 8887   1.797   4.138  15.749 -1.3428  0.0958 -1.2069
  600TMC3    C1 8888   1.224   4.217  16.260  0.2952 -0.1993 -0.7360
  600TMC3    C2 8889   1.154   4.113  16.317 -0.2125 -0.1404 -0.2150
  600TMC3    C3 8890   1.046   4.150  16.395 -0.1432  1.0266  0.6328
  600TMC3    C4 8891   1.189   4.353  16.285 -0.1028  0.1719  0.2956
  600TMC3    C5 8892   1.086   4.376  16.371 -0.1679 -0.2550  0.3614
  600TMC3    C6 8893   1.014   4.278  16.433  0.1394 -0.2948 -0.3065
  600TMC3     C 8894   1.330   4.176  16.174 -0.9601 -0.1706 -0.3183
  600TMC3     O 8895   1.354   4.054  16.170  0.2971  0.0919 -0.1713
  600TMC3     H 8896   1.167   4.008  16.293  0.5453 -0.3352  1.0539
  600TMC3    H1 8897   1.241   4.433  16.233 -1.9178  0.7110 -0.6762
  600TMC3    H2 8898   0.934   4.291  16.505  0.4720 -0.0215  0.0165
  600TMC3    C7 8899   1.039   4.508  16.389 -0.2128  0.7155  0.3152
  600TMC3    C8 8900   0.987   4.034  16.464  0.1107  0.4691  0.1744
  600TMC3    O1 8901   0.928   4.503  16.438  0.1452 -0.0093 -0.1137
  600TMC3    O2 8902   1.056   3.949  16.517  0.0704  0.2859  0.1678
  601MPD2     C 8903   3.448   2.372  17.388 -0.8612 -0.0073 -0.1777
  601MPD2    C1 8904   3.544   2.369  17.284 -0.5930  0.2163  0.2243
  601MPD2    C2 8905   3.577   2.246  17.227  0.1326 -0.0293  0.9630
  601MPD2    C3 8906   3.513   2.127  17.265  0.4450  0.5064 -0.0994
  601MPD2    C4 8907   3.423   2.133  17.374  0.5020 -0.0176  0.5626
  601MPD2    C5 8908   3.397   2.252  17.435 -0.3357  0.3913  0.3233
  601MPD2     H 8909   3.653   2.246  17.150  0.3077 -0.3757  1.1379
  601MPD2    H1 8910   3.374   2.043  17.409  1.3599  0.3664  2.7510
  601MPD2    H2 8911   3.432   2.457  17.453 -0.5451 -0.7330  0.8610
  601MPD2    H3 8912   3.336   2.252  17.524 -0.0124  0.7342  0.5489
  601MPD2     N 8913   3.533   2.002  17.211  0.2437 -0.4185  0.3591
  601MPD2    H5 8914   3.474   1.928  17.246 -1.4271 -0.4194 -2.4930
  601MPD2    N1 8915   3.608   2.481  17.231 -0.5998  0.4989  0.1154
  601MPD2    H7 8916   3.651   2.470  17.139  0.5070 -0.1895  0.7054
  602TMC3    C1 8917   3.629   2.719  17.204 -0.4792 -0.1577 -0.0811
  602TMC3    C2 8918   3.623   2.841  17.265 -0.1257 -0.0073 -0.5714
  602TMC3    C3 8919   3.588   2.956  17.200 -0.7227  0.4446  0.1779
  602TMC3    C4 8920   3.621   2.710  17.069 -0.4809  0.7731  0.1626
  602TMC3    C5 8921   3.583   2.824  16.996  0.3520  0.1466  0.2617
  602TMC3    C6 8922   3.571   2.949  17.061  0.4743  0.4126 -0.5417
  602TMC3     C 8923   3.611   2.605  17.291  0.4455 -0.2656 -0.1744
  602TMC3     O 8924   3.601   2.626  17.411  0.8198  0.8303 -0.0621
  602TMC3     H 8925   3.603   2.850  17.372  2.0761 -2.6337  0.0718
  602TMC3    H1 8926   3.627   2.618  17.011  0.9677  0.3090  1.0448
  602TMC3    H2 8927   3.516   3.025  17.007 -0.7422 -0.5580 -0.6626
  602TMC3    C7 8928   3.474   2.800  16.911 -0.1967  0.1546 -0.0484
  602TMC3    C8 8929   3.471   3.014  17.251 -0.3207  0.4245 -0.9819
  602TMC3    O1 8930   3.478   2.704  16.835  0.0772 -0.1497 -0.1717
  602TMC3    O2 8931   3.379   2.939  17.232  0.1756 -0.0906  0.1316
  603TMC3    C1 8932   1.889   2.823  10.472  0.0620 -0.3095 -0.3679
  603TMC3    C2 8933   1.854   2.733  10.569  0.2907  0.4554  0.2268
  603TMC3    C3 8934   1.828   2.602  10.527 -0.0752 -0.4685  0.0756
  603TMC3    C4 8935   1.904   2.780  10.341 -0.0294  0.1783 -0.0125
  603TMC3    C5 8936   1.900   2.648  10.315  0.0698 -0.4933 -0.9038
  603TMC3    C6 8937   1.854   2.555  10.404 -0.1077  0.2815  0.2777
  603TMC3     C 8938   1.862   2.967  10.485 -0.0652  0.1016 -0.2272
  603TMC3     O 8939   1.899   3.042  10.393  0.4102 -0.6367  0.2201
  603TMC3     H 8940   1.838   2.759  10.673  0.4035 -3.0681  1.1232
  603TMC3    H1 8941   1.916   2.840  10.251 -0.2344  2.9499  1.8098
  603TMC3    H2 8942   1.880   2.453  10.379 -2.1066 -0.2808  0.4713
  603TMC3    C7 8943   1.920   2.599  10.179  0.6277 -0.8008  0.3123
  603TMC3    C8 8944   1.822   2.502  10.625  0.4857  0.3232  0.2172
  603TMC3    O1 8945   1.961   2.483  10.158 -0.5393 -0.2516  0.0506
  603TMC3    O2 8946   1.889   2.516  10.729 -0.2092 -0.2107  0.2055
  604MPD2     C 8947   2.676   1.939  16.444 -0.1566  0.3097 -0.5295
  604MPD2    C1 8948   2.543   1.911  16.427 -0.2325 -0.0959  0.1416
  604MPD2    C2 8949   2.504   1.802  16.349 -0.1239 -0.1429  0.5196
  604MPD2    C3 8950   2.600   1.736  16.272 -0.4554  0.1669 -0.5303
  604MPD2    C4 8951   2.733   1.765  16.289 -0.3689 -0.8528 -0.4633
  604MPD2    C5 8952   2.769   1.867  16.373  0.5878 -0.1423 -0.9689
  604MPD2     H 8953   2.398   1.785  16.338  0.0420 -0.8051 -0.0411
  604MPD2    H1 8954   2.808   1.729  16.219 -2.0806  0.4577 -3.0011
  604MPD2    H2 8955   2.699   2.028  16.502 -1.4734 -1.5127  2.8212
  604MPD2    H3 8956   2.873   1.899  16.366  0.7122 -0.7119 -1.8123
  604MPD2     N 8957   2.552   1.639  16.178 -0.5476 -0.0392 -0.2760
  604MPD2    H5 8958   2.451   1.628  16.176 -0.2574 -2.8489  1.1777
  604MPD2    N1 8959   2.455   2.003  16.487 -0.8379  0.8472 -0.0915
  604MPD2    H7 8960   2.499   2.089  16.518 -1.1987  0.8516  0.4105
  605TMC3    C1 8961   2.265   2.126  16.535  0.1003  0.3088 -0.4686
  605TMC3    C2 8962   2.348   2.188  16.617  0.4153 -0.4476 -0.3498
  605TMC3    C3 8963   2.348   2.326  16.618 -0.1234  0.3629  0.3299
  605TMC3    C4 8964   2.172   2.190  16.463  0.1029  0.7434  0.3235
  605TMC3    C5 8965   2.167   2.327  16.468 -0.5985 -0.3315  1.1387
  605TMC3    C6 8966   2.247   2.398  16.547  0.6360 -0.5753  0.3353
  605TMC3     C 8967   2.317   2.006  16.474  0.2196  1.1984  0.3424
  605TMC3     O 8968   2.251   1.940  16.399 -0.5166 -0.3255 -0.6380
  605TMC3     H 8969   2.409   2.132  16.687 -0.1054  1.4023  1.5797
  605TMC3    H1 8970   2.120   2.133  16.387 -0.5526  1.0855  0.5129
  605TMC3    H2 8971   2.236   2.506  16.541  1.1903 -0.4429  1.7118
  605TMC3    C7 8972   2.061   2.402  16.405  0.1532  0.0961 -0.1258
  605TMC3    C8 8973   2.473   2.349  16.554  0.6470 -0.3793  0.8290
  605TMC3    O1 8974   2.046   2.522  16.430  0.5445 -0.1185 -0.1129
  605TMC3    O2 8975   2.535   2.251  16.531  0.4200  0.3527 -0.6390
  606TMC3    C1 8976   3.709   4.126  17.426 -0.3435 -0.3671  0.2691
  606TMC3    C2 8977   3.807   4.219  17.398 -1.0467  0.6034  0.0267
  606TMC3    C3 8978   3.900   4.248  17.494 -0.4052 -0.0818  0.6474
  606TMC3    C4 8979   3.716   4.045  17.541  0.0107 -0.0761 -0.3915
  606TMC3    C5 8980   3.809   4.077  17.638 -0.5613 -1.2891 -0.2450
  606TMC3    C6 8981   3.900   4.187  17.614 -0.2793  0.4073  0.1145
  606TMC3     C 8982   3.580   4.177  17.392  0.1585 -0.9254  0.1521
  606TMC3     O 8983   3.497   4.174  17.484 -0.3845  0.0000 -0.1350
  606TMC3     H 8984   3.816   4.287  17.314 -1.9140  1.9489  1.0141
  606TMC3    H1 8985   3.635   3.975  17.558  0.6824 -0.8359 -0.3608
  606TMC3    H2 8986   3.966   4.229  17.689  0.7503  1.1054 -1.1797
  606TMC3    C7 8987   3.750   4.089   0.075  0.2934  0.7049 -0.0203
  606TMC3    C8 8988   3.997   4.358  17.485 -0.1418  0.1711 -0.2691
  606TMC3    O1 8989   3.824   4.119   0.161 -0.1351 -0.0277  0.4942
  606TMC3    O2 8990   4.105   4.341  17.543 -0.8991 -0.4742  0.3975
  607MPD2     C 8991   1.041   2.901  11.499  0.3837  0.1255  0.0043
  607MPD2    C1 8992   1.174   2.895  11.536  0.5024 -0.2412  0.2110
  607MPD2    C2 8993   1.210   2.803  11.635  0.5791  0.0875  0.0466
  607MPD2    C3 8994   1.121   2.717  11.692  0.0274 -0.1840 -0.0683
  607MPD2    C4 8995   0.990   2.722  11.650  0.8470  0.1800 -0.0931
  607MPD2    C5 8996   0.949   2.816  11.553 -0.9359 -0.0139 -0.2869
  607MPD2     H 8997   1.314   2.798  11.665  0.3519  2.6941  1.2536
  607MPD2    H1 8998   0.914   2.661  11.698  1.4496 -0.4404  0.0682
  607MPD2    H2 8999   0.999   2.971  11.427 -0.7207  0.9481  1.4463
  607MPD2    H3 9000   0.848   2.829  11.516 -0.3023  2.8248 -1.0468
  607MPD2     N 9001   1.166   2.633  11.794  0.0329 -0.6773 -0.8267
  607MPD2    H5 9002   1.259   2.656  11.826 -0.4620 -0.2732  0.3195
  607MPD2    N1 9003   1.272   2.987  11.487  0.3911  0.1024 -0.4692
  607MPD2    H7 9004   1.369   2.976  11.515  0.4089 -1.8267 -1.2679
  608TMC3    C1 9005   1.365   3.189  11.422  0.1384 -0.5139 -0.5430
  608TMC3    C2 9006   1.440   3.171  11.533  0.1268 -0.0459  0.0551
  608TMC3    C3 9007   1.560   3.234  11.536  0.5828  0.2446  0.4754
  608TMC3    C4 9008   1.400   3.282  11.325  0.1679  0.1978 -0.2433
  608TMC3    C5 9009   1.518   3.350  11.335  0.3975 -0.2603 -0.1545
  608TMC3    C6 9010   1.602   3.320  11.442 -0.2208 -0.1851 -0.0953
  608TMC3     C 9011   1.251   3.099  11.414  0.1331 -0.2411  0.5379
  608TMC3     O 9012   1.154   3.134  11.351  0.0482  0.2332 -0.4774
  608TMC3     H 9013   1.399   3.111  11.613 -0.5342 -1.3110 -1.2224
  608TMC3    H1 9014   1.343   3.298  11.235 -0.0694 -1.1864 -0.3288
  608TMC3    H2 9015   1.705   3.354  11.434  0.0523 -0.6952  1.2483
  608TMC3    C7 9016   1.549   3.461  11.239 -0.9090 -0.8986 -0.0440
  608TMC3    C8 9017   1.659   3.203  11.638 -0.3619 -0.0680 -1.0966
  608TMC3    O1 9018   1.493   3.463  11.129 -0.1903 -0.3414  0.3295
  608TMC3    O2 9019   1.748   3.276  11.664 -0.0067 -0.3627  0.7946
  609TMC3    C1 9020   0.004   2.273   8.923  0.7770 -0.1291  0.1059
  609TMC3    C2 9021   0.063   2.365   8.844 -0.4204 -0.3209  0.3247
  609TMC3    C3 9022   0.184   2.346   8.794  0.4232  0.2326  0.8602
  609TMC3    C4 9023   0.061   2.151   8.933 -0.3019 -1.0988 -0.3179
  609TMC3    C5 9024   0.181   2.129   8.865 -0.1940  0.0075 -0.1666
  609TMC3    C6 9025   0.244   2.229   8.804  0.1896  0.0735 -0.3720
  609TMC3     C 9026   4.593   2.290   8.977 -0.1036 -0.6477  0.6950
  609TMC3     O 9027   4.519   2.197   8.969  0.3232  0.1349  0.7273
  609TMC3     H 9028   0.022   2.465   8.840  0.6440  0.0436 -1.4604
  609TMC3    H1 9029   0.016   2.078   8.999 -1.5791  0.0105  0.0137
  609TMC3    H2 9030   0.337   2.211   8.752 -0.5934  0.8394 -2.0612
  609TMC3    C7 9031   0.244   1.996   8.866  0.1508 -0.1173  0.2666
  609TMC3    C8 9032   0.242   2.460   8.730 -0.0480  0.1683 -0.4250
  609TMC3    O1 9033   0.368   1.984   8.844  0.6203  0.3938 -0.0618
  609TMC3    O2 9034   0.168   2.522   8.656 -0.5793  0.1422  0.0650
  610TMC3    C1 9035   1.733   2.827  12.659 -0.0161  0.7491  0.1188
  610TMC3    C2 9036   1.831   2.836  12.564  0.2214  0.8670  0.3285
  610TMC3    C3 9037   1.953   2.786  12.594  0.5180  0.7050 -0.1930
  610TMC3    C4 9038   1.746   2.755  12.774 -0.5795 -0.2079  0.3214
  610TMC3    C5 9039   1.867   2.712  12.804 -0.3976  0.0838  0.3227
  610TMC3    C6 9040   1.974   2.727  12.718  0.0747  0.0108 -0.6221
  610TMC3     C 9041   1.599   2.869  12.628 -0.0378 -0.3986 -0.0074
  610TMC3     O 9042   1.577   2.899  12.511 -0.0406  0.2006  0.8246
  610TMC3     H 9043   1.796   2.875  12.469 -1.8956  0.7282  1.0497
  610TMC3    H1 9044   1.660   2.739  12.838  0.0409  0.1037  1.2433
  610TMC3    H2 9045   2.074   2.686  12.732  0.5058  1.8735  1.6854
  610TMC3    C7 9046   1.875   2.610  12.906 -0.1085 -0.0954  0.0793
  610TMC3    C8 9047   2.061   2.824  12.515 -0.3092  0.0293 -0.3860
  610TMC3    O1 9048   1.790   2.523  12.919  0.4454 -0.1124  0.0023
  610TMC3    O2 9049   2.156   2.864  12.581  0.3772 -0.3710 -0.7823
  611MPD2     C 9050   0.703   3.263   9.690  0.8023 -0.7048 -0.1750
  611MPD2    C1 9051   0.769   3.179   9.774 -0.5057  0.1365  0.1074
  611MPD2    C2 9052   0.907   3.161   9.765  0.0473 -0.2778 -0.3552
  611MPD2    C3 9053   0.981   3.226   9.662  0.3315 -0.4868  0.8368
  611MPD2    C4 9054   0.911   3.306   9.579  0.0245 -0.5287 -0.2346
  611MPD2    C5 9055   0.776   3.339   9.597 -0.1918  1.1658 -0.0495
  611MPD2     H 9056   0.959   3.099   9.837 -1.2305 -2.1091 -1.0205
  611MPD2    H1 9057   0.967   3.368   9.510  0.3968 -0.9176 -0.2831
  611MPD2    H2 9058   0.595   3.273   9.693  0.8573  0.1856 -1.0768
  611MPD2    H3 9059   0.738   3.399   9.515 -1.6294 -1.7072 -1.4945
  611MPD2     N 9060   1.118   3.211   9.635 -0.3630 -0.3872 -0.4511
  611MPD2    H5 9061   1.157   3.263   9.556  1.5327 -1.2103 -0.0671
  611MPD2    N1 9062   0.692   3.125   9.880  0.3303  0.0199 -0.9585
  611MPD2    H7 9063   0.593   3.148   9.892  0.2441 -0.3418 -0.9741
  612TMC3    C1 9064   1.330   3.121   9.642  0.3456 -0.3690  0.4691
  612TMC3    C2 9065   1.401   3.000   9.656  0.2072 -0.8742 -0.4889
  612TMC3    C3 9066   1.509   2.983   9.568 -0.2159 -0.5846 -0.3740
  612TMC3    C4 9067   1.365   3.219   9.554 -0.6352  0.0954 -0.3814
  612TMC3    C5 9068   1.481   3.208   9.483 -0.1039  0.0153  0.1599
  612TMC3    C6 9069   1.548   3.091   9.482  0.2738 -0.0776 -0.5657
  612TMC3     C 9070   1.204   3.126   9.704 -0.0992 -0.5389 -0.6245
  612TMC3     O 9071   1.184   3.064   9.808 -0.6018  0.6370  0.2251
  612TMC3     H 9072   1.363   2.924   9.723 -0.7999 -0.1007 -0.1901
  612TMC3    H1 9073   1.323   3.319   9.556  1.5793  0.9977  1.1411
  612TMC3    H2 9074   1.648   3.091   9.439 -0.0548  0.6903 -1.3107
  612TMC3    C7 9075   1.527   3.326   9.410  0.1162 -0.0557  0.9474
  612TMC3    C8 9076   1.613   2.883   9.592  0.2618 -0.2053  0.3563
  612TMC3    O1 9077   1.443   3.411   9.392  0.2609 -1.0147 -0.1793
  612TMC3    O2 9078   1.692   2.852   9.501 -0.4032 -0.1255  0.4957
  613MPD2     C 9079   0.235   0.126  16.729  0.2694  0.2924  0.2405
  613MPD2    C1 9080   0.128   0.171  16.662 -0.0165  0.4625 -0.0727
  613MPD2    C2 9081   0.002   0.115  16.680  1.0286  0.1193 -0.1221
  613MPD2    C3 9082   4.707   0.010  16.771  1.0497 -0.3048  0.0746
  613MPD2    C4 9083   0.089   4.698  16.852 -0.2072  0.1929 -0.1533
  613MPD2    C5 9084   0.211   0.039  16.832 -0.6703 -0.2650  1.0785
  613MPD2     H 9085   4.639   0.138  16.617 -0.9017 -1.9893  1.7466
  613MPD2    H1 9086   0.063   4.618  16.921 -0.7829  0.3640 -0.1673
  613MPD2    H2 9087   0.333   0.171  16.717  0.4735 -0.1275  0.3268
  613MPD2    H3 9088   0.293   0.011  16.897 -0.9260 -0.6617  1.2352
  613MPD2     N 9089   4.586   4.658  16.781  0.6087 -0.6152  0.1906
  613MPD2    H5 9090   4.591   4.563  16.816 -1.5953 -1.1900 -1.0382
  613MPD2    N1 9091   0.149   0.265  16.556 -0.5553 -0.2351  0.5069
  613MPD2    H7 9092   0.246   0.263  16.527 -0.4379 -1.8249  0.9932
  614TMC3    C1 9093   0.074   0.395  16.365 -0.0461 -0.0863  0.0869
  614TMC3    C2 9094   0.133   0.302  16.286  0.2354  0.3962 -0.5185
  614TMC3    C3 9095   0.076   0.280  16.160 -1.0995 -0.2783  0.1396
  614TMC3    C4 9096   4.698   0.479  16.325  0.2261  0.6879  0.1427
  614TMC3    C5 9097   4.656   0.466  16.200 -0.1692 -0.5939  0.4598
  614TMC3    C6 9098   4.698   0.361  16.118 -0.1129  0.1787  0.0386
  614TMC3     C 9099   0.048   0.342  16.498  0.5978 -0.3705  0.2930
  614TMC3     O 9100   4.658   0.368  16.531  0.1148 -0.4890  0.1646
  614TMC3     H 9101   0.206   0.233  16.327 -1.5545 -1.2062 -0.0524
  614TMC3    H1 9102   4.653   0.554  16.388  2.1542  0.2775  2.0177
  614TMC3    H2 9103   4.645   0.337  16.026 -1.4904  2.8292  0.1357
  614TMC3    C7 9104   4.551   0.550  16.147 -0.3106  0.4574  0.0447
  614TMC3    C8 9105   0.034   0.145  16.129  0.0790 -0.6546  0.3853
  614TMC3    O1 9106   4.488   0.616  16.227 -0.1357 -0.0947 -0.0386
  614TMC3    O2 9107   4.644   0.112  16.098  1.1975 -0.0199 -0.2162
  615MPD2     C 9108   4.257   1.750  15.743 -0.5339  0.4492  0.0491
  615MPD2    C1 9109   4.218   1.821  15.633  0.3503  0.0904 -0.1064
  615MPD2    C2 9110   4.147   1.755  15.530  0.1621 -0.0881 -0.0293
  615MPD2    C3 9111   4.134   1.615  15.531 -1.3278  0.8476 -0.1236
  615MPD2    C4 9112   4.176   1.557  15.637  0.1006 -0.4228  0.3715
  615MPD2    C5 9113   4.229   1.622  15.744 -0.3867  0.0518  0.1381
  615MPD2     H 9114   4.102   1.813  15.451  0.3891 -0.3076 -0.3167
  615MPD2    H1 9115   4.159   1.450  15.637  0.3475 -0.4588  1.8741
  615MPD2    H2 9116   4.288   1.799  15.835 -0.9085 -0.2990  0.5742
  615MPD2    H3 9117   4.248   1.567  15.835  1.5306  2.1170  0.9861
  615MPD2     N 9118   4.088   1.538  15.417  0.2320 -0.2322 -0.8446
  615MPD2    H5 9119   4.076   1.438  15.426 -1.7946  0.2889  2.1592
  615MPD2    N1 9120   4.239   1.961  15.619 -0.3426 -0.9339 -0.0420
  615MPD2    H7 9121   4.209   2.010  15.536  1.0251 -0.6164 -0.3561
  616TMC3    C1 9122   4.291   2.177  15.677  0.8068  0.2320  0.3947
  616TMC3    C2 9123   4.361   2.251  15.758 -0.2080 -0.6422  0.0375
  616TMC3    C3 9124   4.339   2.387  15.758 -1.2127 -0.5224 -0.2556
  616TMC3    C4 9125   4.195   2.227  15.598  0.3900 -0.1187 -0.3879
  616TMC3    C5 9126   4.183   2.361  15.588 -0.2152  0.1735 -0.1543
  616TMC3    C6 9127   4.253   2.444  15.668  0.0859  0.2101 -0.2228
  616TMC3     C 9128   4.298   2.039  15.715  0.0640  0.8118 -0.1864
  616TMC3     O 9129   4.345   2.007  15.823 -0.1828  0.0914  0.2639
  616TMC3     H 9130   4.442   2.213  15.819 -0.4488 -1.4675 -0.1617
  616TMC3    H1 9131   4.117   2.157  15.569 -0.2518  1.6388 -2.9348
  616TMC3    H2 9132   4.251   2.552  15.657  0.5658  0.1677 -0.7223
  616TMC3    C7 9133   4.126   2.422  15.476 -0.2207  0.4426 -0.6768
  616TMC3    C8 9134   4.439   2.463  15.835 -0.6985 -0.0223 -0.2627
  616TMC3    O1 9135   4.110   2.545  15.475  0.4284  0.6299  0.3453
  616TMC3    O2 9136   4.535   2.395  15.875 -0.1739  0.3312  0.3736
  617MPD2     C 9137   2.394   4.606  13.496  0.2144 -0.0306  0.2624
  617MPD2    C1 9138   2.464   4.555  13.604  0.4735 -0.1513 -0.1473
  617MPD2    C2 9139   2.395   4.544  13.725 -0.1508  0.0234 -0.0632
  617MPD2    C3 9140   2.260   4.582  13.740  0.3745 -0.0051  0.1321
  617MPD2    C4 9141   2.208   4.657  13.637 -0.6206  0.2640 -0.0990
  617MPD2    C5 9142   2.273   4.668  13.521  0.2249 -0.1498  0.2789
  617MPD2     H 9143   2.444   4.494  13.808 -1.1561  3.5762  2.6958
  617MPD2    H1 9144   2.105   4.691  13.642 -1.1259 -0.8236 -2.9563
  617MPD2    H2 9145   2.443   4.615  13.400  0.0730 -1.8350  0.0129
  617MPD2    H3 9146   2.218   4.711  13.438 -1.7989 -1.4743  0.9231
  617MPD2     N 9147   2.182   4.555  13.854  0.5867 -0.7338 -0.0705
  617MPD2    H5 9148   2.082   4.573  13.842  0.2657 -1.9050  0.9205
  617MPD2    N1 9149   2.595   4.508  13.576 -0.1065  0.7760  0.0858
  617MPD2    H7 9150   2.644   4.548  13.497 -1.0354  1.1357 -0.3017
  618TMC3    C1 9151   2.813   4.412  13.622 -0.4324 -0.1459 -0.0795
  618TMC3    C2 9152   2.882   4.317  13.690  0.1758 -0.0150  0.0603
  618TMC3    C3 9153   3.009   4.278  13.642  0.3477  0.2900 -0.0910
  618TMC3    C4 9154   2.869   4.468  13.504 -0.4889  0.6062 -0.3495
  618TMC3    C5 9155   2.996   4.432  13.475 -0.1968 -0.5305 -0.0937
  618TMC3    C6 9156   3.069   4.337  13.539 -0.6807 -0.1739 -0.1746
  618TMC3     C 9157   2.670   4.427  13.660 -0.7153  0.0421 -0.3815
  618TMC3     O 9158   2.622   4.354  13.744  0.7219  0.3567  0.1889
  618TMC3     H 9159   2.836   4.263  13.773 -1.6376  1.5586  0.0765
  618TMC3    H1 9160   2.804   4.523  13.436  0.2465 -0.3453 -1.8065
  618TMC3    H2 9161   3.170   4.314  13.506 -0.4456 -0.1385  0.5339
  618TMC3    C7 9162   3.025   4.433  13.331  0.2853 -0.4004 -0.2688
  618TMC3    C8 9163   3.057   4.144  13.676 -0.1704 -0.1802  0.1596
  618TMC3    O1 9164   3.061   4.328  13.287 -0.1907  0.2980 -0.1606
  618TMC3    O2 9165   3.046   4.085  13.783 -0.4094 -0.4233  0.4273
  619MPD2     C 9166   3.808   0.754  13.822 -0.9116  1.1492  0.2027
  619MPD2    C1 9167   3.768   0.841  13.725  0.6494 -0.1516 -0.0329
  619MPD2    C2 9168   3.635   0.868  13.704  0.7384 -0.3438 -0.1621
  619MPD2    C3 9169   3.536   0.799  13.779  0.6582  0.2090  0.4344
  619MPD2    C4 9170   3.577   0.716  13.878  0.1674  0.2901 -0.3455
  619MPD2    C5 9171   3.709   0.695  13.903  0.7261 -0.8485  0.4524
  619MPD2     H 9172   3.616   0.935  13.622  0.2487 -0.8067 -0.4208
  619MPD2    H1 9173   3.510   0.675  13.953  1.2153 -0.4048  0.2195
  619MPD2    H2 9174   3.912   0.725  13.830 -1.8687 -2.2350  0.4416
  619MPD2    H3 9175   3.746   0.634  13.985 -1.5748 -3.4077 -0.4310
  619MPD2     N 9176   3.399   0.814  13.748 -0.5574 -0.4078 -0.2053
  619MPD2    H5 9177   3.339   0.744  13.791 -2.4849 -0.1138 -2.4110
  619MPD2    N1 9178   3.863   0.920  13.650 -0.8363 -0.1075 -0.4056
  619MPD2    H7 9179   3.821   0.989  13.588  0.5610 -0.4210 -1.6906
  620TMC3    C1 9180   4.039   1.018  13.540 -0.7847 -0.1846 -0.1683
  620TMC3    C2 9181   3.965   1.030  13.420 -0.3387 -0.2428  0.6876
  620TMC3    C3 9182   3.996   1.130  13.323 -0.3304  0.2438  0.1004
  620TMC3    C4 9183   4.149   1.089  13.559  0.3083  0.3310 -0.0539
  620TMC3    C5 9184   4.166   1.197  13.473  0.5948  0.9114  0.1094
  620TMC3    C6 9185   4.094   1.216  13.357 -0.3263  0.2269  0.3339
  620TMC3     C 9186   4.000   0.924  13.645 -0.2255  0.3435  0.5332
  620TMC3     O 9187   4.081   0.865  13.712 -0.1065 -0.0488  0.6611
  620TMC3     H 9188   3.882   0.962  13.407 -0.3515 -0.1387  0.2300
  620TMC3    H1 9189   4.224   1.070  13.635 -0.1592 -0.4588  0.2133
  620TMC3    H2 9190   4.119   1.293  13.285 -1.7393 -0.7816 -1.2333
  620TMC3    C7 9191   4.295   1.261  13.484 -0.0538  0.1437  0.1805
  620TMC3    C8 9192   3.870   1.199  13.293  0.1864  1.0627 -0.4513
  620TMC3    O1 9193   4.387   1.188  13.518  0.2951  0.1711 -0.0786
  620TMC3    O2 9194   3.864   1.317  13.330  0.4665  0.4307  0.3331
  621MPD2     C 9195   4.269   1.171   9.412  0.0395  0.3065 -0.3170
  621MPD2    C1 9196   4.279   1.200   9.545 -0.3226 -0.0092  0.2868
  621MPD2    C2 9197   4.368   1.299   9.584  0.1135  0.6336 -0.5854
  621MPD2    C3 9198   4.434   1.372   9.487  0.1204 -0.2741  0.3909
  621MPD2    C4 9199   4.420   1.342   9.354  1.0297  0.4281  0.1578
  621MPD2    C5 9200   4.339   1.237   9.316 -0.2785 -0.0637  0.0567
  621MPD2     H 9201   4.387   1.326   9.687 -0.2910  2.1997 -0.9138
  621MPD2    H1 9202   4.476   1.395   9.278  1.0085 -1.3141 -1.0894
  621MPD2    H2 9203   4.198   1.098   9.375 -0.0191  0.6903 -0.9572
  621MPD2    H3 9204   4.325   1.203   9.214 -0.0884 -1.8382  0.6063
  621MPD2     N 9205   4.516   1.479   9.532 -0.4060  0.8218  0.4553
  621MPD2    H5 9206   4.538   1.484   9.630 -0.1185 -1.4077  0.4992
  621MPD2    N1 9207   4.197   1.133   9.641  0.9534  0.2233  0.1741
  621MPD2    H7 9208   4.203   1.174   9.733 -0.8563  1.9276 -0.4521
  622TMC3    C1 9209   4.018   1.014   9.714 -0.1500  0.3082  0.3557
  622TMC3    C2 9210   3.984   1.118   9.794  0.2935 -0.3789 -0.0161
  622TMC3    C3 9211   3.881   1.102   9.884 -0.1208  0.2221 -0.4305
  622TMC3    C4 9212   3.963   0.887   9.732  0.1028  0.0989 -0.3923
  622TMC3    C5 9213   3.866   0.878   9.835 -0.7495  0.6206 -0.4435
  622TMC3    C6 9214   3.828   0.982   9.913  0.0821 -0.1215 -0.6544
  622TMC3     C 9215   4.111   1.032   9.610  0.1583 -0.1564 -0.3436
  622TMC3     O 9216   4.117   0.952   9.511 -0.7780 -0.1037  0.1382
  622TMC3     H 9217   4.017   1.219   9.770 -0.0981 -0.0231  0.9716
  622TMC3    H1 9218   3.993   0.814   9.658 -1.3068  0.1345 -1.0064
  622TMC3    H2 9219   3.752   0.983   9.991  0.8787  0.4591  0.1230
  622TMC3    C7 9220   3.779   0.759   9.837 -0.2308  0.8059 -0.0001
  622TMC3    C8 9221   3.823   1.221   9.930 -0.3033  0.0458 -0.2046
  622TMC3    O1 9222   3.728   0.734   9.943 -0.5341 -0.0012 -0.3983
  622TMC3    O2 9223   3.899   1.316   9.937  0.8063 -0.4344 -0.0067
  623MPD2     C 9224   2.536   1.721  15.696 -0.2465  0.4508  0.1601
  623MPD2    C1 9225   2.506   1.846  15.738  0.5311 -0.2356  0.2465
  623MPD2    C2 9226   2.597   1.913  15.817 -0.3284  0.3933  0.3178
  623MPD2    C3 9227   2.725   1.857  15.845  1.0956 -0.2811 -0.0677
  623MPD2    C4 9228   2.754   1.732  15.790 -0.3196 -0.1981 -0.5815
  623MPD2    C5 9229   2.659   1.670  15.714  0.7511 -0.0984 -0.0790
  623MPD2     H 9230   2.580   2.014  15.855  1.5852  0.1798  1.7397
  623MPD2    H1 9231   2.851   1.682  15.794 -0.9643 -1.5027 -1.2683
  623MPD2    H2 9232   2.477   1.664  15.625 -0.8571 -1.4282  2.1805
  623MPD2    H3 9233   2.677   1.570  15.679  2.5452 -0.0994  0.7970
  623MPD2     N 9234   2.813   1.932  15.916  0.7510 -0.4586  0.0362
  623MPD2    H5 9235   2.785   2.027  15.936 -0.2322 -1.0854  1.6611
  623MPD2    N1 9236   2.384   1.915  15.711 -0.9854 -0.4392 -0.2653
  623MPD2    H7 9237   2.378   2.009  15.749 -1.1705 -1.5590  2.4761
  624TMC3    C1 9238   3.166   2.068  16.193 -0.3708 -0.1295  0.2563
  624TMC3    C2 9239   3.098   2.179  16.231 -0.6930 -0.0103 -0.0369
  624TMC3    C3 9240   2.976   2.201  16.164  0.2723 -0.5588 -0.9797
  624TMC3    C4 9241   3.120   1.975  16.101 -0.0433 -0.3963 -0.0835
  624TMC3    C5 9242   3.000   2.007  16.037 -0.5253 -0.2713 -0.1385
  624TMC3    C6 9243   2.931   2.114  16.067  0.4092  0.0560  0.1056
  624TMC3     C 9244   3.285   2.031  16.272 -0.0412  0.7717 -0.2025
  624TMC3     O 9245   3.298   2.082  16.379  0.3749 -0.1261  0.0965
  624TMC3     H 9246   3.143   2.261  16.286 -0.2505 -0.4959  0.3174
  624TMC3    H1 9247   3.164   1.877  16.084 -2.1043 -0.8614 -2.6847
  624TMC3    H2 9248   2.830   2.136  16.033  0.6510 -0.7725 -1.1595
  624TMC3    C7 9249   2.936   1.890  15.966 -0.6539 -0.4813  0.7519
  624TMC3    C8 9250   2.872   2.269  16.229  0.7662 -0.1932  0.0345
  624TMC3    O1 9251   2.988   1.782  15.963  0.1675 -0.0008  0.5656
  624TMC3    O2 9252   2.760   2.220  16.222 -0.6731 -0.0102  0.3255
  625MPD2     C 9253   2.997   2.893   0.197 -0.3645 -0.4773 -0.1990
  625MPD2    C1 9254   3.023   2.993   0.282  0.5154  0.3178  0.0485
  625MPD2    C2 9255   3.153   3.003   0.325 -0.6879 -0.4842  0.5516
  625MPD2    C3 9256   3.252   2.909   0.293 -0.2510  0.7026  0.2964
  625MPD2    C4 9257   3.226   2.818   0.199 -0.5186  0.6272 -0.5034
  625MPD2    C5 9258   3.098   2.811   0.146  0.0214 -0.7055 -0.5514
  625MPD2     H 9259   3.176   3.080   0.397  1.8855 -1.0203  0.3401
  625MPD2    H1 9260   3.298   2.750   0.154  0.7877  1.6976 -0.0318
  625MPD2    H2 9261   2.898   2.876   0.155 -1.1548  1.2736  0.9682
  625MPD2    H3 9262   3.075   2.730   0.078 -0.3755 -1.3226  0.3276
  625MPD2     N 9263   3.376   2.907   0.366  0.2733 -0.5941  0.2601
  625MPD2    H5 9264   3.388   2.982   0.434 -0.8480  0.9358 -1.2404
  625MPD2    N1 9265   2.928   3.091   0.323 -0.6297  0.3316 -0.2368
  625MPD2    H7 9266   2.952   3.162   0.391  0.4777 -1.3074  1.1061
  626TMC3    C1 9267   2.739   3.227   0.315  0.1786 -0.0314  0.2351
  626TMC3    C2 9268   2.666   3.290   0.217  0.5726 -0.8995  0.0343
  626TMC3    C3 9269   2.624   3.420   0.246 -0.1706 -0.7619  0.4968
  626TMC3    C4 9270   2.760   3.282   0.439  0.3595  0.7445 -0.8221
  626TMC3    C5 9271   2.714   3.407   0.467 -0.2613 -0.2176 -0.8472
  626TMC3    C6 9272   2.646   3.474   0.373 -0.1755 -0.2666 -0.2032
  626TMC3     C 9273   2.804   3.103   0.266 -0.0392  0.3272  0.0644
  626TMC3     O 9274   2.761   3.048   0.164  0.6147  0.0863 -0.2833
  626TMC3     H 9275   2.664   3.249   0.117  1.0960  0.7163 -0.6264
  626TMC3    H1 9276   2.810   3.225   0.517 -0.4881  1.5271  0.3045
  626TMC3    H2 9277   2.606   3.569   0.406 -0.1407 -0.8945  1.5973
  626TMC3    C7 9278   2.765   3.484   0.584 -0.1652  0.2404  0.5389
  626TMC3    C8 9279   2.629   3.507   0.127 -0.6170 -0.4704  0.3399
  626TMC3    O1 9280   2.878   3.452   0.616  0.1946  0.0096 -0.0403
  626TMC3    O2 9281   2.672   3.462   0.019  0.3284  0.1501  0.1010
  627MPD2     C 9282   2.451   3.519  14.497  0.1266 -0.2298  0.1909
  627MPD2    C1 9283   2.364   3.536  14.602 -0.0086  0.4413  0.3120
  627MPD2    C2 9284   2.243   3.465  14.604 -0.4544  0.3303  0.1612
  627MPD2    C3 9285   2.206   3.387  14.494 -0.2196 -0.5374  0.4289
  627MPD2    C4 9286   2.298   3.362  14.394  0.0216  0.0152  0.3997
  627MPD2    C5 9287   2.413   3.431  14.393 -1.0044 -0.0281 -0.7331
  627MPD2     H 9288   2.163   3.483  14.675 -3.2818  1.0899 -3.2285
  627MPD2    H1 9289   2.276   3.287  14.319 -1.4912 -0.5544  1.4145
  627MPD2    H2 9290   2.547   3.566  14.482 -1.2059  2.6727  0.8555
  627MPD2    H3 9291   2.483   3.412  14.313 -1.3879  0.4790 -1.1891
  627MPD2     N 9292   2.072   3.329  14.485 -0.3896  0.3620  0.1733
  627MPD2    H5 9293   2.011   3.353  14.562 -0.4269 -0.0726  0.2777
  627MPD2    N1 9294   2.386   3.624  14.709  0.2608 -0.2154  0.1063
  627MPD2    H7 9295   2.317   3.619  14.783  0.5456  0.1245  0.3931
  628TMC3    C1 9296   2.504   3.794  14.820 -0.7093 -0.1213 -0.4784
  628TMC3    C2 9297   2.534   3.714  14.931  0.3844 -0.8395 -0.0036
  628TMC3    C3 9298   2.529   3.778  15.054  0.2430  0.4373 -0.1871
  628TMC3    C4 9299   2.463   3.919  14.827 -0.1828 -0.6450  0.3052
  628TMC3    C5 9300   2.458   3.976  14.952 -0.3739  0.3941 -0.0139
  628TMC3    C6 9301   2.500   3.912  15.069 -0.3409 -0.5912  0.2239
  628TMC3     C 9302   2.473   3.725  14.696 -0.8772  0.1130  0.4676
  628TMC3     O 9303   2.527   3.767  14.595 -0.1145  0.2778  0.3992
  628TMC3     H 9304   2.555   3.608  14.923  1.3944 -0.5046 -1.9466
  628TMC3    H1 9305   2.443   3.965  14.731  1.0180  0.6907  0.7007
  628TMC3    H2 9306   2.480   3.960  15.164 -1.7856 -0.6046 -0.0648
  628TMC3    C7 9307   2.380   4.100  14.959  1.0690  0.4099 -0.6047
  628TMC3    C8 9308   2.601   3.724  15.163 -0.1409  0.3022  0.7450
  628TMC3    O1 9309   2.407   4.170  15.054 -0.2571 -0.3630  0.4498
  628TMC3    O2 9310   2.679   3.798  15.218 -0.2862 -0.0065 -1.1544
  629MPD2     C 9311   4.629   2.869  16.080  1.3491  0.8133  0.2022
  629MPD2    C1 9312   4.666   2.737  16.087 -0.2102  0.7649 -0.5944
  629MPD2    C2 9313   4.586   2.655  16.011 -0.1413  0.9087 -0.1753
  629MPD2    C3 9314   4.478   2.691  15.938 -0.2368  0.7782 -0.3325
  629MPD2    C4 9315   4.438   2.821  15.927  0.0984  0.4064 -0.0514
  629MPD2    C5 9316   4.520   2.909  15.997  0.0964  0.2194 -0.0066
  629MPD2     H 9317   4.611   2.549  16.011 -1.7606  0.5209  1.7148
  629MPD2    H1 9318   4.358   2.851  15.861 -0.5102  2.7194  1.7564
  629MPD2    H2 9319   4.678   2.945  16.139  2.6849 -1.6260  2.2569
  629MPD2    H3 9320   4.501   3.015  15.994  0.5178  0.3221  1.4095
  629MPD2     N 9321   4.411   2.599  15.848 -0.5231  0.0172 -0.2083
  629MPD2    H5 9322   4.316   2.618  15.817  0.0209  1.3699 -1.0746
  629MPD2    N1 9323   0.059   2.695  16.154 -0.3313  0.0739 -0.0518
  629MPD2    H7 9324   0.119   2.765  16.196 -1.1896  1.2171 -0.7610
  630TMC3    C1 9325   0.245   2.569  16.228  0.2739  1.1064  0.1030
  630TMC3    C2 9326   0.322   2.682  16.227  0.3448 -0.0541 -0.5680
  630TMC3    C3 9327   0.429   2.686  16.305 -0.0877  0.1276  0.2506
  630TMC3    C4 9328   0.273   2.464  16.314  0.0532  0.4809  0.0868
  630TMC3    C5 9329   0.390   2.466  16.379 -0.3310  0.3687  0.1228
  630TMC3    C6 9330   0.457   2.590  16.390 -0.1583  0.2236 -0.2299
  630TMC3     C 9331   0.111   2.570  16.163  0.3426 -0.9253  0.2170
  630TMC3     O 9332   0.066   2.465  16.134 -0.1340  0.3215  0.2212
  630TMC3     H 9333   0.291   2.762  16.160 -0.0888  0.6618  0.4980
  630TMC3    H1 9334   0.223   2.371  16.292  1.0649 -0.7789  3.1571
  630TMC3    H2 9335   0.548   2.609  16.446 -0.4890  0.7188  0.1229
  630TMC3    C7 9336   0.429   2.369  16.480 -0.7516  0.6405 -0.3837
  630TMC3    C8 9337   0.520   2.796  16.283 -0.1227  0.5860  0.2512
  630TMC3    O1 9338   0.524   2.402  16.549  0.0249  0.7534  0.5504
  630TMC3    O2 9339   0.642   2.779  16.297  0.3276 -0.3846  0.0223
  631MPD2     C 9340   3.253   1.564  15.512  0.6709 -0.6317  0.7382
  631MPD2    C1 9341   3.280   1.601  15.380 -0.6277  0.4460 -0.6270
  631MPD2    C2 9342   3.389   1.538  15.313 -0.7136 -0.6297  0.0047
  631MPD2    C3 9343   3.472   1.451  15.380 -0.3553 -0.0153 -0.5912
  631MPD2    C4 9344   3.437   1.413  15.511  0.6207  0.5865 -0.3462
  631MPD2    C5 9345   3.332   1.477  15.577  0.0264  0.8072 -0.0123
  631MPD2     H 9346   3.404   1.565  15.209  2.0963  0.6332  0.7335
  631MPD2    H1 9347   3.493   1.341  15.569  2.0260  1.8443 -0.1474
  631MPD2    H2 9348   3.179   1.597  15.584 -1.0887 -0.9498 -0.9192
  631MPD2    H3 9349   3.322   1.451  15.682  0.8869 -1.2797 -0.4333
  631MPD2     N 9350   3.579   1.408  15.298  0.0071 -1.5641  0.0639
  631MPD2    H5 9351   3.579   1.453  15.207 -0.0602  0.8185  1.2624
  631MPD2    N1 9352   3.198   1.702  15.319 -0.1108 -0.4731 -0.2400
  631MPD2    H7 9353   3.130   1.750  15.377  1.7073 -0.2124  1.6914
  632TMC3    C1 9354   3.186   1.891  15.174 -0.2492 -0.1640  0.3824
  632TMC3    C2 9355   3.144   1.960  15.280  0.3968  0.5026 -0.7903
  632TMC3    C3 9356   3.139   2.096  15.279 -0.4105  0.3087 -1.4100
  632TMC3    C4 9357   3.237   1.945  15.065  0.0094 -0.0974 -0.1068
  632TMC3    C5 9358   3.246   2.080  15.068  0.4084 -1.0558  0.9999
  632TMC3    C6 9359   3.207   2.163  15.173  0.4351  0.2289 -0.6576
  632TMC3     C 9360   3.214   1.752  15.192  0.2422  0.4409  0.2332
  632TMC3     O 9361   3.258   1.692  15.096  0.1783  0.3038  0.2675
  632TMC3     H 9362   3.089   1.913  15.361  0.4248  0.0592 -1.0290
  632TMC3    H1 9363   3.299   1.896  14.991  1.1429 -0.1916  0.8954
  632TMC3    H2 9364   3.201   2.270  15.159 -0.8741  0.1425 -0.7309
  632TMC3    C7 9365   3.301   2.138  14.946 -0.4211 -0.0543  0.4121
  632TMC3    C8 9366   3.065   2.177  15.367 -0.4818 -0.5308  0.0731
  632TMC3    O1 9367   3.291   2.082  14.839 -0.0869 -0.1810 -0.0278
  632TMC3    O2 9368   2.953   2.140  15.401  0.1113 -0.5554  0.3211
  633MPD2     C 9369   3.004   0.461  17.670  0.1054 -0.1193  0.7387
  633MPD2    C1 9370   2.954   0.360  17.592 -0.1442  0.1900  0.1992
  633MPD2    C2 9371   2.919   0.239  17.650 -0.1098  0.0305  0.3920
  633MPD2    C3 9372   2.933   0.217   0.093  0.2585  0.4574  0.4043
  633MPD2    C4 9373   2.982   0.320   0.170  0.0217 -0.0697 -0.0037
  633MPD2    C5 9374   3.020   0.436   0.111  0.7450  0.0273  0.7293
  633MPD2     H 9375   2.881   0.168  17.578 -0.1351  0.2708  0.1646
  633MPD2    H1 9376   2.980   0.306   0.277  0.1897  2.4669  0.3260
  633MPD2    H2 9377   3.038   0.558  17.634 -0.6836  0.3052  1.1357
  633MPD2    H3 9378   3.064   0.519   0.165  1.7700 -0.4024  0.5571
  633MPD2     N 9379   2.895   0.099   0.150 -0.0496  0.4025  0.2297
  633MPD2    H5 9380   2.918   0.085   0.248 -1.8209  1.0806  0.7348
  633MPD2    N1 9381   2.932   0.368  17.447 -0.1929 -0.2346  0.3895
  633MPD2    H7 9382   2.914   0.281  17.398 -1.7704 -0.1609  0.8280
  634TMC3    C1 9383   2.969   0.461  17.232  0.3383 -0.2670 -0.2420
  634TMC3    C2 9384   2.985   0.332  17.190  0.0115  0.4561  0.3814
  634TMC3    C3 9385   3.033   0.320  17.063  0.2418  0.0619  0.3907
  634TMC3    C4 9386   2.992   0.576  17.164  0.1494 -0.3492 -0.2237
  634TMC3    C5 9387   3.030   0.559  17.036 -0.0076  1.1179 -0.2418
  634TMC3    C6 9388   3.050   0.428  16.982 -0.5996 -0.1175  0.9888
  634TMC3     C 9389   2.951   0.481  17.371 -0.2243  0.3705  0.0112
  634TMC3     O 9390   2.956   0.595  17.414  0.4274 -0.8152  0.5285
  634TMC3     H 9391   2.986   0.242  17.251  0.0096  1.0386  1.2398
  634TMC3    H1 9392   2.996   0.670  17.219 -0.7399 -0.6990  0.4442
  634TMC3    H2 9393   3.092   0.421  16.883 -2.5938 -0.7809  0.1870
  634TMC3    C7 9394   3.038   0.672  16.944  0.1307  0.5747  0.1731
  634TMC3    C8 9395   3.053   0.181  17.022  0.4112  0.1281  0.7228
  634TMC3    O1 9396   3.065   0.649  16.828  0.4832 -0.1983  0.2436
  634TMC3    O2 9397   3.027   0.094  17.106 -0.3004 -0.4890 -0.0877
  635TMC3    C1 9398   3.893   0.992  17.424 -0.0214  0.7677  0.2184
  635TMC3    C2 9399   3.957   0.975  17.545 -0.2579 -0.3628 -0.5400
  635TMC3    C3 9400   3.962   0.849  17.601 -0.1086  0.1964  0.0945
  635TMC3    C4 9401   3.828   0.885  17.375  0.3614  0.0711 -0.5251
  635TMC3    C5 9402   3.839   0.761  17.425  0.2980  0.5626 -0.3325
  635TMC3    C6 9403   3.899   0.746  17.547 -0.2321 -0.5410 -0.2629
  635TMC3     C 9404   3.876   1.127  17.361  0.5751 -0.5447 -0.1914
  635TMC3     O 9405   3.785   1.142  17.280  0.1804  0.0926 -0.6230
  635TMC3     H 9406   3.990   1.064  17.597 -2.7733 -0.5510  1.4437
  635TMC3    H1 9407   3.775   0.890  17.280  0.2873 -0.2524 -0.4997
  635TMC3    H2 9408   3.889   0.649  17.595 -0.2354 -0.4376 -0.0529
  635TMC3    C7 9409   3.815   0.646  17.328  0.1511  0.6244  0.4516
  635TMC3    C8 9410   4.004   0.835   0.044 -0.3211 -0.0842 -0.3834
  635TMC3    O1 9411   3.834   0.669  17.210 -0.2727 -0.1172 -0.4392
  635TMC3    O2 9412   4.000   0.939   0.109  0.3007 -0.1942 -0.1877
  636MPD2     C 9413   3.851   0.296  16.320  0.3803 -0.4364  1.4264
  636MPD2    C1 9414   3.985   0.329  16.360  0.7863 -0.4007 -0.2212
  636MPD2    C2 9415   4.067   0.238  16.420 -0.1479  0.1100  0.0150
  636MPD2    C3 9416   4.015   0.120  16.455 -0.5635  0.1773  0.5932
  636MPD2    C4 9417   3.884   0.094  16.427 -0.2997 -0.3328 -1.3115
  636MPD2    C5 9418   3.802   0.178  16.351 -0.2886  0.2780  0.0440
  636MPD2     H 9419   4.171   0.260  16.442 -0.3809  0.4976  0.7377
  636MPD2    H1 9420   3.844   0.003  16.469  0.7120 -0.7611 -1.2768
  636MPD2    H2 9421   3.799   0.358  16.248  0.2764 -1.5925  0.5105
  636MPD2    H3 9422   3.699   0.155  16.325 -0.4969 -0.3566  1.3955
  636MPD2     N 9423   4.112   0.028  16.508 -0.6170  0.1772  0.1595
  636MPD2    H5 9424   4.204   0.065  16.530 -0.4324 -0.2568  0.1308
  636MPD2    N1 9425   4.051   0.456  16.338 -0.1025  0.3694  0.3170
  636MPD2    H7 9426   4.149   0.463  16.365  0.1257 -0.8101 -0.1801
  637TMC3    C1 9427   4.210   4.545  16.570 -0.4780  1.0901 -0.1703
  637TMC3    C2 9428   4.270   4.605  16.677 -0.0157 -0.6758  0.4880
  637TMC3    C3 9429   4.395   4.567  16.704  0.1217 -0.2158  0.6377
  637TMC3    C4 9430   4.274   4.468  16.485  0.0568 -0.6493 -0.2581
  637TMC3    C5 9431   4.408   4.449  16.500 -0.4449  1.2008  0.5287
  637TMC3    C6 9432   4.469   4.483  16.618 -0.3561 -0.4853  0.0155
  637TMC3     C 9433   4.100   4.615  16.511 -0.2409 -0.0836  0.3829
  637TMC3     O 9434   4.015   4.538  16.472 -0.8095 -0.0245  0.2007
  637TMC3     H 9435   4.208   4.670  16.738 -0.0344  1.1653 -1.4457
  637TMC3    H1 9436   4.224   4.424  16.400  1.8361 -0.3587 -1.4631
  637TMC3    H2 9437   4.563   4.436  16.646  0.1421 -0.4235 -1.5716
  637TMC3    C7 9438   4.491   4.475  16.385  0.1383 -0.1002 -0.1921
  637TMC3    C8 9439   4.471   4.691  16.716  0.5465  0.7075 -0.7932
  637TMC3    O1 9440   4.431   4.554  16.310 -0.0445  0.0098  0.4073
  637TMC3    O2 9441   4.429   0.064  16.650  0.2335 -0.3404 -0.0903
  638MPD2     C 9442   3.843   4.040  14.073 -0.5158 -0.2079  0.2908
  638MPD2    C1 9443   3.862   3.908  14.112 -1.1401 -0.6131  0.3580
  638MPD2    C2 9444   3.766   3.854  14.192 -0.2694 -0.1185 -0.5533
  638MPD2    C3 9445   3.654   3.924  14.236 -0.0170 -0.1133 -0.6173
  638MPD2    C4 9446   3.633   4.048  14.188  0.1276 -0.2291  0.1651
  638MPD2    C5 9447   3.724   4.103  14.105  0.5345 -0.3906  0.0310
  638MPD2     H 9448   3.783   3.755  14.233 -0.0259  0.6744  1.2968
  638MPD2    H1 9449   3.544   4.102  14.222  0.2400 -0.3814  0.7000
  638MPD2    H2 9450   3.910   4.088  14.003 -1.6213  2.5469  1.1487
  638MPD2    H3 9451   3.715   4.203  14.066  0.5989 -0.7226 -0.8205
  638MPD2     N 9452   3.574   3.866  14.334 -0.0368 -0.5581 -0.4172
  638MPD2    H5 9453   3.583   3.766  14.350  2.3261  0.2689  3.5655
  638MPD2    N1 9454   3.976   3.826  14.087 -0.0582 -0.0019  0.3173
  638MPD2    H7 9455   3.986   3.730  14.121  0.9148 -0.3286 -0.8774
  639TMC3    C1 9456   3.458   3.844  14.535 -0.4285 -0.1894 -0.3518
  639TMC3    C2 9457   3.448   3.708  14.506  0.0424  0.2098  0.3467
  639TMC3    C3 9458   3.479   3.620  14.614 -0.3990  0.0224  0.5117
  639TMC3    C4 9459   3.501   3.884  14.657  0.7112  0.5729 -0.7204
  639TMC3    C5 9460   3.520   3.796  14.755 -0.0148  0.0231  0.0796
  639TMC3    C6 9461   3.517   3.662  14.737  0.0921 -0.2077  0.2844
  639TMC3     C 9462   3.488   3.927  14.421  0.2298  0.5529 -0.6642
  639TMC3     O 9463   3.492   4.043  14.444  0.4447  0.3526 -0.8415
  639TMC3     H 9464   3.409   3.670  14.412  1.3926  0.0866 -0.1601
  639TMC3    H1 9465   3.509   3.986  14.692 -2.6695  0.3629  0.6215
  639TMC3    H2 9466   3.542   3.593  14.817 -1.7354 -1.1154  0.0552
  639TMC3    C7 9467   3.601   3.841  14.869  0.6087 -0.4918 -0.4819
  639TMC3    C8 9468   3.527   3.482  14.582 -0.5005 -0.2458 -0.0996
  639TMC3    O1 9469   3.557   3.934  14.941  0.4443 -0.1065 -0.3653
  639TMC3    O2 9470   3.555   3.454  14.465  0.4537  0.3028 -0.0999
  640MPD2     C 9471   0.211   2.181   9.403  0.1205  0.1040  0.2483
  640MPD2    C1 9472   0.230   2.302   9.459 -0.5028 -0.5799  0.3582
  640MPD2    C2 9473   0.116   2.377   9.491  0.3052  0.3939  0.1927
  640MPD2    C3 9474   4.707   2.332   9.455 -0.6333  0.0725  0.6398
  640MPD2    C4 9475   4.697   2.209   9.388 -0.1113 -0.2244  0.9668
  640MPD2    C5 9476   0.085   2.132   9.367 -0.6122  0.0206  0.0219
  640MPD2     H 9477   0.130   2.468   9.548  0.6207 -0.1837  1.0344
  640MPD2    H1 9478   4.598   2.183   9.353  0.6250 -1.0277 -0.5012
  640MPD2    H2 9479   0.299   2.124   9.377  0.4886  0.0467  1.6358
  640MPD2    H3 9480   0.064   2.044   9.307  0.8214 -1.2150  1.3144
  640MPD2     N 9481   4.588   2.412   9.491  0.5227  0.0687  0.3156
  640MPD2    H5 9482   4.493   2.382   9.468  0.2824 -0.1737  1.6068
  640MPD2    N1 9483   0.366   2.331   9.497  0.0506  1.0454  0.7816
  640MPD2    H7 9484   0.439   2.263   9.478 -3.7859 -1.8541 -3.6129
  641TMC3    C1 9485   0.556   2.443   9.544  0.4141  0.4323  0.6554
  641TMC3    C2 9486   0.615   2.326   9.582 -0.0468  0.5623  0.8972
  641TMC3    C3 9487   0.744   2.301   9.549  0.2290 -0.5680  0.1067
  641TMC3    C4 9488   0.626   2.519   9.454  0.0024  0.9040 -0.0968
  641TMC3    C5 9489   0.759   2.495   9.423 -0.5168 -0.7892 -0.2050
  641TMC3    C6 9490   0.830   2.384   9.481 -0.2727 -0.0815 -0.4550
  641TMC3     C 9491   0.410   2.451   9.543  0.2444  0.0348  0.3031
  641TMC3     O 9492   0.355   2.560   9.558  0.2247  0.3968 -0.2150
  641TMC3     H 9493   0.555   2.263   9.648  0.4553 -1.5703 -0.6881
  641TMC3    H1 9494   0.567   2.592   9.400  0.4333  0.4375 -1.2001
  641TMC3    H2 9495   0.931   2.362   9.449  0.2545 -0.3264  1.3477
  641TMC3    C7 9496   0.839   2.572   9.324 -0.0017  0.1647 -0.2421
  641TMC3    C8 9497   0.777   2.158   9.560  0.9022  0.0851 -0.2122
  641TMC3    O1 9498   0.957   2.555   9.319  0.1877 -0.0368 -0.2933
  641TMC3    O2 9499   0.679   2.087   9.575  0.4952  0.1266  0.5190
  642TMC3    C1 9500   1.372   3.763  12.031 -0.0267 -0.7683 -0.4334
  642TMC3    C2 9501   1.447   3.748  12.143  0.0834  0.4750 -0.4974
  642TMC3    C3 9502   1.526   3.636  12.142  0.2108 -0.0533 -0.1789
  642TMC3    C4 9503   1.378   3.677  11.920 -0.1974  0.8485  0.1916
  642TMC3    C5 9504   1.460   3.566  11.924  0.8213 -0.8357 -0.5046
  642TMC3    C6 9505   1.541   3.549  12.033  0.4154  0.2224  0.2486
  642TMC3     C 9506   1.253   3.865  12.037  0.6944  0.8948  0.2838
  642TMC3     O 9507   1.198   3.892  11.933  0.7034 -1.0697 -0.0543
  642TMC3     H 9508   1.438   3.806  12.234 -0.2073  1.0942 -0.9254
  642TMC3    H1 9509   1.315   3.688  11.832 -0.1846  1.9490  0.3282
  642TMC3    H2 9510   1.615   3.472  12.052 -2.5284 -2.3780  1.2187
  642TMC3    C7 9511   1.418   3.448  11.851 -0.2925 -0.1357 -0.0217
  642TMC3    C8 9512   1.592   3.598  12.265  0.0398  0.1149  0.1243
  642TMC3    O1 9513   1.391   3.464  11.733  0.2086 -0.6930  0.4423
  642TMC3    O2 9514   1.705   3.542  12.257  0.6361  0.0086 -0.1892
  643TMC3    C1 9515   0.053   3.248   0.506 -0.0795  0.3661 -0.8268
  643TMC3    C2 9516   4.655   3.310   0.517 -0.1196  0.1319  0.5543
  643TMC3    C3 9517   4.574   3.319   0.411 -0.0363  0.3314 -0.0619
  643TMC3    C4 9518   0.093   3.180   0.395 -0.8891  0.0520 -0.0880
  643TMC3    C5 9519   0.004   3.184   0.291  0.4493  0.0946  0.4443
  643TMC3    C6 9520   4.611   3.260   0.295 -0.1823 -0.0736  0.3516
  643TMC3     C 9521   0.137   3.267   0.627 -0.1691  0.2344  0.2653
  643TMC3     O 9522   0.108   3.353   0.709 -0.4034 -0.1084  0.3476
  643TMC3     H 9523   4.627   3.359   0.609 -1.0000  1.6301 -0.5234
  643TMC3    H1 9524   0.194   3.142   0.385 -1.3318 -1.1764  0.1189
  643TMC3    H2 9525   4.548   3.273   0.207  1.6772  0.2637 -0.9403
  643TMC3    C7 9526   0.047   3.145   0.162 -0.1018  0.1580  0.4941
  643TMC3    C8 9527   4.498   3.443   0.390 -0.2679 -0.0636  0.2464
  643TMC3    O1 9528   4.704   3.186   0.066  0.4933  0.2752 -0.1352
  643TMC3    O2 9529   4.412   3.443   0.303 -0.3818  0.2367  0.2849
  644MPD2     C 9530   0.743   3.276   9.267 -0.4052 -0.8890 -0.1309
  644MPD2    C1 9531   0.708   3.152   9.302  0.2020 -0.0937 -0.4301
  644MPD2    C2 9532   0.584   3.108   9.265  0.7760 -0.1593 -0.0669
  644MPD2    C3 9533   0.499   3.182   9.186 -0.2273 -0.2872 -0.2884
  644MPD2    C4 9534   0.536   3.313   9.154 -0.0293 -0.0632 -0.1259
  644MPD2    C5 9535   0.653   3.356   9.202  0.3707  0.6511 -0.2402
  644MPD2     H 9536   0.546   3.008   9.285  0.6519 -0.0104  0.4308
  644MPD2    H1 9537   0.474   3.378   9.093 -0.0038  0.1992  0.1333
  644MPD2    H2 9538   0.837   3.317   9.302 -1.4436  1.0256  0.3885
  644MPD2    H3 9539   0.680   3.461   9.204  0.1992  0.7057 -1.1179
  644MPD2     N 9540   0.380   3.127   9.152  0.3776  0.4556 -0.4473
  644MPD2    H5 9541   0.374   3.038   9.201  1.1586  0.7820  0.2383
  644MPD2    N1 9542   0.795   3.072   9.376  0.5545 -0.1462 -0.0040
  644MPD2    H7 9543   0.890   3.106   9.385  0.5087 -0.5639  1.9720
  645TMC3    C1 9544   0.170   3.075   9.082 -0.3130  0.4624  0.7522
  645TMC3    C2 9545   0.043   3.112   9.050 -0.3862 -0.2497  0.9396
  645TMC3    C3 9546   4.679   3.011   9.020  0.2916 -0.1258  0.3988
  645TMC3    C4 9547   0.205   2.944   9.090  0.2725  0.5913 -0.1996
  645TMC3    C5 9548   0.111   2.850   9.056  0.6040  0.8120 -0.4344
  645TMC3    C6 9549   4.705   2.882   9.032  0.3951  0.4696  0.2621
  645TMC3     C 9550   0.267   3.178   9.095 -0.3216  0.6863  0.0268
  645TMC3     O 9551   0.253   3.291   9.058 -0.2627 -0.3576 -0.4007
  645TMC3     H 9552   0.021   3.218   9.043 -1.3563 -0.5806 -0.8631
  645TMC3    H1 9553   0.304   2.914   9.122  1.2365  3.8070 -0.1583
  645TMC3    H2 9554   4.636   2.802   9.006 -0.0875  1.0588 -0.2716
  645TMC3    C7 9555   0.144   2.708   9.042  0.8242 -0.3904  0.2359
  645TMC3    C8 9556   4.543   3.055   9.007  0.0086 -0.5758  0.5421
  645TMC3    O1 9557   0.051   2.628   9.056  0.5310  0.2539 -0.5648
  645TMC3    O2 9558   4.527   3.176   8.994 -0.1486 -0.4386  0.1441
  646MPD2     C 9559   4.462   2.385  14.360  1.0226  0.1572 -0.0901
  646MPD2    C1 9560   4.370   2.381  14.459 -0.8624 -0.2129 -0.4872
  646MPD2    C2 9561   4.250   2.440  14.433 -0.4317  0.2451  0.0752
  646MPD2    C3 9562   4.211   2.478  14.308  0.7643  0.7077  0.0518
  646MPD2    C4 9563   4.305   2.470  14.208 -0.2195  0.1072  0.2062
  646MPD2    C5 9564   4.429   2.430  14.237  0.1199 -0.0838 -0.4358
  646MPD2     H 9565   4.172   2.442  14.509  1.2315  0.1725  1.7806
  646MPD2    H1 9566   4.294   2.500  14.104  0.1285 -0.2166  0.0784
  646MPD2    H2 9567   4.559   2.338  14.372  1.8261  1.8906  0.2360
  646MPD2    H3 9568   4.505   2.430  14.159  1.6945  0.0039  1.1170
  646MPD2     N 9569   4.092   2.556  14.295  0.1306  0.0061 -0.4621
  646MPD2    H5 9570   4.028   2.562  14.373  1.0306  0.8551  0.2160
  646MPD2    N1 9571   4.417   2.331  14.584  0.0210 -0.4510  0.2832
  646MPD2    H7 9572   4.512   2.297  14.576 -0.1167 -1.4372  2.9172
  647TMC3    C1 9573   4.412   2.237  14.800 -0.1106 -0.9496  0.4175
  647TMC3    C2 9574   4.335   2.177  14.894  0.6055 -0.7087 -0.4680
  647TMC3    C3 9575   4.406   2.123  15.006  0.2363 -0.4766  0.1057
  647TMC3    C4 9576   4.549   2.254  14.806  0.7414 -0.7046 -0.1360
  647TMC3    C5 9577   4.605   2.213  14.920  0.3670  0.2399  0.4976
  647TMC3    C6 9578   4.535   2.145  15.021  0.3410  0.1099  0.1961
  647TMC3     C 9579   4.343   2.313  14.701  0.3198  0.2653 -0.6067
  647TMC3     O 9580   4.225   2.339  14.709 -0.2631 -0.1371  0.4305
  647TMC3     H 9581   4.231   2.163  14.869  0.1197  0.2085  1.0535
  647TMC3    H1 9582   4.607   2.302  14.729 -0.4443  1.1595  0.1497
  647TMC3    H2 9583   4.588   2.112  15.109 -0.0321  2.5723  1.3316
  647TMC3    C7 9584   0.026   2.220  14.942  0.1307  0.3645  0.0420
  647TMC3    C8 9585   4.348   2.022  15.089  0.1358  0.3875  0.5209
  647TMC3    O1 9586   0.070   2.206  15.055 -0.2226 -0.4861 -0.2631
  647TMC3    O2 9587   4.390   2.019  15.207 -0.3832  0.5396  0.0029
  648TMC3    C1 9588   3.232   0.218  16.110  1.4365 -0.4055  0.4176
  648TMC3    C2 9589   3.221   0.095  16.050  0.0081  0.2009  0.0430
  648TMC3    C3 9590   3.163   0.094  15.929  0.5906 -0.1086  0.3943
  648TMC3    C4 9591   3.193   0.329  16.040  0.6335 -0.6492  0.2376
  648TMC3    C5 9592   3.139   0.323  15.914 -0.7198 -0.7622 -0.2291
  648TMC3    C6 9593   3.130   0.199  15.855  0.5621 -0.9024  0.3118
  648TMC3     C 9594   3.298   0.244  16.239  0.0324 -0.2364 -0.0304
  648TMC3     O 9595   3.326   0.358  16.268 -0.2818  0.1399  0.1834
  648TMC3     H 9596   3.218   0.006  16.112  1.4661 -0.7069 -1.1541
  648TMC3    H1 9597   3.210   0.421  16.095 -2.0503  0.0074 -0.0390
  648TMC3    H2 9598   3.092   0.185  15.754  1.7000  1.1153 -0.4048
  648TMC3    C7 9599   3.053   0.426  15.865 -0.4229  0.2604 -0.5762
  648TMC3    C8 9600   3.170   4.702  15.857  1.1927  0.1199 -0.7029
  648TMC3    O1 9601   2.997   0.401  15.757 -0.1454 -0.6055  0.0672
  648TMC3    O2 9602   3.066   4.644  15.823 -0.1337 -0.3110  0.0635
  649TMC3    C1 9603   2.516   1.063  12.517 -1.0656  0.1161  0.9335
  649TMC3    C2 9604   2.635   1.125  12.537  0.7393  0.5017 -0.3029
  649TMC3    C3 9605   2.669   1.154  12.672  0.3478 -0.2306  0.2644
  649TMC3    C4 9606   2.437   1.029  12.619 -0.8793  0.5424  0.1603
  649TMC3    C5 9607   2.475   1.062  12.748 -0.2717  0.2840  0.0243
  649TMC3    C6 9608   2.590   1.128  12.778  0.4912  0.3168  0.1776
  649TMC3     C 9609   2.458   1.088  12.388 -0.2470  0.1688 -0.5701
  649TMC3     O 9610   2.348   1.143  12.388  0.3303  0.0539  0.6229
  649TMC3     H 9611   2.710   1.130  12.460 -0.5693 -0.5931 -1.6379
  649TMC3    H1 9612   2.349   0.972  12.593 -0.1376 -0.6347  0.2042
  649TMC3    H2 9613   2.612   1.158  12.880 -0.4838 -1.7859  1.0002
  649TMC3    C7 9614   2.390   1.011  12.857  0.6360  0.1889 -0.0230
  649TMC3    C8 9615   2.785   1.240  12.701  0.0041  0.1419 -0.1447
  649TMC3    O1 9616   2.442   1.003  12.969  0.1168  0.4497  0.1976
  649TMC3    O2 9617   2.800   1.265  12.818  0.1622 -0.2319  0.0695
  650TMC3    C1 9618   0.693   2.845  12.794 -0.5051 -0.3109 -0.9040
  650TMC3    C2 9619   0.709   2.966  12.856 -0.7263 -0.2636  0.5709
  650TMC3    C3 9620   0.763   3.065  12.782 -0.1398 -0.8136  0.3172
  650TMC3    C4 9621   0.707   2.828  12.662  0.0922 -0.1132  0.2339
  650TMC3    C5 9622   0.757   2.932  12.588 -0.1037  0.1986 -0.7468
  650TMC3    C6 9623   0.777   3.048  12.651 -0.6191  0.4691  0.1080
  650TMC3     C 9624   0.614   2.751  12.870 -0.5407  0.2991  0.1827
  650TMC3     O 9625   0.555   2.800  12.961 -0.6766 -0.0041 -0.0645
  650TMC3     H 9626   0.717   2.971  12.964 -0.7371  2.4456  0.4527
  650TMC3    H1 9627   0.669   2.737  12.618  2.2721 -1.0104  0.1836
  650TMC3    H2 9628   0.811   3.136  12.599  0.3050 -0.4594 -0.8633
  650TMC3    C7 9629   0.735   2.934  12.443  0.8101  0.6127 -0.3211
  650TMC3    C8 9630   0.760   3.200  12.835  0.1842 -0.6362  0.6793
  650TMC3    O1 9631   0.743   2.823  12.393  0.5172 -0.1022 -0.1055
  650TMC3    O2 9632   0.834   3.282  12.778  0.2905  0.0075 -0.1628
  651MPD2     C 9633   4.390   4.325  10.498 -0.6062 -0.4467  0.4210
  651MPD2    C1 9634   4.339   4.439  10.547 -0.2199  0.6545 -0.4820
  651MPD2    C2 9635   4.416   4.549  10.524  0.1594  0.1284 -0.3483
  651MPD2    C3 9636   4.527   4.558  10.454 -0.1889  0.4711  0.2380
  651MPD2    C4 9637   4.571   4.439  10.391 -0.2814 -0.3332 -0.3353
  651MPD2    C5 9638   4.509   4.321  10.428  0.5324 -0.2206  0.1244
  651MPD2     H 9639   4.381   4.640  10.571  2.4555  0.0611  1.5069
  651MPD2    H1 9640   4.662   4.434  10.333 -0.6628  1.7344 -1.1309
  651MPD2    H2 9641   4.354   4.227  10.528  2.1136 -0.9938  1.9535
  651MPD2    H3 9642   4.532   4.229  10.375  0.4731  0.0056 -0.2968
  651MPD2     N 9643   4.595   4.685  10.448  0.0667  0.2230 -0.1499
  651MPD2    H5 9644   4.557   0.045  10.492 -0.3362 -0.5217  0.8988
  651MPD2    N1 9645   4.212   4.451  10.608 -0.5000  0.0670 -0.5816
  651MPD2    H7 9646   4.182   4.543  10.639 -1.4148  0.2943 -2.1558
  652TMC3    C1 9647   0.242   0.241  10.432  0.0204 -0.2045  0.4817
  652TMC3    C2 9648   0.184   0.117  10.430  0.1253 -0.0795 -0.1078
  652TMC3    C3 9649   0.051   0.103  10.402  0.4600  0.5606 -0.2064
  652TMC3    C4 9650   0.167   0.349  10.407  0.2289  0.2351 -0.5459
  652TMC3    C5 9651   0.036   0.330  10.361  0.5195 -0.0512 -0.9594
  652TMC3    C6 9652   4.708   0.208  10.344  0.7336 -0.1172 -0.4532
  652TMC3     C 9653   0.356   0.262  10.515  0.1050 -0.3794  0.2932
  652TMC3     O 9654   0.382   0.173  10.598  0.4789  0.0857  0.0803
  652TMC3     H 9655   0.247   0.029  10.434  0.2661 -0.0071 -0.7009
  652TMC3    H1 9656   0.214   0.446  10.400  1.4513 -0.2321  1.1766
  652TMC3    H2 9657   4.601   0.200  10.328  0.2523  1.3101  2.0474
  652TMC3    C7 9658   4.678   0.441  10.318 -0.1942 -0.3687 -0.6891
  652TMC3    C8 9659   4.719   4.688  10.399 -0.1841 -0.1899  0.3335
  652TMC3    O1 9660   4.576   0.405  10.257  0.2504 -0.2569  0.0752
  652TMC3    O2 9661   0.077   4.592  10.406 -0.3668 -0.2204  0.3858
  653MPD2     C 9662   2.543   0.288  17.653  0.7931 -0.4268  0.6492
  653MPD2    C1 9663   2.514   0.385  17.558 -0.3220 -0.3421 -0.4646
  653MPD2    C2 9664   2.428   0.357  17.455 -0.3574  0.2157 -0.6077
  653MPD2    C3 9665   2.368   0.234  17.433 -0.8376  0.4732  0.2938
  653MPD2    C4 9666   2.396   0.142  17.533  0.1963 -0.0622 -0.2322
  653MPD2    C5 9667   2.482   0.169  17.633 -0.7748  0.2766 -0.5098
  653MPD2     H 9668   2.397   0.439  17.392  0.9709  0.0718 -1.4604
  653MPD2    H1 9669   2.352   0.044  17.523  0.5168 -0.1386 -0.9237
  653MPD2    H2 9670   2.607   0.311   0.045  1.9151 -1.2665  0.0280
  653MPD2    H3 9671   2.515   0.088   0.004 -1.3107 -1.2186 -2.1555
  653MPD2     N 9672   2.276   0.216  17.325 -0.1698  0.0160 -1.0701
  653MPD2    H5 9673   2.261   0.301  17.272 -2.5251 -0.3714 -1.0250
  653MPD2    N1 9674   2.555   0.522  17.575 -0.2896  0.3297  0.6073
  653MPD2    H7 9675   2.534   0.589  17.503  2.0995  0.9737  0.5176
  654TMC3    C1 9676   2.136   0.110  17.172  0.5826  0.3034  0.5779
  654TMC3    C2 9677   2.049   0.215  17.170  0.2230  0.1665 -0.2017
  654TMC3    C3 9678   1.951   0.222  17.072  0.1116 -0.2601  0.2262
  654TMC3    C4 9679   2.111   4.720  17.099 -0.0727 -0.4914 -0.4267
  654TMC3    C5 9680   2.007   0.004  17.011  0.2301 -0.3449 -0.5970
  654TMC3    C6 9681   1.938   0.119  16.981  0.0794  0.0890 -0.2649
  654TMC3     C 9682   2.224   0.093  17.287  0.0681 -0.0589  1.1097
  654TMC3     O 9683   2.253   4.703  17.320 -0.5181 -0.3997 -0.4814
  654TMC3     H 9684   2.061   0.295  17.241 -0.2986  1.5223 -1.6537
  654TMC3    H1 9685   2.168   4.631  17.122  0.9722  0.4653  0.6952
  654TMC3    H2 9686   1.858   0.113  16.907  0.1917 -0.4013 -0.3448
  654TMC3    C7 9687   1.989   4.621  16.913 -0.2766  0.5883 -0.1921
  654TMC3    C8 9688   1.904   0.350  17.029  0.0358  0.1874  0.0395
  654TMC3    O1 9689   1.954   4.651  16.801  0.1386 -0.2184 -1.2496
  654TMC3    O2 9690   1.888   0.436  17.114  0.4813  0.1694 -0.4431
  655MPD2     C 9691   3.913   0.634  15.854 -0.4868 -0.1577  1.2715
  655MPD2    C1 9692   3.801   0.679  15.787 -0.0138  0.0830  0.4660
  655MPD2    C2 9693   3.760   0.608  15.674  0.5120 -0.3607 -0.3110
  655MPD2    C3 9694   3.828   0.500  15.626  0.0582 -0.4938  0.1427
  655MPD2    C4 9695   3.931   0.453  15.696 -0.5047  0.4067  0.6197
  655MPD2    C5 9696   3.973   0.519  15.810  0.8225 -0.6518  0.5771
  655MPD2     H 9697   3.666   0.637  15.628  0.5068  0.8685  0.4897
  655MPD2    H1 9698   3.987   0.366  15.664  1.8344  2.2059 -0.1743
  655MPD2    H2 9699   3.959   0.690  15.934  1.7052  2.2452 -1.6918
  655MPD2    H3 9700   4.059   0.490  15.868  1.7983 -1.3068 -1.2201
  655MPD2     N 9701   3.778   0.429  15.512 -0.2116 -0.1331 -0.5193
  655MPD2    H5 9702   3.830   0.345  15.488 -1.6014 -0.8955 -0.9037
  655MPD2    N1 9703   3.725   0.795  15.817 -0.6071  0.1798  0.4792
  655MPD2    H7 9704   3.653   0.819  15.749 -0.4939  1.5113  0.8338
  656TMC3    C1 9705   3.632   0.958  15.962 -0.2472 -0.1461  0.0251
  656TMC3    C2 9706   3.578   0.976  16.083 -0.5162  1.0902  0.3177
  656TMC3    C3 9707   3.464   1.057  16.098 -0.0446  0.1810  0.0747
  656TMC3    C4 9708   3.565   1.011  15.857 -0.5014 -0.1101 -0.4210
  656TMC3    C5 9709   3.448   1.083  15.870  0.0391  0.9813  0.3596
  656TMC3    C6 9710   3.396   1.115  15.989 -0.2284  0.6256  0.8254
  656TMC3     C 9711   3.736   0.858  15.940 -0.0686 -0.9232  0.0835
  656TMC3     O 9712   3.818   0.842  16.029  0.3709  0.3186 -0.1883
  656TMC3     H 9713   3.628   0.932  16.168 -0.9840 -1.0412 -0.5043
  656TMC3    H1 9714   3.604   1.001  15.756  0.1234  1.7704 -0.3847
  656TMC3    H2 9715   3.318   1.190  15.998 -0.8149  0.3505 -2.0007
  656TMC3    C7 9716   3.378   1.108  15.746  1.1047  0.2038 -0.2253
  656TMC3    C8 9717   3.374   0.996  16.194  0.3878  0.0682 -0.4607
  656TMC3    O1 9718   3.439   1.106  15.641  0.4955 -0.4248 -0.2210
  656TMC3    O2 9719   3.262   0.976  16.153 -0.2848  0.3028  0.1886
  657TMC3    C1 9720   2.755   0.063  14.757 -0.1684 -0.2090 -0.8085
  657TMC3    C2 9721   2.753   0.114  14.883  0.7388 -0.5748 -0.0244
  657TMC3    C3 9722   2.653   0.205  14.910  0.4975 -0.0580  0.7743
  657TMC3    C4 9723   2.661   0.093  14.661 -0.0535  0.2321  0.0576
  657TMC3    C5 9724   2.561   0.176  14.687 -0.4616  0.7962 -0.5611
  657TMC3    C6 9725   2.549   0.225  14.819 -0.2433  0.3201 -0.3768
  657TMC3     C 9726   2.846   4.672  14.725 -0.4938 -0.1013 -0.1279
  657TMC3     O 9727   2.803   4.606  14.633  0.3834  0.7237 -0.1680
  657TMC3     H 9728   2.835   0.094  14.951  1.9203 -0.1764 -1.3328
  657TMC3    H1 9729   2.675   0.066  14.557  2.0607 -0.8424  0.6156
  657TMC3    H2 9730   2.473   0.297  14.849  0.1295  0.8236 -0.6378
  657TMC3    C7 9731   2.482   0.228  14.585  0.2585  0.2653  0.0282
  657TMC3    C8 9732   2.664   0.289  15.028  0.8969  0.0477  0.4933
  657TMC3    O1 9733   2.441   0.146  14.501  0.2061  0.0995  0.3658
  657TMC3    O2 9734   2.586   0.387  15.031  0.1023 -0.0714 -0.2885
  658MPD2     C 9735   4.130   0.177  14.929  0.2023  0.0845  0.6950
  658MPD2    C1 9736   4.037   0.259  14.886 -0.0223 -0.8119  0.1745
  658MPD2    C2 9737   4.061   0.341  14.770  0.2331 -1.0766 -0.3316
  658MPD2    C3 9738   4.179   0.330  14.699  0.9121  0.9474  0.2043
  658MPD2    C4 9739   4.277   0.239  14.749  0.3500  0.2708  0.0503
  658MPD2    C5 9740   4.256   0.171  14.870  0.3028  0.4921  0.0357
  658MPD2     H 9741   3.985   0.415  14.747  0.0181 -1.5606 -1.1946
  658MPD2    H1 9742   4.373   0.225  14.702  0.2226  3.8367 -1.2511
  658MPD2    H2 9743   4.136   0.125  15.024 -0.3853 -0.7276  0.2825
  658MPD2    H3 9744   4.328   0.098  14.906  1.3731  1.8449  0.6572
  658MPD2     N 9745   4.203   0.408  14.584  0.0085  0.4173 -0.1632
  658MPD2    H5 9746   4.127   0.475  14.575  0.6471  1.2123  0.4293
  658MPD2    N1 9747   3.920   0.275  14.961  0.7990  0.8905  0.1548
  658MPD2    H7 9748   3.855   0.351  14.944  0.6308  1.1328  1.8513
  659TMC3    C1 9749   3.764   0.274  15.131  0.1806 -0.0657  0.2452
  659TMC3    C2 9750   3.758   0.295  15.268 -0.0484 -0.0454  0.2490
  659TMC3    C3 9751   3.661   0.389  15.308  0.2189  0.4700  0.0351
  659TMC3    C4 9752   3.669   0.328  15.044  0.5485 -0.1675 -0.1497
  659TMC3    C5 9753   3.570   0.409  15.087  0.1994  0.1048 -0.0086
  659TMC3    C6 9754   3.571   0.447  15.218 -0.7630 -0.7836  0.1511
  659TMC3     C 9755   3.879   0.210  15.080  0.0739 -0.0909 -0.6172
  659TMC3     O 9756   3.918   0.115  15.145  0.8856 -0.5366  0.4000
  659TMC3     H 9757   3.840   0.255  15.327 -0.4047 -0.0992  0.7060
  659TMC3    H1 9758   3.675   0.299  14.939  0.4219  0.3893 -0.3077
  659TMC3    H2 9759   3.487   0.502  15.259  2.2527  0.6225  4.3203
  659TMC3    C7 9760   3.457   0.449  15.004  0.1283 -0.6010  0.2797
  659TMC3    C8 9761   3.680   0.479  15.425  0.8009  0.1010 -0.0575
  659TMC3    O1 9762   3.395   0.552  15.039  0.2968 -0.0191 -0.1102
  659TMC3    O2 9763   3.610   0.581  15.433 -0.5168 -0.6981 -0.2872
  660MPD2     C 9764   2.450   3.451  12.653  0.4565  0.0520  0.1200
  660MPD2    C1 9765   2.317   3.484  12.626 -0.0377  0.0720  0.4759
  660MPD2    C2 9766   2.227   3.458  12.727 -0.8814  0.2403  0.5571
  660MPD2    C3 9767   2.273   3.409  12.854  0.2979 -0.3335 -0.4373
  660MPD2    C4 9768   2.403   3.370  12.862 -0.5084 -0.5267  0.3110
  660MPD2    C5 9769   2.495   3.395  12.772  0.4642 -0.5856  0.8781
  660MPD2     H 9770   2.125   3.493  12.713 -1.3900 -0.8127  1.6565
  660MPD2    H1 9771   2.435   3.325  12.956  0.0457  0.8582  0.7729
  660MPD2    H2 9772   2.518   3.458  12.569  1.6389 -2.1821  0.9065
  660MPD2    H3 9773   2.602   3.376  12.778  0.4083 -0.4329  2.3805
  660MPD2     N 9774   2.186   3.388  12.966  0.1213  0.5416  0.2666
  660MPD2    H5 9775   2.236   3.361  13.050  0.4179 -1.1004 -0.4308
  660MPD2    N1 9776   2.287   3.546  12.500 -0.5464 -0.1197  0.4250
  660MPD2    H7 9777   2.368   3.560  12.441 -0.1372  0.2072  1.0655
  661TMC3    C1 9778   2.151   3.643  12.329  0.0498  0.5423 -0.6305
  661TMC3    C2 9779   2.235   3.603  12.229  0.0180  0.0083  0.0855
  661TMC3    C3 9780   2.212   3.651  12.101  0.5282 -0.0331 -0.6056
  661TMC3    C4 9781   2.043   3.720  12.299  0.4239 -0.0747 -0.4345
  661TMC3    C5 9782   2.022   3.764  12.173  0.0798  0.1703  0.4206
  661TMC3    C6 9783   2.105   3.734  12.069 -0.1448 -0.0785 -0.3149
  661TMC3     C 9784   2.163   3.596  12.461 -0.0272  0.4597 -0.0642
  661TMC3     O 9785   2.051   3.583  12.512 -0.8567 -0.0165  0.2687
  661TMC3     H 9786   2.328   3.554  12.256  0.3601  0.8629  0.4577
  661TMC3    H1 9787   1.971   3.744  12.376  1.1614 -0.7301  0.4623
  661TMC3    H2 9788   2.089   3.771  11.969  1.1329  0.7527 -0.2111
  661TMC3    C7 9789   1.886   3.826  12.138 -0.3428 -0.3459  0.6238
  661TMC3    C8 9790   2.313   3.624  11.997  0.0087  0.7191  0.0193
  661TMC3    O1 9791   1.824   3.881  12.230 -0.1397  0.2034 -0.5175
  661TMC3    O2 9792   2.279   3.657  11.888 -0.4001  0.2100  0.7057
  662MPD2     C 9793   2.044   3.772  16.997 -0.4852 -0.2151  0.2991
  662MPD2    C1 9794   2.042   3.840  17.123  0.2904  0.0854 -0.3617
  662MPD2    C2 9795   1.967   3.955  17.140 -0.2845 -0.0869 -0.1639
  662MPD2    C3 9796   1.890   3.999  17.038 -0.2187  0.0668 -0.2284
  662MPD2    C4 9797   1.887   3.938  16.915  0.6960 -0.0079  0.5090
  662MPD2    C5 9798   1.962   3.826  16.895  0.2666  0.2210  0.1420
  662MPD2     H 9799   1.961   3.994  17.241  1.2880  1.1922 -0.5533
  662MPD2    H1 9800   1.827   3.990  16.841  0.1805 -1.5065 -0.1174
  662MPD2    H2 9801   2.092   3.674  16.995 -1.6990 -0.7917 -0.3472
  662MPD2    H3 9802   1.972   3.784  16.796  1.2283  3.8122 -1.2594
  662MPD2     N 9803   1.808   4.112  17.059 -0.2995  0.2518 -0.7305
  662MPD2    H5 9804   1.727   4.118  16.997  0.1690  0.9659 -1.2819
  662MPD2    N1 9805   2.110   3.805  17.241  0.0511 -0.4904  0.0723
  662MPD2    H7 9806   2.101   3.873  17.315  0.0403 -0.4289  0.0151
  663TMC3    C1 9807   2.219   3.672  17.389 -0.6158  0.0354 -0.5113
  663TMC3    C2 9808   2.225   3.787  17.464  0.5354 -0.7929  0.2029
  663TMC3    C3 9809   2.249   3.782  17.596  0.6498 -0.0390 -0.4027
  663TMC3    C4 9810   2.201   3.550  17.447  0.5454 -0.3911  0.1338
  663TMC3    C5 9811   2.220   3.544  17.580 -1.5049  0.1509 -0.4070
  663TMC3    C6 9812   2.227   3.658  17.662 -0.2569  0.1969  0.2411
  663TMC3     C 9813   2.183   3.687  17.248  0.4198 -0.2355  0.0099
  663TMC3     O 9814   2.188   3.587  17.177 -0.3589  0.3385 -0.1048
  663TMC3     H 9815   2.253   3.880  17.416 -1.0012 -0.6876 -0.5043
  663TMC3    H1 9816   2.190   3.465  17.381  0.1385 -1.3136  1.3862
  663TMC3    H2 9817   2.254   3.651   0.074  0.7867  4.0203  0.2020
  663TMC3    C7 9818   2.256   3.425  17.649 -0.1433  0.4882 -1.0501
  663TMC3    C8 9819   2.192   3.901  17.663 -0.1635  0.0665 -0.4665
  663TMC3    O1 9820   2.335   3.432   0.051  0.7492 -0.2568  0.4172
  663TMC3    O2 9821   2.199   4.006  17.599  0.4172 -0.7972  0.0061
  664MPD2     C 9822   0.552   1.867  17.660  0.1003 -1.0488 -0.0619
  664MPD2    C1 9823   0.627   1.976  17.650 -0.2488  0.4701 -0.1638
  664MPD2    C2 9824   0.691   2.031   0.065 -0.2026 -0.1263 -0.2681
  664MPD2    C3 9825   0.676   1.982   0.195 -0.3887 -0.4325  0.5337
  664MPD2    C4 9826   0.599   1.869   0.207  0.4147  0.6648  0.2608
  664MPD2    C5 9827   0.544   1.810   0.092  0.5997  0.1496  0.3963
  664MPD2     H 9828   0.749   2.122   0.055  0.6873 -0.7613 -0.8635
  664MPD2    H1 9829   0.587   1.824   0.305  0.6053 -0.3461 -0.1806
  664MPD2    H2 9830   0.492   1.825  17.581  2.2422 -0.3159 -2.0749
  664MPD2    H3 9831   0.483   1.720   0.096 -0.3040  0.7579  0.4544
  664MPD2     N 9832   0.731   2.059   0.301 -0.2973  0.5560 -0.5613
  664MPD2    H5 9833   0.779   2.144   0.273 -0.4563  0.9062  0.2455
  664MPD2    N1 9834   0.649   2.041  17.528 -0.4263  0.3441 -0.1240
  664MPD2    H7 9835   0.717   2.117  17.521  1.8937 -1.5174  1.9279
  665TMC3    C1 9836   0.779   2.126   0.531  0.6924  0.4746 -0.2078
  665TMC3    C2 9837   0.836   2.078   0.643 -0.6513  0.1292  0.6240
  665TMC3    C3 9838   0.837   2.170   0.743  0.0416 -0.5759 -0.1134
  665TMC3    C4 9839   0.730   2.253   0.502  0.3526  0.3364 -0.2741
  665TMC3    C5 9840   0.739   2.337   0.610  0.0475  0.0889  0.6082
  665TMC3    C6 9841   0.788   2.302   0.731 -1.0773 -0.5709  0.4559
  665TMC3     C 9842   0.717   2.030   0.438 -0.5855 -0.1215 -0.2756
  665TMC3     O 9843   0.671   1.934   0.493  0.2808 -0.4923 -0.1418
  665TMC3     H 9844   0.865   1.974   0.657  0.4012  0.2170 -0.8461
  665TMC3    H1 9845   0.689   2.281   0.406  2.7430 -1.9620 -1.9591
  665TMC3    H2 9846   0.804   2.374   0.810  1.0672 -0.5020 -0.0395
  665TMC3    C7 9847   0.653   2.447   0.597 -1.0053 -0.6739  0.2106
  665TMC3    C8 9848   0.866   2.122   0.880  0.5306  0.1325  0.2696
  665TMC3    O1 9849   0.644   2.507   0.492  0.3718  0.0361 -0.0049
  665TMC3    O2 9850   0.857   2.207   0.965 -0.2147 -0.0725 -0.0492
  666TMC3    C1 9851   4.652   1.659   9.530  0.0780  0.1896  0.9865
  666TMC3    C2 9852   0.008   1.600   9.622 -0.6220  0.4291 -0.2961
  666TMC3    C3 9853   0.106   1.679   9.689  0.2905  0.3009  0.5688
  666TMC3    C4 9854   4.651   1.795   9.508  0.2152 -0.3520 -0.4297
  666TMC3    C5 9855   0.008   1.875   9.589  0.0461  0.5285  1.0464
  666TMC3    C6 9856   0.097   1.815   9.676  0.1935  0.0079  0.5273
  666TMC3     C 9857   4.559   1.579   9.457  0.0589  0.6297 -0.4803
  666TMC3     O 9858   4.517   1.620   9.350  0.3856  0.0361 -0.8704
  666TMC3     H 9859   0.017   1.493   9.634  2.4410  0.8380  1.1313
  666TMC3    H1 9860   4.575   1.839   9.445  0.9622  0.3092 -0.8575
  666TMC3    H2 9861   0.147   1.887   9.740 -0.5882  0.8977  0.1423
  666TMC3    C7 9862   4.660   2.002   9.628 -0.6158  0.4464  0.2345
  666TMC3    C8 9863   0.152   1.637   9.817 -0.6663 -0.2169  0.1456
  666TMC3    O1 9864   4.540   2.012   9.607 -0.6287 -0.0626  0.2478
  666TMC3    O2 9865   0.083   1.556   9.879 -0.1223 -0.6101 -0.0570
  667MPD2     C 9866   1.510   2.018  14.611 -0.3373 -0.9751  0.8548
  667MPD2    C1 9867   1.398   2.044  14.683 -0.6499  0.2175  0.0841
  667MPD2    C2 9868   1.285   1.958  14.677 -0.0058 -0.1326  0.6040
  667MPD2    C3 9869   1.303   1.842  14.607 -0.2502  0.8480  0.2626
  667MPD2    C4 9870   1.412   1.815  14.535  0.1434  0.0945 -0.5733
  667MPD2    C5 9871   1.512   1.904  14.534  0.3647  0.3492  0.1219
  667MPD2     H 9872   1.194   1.993  14.724 -0.7084  0.3450 -1.1171
  667MPD2    H1 9873   1.416   1.725  14.476  1.2805 -1.0174  1.1839
  667MPD2    H2 9874   1.601   2.077  14.621  1.7611 -3.7842 -1.7875
  667MPD2    H3 9875   1.602   1.868  14.484 -1.1241  0.0679 -2.3546
  667MPD2     N 9876   1.195   1.750  14.607 -0.1116 -0.1777  0.2650
  667MPD2    H5 9877   1.209   1.676  14.538 -1.3467 -0.7698  0.6563
  667MPD2    N1 9878   1.387   2.154  14.764  0.2665  0.5231 -0.4993
  667MPD2    H7 9879   1.310   2.147  14.829  3.2296  0.6305  3.0209
  668TMC3    C1 9880   1.449   2.342  14.888 -0.0888 -0.6021 -0.1409
  668TMC3    C2 9881   1.503   2.467  14.877  0.4890  0.4307  0.3662
  668TMC3    C3 9882   1.472   2.559  14.976 -1.0122  0.1044  0.9932
  668TMC3    C4 9883   1.370   2.310  14.986 -0.6256 -0.2348  0.0188
  668TMC3    C5 9884   1.336   2.405  15.079 -0.0554  0.2062 -0.3002
  668TMC3    C6 9885   1.390   2.527  15.081 -0.4204  0.0920  0.0226
  668TMC3     C 9886   1.481   2.254  14.777 -0.5076  0.5389  0.1840
  668TMC3     O 9887   1.576   2.289  14.708  0.0486 -0.2059  0.0700
  668TMC3     H 9888   1.579   2.493  14.805  1.0364  2.2203  1.6082
  668TMC3    H1 9889   1.354   2.205  15.006 -0.8775 -0.1797  0.1009
  668TMC3    H2 9890   1.362   2.600  15.156 -1.2122  0.3535 -0.5229
  668TMC3    C7 9891   1.257   2.367  15.192 -0.5029 -0.2013  0.0153
  668TMC3    C8 9892   1.537   2.693  14.978 -0.3765 -0.4802  0.1754
  668TMC3    O1 9893   1.227   2.447  15.278 -0.6110 -0.3681  0.4392
  668TMC3    O2 9894   1.498   2.761  15.070 -0.2393 -0.2497 -1.0240
  669TMC3    C1 9895   4.354   1.444  14.415 -0.1215  0.2111  0.3554
  669TMC3    C2 9896   4.265   1.421  14.315  0.2425  0.0504  0.3936
  669TMC3    C3 9897   4.266   1.503  14.205 -0.1189  0.4188  0.4104
  669TMC3    C4 9898   4.444   1.544  14.406  0.1432 -0.2047  1.3490
  669TMC3    C5 9899   4.457   1.610  14.287 -0.1118 -0.3892 -0.4226
  669TMC3    C6 9900   4.365   1.595  14.188  0.4829  0.4806  0.9413
  669TMC3     C 9901   4.338   1.368  14.531 -0.3278 -0.0779  0.1702
  669TMC3     O 9902   4.246   1.292  14.537  0.4676  0.2160  0.1972
  669TMC3     H 9903   4.203   1.334  14.330  3.1884 -1.5418  3.1527
  669TMC3    H1 9904   4.506   1.580  14.487  1.1225 -0.2986  0.6493
  669TMC3    H2 9905   4.373   1.662  14.103 -0.4269 -1.3586 -0.6036
  669TMC3    C7 9906   4.569   1.692  14.264 -0.1014  0.1842  0.0450
  669TMC3    C8 9907   4.146   1.516  14.126  0.0365 -0.3813  0.1450
  669TMC3    O1 9908   4.555   1.787  14.188 -0.0827  0.7266  0.3362
  669TMC3    O2 9909   4.049   1.462  14.178  0.5202 -0.4219 -0.0412
  670MPD2     C 9910   3.109   3.631  13.015  0.8157 -0.3286  0.4911
  670MPD2    C1 9911   3.092   3.767  13.036 -0.6884  0.3179 -0.3119
  670MPD2    C2 9912   3.022   3.813  13.142 -0.5891  1.2524 -0.6396
  670MPD2    C3 9913   2.988   3.731  13.246  0.9006  0.1320 -0.5431
  670MPD2    C4 9914   3.014   3.595  13.234 -0.4929 -0.1448  0.9619
  670MPD2    C5 9915   3.073   3.547  13.117 -0.1984  0.3906  0.4432
  670MPD2     H 9916   2.998   3.918  13.151  1.7270  1.6937  0.4126
  670MPD2    H1 9917   2.994   3.525  13.313 -2.0666 -2.5056 -1.5423
  670MPD2    H2 9918   3.154   3.593  12.924  0.3329 -2.0765  0.9896
  670MPD2    H3 9919   3.087   3.440  13.110  1.5153  0.5857  0.8143
  670MPD2     N 9920   2.932   3.790  13.363 -0.0835 -0.8729  0.1110
  670MPD2    H5 9921   2.922   3.891  13.352  0.9320 -0.6873  0.8187
  670MPD2    N1 9922   3.129   3.855  12.933 -0.6800 -0.0920 -0.0733
  670MPD2    H7 9923   3.110   3.955  12.939 -4.8840 -0.8598 -0.7608
  671TMC3    C1 9924   2.848   3.808  13.582 -0.3989 -0.3572  0.4887
  671TMC3    C2 9925   2.873   3.808  13.711 -0.2009 -0.1259 -0.0970
  671TMC3    C3 9926   2.817   3.894  13.800  0.2841  0.2338  0.4838
  671TMC3    C4 9927   2.765   3.899  13.530 -0.1125 -0.7007 -0.2605
  671TMC3    C5 9928   2.706   3.990  13.618 -0.3204  0.3641 -0.1907
  671TMC3    C6 9929   2.729   3.992  13.757  0.2401 -0.3534 -0.3695
  671TMC3     C 9930   2.922   3.733  13.487 -0.2411  0.6200 -0.1733
  671TMC3     O 9931   2.968   3.625  13.523  0.7151  0.1539 -0.5018
  671TMC3     H 9932   2.918   3.715  13.742  1.5535  0.7499 -0.0138
  671TMC3    H1 9933   2.729   3.899  13.428  0.6246 -3.1166 -0.5044
  671TMC3    H2 9934   2.685   4.053  13.835  1.9295  0.1265  0.2186
  671TMC3    C7 9935   2.569   3.991  13.587  0.3399  0.8838  0.3508
  671TMC3    C8 9936   2.809   3.863  13.944  0.0449  0.2170  0.5092
  671TMC3    O1 9937   2.522   3.908  13.506  0.6490 -0.2245 -0.0046
  671TMC3    O2 9938   2.757   3.946  14.015  0.0528 -0.3232  0.2457
  672MPD2     C 9939   1.783   0.256   1.301  0.8291  0.2295  0.5425
  672MPD2    C1 9940   1.857   0.324   1.203  0.1193 -0.7236 -1.2344
  672MPD2    C2 9941   1.937   0.429   1.236 -0.4540 -0.1697  0.1181
  672MPD2    C3 9942   1.959   0.460   1.370 -0.0774 -0.1276 -0.0221
  672MPD2    C4 9943   1.867   0.411   1.460 -0.2623  0.0103  0.2974
  672MPD2    C5 9944   1.783   0.310   1.425 -0.2282  0.4275  0.0563
  672MPD2     H 9945   1.987   0.485   1.158  0.7645 -2.2987 -0.6276
  672MPD2    H1 9946   1.864   0.458   1.558  0.5822 -0.4830  0.5625
  672MPD2    H2 9947   1.709   0.180   1.277  0.8046  0.7171 -0.9004
  672MPD2    H3 9948   1.715   0.267   1.497  0.2547 -4.9234 -2.6347
  672MPD2     N 9949   2.066   0.545   1.397 -0.2409  0.8751  0.1722
  672MPD2    H5 9950   2.111   0.588   1.317  0.3646 -1.1342 -0.5666
  672MPD2    N1 9951   1.857   0.272   1.069 -0.2384 -0.4585  0.6499
  672MPD2    H7 9952   1.918   0.329   1.013  1.6195 -1.6205  1.4770
  673TMC3    C1 9953   1.868   0.115   0.895  0.4725 -0.5086  0.7191
  673TMC3    C2 9954   1.939   4.720   0.878 -0.5513  0.2705  0.5291
  673TMC3    C3 9955   1.989   4.694   0.754  0.2238  0.7780  0.0889
  673TMC3    C4 9956   1.851   0.208   0.802 -0.0914 -0.2644  0.4043
  673TMC3    C5 9957   1.895   0.174   0.675  0.0022 -0.2294 -0.3060
  673TMC3    C6 9958   1.963   0.058   0.652 -0.4706 -0.2041  0.6125
  673TMC3     C 9959   1.814   0.146   1.024  0.3526  0.4222 -1.3306
  673TMC3     O 9960   1.744   0.061   1.071  0.4477 -0.7616  0.3123
  673TMC3     H 9961   1.959   4.654   0.962  0.4329  2.3511  1.9423
  673TMC3    H1 9962   1.781   0.286   0.826  0.5883  0.3317  0.4478
  673TMC3    H2 9963   1.996   0.038   0.551  1.3466 -1.4691  1.4492
  673TMC3    C7 9964   1.840   0.225   0.558  0.0874 -0.4490 -0.2355
  673TMC3    C8 9965   2.110   4.618   0.742 -0.6394 -0.6512  0.5245
  673TMC3    O1 9966   1.830   0.140   0.466 -0.1375 -0.3581  0.5609
  673TMC3    O2 9967   2.148   4.598   0.627 -0.9738 -0.1206 -0.3367
  674MPD2     C 9968   2.224   0.385   0.058 -1.3031  0.2103 -0.1136
  674MPD2    C1 9969   2.127   0.293   0.029  0.5467 -0.0729 -0.6757
  674MPD2    C2 9970   2.021   0.328  17.636 -0.1239 -0.5707  0.0230
  674MPD2    C3 9971   2.015   0.453  17.584  0.3609 -0.4942 -0.1348
  674MPD2    C4 9972   2.125   0.537  17.602  0.2695 -0.2395 -0.0316
  674MPD2    C5 9973   2.229   0.501  17.678 -0.3194 -0.0133  0.4749
  674MPD2     H 9974   1.942   0.257  17.617  0.2996 -0.4074 -2.3628
  674MPD2    H1 9975   2.125   0.632  17.549  0.6351  1.2656  2.7095
  674MPD2    H2 9976   2.310   0.364   0.121  0.0718 -0.4585 -2.1968
  674MPD2    H3 9977   2.311   0.569   0.006 -0.8848  0.3453  1.6030
  674MPD2     N 9978   1.896   0.494  17.517  0.8176  0.1335  0.4635
  674MPD2    H5 9979   1.829   0.420  17.498  1.5000 -0.4744  0.4103
  674MPD2    N1 9980   2.126   0.173   0.113 -0.1367 -0.8615  0.1624
  674MPD2    H7 9981   2.204   0.166   0.177  1.1714 -0.9561 -1.4328
  675TMC3    C1 9982   2.042   4.702   0.225 -0.8534  0.4253 -0.7799
  675TMC3    C2 9983   1.933   4.633   0.259 -0.0699  0.1942 -0.5405
  675TMC3    C3 9984   1.950   4.505   0.308  0.1962 -0.7311  0.0515
  675TMC3    C4 9985   2.171   4.648   0.240 -0.2481  0.2462 -0.1653
  675TMC3    C5 9986   2.179   4.525   0.304  0.2855 -0.2915 -0.5566
  675TMC3    C6 9987   2.075   4.448   0.326  0.3571  0.1556 -0.3576
  675TMC3     C 9988   2.018   0.091   0.130 -0.5695  1.2176  0.5420
  675TMC3     O 9989   1.914   0.078   0.067 -0.5488  0.5500  0.0126
  675TMC3     H 9990   1.833   4.673   0.247 -0.7391 -1.8033 -1.5841
  675TMC3    H1 9991   2.255   4.698   0.193  0.1126  0.6341  0.8997
  675TMC3    H2 9992   2.092   4.344   0.350  3.1155  0.5413 -0.5527
  675TMC3    C7 9993   2.310   4.488   0.359 -0.8717 -0.2019 -0.0704
  675TMC3    C8 9994   1.861   4.468   0.414 -0.2748  0.2454  0.7247
  675TMC3    O1 9995   2.331   4.370   0.390 -0.0161 -0.0870 -0.2274
  675TMC3    O2 9996   1.749   4.518   0.426 -0.1079  0.2074  0.1836
  676MPD2     C 9997   0.180   3.059  10.933 -0.6214 -1.0820  0.5187
  676MPD2    C1 9998   0.141   2.985  11.043 -0.3148 -0.2745  0.1981
  676MPD2    C2 9999   0.148   2.845  11.038  0.2005  0.6133  0.4005
  676MPD2    C310000   0.198   2.784  10.924  0.4699  0.2237 -0.2112
  676MPD2    C410001   0.220   2.865  10.813  0.7722 -0.6197  0.2462
  676MPD2    C510002   0.217   3.000  10.820  0.2089 -0.2699  0.2276
  676MPD2     H10003   0.120   2.794  11.130 -0.7642  2.6592  1.2459
  676MPD2    H110004   0.258   2.834  10.716  1.1935 -2.5559  1.0183
  676MPD2    H210005   0.195   3.166  10.942  0.0508 -1.0360 -1.3313
  676MPD2    H310006   0.239   3.061  10.734 -3.3505 -0.6530 -0.9769
  676MPD2     N10007   0.230   2.646  10.907  0.4935 -0.3190  0.4406
  676MPD2    H510008   0.282   2.622  10.824 -1.6122 -2.6953 -0.1850
  676MPD2    N110009   0.106   3.045  11.166 -0.0632  0.1813  0.2455
  676MPD2    H710010   0.081   2.973  11.233  3.8740 -3.0881 -1.8124
  677TMC3    C110011   0.073   3.212  11.341 -0.3112 -0.1491  0.2809
  677TMC3    C210012   4.697   3.140  11.391  0.1496  0.1065 -0.3153
  677TMC3    C310013   4.680   3.160  11.527  0.1037 -0.3242  0.5476
  677TMC3    C410014   0.135   3.320  11.405 -0.2410 -0.2460 -0.1737
  677TMC3    C510015   0.106   3.343  11.537 -0.0574  0.0453  0.8617
  677TMC3    C610016   0.009   3.260  11.598 -0.4042 -0.1944 -0.4142
  677TMC3     C10017   0.127   3.173  11.208 -0.2913  0.1042  0.4082
  677TMC3     O10018   0.180   3.265  11.147 -0.0657 -0.4812 -0.3917
  677TMC3     H10019   4.641   3.063  11.339 -0.1378 -0.2905  0.5660
  677TMC3    H110020   0.214   3.381  11.362  0.4130 -1.3641 -0.5607
  677TMC3    H210021   4.702   3.264  11.702  0.8856 -0.4028 -0.0357
  677TMC3    C710022   0.214   3.363  11.631 -0.5945  0.4143 -0.1472
  677TMC3    C810023   4.605   3.053  11.585 -0.0102 -0.2639  0.0008
  677TMC3    O110024   0.191   3.341  11.747 -0.2605  0.7720  0.4068
  677TMC3    O210025   4.488   3.033  11.540  0.0387  0.0818 -0.2350
  678MPD2     C10026   1.528   3.116   1.835 -0.1901  0.2224 -0.0775
  678MPD2    C110027   1.532   3.048   1.714 -0.2269 -0.1428  0.4156
  678MPD2    C210028   1.415   2.992   1.660 -0.3743 -0.2438 -0.6636
  678MPD2    C310029   1.296   2.994   1.727 -0.2626 -0.4675  0.2447
  678MPD2    C410030   1.297   3.056   1.855  0.1737  0.2156  0.1389
  678MPD2    C510031   1.408   3.106   1.909 -0.1278 -0.0466  0.1702
  678MPD2     H10032   1.414   2.947   1.562 -0.7144  0.4901 -0.9970
  678MPD2    H110033   1.206   3.056   1.915  0.8721  1.3170  1.1971
  678MPD2    H210034   1.606   3.176   1.879  1.3015  0.6052 -3.2307
  678MPD2    H310035   1.395   3.163   2.001 -0.9281 -0.9159  0.6007
  678MPD2     N10036   1.182   2.941   1.661  0.0461  0.5601  0.0523
  678MPD2    H510037   1.199   2.896   1.572 -0.6606  1.8244 -0.6998
  678MPD2    N110038   1.646   3.057   1.634  0.0207 -0.2966  0.3183
  678MPD2    H710039   1.626   3.022   1.541 -0.2819  2.1629 -0.5291
  679TMC3    C110040   1.976   2.987   1.379 -0.3256  0.7695 -0.4575
  679TMC3    C210041   1.874   2.991   1.475  0.5637 -0.6695  0.8040
  679TMC3    C310042   1.863   3.103   1.558  0.4072 -0.5841  0.0413
  679TMC3    C410043   2.055   3.099   1.378  0.1793 -0.6806  1.1640
  679TMC3    C510044   2.049   3.204   1.461  0.3462 -0.4030  0.0758
  679TMC3    C610045   1.954   3.205   1.560 -0.2037  1.1643 -0.4223
  679TMC3     C10046   1.977   2.892   1.266 -0.4701 -0.4224  0.2867
  679TMC3     O10047   2.079   2.860   1.208  0.2231  0.4523 -0.2628
  679TMC3     H10048   1.817   2.899   1.486  0.5683 -0.9801 -1.5683
  679TMC3    H110049   2.148   3.079   1.327 -0.5003 -1.3697  0.1985
  679TMC3    H210050   1.943   3.280   1.636  0.7008  0.1826  0.6742
  679TMC3    C710051   2.063   3.333   1.393 -0.8337  0.9663 -0.0345
  679TMC3    C810052   1.759   3.122   1.668 -0.1708  0.0011 -0.0403
  679TMC3    O110053   1.976   3.415   1.408  0.5668  0.1964  0.1099
  679TMC3    O210054   1.803   3.173   1.769  0.1629 -0.1417 -0.4426
  680MPD2     C10055   2.594   0.806  13.763 -0.3068 -0.1726  0.1267
  680MPD2    C110056   2.479   0.878  13.741  0.4307 -0.2915 -0.1283
  680MPD2    C210057   2.478   1.009  13.787  0.3255  0.5685 -0.6943
  680MPD2    C310058   2.586   1.066  13.852 -0.5414 -0.1441  0.1494
  680MPD2    C410059   2.699   0.994  13.877  0.4310 -0.5835  0.4639
  680MPD2    C510060   2.703   0.871  13.821  0.0269  0.4352  0.0533
  680MPD2     H10061   2.397   1.076  13.764  2.2637  2.1917 -2.8372
  680MPD2    H110062   2.787   1.041  13.920 -2.0329  4.1481  0.2994
  680MPD2    H210063   2.589   0.702  13.732 -0.3542 -0.5130  1.2783
  680MPD2    H310064   2.792   0.810  13.830 -0.3946 -0.2737 -0.6139
  680MPD2     N10065   2.579   1.204  13.899  0.3287 -0.8824 -0.3404
  680MPD2    H510066   2.661   1.256  13.929  0.5600 -0.7492 -1.1820
  680MPD2    N110067   2.354   0.840  13.681 -0.2886  0.0812 -0.2441
  680MPD2    H710068   2.280   0.908  13.669  1.3513  1.8707 -0.1935
  681TMC3    C110069   2.193   0.717  13.576 -0.2053 -0.6111 -0.2118
  681TMC3    C210070   2.096   0.764  13.655 -0.9205 -0.2760 -0.0611
  681TMC3    C310071   1.967   0.745  13.608 -0.6188 -0.5947 -0.5780
  681TMC3    C410072   2.179   0.643  13.461  0.0007 -0.1108 -0.1351
  681TMC3    C510073   2.052   0.631  13.425  0.3344  0.3945  0.7808
  681TMC3    C610074   1.942   0.677  13.497 -0.1058  0.0560 -0.2139
  681TMC3     C10075   2.325   0.715  13.624 -0.4445  0.0550 -0.5258
  681TMC3     O10076   2.408   0.628  13.594  0.1900  0.0433 -0.2057
  681TMC3     H10077   2.115   0.803  13.755  2.4705  0.7039 -1.1074
  681TMC3    H110078   2.256   0.576  13.424 -1.1171 -0.1895 -2.2971
  681TMC3    H210079   1.844   0.675  13.450 -0.2499 -1.0475  0.1384
  681TMC3    C710080   2.041   0.634  13.279  0.4996 -0.4733 -0.3405
  681TMC3    C810081   1.850   0.794  13.678 -0.5133  0.1234 -0.3853
  681TMC3    O110082   1.943   0.572  13.243  0.0569  0.3128 -0.3645
  681TMC3    O210083   1.740   0.773  13.632 -0.2571  0.1543 -1.1285
  682MPD2     C10084   4.188   2.651  10.652 -1.2286  0.2620 -0.0094
  682MPD2    C110085   4.171   2.519  10.617  0.2847  0.1187  0.5055
  682MPD2    C210086   4.193   2.423  10.712 -0.0893 -0.1012 -1.2113
  682MPD2    C310087   4.223   2.455  10.843  0.1334 -0.2956  0.2911
  682MPD2    C410088   4.215   2.588  10.884 -0.1203  0.1994 -0.2502
  682MPD2    C510089   4.188   2.682  10.783 -0.1274  0.0313  0.3118
  682MPD2     H10090   4.180   2.321  10.677 -2.8872  0.2157 -1.1033
  682MPD2    H110091   4.239   2.627  10.983  1.7329  1.0990 -1.0665
  682MPD2    H210092   4.182   2.734  10.582 -1.5293  0.5249  0.3290
  682MPD2    H310093   4.175   2.786  10.812 -2.4179 -0.3897  0.8167
  682MPD2     N10094   4.252   2.358  10.941 -0.6691 -0.3202 -0.2690
  682MPD2    H510095   4.247   2.389  11.038 -2.6413  0.1959 -0.5426
  682MPD2    N110096   4.139   2.494  10.480  0.3809  0.2479  0.2203
  682MPD2    H710097   4.131   2.573  10.417  0.1479  0.3182  0.3377
  683TMC3    C110098   4.276   2.089  11.266 -0.2019  0.0264 -0.4747
  683TMC3    C210099   4.179   1.994  11.261 -0.1288  0.2596  0.4532
  683TMC3    C310100   4.121   1.975  11.137 -0.2899  0.7773 -0.4506
  683TMC3    C410101   4.309   2.176  11.168 -0.4944  0.0702  0.8487
  683TMC3    C510102   4.247   2.151  11.050  1.3313 -0.7656 -0.1550
  683TMC3    C610103   4.161   2.043  11.029  0.7740  0.1276  0.1177
  683TMC3     C10104   4.341   2.119  11.398 -0.0582 -0.5869 -0.3315
  683TMC3     O10105   4.392   2.228  11.412  0.0265  0.1334  0.5135
  683TMC3     H10106   4.134   1.958  11.352  0.7035 -2.8162 -0.3802
  683TMC3    H110107   4.381   2.257  11.171  2.2362 -2.4444  2.4710
  683TMC3    H210108   4.108   2.035  10.934  0.5929 -2.1519  0.4236
  683TMC3    C710109   4.266   2.221  10.924 -0.9914 -0.0562  0.1284
  683TMC3    C810110   3.993   1.901  11.128 -0.2718  0.3978 -0.2944
  683TMC3    O110111   4.275   2.154  10.827  0.1320  0.1753 -0.5320
  683TMC3    O210112   3.932   1.908  11.023  0.3796 -0.0220  0.7533
  684MPD2     C10113   2.497   2.410  15.999  0.2309 -0.3758  0.8208
  684MPD2    C110114   2.366   2.444  15.977  0.5400 -0.2768 -0.6041
  684MPD2    C210115   2.309   2.554  16.045 -0.2454 -0.3060 -0.9165
  684MPD2    C310116   2.381   2.635  16.135  0.2605 -1.6257  0.0949
  684MPD2    C410117   2.514   2.602  16.150 -0.8733  0.6950 -0.3986
  684MPD2    C510118   2.563   2.486  16.081 -0.2520  0.2107  0.6212
  684MPD2     H10119   2.203   2.569  16.025 -0.5417 -0.9910  0.1174
  684MPD2    H110120   2.590   2.651  16.209 -0.3425 -1.4434  0.6837
  684MPD2    H210121   2.549   2.327  15.953 -1.2099  0.1387 -1.7046
  684MPD2    H310122   2.667   2.475  16.107 -0.4696 -1.3602  0.7837
  684MPD2     N10123   2.328   2.746  16.202 -0.0755 -0.6401  0.3594
  684MPD2    H510124   2.396   2.806  16.246 -0.8265 -0.3161  1.0903
  684MPD2    N110125   2.278   2.366  15.897  0.4328  0.3634 -0.4150
  684MPD2    H710126   2.179   2.391  15.899  0.9434  2.2777  0.9235
  685TMC3    C110127   2.210   2.184  15.759 -0.3514 -0.1374  0.3519
  685TMC3    C210128   2.090   2.167  15.820  0.1248 -0.4685  0.5470
  685TMC3    C310129   2.023   2.054  15.801  0.1438  0.1757 -0.1404
  685TMC3    C410130   2.256   2.107  15.654 -0.1558  0.4884  0.8493
  685TMC3    C510131   2.187   1.982  15.643 -0.0757 -0.0952 -0.0121
  685TMC3    C610132   2.071   1.958  15.715  0.2333  0.2482  0.5160
  685TMC3     C10133   2.314   2.267  15.812  0.0943  0.0465  0.8675
  685TMC3     O10134   2.429   2.243  15.769  0.6243  0.4527  0.0275
  685TMC3     H10135   2.062   2.229  15.905 -1.7612  1.4221 -1.4335
  685TMC3    H110136   2.339   2.139  15.593 -1.4583 -0.7208 -1.5764
  685TMC3    H210137   2.037   1.855  15.711 -2.0039  0.9774  0.7386
  685TMC3    C710138   2.279   1.865  15.636 -0.0680 -0.3849  0.2282
  685TMC3    C810139   1.877   2.057  15.782  0.6403  0.3265  0.6078
  685TMC3    O110140   2.240   1.752  15.619 -0.2673 -0.0157 -0.6805
  685TMC3    O210141   1.824   1.950  15.785 -0.2192  0.5517  0.3898
  686MPD2     C10142   3.644   2.050  15.052 -0.5807 -0.8544 -0.3996
  686MPD2    C110143   3.602   1.943  15.132 -0.0524  0.2813 -0.9244
  686MPD2    C210144   3.620   1.814  15.079  0.0578 -0.7048 -0.2532
  686MPD2    C310145   3.698   1.801  14.969  0.9161 -0.5716  0.0731
  686MPD2    C410146   3.745   1.902  14.890  0.1386  0.3397 -0.3451
  686MPD2    C510147   3.710   2.027  14.932 -0.8534 -0.0634 -0.3227
  686MPD2     H10148   3.573   1.737  15.140 -1.0465 -0.5672 -0.9338
  686MPD2    H110149   3.809   1.882  14.805 -2.4296  1.1786 -2.4667
  686MPD2    H210150   3.639   2.153  15.086 -1.6062 -0.7020 -1.0185
  686MPD2    H310151   3.757   2.114  14.887 -0.2972  0.4391  1.2420
  686MPD2     N10152   3.745   1.669  14.942 -0.2979 -0.3756 -0.6516
  686MPD2    H510153   3.826   1.663  14.883 -0.2960  0.3792 -0.7322
  686MPD2    N110154   3.560   1.975  15.266  0.8744  0.6430  0.0635
  686MPD2    H710155   3.542   2.073  15.284 -1.6572  0.6375 -2.4258
  687TMC3    C110156   3.804   1.464  15.047 -0.5237  0.6687 -0.2688
  687TMC3    C210157   3.749   1.361  15.115 -0.2069  1.2709 -0.1984
  687TMC3    C310158   3.788   1.326  15.241  0.6939  0.4927 -0.0726
  687TMC3    C410159   3.913   1.525  15.097  0.3078  0.2364 -0.1051
  687TMC3    C510160   3.965   1.490  15.222  0.0460 -0.9425  0.6693
  687TMC3    C610161   3.908   1.381  15.290 -0.4931 -0.8340 -0.2058
  687TMC3     C10162   3.699   1.555  15.008  0.0387  0.3832 -0.5973
  687TMC3     O10163   3.593   1.538  15.065  0.7861  0.4545 -0.1451
  687TMC3     H10164   3.666   1.313  15.063  1.4154 -1.4302 -0.2675
  687TMC3    H110165   3.969   1.604  15.049  0.2390 -0.0976 -0.7272
  687TMC3    H210166   3.934   1.359  15.392 -1.0651  1.1083  0.3584
  687TMC3    C710167   4.049   1.582  15.293 -0.3673 -0.1123 -0.7449
  687TMC3    C810168   3.683   1.328  15.341 -0.4472  0.2405  0.3265
  687TMC3    O110169   4.045   1.700  15.263 -0.5184  0.1963  0.3793
  687TMC3    O210170   3.704   1.281  15.455 -0.5016  0.2772  0.1926
  688MPD2     C10171   3.082   1.062  17.366  0.1219  0.5307  0.2386
  688MPD2    C110172   3.056   0.927  17.379  0.0900 -0.3755  0.5170
  688MPD2    C210173   3.160   0.839  17.338  0.7206  0.1562  0.0690
  688MPD2    C310174   3.264   0.884  17.259 -0.3409  0.1313 -0.0757
  688MPD2    C410175   3.274   1.018  17.243 -0.0690  0.1216  0.0724
  688MPD2    C510176   3.192   1.105  17.303 -0.7180 -0.1544  0.2030
  688MPD2     H10177   3.151   0.735  17.365  1.5668  0.2173  0.5674
  688MPD2    H110178   3.352   1.064  17.183  1.1789 -1.2991  0.6169
  688MPD2    H210179   3.017   1.133  17.417 -2.2317 -2.5012  1.4745
  688MPD2    H310180   3.207   1.211  17.282  0.8937 -0.4241 -0.0217
  688MPD2     N10181   3.359   0.797  17.194 -0.8767  0.1473 -0.2136
  688MPD2    H510182   3.419   0.838  17.123  0.4661 -0.7739  0.3978
  688MPD2    N110183   2.942   0.873  17.448 -0.3387  0.1501 -0.4193
  688MPD2    H710184   2.942   0.773  17.461 -1.7448  0.1592 -0.2906
  689TMC3    C110185   2.731   0.893  17.579 -0.6300  0.5844  0.1446
  689TMC3    C210186   2.666   0.978  17.666 -0.2609  0.4910 -0.3128
  689TMC3    C310187   2.584   0.922   0.063 -0.7832  0.2097 -0.2953
  689TMC3    C410188   2.718   0.759  17.584  0.2746 -0.0795 -0.1931
  689TMC3    C510189   2.630   0.712  17.674  0.0851 -0.3055  0.1398
  689TMC3    C610190   2.558   0.785   0.070 -0.1150 -0.6791 -0.5755
  689TMC3     C10191   2.839   0.951  17.494 -0.0496  0.2157 -0.2396
  689TMC3     O10192   2.823   1.069  17.472  0.0596  0.2146 -0.7568
  689TMC3     H10193   2.709   1.077  17.675 -2.1581  1.1515  1.6144
  689TMC3    H110194   2.764   0.702  17.504 -1.4567 -0.5325 -0.8607
  689TMC3    H210195   2.476   0.742   0.126 -0.2240 -2.1340 -1.8514
  689TMC3    C710196   2.613   0.571  17.688 -0.0880 -0.2118  0.2415
  689TMC3    C810197   2.526   1.017   0.165 -0.1342 -0.2783 -0.6541
  689TMC3    O110198   2.614   0.530   0.113 -0.4337  0.5523  0.1332
  689TMC3    O210199   2.485   0.976   0.272  0.1033 -0.0844 -0.6745
  690MPD2     C10200   0.395   2.990  15.877 -0.1019  0.2040 -0.1562
  690MPD2    C110201   0.344   2.954  15.753 -0.0139  0.5721 -0.5244
  690MPD2    C210202   0.407   3.009  15.642 -0.3517  0.3100  0.0686
  690MPD2    C310203   0.508   3.103  15.653 -0.2702  0.4719 -0.0313
  690MPD2    C410204   0.555   3.138  15.777 -0.0374  0.3202  0.0391
  690MPD2    C510205   0.491   3.088  15.885 -0.0932  0.1536 -0.4846
  690MPD2     H10206   0.376   2.981  15.542 -1.6072 -2.5746  1.2661
  690MPD2    H110207   0.630   3.214  15.793  0.9675 -0.4023 -1.2533
  690MPD2    H210208   0.355   2.947  15.968  0.9020 -1.3452 -0.4376
  690MPD2    H310209   0.522   3.120  15.984  1.2873 -1.2312 -0.4765
  690MPD2     N10210   0.579   3.142  15.535  0.0326 -0.0144 -0.6172
  690MPD2    H510211   0.563   3.096  15.446 -0.7673 -2.6246  0.8769
  690MPD2    N110212   0.249   2.853  15.731 -0.1080 -1.0251  0.4220
  690MPD2    H710213   0.225   2.836  15.634 -1.5105  0.6336  0.4753
  691TMC3    C110214   0.105   2.681  15.779  0.5318 -0.0390  0.0722
  691TMC3    C210215   0.027   2.701  15.670  1.0871  0.0279 -0.1551
  691TMC3    C310216   4.715   2.612  15.581  0.7697 -0.3938  0.5686
  691TMC3    C410217   0.138   2.555  15.806  0.6012  0.4837  0.1315
  691TMC3    C510218   0.097   2.460  15.722  0.3989 -0.0948  1.0138
  691TMC3    C610219   0.027   2.483  15.607 -0.1051  0.6990 -0.0794
  691TMC3     C10220   0.209   2.764  15.829  0.5135  0.0027 -0.5446
  691TMC3     O10221   0.263   2.742  15.933  0.0006  0.8455 -0.7395
  691TMC3     H10222   0.019   2.802  15.631 -1.0368  0.2008  0.6943
  691TMC3    H110223   0.218   2.534  15.876 -2.2453 -0.8204  3.0228
  691TMC3    H210224   0.003   2.403  15.538  0.1740  0.5122  0.0403
  691TMC3    C710225   0.157   2.336  15.756 -0.2197 -0.2739 -0.2695
  691TMC3    C810226   4.596   2.627  15.501  0.4582 -0.0262  0.0906
  691TMC3    O110227   0.269   2.339  15.811 -0.0451  0.3259 -0.9314
  691TMC3    O210228   4.578   2.551  15.408  0.4507 -0.3860 -0.2648
  692TMC3    C110229   1.820   3.908  15.735  0.5667  0.2528 -0.5524
  692TMC3    C210230   1.951   3.951  15.771  0.6276 -0.0871 -0.0003
  692TMC3    C310231   2.061   3.903  15.699  0.1612  0.1904 -0.2410
  692TMC3    C410232   1.796   3.800  15.659 -0.1742 -0.3154 -0.2693
  692TMC3    C510233   1.907   3.744  15.608 -0.1891  0.1789 -0.2860
  692TMC3    C610234   2.033   3.792  15.626 -0.5216  0.7272  0.0412
  692TMC3     C10235   1.715   3.966  15.817 -0.1197 -0.0773  0.0257
  692TMC3     O10236   1.612   3.905  15.841  0.0738  0.3293 -0.1772
  692TMC3     H10237   1.957   4.048  15.818 -0.6282  0.3413 -0.7207
  692TMC3    H110238   1.693   3.774  15.641  0.2734 -2.3235  0.0777
  692TMC3    H210239   2.123   3.740  15.594 -1.0095 -0.6860  0.9800
  692TMC3    C710240   1.903   3.600  15.584  0.3496 -0.5721 -0.1199
  692TMC3    C810241   2.181   3.878  15.782  0.1877 -0.3565  0.6505
  692TMC3    O110242   1.839   3.566  15.486 -0.8029 -0.3631 -0.2839
  692TMC3    O210243   2.238   3.769  15.776 -0.0010  0.4291  0.1088
  693MPD2     C10244   1.375   1.647  11.056 -0.4432 -0.2105  0.3111
  693MPD2    C110245   1.398   1.552  11.152  0.1061  0.4039  0.6852
  693MPD2    C210246   1.526   1.533  11.184  0.0787  0.5136 -0.6762
  693MPD2    C310247   1.629   1.599  11.127 -0.2352  0.1819 -1.0025
  693MPD2    C410248   1.609   1.686  11.021 -0.6768 -0.2724 -0.6549
  693MPD2    C510249   1.474   1.705  10.990  0.1583  0.5560  0.1413
  693MPD2     H10250   1.556   1.470  11.267 -1.3787  0.4935 -0.1802
  693MPD2    H110251   1.688   1.738  10.968 -1.0621  0.4600 -0.5089
  693MPD2    H210252   1.274   1.670  11.024 -0.6003  0.7976  1.5447
  693MPD2    H310253   1.449   1.774  10.910 -0.7277  0.3119  0.2108
  693MPD2     N10254   1.761   1.551  11.163  0.5504 -0.3989  0.8215
  693MPD2    H510255   1.758   1.482  11.237 -0.2935 -1.5308 -0.2792
  693MPD2    N110256   1.286   1.479  11.201  0.7551  0.3977 -0.2994
  693MPD2    H710257   1.193   1.515  11.183  0.6791  1.7444  2.8595
  694TMC3    C110258   1.157   1.319  11.300  0.2075 -0.0875 -0.3265
  694TMC3    C210259   1.065   1.324  11.202  0.9080  0.8284 -0.1049
  694TMC3    C310260   0.949   1.255  11.224 -0.1006 -0.3641 -0.3563
  694TMC3    C410261   1.144   1.256  11.415 -0.5325 -0.2744 -0.1889
  694TMC3    C510262   1.027   1.185  11.435 -0.3740  0.4002  0.1280
  694TMC3    C610263   0.930   1.184  11.335  0.0783 -0.8219 -0.3600
  694TMC3     C10264   1.292   1.371  11.285 -0.5282 -0.1962  0.2040
  694TMC3     O10265   1.386   1.321  11.344  0.6344 -0.2922  0.0195
  694TMC3     H10266   1.086   1.362  11.102 -0.8768 -1.9781 -1.5628
  694TMC3    H110267   1.220   1.249  11.491 -0.3991  0.5439 -0.2481
  694TMC3    H210268   0.838   1.129  11.350 -0.1627 -0.4562 -0.5194
  694TMC3    C710269   1.029   1.107  11.548 -0.0555 -0.0314 -0.1736
  694TMC3    C810270   0.849   1.247  11.118  0.0817 -0.4615 -0.5301
  694TMC3    O110271   1.078   1.158  11.650 -0.3602 -0.0131 -0.4730
  694TMC3    O210272   0.791   1.140  11.106  0.0506 -0.2189 -0.0861
  695MPD2     C10273   2.286   2.931  13.861  1.1038 -0.0602 -0.6223
  695MPD2    C110274   2.344   3.047  13.916 -0.1025 -0.0549  0.0542
  695MPD2    C210275   2.267   3.163  13.922 -0.3887 -0.7142  0.3367
  695MPD2    C310276   2.135   3.165  13.876  0.7291  0.1743 -0.3868
  695MPD2    C410277   2.081   3.047  13.836 -0.6335  0.2737  0.4849
  695MPD2    C510278   2.158   2.932  13.827  0.1982 -0.7593 -0.1660
  695MPD2     H10279   2.305   3.250  13.972 -0.9634  0.8125 -1.8581
  695MPD2    H110280   1.979   3.038  13.802 -0.2346  0.0540 -0.6583
  695MPD2    H210281   2.343   2.839  13.858 -0.3535 -0.9552 -0.4612
  695MPD2    H310282   2.118   2.837  13.794  2.7214 -2.4903  1.7229
  695MPD2     N10283   2.062   3.281  13.858 -0.3338  0.1253 -0.2455
  695MPD2    H510284   2.114   3.365  13.882 -1.0107  0.4365  0.1269
  695MPD2    N110285   2.476   3.045  13.976 -0.4481 -0.1324 -0.1005
  695MPD2    H710286   2.514   3.129  14.017  0.6463 -0.5104 -0.3555
  696TMC3    C110287   1.910   3.437  13.783  0.3910 -0.7990 -0.3990
  696TMC3    C210288   2.014   3.511  13.736 -0.1527 -0.3234  0.9792
  696TMC3    C310289   2.013   3.643  13.774  0.8200 -0.3410 -0.1542
  696TMC3    C410290   1.807   3.491  13.856  0.1897 -0.3245  0.2681
  696TMC3    C510291   1.813   3.625  13.885  0.5763  0.1215  0.0131
  696TMC3    C610292   1.918   3.702  13.844  0.3512  0.0415 -0.5237
  696TMC3     C10293   1.935   3.299  13.811 -0.8227  0.7646  0.7153
  696TMC3     O10294   1.838   3.223  13.816 -0.0770  0.1752 -0.3832
  696TMC3     H10295   2.095   3.482  13.669 -0.4163 -0.9545  0.9396
  696TMC3    H110296   1.723   3.431  13.890  0.3144  0.4304  1.9050
  696TMC3    H210297   1.937   3.798  13.891  1.4224 -1.0140  1.2358
  696TMC3    C710298   1.716   3.685  13.970  0.0298 -0.5628  0.1751
  696TMC3    C810299   2.124   3.722  13.723 -0.0892  0.3685 -0.6471
  696TMC3    O110300   1.642   3.612  14.041 -0.8567 -0.6592  0.1678
  696TMC3    O210301   2.230   3.672  13.690 -0.0573 -0.3406 -0.5577
  697MPD2     C10302   1.192   0.805  15.790  0.5813 -1.0502  0.5750
  697MPD2    C110303   1.228   0.747  15.670 -0.1421 -0.2576  0.3272
  697MPD2    C210304   1.234   0.835  15.560  0.7353  0.0093 -0.2149
  697MPD2    C310305   1.208   0.969  15.577  0.0952  0.4026  0.4796
  697MPD2    C410306   1.184   1.021  15.697  0.0578 -0.0305  0.3588
  697MPD2    C510307   1.176   0.938  15.805 -0.1424  0.0492 -0.1128
  697MPD2     H10308   1.250   0.787  15.464 -0.2994 -0.6086 -0.0821
  697MPD2    H110309   1.158   1.124  15.719  0.3514  0.6220 -2.2604
  697MPD2    H210310   1.180   0.739  15.875  1.1976 -0.1970  1.3149
  697MPD2    H310311   1.148   0.977  15.902  0.8257 -1.2095  0.6656
  697MPD2     N10312   1.221   1.055  15.461 -0.1412 -0.6405 -0.1862
  697MPD2    H510313   1.229   1.000  15.376  0.6813 -1.5270  0.4650
  697MPD2    N110314   1.250   0.608  15.640  0.0389 -0.3921  0.4481
  697MPD2    H710315   1.285   0.576  15.551  1.4029 -0.6797  1.0740
  698TMC3    C110316   1.255   1.249  15.336  0.5658 -0.3073  0.0533
  698TMC3    C210317   1.310   1.373  15.358 -0.3530  0.1006 -0.2875
  698TMC3    C310318   1.416   1.407  15.281 -0.5944  0.9968  0.1708
  698TMC3    C410319   1.298   1.166  15.239  0.4567 -0.2728  0.4662
  698TMC3    C510320   1.412   1.202  15.175 -0.4217 -0.3074  0.2597
  698TMC3    C610321   1.472   1.323  15.200 -0.6273  0.5060  0.4583
  698TMC3     C10322   1.218   1.191  15.462  0.3395 -0.4831  0.0241
  698TMC3     O10323   1.234   1.263  15.561  0.2716  0.0001 -0.3111
  698TMC3     H10324   1.264   1.445  15.424  0.9004  0.2916  0.3783
  698TMC3    H110325   1.257   1.070  15.210 -0.6557  0.2490  0.3318
  698TMC3    H210326   1.565   1.353  15.152 -0.1847 -2.6151 -0.6561
  698TMC3    C710327   1.462   1.115  15.058 -0.6166 -0.2452 -0.2960
  698TMC3    C810328   1.492   1.521  15.333 -0.1790  0.0485 -0.2504
  698TMC3    O110329   1.390   1.031  15.010  0.4993  0.0205  0.5715
  698TMC3    O210330   1.474   1.523  15.454 -1.0623  0.1156  0.1150
  699TMC3    C110331   2.001   3.391  13.104  0.2420  0.4977  0.2192
  699TMC3    C210332   2.071   3.310  13.186  0.1047 -0.2971  0.2922
  699TMC3    C310333   2.035   3.309  13.319 -0.3637 -0.4771  0.3063
  699TMC3    C410334   1.884   3.447  13.149  0.6371 -0.2439 -0.2103
  699TMC3    C510335   1.832   3.415  13.276 -0.2758  0.3203 -0.7990
  699TMC3    C610336   1.913   3.359  13.366  0.0623  0.3951 -0.5086
  699TMC3     C10337   2.050   3.409  12.970 -0.4049 -0.3274 -0.4872
  699TMC3     O10338   1.972   3.444  12.887 -0.2645  0.1975  0.1054
  699TMC3     H10339   2.140   3.238  13.143  0.6219  0.5208 -0.2522
  699TMC3    H110340   1.829   3.493  13.067  0.9501  0.9519  0.2541
  699TMC3    H210341   1.883   3.348  13.470 -0.1835 -0.1825 -0.6442
  699TMC3    C710342   1.708   3.484  13.318 -0.1836 -0.0595 -0.1478
  699TMC3    C810343   2.091   3.202  13.394  0.2220  0.0974  0.5932
  699TMC3    O110344   1.703   3.519  13.436  0.3039 -0.1400 -0.0613
  699TMC3    O210345   2.009   3.151  13.470 -0.1916  0.4513  0.0257
  700TMC3    C110346   0.898   1.676  17.499  0.3934 -0.8380  0.4871
  700TMC3    C210347   0.964   1.571  17.550  0.6440 -0.7262 -0.1868
  700TMC3    C310348   1.092   1.593  17.607  0.9433  0.5036 -0.0168
  700TMC3    C410349   0.939   1.804  17.525 -1.1180 -0.0415  0.4542
  700TMC3    C510350   1.056   1.824  17.585 -0.5739  0.2792 -0.0386
  700TMC3    C610351   1.137   1.721  17.615 -0.0983 -0.6567 -0.1125
  700TMC3     C10352   0.848   1.660  17.367 -0.2705  0.0112 -0.2116
  700TMC3     O10353   0.750   1.589  17.351 -0.7839  0.9904  0.1327
  700TMC3     H10354   0.940   1.468  17.525  1.9460 -0.8912 -0.7143
  700TMC3    H110355   0.875   1.889  17.503  0.1022  1.8584  4.2697
  700TMC3    H210356   1.237   1.743  17.648 -0.2369  1.5505 -1.1661
  700TMC3    C710357   1.101   1.960  17.578 -0.0959  0.5233 -0.3074
  700TMC3    C810358   1.201   1.506  17.561 -0.1532  0.3016 -0.9760
  700TMC3    O110359   1.044   2.032  17.496 -0.1095 -1.0247  0.6125
  700TMC3    O210360   1.276   1.565  17.482  0.2272 -0.0157 -0.3811
  701TMC3    C110361   0.653   4.595  15.755 -0.3156 -0.6459  0.5210
  701TMC3    C210362   0.700   4.514  15.660  0.4294 -0.1247  0.0626
  701TMC3    C310363   0.821   4.554  15.607 -0.2035  0.3463 -0.3603
  701TMC3    C410364   0.705   4.719  15.791  0.3982  0.6424  0.5059
  701TMC3    C510365   0.822   0.033  15.734  0.3601 -0.2673  0.1885
  701TMC3    C610366   0.884   4.673  15.639  0.4194 -0.1111  0.0835
  701TMC3     C10367   0.524   4.565  15.806 -0.4668 -0.0367  0.4394
  701TMC3     O10368   0.458   4.665  15.833 -1.4054 -0.6835 -0.3883
  701TMC3     H10369   0.664   4.412  15.654  1.4085 -0.4130 -0.7844
  701TMC3    H110370   0.645   0.066  15.849  0.9290  2.3367 -0.9546
  701TMC3    H210371   0.968   4.702  15.578  0.1809  0.8453  0.2064
  701TMC3    C710372   0.876   0.165  15.757  0.5259 -0.7290  0.0847
  701TMC3    C810373   0.884   4.470  15.512  0.1477  0.2921 -0.3159
  701TMC3    O110374   0.907   0.233  15.656  0.0346  0.3868 -0.4086
  701TMC3    O210375   1.003   4.471  15.499 -0.4075 -0.1695 -0.0694
  702MPD2     C10376   0.646   2.309  10.480 -0.5838  0.2218  0.5380
  702MPD2    C110377   0.542   2.389  10.513 -0.0571  1.4260  1.0890
  702MPD2    C210378   0.525   2.509  10.442  0.0815  0.0331  0.5941
  702MPD2    C310379   0.611   2.548  10.337 -0.3319 -0.4079  0.1619
  702MPD2    C410380   0.719   2.465  10.312 -0.7463  0.0900  0.4185
  702MPD2    C510381   0.730   2.353  10.381 -0.3531  0.6240 -0.1495
  702MPD2     H10382   0.433   2.566  10.450 -0.1039 -0.3910  1.5310
  702MPD2    H110383   0.790   2.483  10.232 -1.5943 -0.9038 -0.5588
  702MPD2    H210384   0.667   2.216  10.530 -0.6450 -0.4522 -0.6916
  702MPD2    H310385   0.816   2.288  10.366 -0.2696  0.9624 -1.1904
  702MPD2     N10386   0.605   2.674  10.274  0.0462 -0.2853 -0.1849
  702MPD2    H510387   0.670   2.684  10.197  0.9280  2.7740  0.9662
  702MPD2    N110388   0.454   2.363  10.620  0.0387  0.2059  0.1903
  702MPD2    H710389   0.387   2.434  10.650  0.7370  0.7285  0.5165
  703TMC3    C110390   0.568   2.904  10.259  1.2989  0.4304 -0.1557
  703TMC3    C210391   0.478   3.006  10.287  0.3364  0.1769 -0.1661
  703TMC3    C310392   0.476   3.119  10.219 -0.4451 -0.0919  0.1268
  703TMC3    C410393   0.659   2.922  10.158 -0.6200  0.5713  0.4172
  703TMC3    C510394   0.644   3.035  10.083 -0.4199  0.1467 -0.2896
  703TMC3    C610395   0.549   3.131  10.102  0.4557  0.5499 -0.0881
  703TMC3     C10396   0.539   2.781  10.327  0.3522  0.1250  0.0865
  703TMC3     O10397   0.485   2.797  10.434  0.0938 -0.6679 -0.4449
  703TMC3     H10398   0.415   2.990  10.374  0.5499  0.1172 -0.0225
  703TMC3    H110399   0.745   2.860  10.135 -1.3820 -0.7968  1.2348
  703TMC3    H210400   0.549   3.229  10.054 -1.7779  0.2361 -0.7202
  703TMC3    C710401   0.749   3.056   9.984 -0.3525 -0.1400  0.4649
  703TMC3    C810402   0.399   3.233  10.274 -0.1465  0.4531 -0.1082
  703TMC3    O110403   0.851   2.989   9.995 -0.5051  0.7619 -0.0300
  703TMC3    O210404   0.408   3.346  10.225 -0.3380  0.4733  0.3236
  704TMC3    C110405   3.031   0.096  12.230  0.5930  0.3127 -0.3147
  704TMC3    C210406   3.166   0.119  12.201  0.3588 -0.2190  0.3200
  704TMC3    C310407   3.261   0.067  12.281  0.4405 -0.1456  0.0370
  704TMC3    C410408   2.990   0.023  12.343  0.2769  0.0282  0.5489
  704TMC3    C510409   3.097   4.689  12.420  0.2576 -0.2922 -0.0631
  704TMC3    C610410   3.231   4.711  12.389 -0.2137  0.0880 -0.4331
  704TMC3     C10411   2.933   0.099  12.119  0.2891 -0.1738 -0.5578
  704TMC3     O10412   2.829   0.151  12.141 -0.0821 -0.4671 -0.1889
  704TMC3     H10413   3.190   0.172  12.109 -1.4791 -0.4034 -0.2640
  704TMC3    H110414   2.886   4.718  12.348  1.5065 -4.0395  3.0425
  704TMC3    H210415   3.302   4.656  12.450  1.2669  2.1447 -0.2839
  704TMC3    C710416   3.084   4.549  12.463 -0.4639  0.7405  0.2993
  704TMC3    C810417   3.395   0.061  12.217 -0.6128 -0.5110  0.6196
  704TMC3    O110418   3.180   4.473  12.458  0.0177 -0.0946 -0.6032
  704TMC3    O210419   3.408   0.108  12.102  0.1657  0.2107 -0.2757
  705MPD2     C10420   2.285   3.579  16.372  0.3578  0.0691  0.1479
  705MPD2    C110421   2.273   3.690  16.452 -0.1982  0.0506 -0.4737
  705MPD2    C210422   2.145   3.738  16.482  0.6009 -0.4164 -0.2527
  705MPD2    C310423   2.037   3.653  16.448 -0.3583 -0.3011  0.0937
  705MPD2    C410424   2.048   3.534  16.384  0.2348 -0.1112  0.3254
  705MPD2    C510425   2.168   3.516  16.320 -0.5269 -0.1145  0.3069
  705MPD2     H10426   2.142   3.841  16.517  1.4036 -0.7342  0.7464
  705MPD2    H110427   1.964   3.471  16.360  0.1386  0.5438 -1.0659
  705MPD2    H210428   2.382   3.543  16.340  0.5551  0.2941  0.4950
  705MPD2    H310429   2.176   3.433  16.252 -0.5843 -1.2470  1.6749
  705MPD2     N10430   1.904   3.692  16.455  0.2986  0.3635  0.0886
  705MPD2    H510431   1.838   3.619  16.431  0.5207 -0.1796  1.1380
  705MPD2    N110432   2.383   3.760  16.509  0.6423  0.3310 -0.5252
  705MPD2    H710433   2.353   3.834  16.571 -1.5050  0.3229 -1.5419
  706TMC3    C110434   2.826   3.913  16.508 -0.9628 -0.1556  0.8961
  706TMC3    C210435   2.785   4.040  16.550 -0.5155 -0.1069  0.9800
  706TMC3    C310436   2.651   4.060  16.573 -0.0392 -0.7331 -0.0801
  706TMC3    C410437   2.741   3.810  16.501 -0.0512 -0.8154 -0.0369
  706TMC3    C510438   2.606   3.836  16.524 -0.1547  0.0270 -0.2281
  706TMC3    C610439   2.562   3.966  16.554  0.1135  0.9526  0.0095
  706TMC3     C10440   2.965   3.897  16.474  0.1228  0.4012 -0.0455
  706TMC3     O10441   3.050   3.982  16.499 -0.1602  0.2796 -0.0503
  706TMC3     H10442   2.861   4.117  16.553 -0.3955 -0.1912 -0.0490
  706TMC3    H110443   2.780   3.709  16.493  1.5722 -0.0844 -1.4585
  706TMC3    H210444   2.457   3.978  16.577 -0.4216  0.8048 -2.3535
  706TMC3    C710445   2.515   3.740  16.474 -0.8941 -0.6009  0.3114
  706TMC3    C810446   2.595   4.184  16.540  0.2128  0.1645  0.4380
  706TMC3    O110447   2.561   3.662  16.388  0.7738 -0.1470 -0.3468
  706TMC3    O210448   2.480   4.191  16.495  0.2915 -0.2342 -0.0948
  707TMC3    C110449   4.670   2.443   1.957 -0.2511  0.6340  0.3410
  707TMC3    C210450   0.066   2.403   2.004  0.6285  0.1232 -0.4619
  707TMC3    C310451   0.060   2.336   2.122 -0.2083 -0.5850  0.1722
  707TMC3    C410452   4.549   2.407   2.018  0.0735 -0.1309  0.3381
  707TMC3    C510453   4.549   2.340   2.132  0.0076  0.2960  0.0778
  707TMC3    C610454   4.666   2.309   2.194  0.2011  0.0293 -0.0164
  707TMC3     C10455   4.681   2.521   1.835 -0.0645 -0.3101  0.5690
  707TMC3     O10456   0.066   2.531   1.777 -0.6792 -0.1386  0.0772
  707TMC3     H10457   0.159   2.444   1.965 -0.5825  1.4545 -1.9680
  707TMC3    H110458   4.450   2.439   1.987  0.8892  0.7529 -1.3751
  707TMC3    H210459   4.667   2.240   2.277  0.7719  0.0367 -0.0206
  707TMC3    C710460   4.420   2.288   2.182  0.4377 -0.0446  0.0546
  707TMC3    C810461   0.184   2.317   2.197  0.2373  0.2529 -0.0343
  707TMC3    O110462   4.340   2.262   2.097  0.6643  0.3617  0.1559
  707TMC3    O210463   0.169   2.304   2.316  0.0182  0.0277 -0.0579
  708MPD2     C10464   1.302   2.240  13.740  0.0094 -0.2803  0.4712
  708MPD2    C110465   1.171   2.248  13.780  0.8318 -0.6339  0.1164
  708MPD2    C210466   1.136   2.192  13.901  0.2312 -0.0758  0.5418
  708MPD2    C310467   1.235   2.135  13.982  0.4861  0.0989 -0.2459
  708MPD2    C410468   1.365   2.128  13.940 -0.5645  0.2892 -0.2345
  708MPD2    C510469   1.396   2.184  13.824  0.0767 -0.1863  0.4853
  708MPD2     H10470   1.040   2.216  13.946  0.0414  1.7650 -0.8365
  708MPD2    H110471   1.430   2.082  14.014  0.1900 -0.6881 -1.4930
  708MPD2    H210472   1.331   2.283  13.645 -0.2190  1.1464  1.0501
  708MPD2    H310473   1.494   2.196  13.781  0.3394 -2.0009  0.5733
  708MPD2     N10474   1.201   2.092  14.114 -0.6633 -0.1646 -0.2327
  708MPD2    H510475   1.278   2.081  14.179 -0.8790  0.2036  0.0802
  708MPD2    N110476   1.079   2.319  13.697 -0.0267  0.4312  0.9506
  708MPD2    H710477   1.115   2.377  13.623  0.4837 -2.3025 -0.9550
  709TMC3    C110478   0.879   2.219  13.769 -0.2005 -0.1617 -0.9608
  709TMC3    C210479   0.907   2.111  13.689  0.2955  0.2273 -0.5331
  709TMC3    C310480   0.815   2.005  13.704 -0.6747  0.0684  0.4496
  709TMC3    C410481   0.769   2.229  13.848 -0.5353  0.1031 -0.7357
  709TMC3    C510482   0.691   2.118  13.867  0.2206 -0.1240  0.7619
  709TMC3    C610483   0.716   2.002  13.793 -0.5186  0.0894  0.2300
  709TMC3     C10484   0.946   2.339  13.724 -0.6063 -0.2808 -0.3629
  709TMC3     O10485   0.868   2.421  13.675 -0.1643 -0.2668  0.2361
  709TMC3     H10486   0.993   2.105  13.625  0.7327 -0.7331  0.1429
  709TMC3    H110487   0.754   2.320  13.905  1.4652 -0.2132  0.2936
  709TMC3    H210488   0.658   1.911  13.801 -0.0454 -0.3931 -1.8724
  709TMC3    C710489   0.673   2.102  14.012  0.3405  0.3412 -0.1293
  709TMC3    C810490   0.834   1.884  13.620 -0.0154 -0.1364 -0.0607
  709TMC3    O110491   0.711   2.184  14.094 -0.1248  0.1999 -0.2081
  709TMC3    O210492   0.777   1.785  13.660  1.1145  0.0222 -0.2742
  710TMC3    C110493   1.753   3.979   0.892 -0.1407  0.6656 -0.0448
  710TMC3    C210494   1.795   3.967   0.760 -0.0271 -0.9179  0.1964
  710TMC3    C310495   1.897   3.876   0.729  0.8731  0.0760  0.1024
  710TMC3    C410496   1.798   3.889   0.977  0.2432 -0.1466  0.4132
  710TMC3    C510497   1.892   3.802   0.943 -0.1496  0.0662 -0.2207
  710TMC3    C610498   1.948   3.794   0.821 -0.0883  0.2748  0.4174
  710TMC3     C10499   1.629   4.053   0.922 -0.0375  0.7549  0.7086
  710TMC3     O10500   1.551   4.096   0.835  0.9584  0.1906  0.2791
  710TMC3     H10501   1.739   4.032   0.693  1.4866  0.3844  0.1857
  710TMC3    H110502   1.760   3.880   1.079 -0.4317 -0.1361  0.1646
  710TMC3    H210503   2.026   3.722   0.800 -0.3093  0.4070 -0.8184
  710TMC3    C710504   1.951   3.724   1.051 -0.8171  0.2149  0.3357
  710TMC3    C810505   1.952   3.869   0.596 -0.3396  0.3857  0.8573
  710TMC3    O110506   1.873   3.660   1.125  0.0950 -0.5388 -0.0606
  710TMC3    O210507   2.052   3.799   0.575 -0.3664 -0.8719 -0.1694
  711TMC3    C110508   1.846   4.241  14.941  0.0399  0.6790  0.0342
  711TMC3    C210509   1.842   4.344  15.029 -0.3099 -1.0639 -0.4851
  711TMC3    C310510   1.909   4.329  15.149  1.2504 -1.3280 -0.1372
  711TMC3    C410511   1.919   4.130  14.965 -0.0792 -0.1650 -0.2135
  711TMC3    C510512   1.985   4.124  15.089 -0.8827  0.4126  0.6646
  711TMC3    C610513   1.974   4.217  15.189 -1.1151  0.3578 -0.5290
  711TMC3     C10514   1.746   4.228  14.837 -0.1927 -0.1256  0.6352
  711TMC3     O10515   1.752   4.131  14.767  0.4937 -0.5341 -0.0928
  711TMC3     H10516   1.793   4.438  15.007  0.0923 -0.3227  1.7893
  711TMC3    H110517   1.932   4.049  14.894 -0.4441 -1.2669  0.9835
  711TMC3    H210518   2.023   4.207  15.285  2.5258 -0.4362 -2.4487
  711TMC3    C710519   2.029   3.985  15.137 -0.0981  0.0005  0.3742
  711TMC3    C810520   1.862   4.418  15.253 -0.3508  0.3020 -0.0053
  711TMC3    O110521   2.116   3.987  15.223 -0.6866 -0.1437  0.2575
  711TMC3    O210522   1.754   4.475  15.246 -0.1423  0.2145  0.5721
  712MPD2     C10523   2.865   0.178  13.750 -0.3986 -0.9006 -0.5954
  712MPD2    C110524   2.794   0.266  13.676 -0.9418 -0.1452  0.2499
  712MPD2    C210525   2.854   0.380  13.628 -0.0612 -0.4374 -0.0847
  712MPD2    C310526   2.985   0.404  13.635  0.1349 -0.1456  0.4738
  712MPD2    C410527   3.062   0.318  13.701  0.0182 -0.1114  0.2801
  712MPD2    C510528   3.003   0.201  13.747 -0.0009 -0.2548  0.7113
  712MPD2     H10529   2.784   0.447  13.579  0.1019  0.6880  1.2137
  712MPD2    H110530   3.168   0.329  13.715 -0.7188  1.4641  4.7832
  712MPD2    H210531   2.822   0.085  13.786  0.1757 -0.9273  0.0115
  712MPD2    H310532   3.064   0.129  13.800  1.3038 -0.3699 -0.9414
  712MPD2     N10533   3.044   0.529  13.604 -0.5850  0.5960  0.0831
  712MPD2    H510534   3.145   0.533  13.613 -0.6969 -0.8595  1.8541
  712MPD2    N110535   2.656   0.253  13.639 -0.0699  0.4405  0.1675
  712MPD2    H710536   2.624   0.320  13.570 -0.1455  0.5762  0.3333
  713TMC3    C110537   3.049   0.762  13.557 -0.4261  0.3197 -0.2752
  713TMC3    C210538   3.149   0.778  13.649  0.1948  0.0567  0.2065
  713TMC3    C310539   3.196   0.906  13.655 -0.6615  0.4944  0.5750
  713TMC3    C410540   2.973   0.865  13.503 -0.3429  0.0954 -0.5833
  713TMC3    C510541   3.020   0.990  13.524 -0.2946  0.1363 -0.0429
  713TMC3    C610542   3.135   1.011  13.587  0.3341 -0.1940  0.3169
  713TMC3     C10543   2.972   0.640  13.559 -0.6005  0.1195  0.5125
  713TMC3     O10544   2.856   0.648  13.527  0.2169 -0.5699 -0.6605
  713TMC3     H10545   3.195   0.700  13.710 -0.1216  0.2559  0.7036
  713TMC3    H110546   2.887   0.848  13.438  0.6642  0.2323 -1.9561
  713TMC3    H210547   3.184   1.108  13.595 -0.1944 -0.0484  1.8381
  713TMC3    C710548   2.968   1.104  13.456 -0.1441  1.2036 -0.1035
  713TMC3    C810549   3.338   0.916  13.683  0.4170  0.1644  0.5533
  713TMC3    O110550   3.040   1.205  13.459 -0.0789  0.0311 -0.0959
  713TMC3    O210551   3.392   1.017  13.642  0.3133 -0.1269 -0.2874
  714MPD2     C10552   0.041   3.541   1.263  0.3487  0.1173 -0.0224
  714MPD2    C110553   0.137   3.642   1.257  0.1026  0.4033  0.6765
  714MPD2    C210554   0.107   3.766   1.214  0.1952  0.2113  0.1392
  714MPD2    C310555   4.703   3.797   1.181 -0.3058  0.2861  0.3726
  714MPD2    C410556   4.611   3.693   1.162 -0.0092  0.2156  0.0168
  714MPD2    C510557   4.642   3.567   1.206  0.0932 -0.6626 -0.1380
  714MPD2     H10558   0.175   3.850   1.213 -0.5743  0.8431  0.6848
  714MPD2    H110559   4.514   3.707   1.116 -0.1105  0.6065  0.3532
  714MPD2    H210560   0.058   3.449   1.317 -1.0473  1.2699  2.3832
  714MPD2    H310561   4.574   3.485   1.190 -1.2691  0.4746 -0.2075
  714MPD2     N10562   4.677   3.936   1.143  0.3707 -0.2607 -0.2179
  714MPD2    H510563   0.032   4.000   1.153  0.7524 -0.9793  1.4479
  714MPD2    N110564   0.272   3.624   1.292  0.1252  0.0203 -0.2224
  714MPD2    H710565   0.337   3.702   1.285  0.6110 -0.3805 -0.1002
  715TMC3    C110566   0.474   3.532   1.325  0.1376 -0.9541  0.1597
  715TMC3    C210567   0.550   3.427   1.302  0.0523  0.4461  0.0989
  715TMC3    C310568   0.683   3.429   1.339  0.1264  0.3211 -0.0102
  715TMC3    C410569   0.528   3.657   1.347 -0.4398 -0.3840  0.7380
  715TMC3    C510570   0.663   3.658   1.379  0.3631  0.1052  0.4247
  715TMC3    C610571   0.741   3.546   1.370  0.6528 -0.0071 -0.6450
  715TMC3     C10572   0.330   3.502   1.310 -0.8473 -0.2956 -0.1877
  715TMC3     O10573   0.286   3.385   1.284  0.1306 -0.1106  0.2829
  715TMC3     H10574   0.502   3.337   1.265  1.5612 -0.1433 -0.3987
  715TMC3    H110575   0.471   3.748   1.364  4.7467  2.7307  1.6393
  715TMC3    H210576   0.844   3.555   1.402  0.2102 -0.8491  1.0007
  715TMC3    C710577   0.721   3.784   1.421  0.3828 -0.5061 -0.2102
  715TMC3    C810578   0.758   3.308   1.305 -0.5692 -0.3228  0.3116
  715TMC3    O110579   0.643   3.860   1.475  0.3631 -0.5530  0.5920
  715TMC3    O210580   0.707   3.223   1.238 -0.3501  0.0877  0.0921
  716MPD2     C10581   1.090   1.963   9.568 -0.9057 -0.2680  0.6677
  716MPD2    C110582   0.955   1.994   9.540 -0.1804 -0.2048 -0.0648
  716MPD2    C210583   0.871   1.897   9.487  0.1305  0.5807 -0.4575
  716MPD2    C310584   0.918   1.768   9.459 -0.4476 -0.1142  0.2359
  716MPD2    C410585   1.048   1.734   9.487 -0.4675 -0.2854  0.7053
  716MPD2    C510586   1.128   1.831   9.549 -0.2747  1.0958 -0.4449
  716MPD2     H10587   0.768   1.908   9.458  0.5330  0.8494 -1.8035
  716MPD2    H110588   1.087   1.637   9.460 -1.0587  0.3857 -2.6725
  716MPD2    H210589   1.162   2.031   9.611  0.0420 -1.4932  1.0030
  716MPD2    H310590   1.231   1.809   9.571 -0.0020  1.5042 -1.2887
  716MPD2     N10591   0.826   1.676   9.405  0.1563 -0.3279 -0.1616
  716MPD2    H510592   0.734   1.709   9.380 -0.0829  1.3755  2.9836
  716MPD2    N110593   0.909   2.124   9.552 -0.1040 -0.0627  0.3710
  716MPD2    H710594   0.981   2.195   9.559 -2.2650  2.2745 -1.1825
  717TMC3    C110595   0.762   1.482   9.287  0.0416  0.0724 -0.0729
  717TMC3    C210596   0.675   1.566   9.225  0.9582 -0.4466 -0.3428
  717TMC3    C310597   0.573   1.494   9.168 -0.7568  0.0586 -0.4138
  717TMC3    C410598   0.746   1.348   9.296 -0.2071  0.3788  0.4273
  717TMC3    C510599   0.630   1.295   9.259  0.3132  0.3438 -0.3659
  717TMC3    C610600   0.537   1.370   9.192 -0.2846  0.0746  0.3382
  717TMC3     C10601   0.857   1.543   9.377  0.0850  0.7297  0.1536
  717TMC3     O10602   0.947   1.472   9.415 -0.2761  0.0513 -0.2829
  717TMC3     H10603   0.714   1.664   9.200  1.5450  0.0447  2.5321
  717TMC3    H110604   0.825   1.285   9.336 -1.2398 -1.4679 -0.3977
  717TMC3    H210605   0.459   1.321   9.135  0.0640  0.4899 -0.4970
  717TMC3    C710606   0.614   1.149   9.281  0.0617 -0.2515 -0.5837
  717TMC3    C810607   0.487   1.582   9.087  0.9273  0.7103  0.7030
  717TMC3    O110608   0.503   1.106   9.248  0.3712  0.0542 -0.0147
  717TMC3    O210609   0.496   1.703   9.110 -0.8261  0.6156  0.5418
  718MPD2     C10610   4.386   1.100  12.458 -0.1687  0.4596 -0.6151
  718MPD2    C110611   4.334   0.976  12.406 -0.2493 -0.4694 -1.0334
  718MPD2    C210612   4.281   0.889  12.500 -0.2473 -0.2695 -0.1428
  718MPD2    C310613   4.281   0.923  12.633 -0.9968  0.5498 -0.0640
  718MPD2    C410614   4.329   1.047  12.674  0.6321  0.4802 -0.3600
  718MPD2    C510615   4.381   1.137  12.591 -0.2992 -0.4621  0.5565
  718MPD2     H10616   4.239   0.791  12.480 -0.1511 -0.3328 -0.0338
  718MPD2    H110617   4.327   1.082  12.777  0.1922  3.6826 -1.4407
  718MPD2    H210618   4.444   1.164  12.392  2.5124 -0.1317  1.1669
  718MPD2    H310619   4.423   1.226  12.636  0.5937 -0.1888 -0.8007
  718MPD2     N10620   4.236   0.819  12.716  0.1172 -0.7073  0.5638
  718MPD2    H510621   4.210   0.735  12.665 -0.7898  1.8684 -3.2732
  718MPD2    N110622   4.356   0.946  12.271  0.5197 -0.1988  0.7158
  718MPD2    H710623   4.404   1.012  12.210 -3.7141  0.5773 -1.7293
  719TMC3    C110624   4.343   0.816  12.075  0.7347 -0.8469 -0.7837
  719TMC3    C210625   4.279   0.695  12.042 -0.2671 -0.3760 -0.0645
  719TMC3    C310626   4.342   0.591  11.976 -0.4467  0.0683 -0.9398
  719TMC3    C410627   4.474   0.833  12.045 -0.2688  0.2299  0.0481
  719TMC3    C510628   4.537   0.732  11.980 -0.6908 -0.2125  0.3344
  719TMC3    C610629   4.480   0.615  11.951  0.0536 -0.0393  0.3246
  719TMC3     C10630   4.301   0.839  12.211 -0.5145  0.5344  0.7605
  719TMC3     O10631   4.230   0.749  12.261 -0.1303 -0.0827  0.3246
  719TMC3     H10632   4.171   0.689  12.053 -0.1778 -0.0747  1.0044
  719TMC3    H110633   4.524   0.928  12.056  0.3836 -0.3547  2.2320
  719TMC3    H210634   4.539   0.550  11.887 -1.1947 -0.6076 -0.2458
  719TMC3    C710635   4.681   0.761  11.956  0.5032 -0.3580 -0.7492
  719TMC3    C810636   4.324   0.465  12.042 -0.5652  0.4223 -0.6245
  719TMC3    O110637   4.695   0.878  11.921  0.0797  0.1161 -0.2022
  719TMC3    O210638   4.326   0.365  11.980  0.0162 -0.1641  0.0896
  720MPD2     C10639   3.129   2.010  13.799  0.0731 -0.3854  0.3253
  720MPD2    C110640   3.202   2.109  13.742  0.3944  0.2057  0.1473
  720MPD2    C210641   3.307   2.169  13.809  0.7622 -0.2083  0.5849
  720MPD2    C310642   3.333   2.138  13.935 -0.3664 -0.0487 -0.2442
  720MPD2    C410643   3.251   2.050  14.004  0.3289  0.0793 -0.1588
  720MPD2    C510644   3.149   1.986  13.933  0.0278  0.0745 -0.2652
  720MPD2     H10645   3.357   2.238  13.741 -0.5501  0.2799  0.1141
  720MPD2    H110646   3.256   2.035  14.112 -1.6750 -0.3662 -0.1233
  720MPD2    H210647   3.051   1.955  13.748  1.6156 -1.4842 -0.8437
  720MPD2    H310648   3.078   1.919  13.981 -0.2805 -0.0434 -0.8765
  720MPD2     N10649   3.439   2.214  13.995  0.1587  0.6121 -0.1296
  720MPD2    H510650   3.497   2.271  13.935  1.3889  0.3637  0.8192
  720MPD2    N110651   3.174   2.143  13.610  0.1418  0.1779  0.0796
  720MPD2    H710652   3.219   2.229  13.578 -0.1103 -1.0004 -3.4170
  721TMC3    C110653   3.584   2.282  14.169  0.6056 -0.5484 -0.0931
  721TMC3    C210654   3.597   2.297  14.306  0.1755 -0.9603  0.1563
  721TMC3    C310655   3.721   2.306  14.364  0.3069 -0.7318 -0.3217
  721TMC3    C410656   3.697   2.287  14.091 -0.4799 -0.2389  0.7228
  721TMC3    C510657   3.821   2.309  14.148  0.1306  0.4419  0.0407
  721TMC3    C610658   3.835   2.319  14.283  0.2201  0.1709  0.0246
  721TMC3     C10659   3.458   2.224  14.133 -0.2740 -0.5057  0.0681
  721TMC3     O10660   3.377   2.190  14.222  1.3326  0.4995  0.1459
  721TMC3     H10661   3.500   2.302  14.354  1.4306  0.3618  2.5231
  721TMC3    H110662   3.683   2.241  13.994 -0.4393  1.0088  0.1340
  721TMC3    H210663   3.931   2.336  14.330  0.4653 -1.0387 -0.0245
  721TMC3    C710664   3.941   2.286  14.080 -0.4333  0.5197  0.2252
  721TMC3    C810665   3.725   2.369  14.495 -0.3974 -0.6130  0.2862
  721TMC3    O110666   4.039   2.294  14.151 -0.2156  0.1792 -0.1808
  721TMC3    O210667   3.820   2.442  14.526  0.0037  0.1054 -0.0770
  722MPD2     C10668   1.815   0.960  13.213  0.2803 -0.2818 -0.5264
  722MPD2    C110669   1.807   1.032  13.096 -0.7907  0.1700  0.6846
  722MPD2    C210670   1.696   1.015  13.018  0.1848 -0.0599 -0.3296
  722MPD2    C310671   1.607   0.914  13.043 -0.6618  0.0906 -0.6477
  722MPD2    C410672   1.621   0.845  13.161  0.3692  0.2344 -0.0687
  722MPD2    C510673   1.721   0.880  13.253  0.7736 -0.1621  0.1898
  722MPD2     H10674   1.682   1.067  12.923 -0.2123 -0.3831 -0.4517
  722MPD2    H110675   1.550   0.767  13.190 -0.1929  0.7282 -0.1168
  722MPD2    H210676   1.895   0.978  13.284 -1.8620  1.5719  1.4402
  722MPD2    H310677   1.733   0.838  13.352  0.3404 -0.4132  0.1369
  722MPD2     N10678   1.496   0.903  12.954  0.1467 -0.5476  0.0535
  722MPD2    H510679   1.504   0.957  12.869 -1.4958 -0.2613  0.0943
  722MPD2    N110680   1.905   1.124  13.057  0.7839  0.7103  0.4627
  722MPD2    H710681   1.879   1.167  12.968 -0.0959  0.6998  0.7135
  723TMC3    C110682   1.321   0.800  12.841  0.6439 -0.4133 -0.4054
  723TMC3    C210683   1.219   0.711  12.836  0.3386  0.2804  0.3047
  723TMC3    C310684   1.124   0.733  12.747 -0.0887 -0.6495 -0.2343
  723TMC3    C410685   1.326   0.904  12.745 -0.0420  0.2691 -0.1425
  723TMC3    C510686   1.231   0.922  12.649  0.8045  0.1646  0.7353
  723TMC3    C610687   1.119   0.838  12.654  0.3203 -0.1129 -0.4109
  723TMC3     C10688   1.407   0.792  12.952 -0.5753  0.4812 -0.7742
  723TMC3     O10689   1.399   0.709  13.039 -0.0469  0.4404 -0.0140
  723TMC3     H10690   1.198   0.647  12.921 -0.5671  1.3784  0.9078
  723TMC3    H110691   1.413   0.965  12.724 -0.4549  1.0633  0.4179
  723TMC3    H210692   1.039   0.843  12.581  1.2351  1.0999 -1.3381
  723TMC3    C710693   1.219   1.041  12.564  0.0221 -0.6976 -0.3785
  723TMC3    C810694   1.028   0.630  12.724 -0.2182  0.2724  0.4268
  723TMC3    O110695   1.171   1.025  12.450 -0.0632 -0.0895 -0.1444
  723TMC3    O210696   0.932   0.649  12.654  0.7225  0.2488  0.1327
  724TMC3    C110697   1.846   3.855   9.926  0.3348 -0.3154  0.8769
  724TMC3    C210698   1.835   3.906   9.803  0.0510 -0.1761  0.3997
  724TMC3    C310699   1.944   3.917   9.723  0.1001 -0.3605  0.5090
  724TMC3    C410700   1.964   3.801   9.971 -0.0408 -0.1581 -0.0952
  724TMC3    C510701   2.070   3.806   9.882  0.1400  0.5537  0.1275
  724TMC3    C610702   2.060   3.850   9.750  0.0153 -0.0576  0.2716
  724TMC3     C10703   1.745   3.901  10.019  0.7529 -0.0979 -0.4118
  724TMC3     O10704   1.785   3.950  10.122  0.3199  0.0730 -0.3548
  724TMC3     H10705   1.757   3.981   9.792 -1.8570 -2.5744 -2.4866
  724TMC3    H110706   1.960   3.776  10.077  1.8723 -0.9982 -0.2206
  724TMC3    H210707   2.144   3.845   9.682 -0.9628  0.5502 -0.9872
  724TMC3    C710708   2.208   3.788   9.928  0.5520 -0.2246  0.3103
  724TMC3    C810709   1.922   3.987   9.602  0.6026  0.1054 -0.6471
  724TMC3    O110710   2.300   3.829   9.851 -0.2574 -1.0296 -0.6471
  724TMC3    O210711   1.820   3.969   9.537 -0.1645  0.0725  0.4207
  725TMC3    C110712   3.997   2.609  13.144  0.6459  0.6198  0.2033
  725TMC3    C210713   3.867   2.650  13.154 -0.3072 -0.2545 -0.5825
  725TMC3    C310714   3.770   2.563  13.114  0.2802  0.3711  0.4774
  725TMC3    C410715   4.031   2.479  13.099 -0.4326 -0.1573  0.4633
  725TMC3    C510716   3.929   2.397  13.060 -0.1718  0.4518  0.1598
  725TMC3    C610717   3.798   2.443  13.059  0.1954 -0.3428 -0.6516
  725TMC3     C10718   4.098   2.722  13.154 -0.5680  0.2682 -0.2024
  725TMC3     O10719   4.063   2.835  13.182  0.3219 -0.1132  0.0763
  725TMC3     H10720   3.850   2.757  13.162 -0.8866 -0.3061 -1.1654
  725TMC3    H110721   4.134   2.447  13.096  0.3685  2.6007 -0.5066
  725TMC3    H210722   3.719   2.382  13.017 -0.6826  0.9011 -0.7912
  725TMC3    C710723   3.958   2.270  13.000  0.0928 -0.5359 -0.2946
  725TMC3    C810724   3.655   2.622  13.051 -0.3970 -0.1466  0.4574
  725TMC3    O110725   4.063   2.257  12.938 -0.6243 -0.3749 -0.0660
  725TMC3    O210726   3.573   2.685  13.118  0.2722  0.2064 -0.0790
  726MPD2     C10727   1.727   4.304  10.020 -0.0159 -0.2475  0.3224
  726MPD2    C110728   1.747   4.311  10.159  0.0308  0.4870  0.2274
  726MPD2    C210729   1.643   4.335  10.247  0.1723  0.3855  0.3436
  726MPD2    C310730   1.514   4.339  10.195 -0.3917  0.0569 -0.0826
  726MPD2    C410731   1.492   4.320  10.054 -0.0496 -0.2855 -0.1223
  726MPD2    C510732   1.598   4.310   9.973 -0.1462  0.5488  0.8982
  726MPD2     H10733   1.664   4.358  10.351 -0.4636  0.7734  0.3919
  726MPD2    H110734   1.394   4.330  10.010 -0.3801  0.4526  0.7778
  726MPD2    H210735   1.807   4.305   9.947  0.8618 -0.5963  1.2734
  726MPD2    H310736   1.572   4.309   9.868  2.4003 -1.5617  0.3134
  726MPD2     N10737   1.401   4.350  10.272  0.0977 -0.1497 -0.1466
  726MPD2    H510738   1.313   4.340  10.223  0.6175 -1.0950 -0.8929
  726MPD2    N110739   1.881   4.319  10.198  0.3445  0.2119 -0.5251
  726MPD2    H710740   1.944   4.304  10.120  0.2944 -0.6483 -0.3954
  727TMC3    C110741   2.080   4.314  10.316 -0.9579  0.2498 -0.4827
  727TMC3    C210742   2.145   4.268  10.428  0.4047 -0.6889  0.5405
  727TMC3    C310743   2.278   4.300  10.450 -0.3807  0.1718 -0.2612
  727TMC3    C410744   2.146   4.382  10.213 -0.6620  0.1169 -0.3793
  727TMC3    C510745   2.275   4.420  10.243 -0.1208  0.1729  0.1763
  727TMC3    C610746   2.339   4.380  10.350 -0.2823  0.2853  0.0900
  727TMC3     C10747   1.933   4.324  10.329 -0.3920  0.2539  0.1785
  727TMC3     O10748   1.886   4.317  10.444 -1.1456 -0.2755  0.3406
  727TMC3     H10749   2.090   4.220  10.508 -1.0843 -0.4397 -0.3493
  727TMC3    H110750   2.089   4.431  10.135 -0.7516  1.5166  0.5706
  727TMC3    H210751   2.442   4.407  10.367 -0.0223  0.0191 -1.1396
  727TMC3    C710752   2.337   4.516  10.153  0.1389  0.1379  0.2535
  727TMC3    C810753   2.364   4.213  10.530  0.3312 -0.5215 -0.3369
  727TMC3    O110754   2.279   4.534  10.044  0.0416  0.3358 -0.1340
  727TMC3    O210755   2.482   4.255  10.546  0.3578 -0.6575 -0.2301
  728TMC3    C110756   0.743   3.250  15.410  0.5954 -0.3048 -0.2904
  728TMC3    C210757   0.876   3.301  15.425 -0.8456 -0.2819  0.3839
  728TMC3    C310758   0.951   3.309  15.318 -0.0608  0.0699  0.3117
  728TMC3    C410759   0.695   3.231  15.280  0.0798  0.0520 -0.5055
  728TMC3    C510760   0.778   3.262  15.180 -0.1439 -0.4856 -0.2195
  728TMC3    C610761   0.907   3.291  15.188 -0.3766  0.5527  0.1505
  728TMC3     C10762   0.665   3.251  15.534 -0.5638 -0.5646 -0.1614
  728TMC3     O10763   0.687   3.340  15.614 -0.2441  0.8857  0.2511
  728TMC3     H10764   0.913   3.327  15.524  1.3799  2.0660 -1.0714
  728TMC3    H110765   0.587   3.222  15.276  0.0151  0.6401 -0.0657
  728TMC3    H210766   0.974   3.320  15.108  0.3996 -1.1009  0.2052
  728TMC3    C710767   0.721   3.260  15.047  0.4448 -0.0436  0.0132
  728TMC3    C810768   1.076   3.377  15.345 -0.5217  0.0124  0.2668
  728TMC3    O110769   0.612   3.204  15.036  0.0614 -0.1503 -0.5747
  728TMC3    O210770   1.077   3.476  15.417  0.2730 -0.0143 -0.1754
  729MPD2     C10771   2.503   4.350  17.181  0.4237 -0.0240 -0.3484
  729MPD2    C110772   2.600   4.261  17.226  0.9239  0.1793  0.0983
  729MPD2    C210773   2.630   4.247  17.362  0.4258 -0.1096 -0.3205
  729MPD2    C310774   2.585   4.343  17.448  0.0055 -0.7758  0.2220
  729MPD2    C410775   2.485   4.431  17.407 -0.4075  0.2261  0.4023
  729MPD2    C510776   2.441   4.424  17.280 -0.1873  0.2411 -0.4245
  729MPD2     H10777   2.706   4.177  17.395  1.5043  2.1543  1.9189
  729MPD2    H110778   2.441   4.502  17.476 -0.3916 -0.4594  1.1151
  729MPD2    H210779   2.470   4.361  17.078 -1.0134 -0.0213  0.1080
  729MPD2    H310780   2.366   4.493  17.243  0.9211  1.0522 -1.1576
  729MPD2     N10781   2.633   4.371  17.576  0.8033  0.3638 -0.2110
  729MPD2    H510782   2.591   4.452  17.621  0.6592 -1.1983  2.4475
  729MPD2    N110783   2.675   4.192  17.127 -0.0169  0.0340 -0.1914
  729MPD2    H710784   2.652   4.219  17.032  0.4507  1.5038  0.1082
  730TMC3    C110785   2.799   4.384   0.052  0.7429 -0.2684 -1.0453
  730TMC3    C210786   2.926   4.349   0.091 -0.6704  0.3434 -0.0523
  730TMC3    C310787   2.992   4.438   0.172  0.9706 -0.5910  0.1625
  730TMC3    C410788   2.742   4.503   0.083 -0.8059  0.0428 -1.1475
  730TMC3    C510789   2.823   4.596   0.157  0.0613  0.3189  0.1207
  730TMC3    C610790   2.946   4.564   0.207  0.4877 -0.5248  0.0331
  730TMC3     C10791   2.729   4.301  17.647 -0.8009  0.7516  0.2599
  730TMC3     O10792   2.773   4.191  17.626  0.0829 -0.0959  0.5538
  730TMC3     H10793   2.973   4.254   0.069 -2.4092 -0.6976  0.7512
  730TMC3    H110794   2.641   4.529   0.053 -0.5091  2.9272  0.3323
  730TMC3    H210795   2.999   4.628   0.276  2.3505 -1.3370 -0.6396
  730TMC3    C710796   2.821   0.001   0.089  0.0535  0.7484 -0.3437
  730TMC3    C810797   3.111   4.403   0.243  0.2098 -0.0545 -1.1655
  730TMC3    O110798   2.766   0.012  17.674  0.2231 -0.0651 -0.1528
  730TMC3    O210799   3.119   4.425   0.363  0.0235  0.3052 -0.5564
  731MPD2     C10800   3.108   1.206  12.080 -0.4795  0.5780 -0.2751
  731MPD2    C110801   3.217   1.264  12.135 -0.5542 -0.2773  0.7069
  731MPD2    C210802   3.261   1.237  12.263  0.0601 -0.1143 -0.7219
  731MPD2    C310803   3.188   1.148  12.338  0.3807  0.1140  0.0039
  731MPD2    C410804   3.067   1.097  12.283 -0.4340  0.1699 -0.1543
  731MPD2    C510805   3.031   1.129  12.156 -0.2994  0.8036 -0.1201
  731MPD2     H10806   3.353   1.275  12.306 -0.0462  0.1666 -0.7428
  731MPD2    H110807   2.998   1.031  12.334 -0.4737 -0.5458 -1.1254
  731MPD2    H210808   3.068   1.242  11.986 -3.4583 -0.5185  0.5842
  731MPD2    H310809   2.938   1.092  12.114  1.3517 -1.3710 -1.8652
  731MPD2     N10810   3.220   1.135  12.474 -0.2190  0.6567 -0.0234
  731MPD2    H510811   3.313   1.166  12.500  0.3390 -1.3831  0.3925
  731MPD2    N110812   3.284   1.352  12.048  0.9302 -0.0102  0.0269
  731MPD2    H710813   3.243   1.348  11.955  1.0317  0.9606 -0.0578
  732TMC3    C110814   3.436   1.504  11.945 -0.6677  0.5897 -0.0421
  732TMC3    C210815   3.345   1.526  11.844  0.2215 -0.5913  0.2185
  732TMC3    C310816   3.394   1.590  11.726  0.4051  0.0709  0.0768
  732TMC3    C410817   3.559   1.560  11.946 -0.5307 -0.8880 -0.9128
  732TMC3    C510818   3.604   1.634  11.835  0.0729  0.0643  0.0238
  732TMC3    C610819   3.529   1.630  11.716 -0.4706  0.1288 -0.2171
  732TMC3     C10820   3.396   1.427  12.063  0.3013  0.7082 -0.9757
  732TMC3     O10821   3.469   1.438  12.157 -0.1804  0.5544 -0.1384
  732TMC3     H10822   3.242   1.493  11.851  0.4968 -1.0682  1.9089
  732TMC3    H110823   3.619   1.558  12.037 -1.4016 -1.1861 -0.3391
  732TMC3    H210824   3.560   1.684  11.627  1.2272  0.1134  0.3663
  732TMC3    C710825   3.710   1.725  11.841  0.0827  1.0315 -0.0017
  732TMC3    C810826   3.304   1.687  11.659 -0.1981  0.1914  0.0245
  732TMC3    O110827   3.708   1.814  11.759 -0.0122  0.4107  0.0439
  732TMC3    O210828   3.352   1.748  11.560  0.4126  0.5998 -0.1459
  733TMC3    C110829   3.968   0.591  12.973  0.2934  0.1503 -0.6799
  733TMC3    C210830   4.044   0.705  12.972  0.2455  0.0608  0.3894
  733TMC3    C310831   4.148   0.700  12.886  0.1139 -0.3263  0.4406
  733TMC3    C410832   4.011   0.475  12.911  0.2856 -0.3136 -0.1938
  733TMC3    C510833   4.127   0.481  12.837  0.0071  0.1482 -0.4715
  733TMC3    C610834   4.193   0.596  12.813 -0.3323 -0.5313 -0.5172
  733TMC3     C10835   3.821   0.595  12.993 -0.4631  0.6345 -0.2427
  733TMC3     O10836   3.748   0.513  12.943 -0.4836  0.3808 -0.6598
  733TMC3     H10837   4.017   0.805  13.006 -0.3342  0.0965 -0.1681
  733TMC3    H110838   3.949   0.386  12.917 -0.1188  0.0209  0.6692
  733TMC3    H210839   4.296   0.599  12.781  0.5004 -1.0312  2.1060
  733TMC3    C710840   4.129   0.377  12.740 -0.8691 -0.3574 -0.2895
  733TMC3    C810841   4.202   0.832  12.849  0.1205  0.1629 -0.3490
  733TMC3    O110842   4.047   0.287  12.745  0.3670  0.2552 -0.0451
  733TMC3    O210843   4.178   0.930  12.922  0.1655 -0.3119  0.0230
  734MPD2     C10844   1.732   2.934  12.078 -0.3288 -0.3515  0.0878
  734MPD2    C110845   1.634   2.873  11.999  0.2304 -0.3497 -0.2743
  734MPD2    C210846   1.605   2.935  11.877 -0.4079 -0.9662 -0.4180
  734MPD2    C310847   1.669   3.046  11.836 -0.0994 -0.9646 -0.3194
  734MPD2    C410848   1.762   3.106  11.916  1.0038 -0.7384  0.3200
  734MPD2    C510849   1.800   3.042  12.029  0.3907  0.2928 -0.6984
  734MPD2     H10850   1.524   2.899  11.814 -0.8647 -1.0846  0.2309
  734MPD2    H110851   1.819   3.196  11.897 -0.9766 -0.0708 -2.5310
  734MPD2    H210852   1.765   2.891  12.172  2.2759  0.1309 -0.6199
  734MPD2    H310853   1.870   3.083  12.102 -0.7479  0.2605  0.4146
  734MPD2     N10854   1.618   3.095  11.711  0.2704 -0.5254 -0.3675
  734MPD2    H510855   1.551   3.034  11.666 -1.6555  2.0916 -1.0686
  734MPD2    N110856   1.568   2.760  12.049  0.3523 -0.3468  0.0902
  734MPD2    H710857   1.587   2.737  12.146  0.7245 -1.7876 -0.3225
  735TMC3    C110858   1.394   2.586  12.067  0.4133  0.2389 -0.2915
  735TMC3    C210859   1.263   2.603  12.046  0.0724 -0.3448 -0.7339
  735TMC3    C310860   1.181   2.504  11.994  0.0016 -0.1785 -0.3467
  735TMC3    C410861   1.448   2.458  12.077  0.6181 -0.4295 -0.2728
  735TMC3    C510862   1.364   2.360  12.019  0.4889 -0.1782  0.5615
  735TMC3    C610863   1.235   2.378  11.986  1.0026  0.2710  0.2910
  735TMC3     C10864   1.469   2.689  11.982 -0.0677 -0.0459 -0.2764
  735TMC3     O10865   1.416   2.699  11.870 -0.6504  0.3067 -0.6249
  735TMC3     H10866   1.244   2.709  12.047  0.9473 -0.1891 -0.6441
  735TMC3    H110867   1.554   2.440  12.092  0.0432 -2.8023  1.0909
  735TMC3    H210868   1.183   2.295  11.940  0.8248  0.3198  0.4031
  735TMC3    C710869   1.427   2.255  11.946  0.1278  0.2161 -0.3131
  735TMC3    C810870   1.101   2.542  11.872  0.0785 -0.4699 -0.1093
  735TMC3    O110871   1.390   2.227  11.831 -0.2151 -0.3344  0.2046
  735TMC3    O210872   0.999   2.477  11.844 -0.1733  0.3260 -0.1525
  736MPD2     C10873   1.671   2.004  12.068 -0.1369  0.7135  0.3486
  736MPD2    C110874   1.606   2.087  11.977  0.0317 -0.9623  0.8406
  736MPD2    C210875   1.645   2.081  11.840 -0.2212 -0.7298 -0.2998
  736MPD2    C310876   1.739   1.986  11.801 -0.0358  0.3391  0.2491
  736MPD2    C410877   1.792   1.899  11.889  0.0337 -0.3075 -0.5821
  736MPD2    C510878   1.750   1.898  12.023  0.8386  0.2642  0.7645
  736MPD2     H10879   1.605   2.161  11.779  0.0898 -1.3800 -1.3657
  736MPD2    H110880   1.864   1.825  11.857  1.4707  1.8238 -2.2603
  736MPD2    H210881   1.639   2.010  12.172  1.8728  2.3856  0.8804
  736MPD2    H310882   1.771   1.822  12.098 -3.0957 -2.2001 -0.6403
  736MPD2     N10883   1.779   1.974  11.666 -0.3270  0.5164 -0.0169
  736MPD2    H510884   1.842   1.900  11.638 -1.6028 -0.4390 -0.3871
  736MPD2    N110885   1.512   2.186  12.028 -0.4162  0.1736  0.2007
  736MPD2    H710886   1.503   2.195  12.128  1.0639  1.0403  0.2525
  737TMC3    C110887   1.775   1.990  11.426  0.2125  0.0752 -0.6519
  737TMC3    C210888   1.702   2.032  11.318  0.2538  0.3310  0.0731
  737TMC3    C310889   1.762   2.005  11.194  0.5095 -0.0156  0.3481
  737TMC3    C410890   1.906   1.947  11.410  0.4096  0.5605  0.0763
  737TMC3    C510891   1.962   1.930  11.286  0.0875 -0.0135  0.6388
  737TMC3    C610892   1.886   1.951  11.174  0.1223 -0.2367  0.5157
  737TMC3     C10893   1.725   2.042  11.554 -0.1726 -0.6447  0.2489
  737TMC3     O10894   1.644   2.136  11.553 -0.3905  0.2143  0.3427
  737TMC3     H10895   1.604   2.077  11.318 -0.2167 -0.7293  2.6114
  737TMC3    H110896   1.973   1.930  11.493  1.0407  0.1095 -0.5288
  737TMC3    H210897   1.918   1.924  11.075 -1.0699 -1.7054  0.5363
  737TMC3    C710898   2.081   1.851  11.275  0.2983 -0.2720  0.3794
  737TMC3    C810899   1.682   2.025  11.070  0.1928 -0.2234  0.1246
  737TMC3    O110900   2.101   1.774  11.365  0.6075  0.4226 -0.3072
  737TMC3    O210901   1.561   2.002  11.074 -0.2355 -0.2778 -0.4629
  738MPD2     C10902   1.714   1.687  15.439 -0.5056  0.4787  0.1902
  738MPD2    C110903   1.685   1.666  15.299 -0.9722  0.3927  0.9267
  738MPD2    C210904   1.755   1.728  15.198 -0.8274  0.1832  0.7126
  738MPD2    C310905   1.871   1.796  15.233  0.7028  0.3976  0.1336
  738MPD2    C410906   1.903   1.816  15.368 -0.3173 -0.4111  0.5487
  738MPD2    C510907   1.821   1.767  15.471  0.7141 -0.4780 -0.1861
  738MPD2     H10908   1.727   1.715  15.094 -2.1177  0.0001  1.0901
  738MPD2    H110909   1.996   1.865  15.394 -0.7018 -1.2705  3.5547
  738MPD2    H210910   1.663   1.638  15.521  1.7903 -0.7692  0.8544
  738MPD2    H310911   1.861   1.767  15.572  1.1863 -0.1592 -0.3710
  738MPD2     N10912   1.966   1.824  15.139  0.0401 -0.3558  0.0136
  738MPD2    H510913   2.050   1.868  15.176 -0.8047  0.8514  0.5072
  738MPD2    N110914   1.587   1.575  15.255  0.3789  0.1762  0.5532
  738MPD2    H710915   1.594   1.546  15.158  1.9690  2.5021 -0.0404
  739TMC3    C110916   2.088   1.790  14.934 -0.0355 -0.4172  0.3217
  739TMC3    C210917   2.092   1.834  14.806 -0.4119  0.9225  0.1548
  739TMC3    C310918   2.200   1.791  14.728 -0.0661  0.1517 -0.1094
  739TMC3    C410919   2.180   1.704  14.989  0.9111 -0.1282 -0.3811
  739TMC3    C510920   2.285   1.658  14.912 -0.0553 -0.1404  0.7133
  739TMC3    C610921   2.296   1.708  14.781  0.2787 -0.3478 -0.0345
  739TMC3     C10922   1.963   1.806  15.003  0.3092 -0.3447 -0.1370
  739TMC3     O10923   1.872   1.798  14.929 -0.3842 -0.1117 -0.2627
  739TMC3     H10924   2.015   1.896  14.761 -0.1184  0.5336 -0.8969
  739TMC3    H110925   2.148   1.635  15.066 -3.0042  1.3492 -0.7107
  739TMC3    H210926   2.386   1.676  14.730  1.3835  0.0920  1.6363
  739TMC3    C710927   2.405   1.629  14.987  0.2590 -0.6169 -1.2775
  739TMC3    C810928   2.189   1.779  14.581  0.2767 -0.4668 -0.2618
  739TMC3    O110929   2.504   1.582  14.931  0.7156  0.0803 -0.0220
  739TMC3    O210930   2.244   1.683  14.526  0.1813 -0.2740  0.0521
  740TMC3    C110931   2.788   2.788  14.485  0.0737 -0.0073  0.1341
  740TMC3    C210932   2.695   2.692  14.441 -0.4916  0.0790 -0.0167
  740TMC3    C310933   2.754   2.585  14.373 -0.2798  0.6912 -0.0607
  740TMC3    C410934   2.922   2.786  14.454  0.0827  0.1502 -0.4560
  740TMC3    C510935   2.968   2.684  14.385 -0.3684  0.1575  0.2272
  740TMC3    C610936   2.887   2.584  14.339  0.4501  0.8652 -0.0027
  740TMC3     C10937   2.752   2.881  14.594 -0.0541  0.1218  0.6132
  740TMC3     O10938   2.826   2.977  14.612 -0.7870 -0.7400 -0.0152
  740TMC3     H10939   2.598   2.678  14.487 -0.2070 -1.5192  0.1054
  740TMC3    H110940   2.989   2.853  14.505  1.5250 -0.3138 -1.7327
  740TMC3    H210941   2.933   2.505  14.281 -2.6678 -1.1163  0.2075
  740TMC3    C710942   3.115   2.679  14.371 -0.1720 -0.2845 -0.0554
  740TMC3    C810943   2.664   2.503  14.296  0.1213  0.0957 -0.7594
  740TMC3    O110944   3.175   2.713  14.473  0.2858 -0.4661  0.4890
  740TMC3    O210945   2.556   2.467  14.338 -0.0570  0.1680 -0.0069
  741TMC3    C110946   2.516   2.112  13.432  0.1415 -0.6028  0.4231
  741TMC3    C210947   2.420   2.040  13.498  0.2578  0.1925 -0.0900
  741TMC3    C310948   2.434   1.999  13.630 -0.1376 -0.0898 -0.0251
  741TMC3    C410949   2.630   2.142  13.495 -0.1672  0.9263  0.5502
  741TMC3    C510950   2.631   2.119  13.630  0.6363  0.7689  0.1652
  741TMC3    C610951   2.540   2.041  13.704 -1.1948 -0.4240 -0.3636
  741TMC3     C10952   2.496   2.138  13.295  0.1356  0.5443  0.5148
  741TMC3     O10953   2.402   2.083  13.232  0.2757 -0.9112 -0.0716
  741TMC3     H10954   2.325   2.018  13.450  0.9503  0.4848 -1.5827
  741TMC3    H110955   2.712   2.192  13.447 -0.6882  0.8481 -0.4265
  741TMC3    H210956   2.537   2.022  13.810 -1.3094  0.2712 -0.2447
  741TMC3    C710957   2.742   2.183  13.701  0.1642  0.3622 -0.0577
  741TMC3    C810958   2.312   1.963  13.698 -0.6854 -0.0803  0.2434
  741TMC3    O110959   2.818   2.259  13.643 -0.2340  0.1461  0.4341
  741TMC3    O210960   2.303   2.000  13.815 -0.7892  1.1059 -0.0598
  742TMC3    C110961   1.894   0.925  15.302 -0.3514 -0.3132  0.8694
  742TMC3    C210962   1.843   0.865  15.190 -0.1018  0.6247 -0.1074
  742TMC3    C310963   1.930   0.863  15.085 -0.1379  0.5346  0.5030
  742TMC3    C410964   2.026   0.957  15.313 -0.3426 -0.1653 -0.0831
  742TMC3    C510965   2.111   0.944  15.215  0.1625  0.8255  0.0952
  742TMC3    C610966   2.062   0.899  15.096 -0.2461  0.1395 -0.2444
  742TMC3     C10967   1.796   0.950  15.415 -0.2116 -0.3088 -0.5156
  742TMC3     O10968   1.678   0.912  15.408  0.7023 -0.1853 -0.1280
  742TMC3     H10969   1.737   0.843  15.194 -0.2109  1.4608  1.8153
  742TMC3    H110970   2.074   0.996  15.402 -0.0843  0.6652 -0.5890
  742TMC3    H210971   2.136   0.879  15.020  1.4752 -2.4243  2.1224
  742TMC3    C710972   2.260   0.941  15.227  0.1424 -0.0639 -0.1896
  742TMC3    C810973   1.890   0.797  14.962 -0.3519  0.4741 -0.3413
  742TMC3    O110974   2.324   0.905  15.131  0.0831 -0.4881 -0.3368
  742TMC3    O210975   1.988   0.769  14.895  0.1540 -0.2308 -0.5058
  743MPD2     C10976   1.324   2.340   2.097  0.3679 -0.0845  0.6925
  743MPD2    C110977   1.328   2.318   1.963 -0.0204 -0.3099 -0.0922
  743MPD2    C210978   1.450   2.319   1.892 -0.8268  0.1540 -0.3447
  743MPD2    C310979   1.569   2.335   1.960 -0.3862 -0.2896 -0.3390
  743MPD2    C410980   1.560   2.358   2.094 -0.2346  0.2371 -0.0050
  743MPD2    C510981   1.440   2.359   2.161 -0.3788 -0.1053 -0.3981
  743MPD2     H10982   1.463   2.328   1.785 -0.9070 -2.0013 -0.5381
  743MPD2    H110983   1.651   2.368   2.152  1.1548  2.7209 -2.6056
  743MPD2    H210984   1.236   2.332   2.160 -0.2557  0.4352 -0.1124
  743MPD2    H310985   1.445   2.364   2.269  1.2229  1.3047 -0.5200
  743MPD2     N10986   1.688   2.334   1.891  0.4474  0.3742 -0.2133
  743MPD2    H510987   1.685   2.312   1.792  2.1329 -0.5923 -0.0304
  743MPD2    N110988   1.205   2.293   1.896 -0.5650 -0.4181 -0.2075
  743MPD2    H710989   1.121   2.310   1.949 -0.2213  4.3373 -1.2266
  744TMC3    C110990   1.063   2.245   1.705  0.1600 -0.3105 -0.1828
  744TMC3    C210991   0.963   2.263   1.793 -0.2747  0.7114 -0.3062
  744TMC3    C310992   0.842   2.199   1.763 -0.2839 -0.2465  0.6643
  744TMC3    C410993   1.059   2.178   1.583 -0.0544 -0.3389 -0.3458
  744TMC3    C510994   0.935   2.136   1.552  0.7591 -0.4597  0.5270
  744TMC3    C610995   0.826   2.144   1.636 -0.1197  0.6663  0.0093
  744TMC3     C10996   1.197   2.271   1.758  0.2310 -0.6701 -0.7809
  744TMC3     O10997   1.284   2.243   1.675 -0.4354 -0.1583  0.5135
  744TMC3     H10998   0.968   2.341   1.869 -1.1062 -0.9985  1.4899
  744TMC3    H110999   1.141   2.157   1.514  1.3276 -0.1576  1.2530
  744TMC3    H211000   0.725   2.121   1.602 -0.2521 -1.5691  1.9549
  744TMC3    C711001   0.919   2.111   1.409  0.3627  0.5585 -0.1233
  744TMC3    C811002   0.725   2.212   1.841 -0.6402  0.0897  0.3747
  744TMC3    O111003   0.990   2.168   1.328 -0.2302 -0.7928 -0.3683
  744TMC3    O211004   0.620   2.214   1.781  0.2898  0.2187 -0.2350
  745TMC3    C111005   2.433   0.193  13.643 -0.1681  0.4315  0.2293
  745TMC3    C211006   2.339   0.231  13.735 -0.1634 -0.0823  0.0035
  745TMC3    C311007   2.229   0.291  13.685  0.2835  0.5721  0.2510
  745TMC3    C411008   2.416   0.220  13.510 -0.2554  0.1405  0.6160
  745TMC3    C511009   2.301   0.271  13.465 -0.0304 -0.1506  0.3657
  745TMC3    C611010   2.201   0.310  13.556  0.2387  0.4634 -0.4474
  745TMC3     C11011   2.565   0.167  13.689  0.1644  0.4954 -0.2933
  745TMC3     O11012   2.584   0.100  13.792  0.0720 -0.1218 -0.3225
  745TMC3     H11013   2.355   0.204  13.839  0.8451 -0.1583 -0.1748
  745TMC3    H111014   2.487   0.177  13.440 -0.6116  1.2134 -0.4193
  745TMC3    H211015   2.121   0.376  13.524 -0.8826 -0.3520  0.6789
  745TMC3    C711016   2.276   0.292  13.324 -0.2665  0.2071  0.3338
  745TMC3    C811017   2.169   0.391  13.767 -0.0476  0.6532  0.4640
  745TMC3    O111018   2.160   0.330  13.292 -0.3184  0.3015  0.1600
  745TMC3    O211019   2.055   0.434  13.737 -0.4241  0.2044 -0.1664
  746TMC3    C111020   0.228   2.418  10.935 -0.3410 -0.0375  0.0539
  746TMC3    C211021   0.332   2.405  10.845 -0.1954  0.4239 -0.2038
  746TMC3    C311022   0.365   2.282  10.812 -0.3158 -0.3589 -0.2417
  746TMC3    C411023   0.145   2.314  10.976  0.0321  0.2092  0.0058
  746TMC3    C511024   0.186   2.196  10.922  0.2648  0.2918 -0.2047
  746TMC3    C611025   0.296   2.175  10.848 -0.7584 -0.1328 -0.1909
  746TMC3     C11026   0.194   2.543  10.989 -0.3802  0.0617 -0.3998
  746TMC3     O11027   0.136   2.539  11.097 -0.3022  0.3574 -0.2484
  746TMC3     H11028   0.397   2.489  10.823  0.4369 -0.3268 -1.2171
  746TMC3    H111029   0.045   2.330  11.015  0.4683  3.8670 -0.4249
  746TMC3    H211030   0.314   2.078  10.804  0.4446 -0.4590  1.0559
  746TMC3    C711031   0.091   2.092  10.908 -0.3640 -0.5438  0.5496
  746TMC3    C811032   0.456   2.262  10.709  0.3990 -0.0028 -0.1828
  746TMC3    O111033   0.092   2.034  10.798  0.6410 -0.2697  0.7008
  746TMC3    O211034   0.512   2.156  10.713  0.2560 -0.2878 -0.3312
  747TMC3    C111035   2.778   2.275  10.808 -0.2082 -0.1770 -0.1289
  747TMC3    C211036   2.718   2.157  10.850 -0.0185 -0.0504 -0.0143
  747TMC3    C311037   2.792   2.062  10.906  0.7980  1.0557  0.0479
  747TMC3    C411038   2.895   2.321  10.862  0.4694 -0.5176  0.7324
  747TMC3    C511039   2.968   2.220  10.914  1.2069 -0.2176 -0.0900
  747TMC3    C611040   2.922   2.096  10.944  0.0615 -0.2288  0.1373
  747TMC3     C11041   2.709   2.338  10.704 -0.0504  0.8484 -0.2713
  747TMC3     O11042   2.750   2.452  10.690 -0.0410  0.5184  0.3977
  747TMC3     H11043   2.613   2.139  10.829 -0.2227 -2.5903  3.1488
  747TMC3    H111044   2.936   2.421  10.857  0.8740 -0.7865 -1.2356
  747TMC3    H211045   2.971   2.018  11.002  0.3702 -1.0392 -1.2131
  747TMC3    C711046   3.096   2.259  10.971 -0.1563 -0.5484  0.0965
  747TMC3    C811047   2.722   1.954  10.977  0.3304 -0.5686  0.1506
  747TMC3    O111048   3.127   2.378  10.984  0.0699  0.3488 -0.0843
  747TMC3    O211049   2.792   1.882  11.050 -0.2271  0.2574  0.4344
  748MPD2     C11050   3.460   3.080   1.495 -0.3318  0.5388  0.1126
  748MPD2    C111051   3.488   3.209   1.467  0.2763  0.5094 -0.0301
  748MPD2    C211052   3.619   3.251   1.487 -0.3468  0.3356 -0.1124
  748MPD2    C311053   3.722   3.157   1.517  0.0903  0.8021  0.3348
  748MPD2    C411054   3.688   3.027   1.553 -0.5087 -0.4775  0.4526
  748MPD2    C511055   3.556   2.991   1.539 -0.6038 -0.3252  0.9662
  748MPD2     H11056   3.657   3.345   1.449 -0.1831 -0.1205 -1.0756
  748MPD2    H111057   3.760   2.949   1.578  1.0736  0.8021 -0.1336
  748MPD2    H211058   3.355   3.050   1.493  0.1356 -1.0890 -0.4549
  748MPD2    H311059   3.525   2.895   1.578 -0.0486 -0.8958  0.0075
  748MPD2     N11060   3.855   3.204   1.521 -0.4203  0.0929 -0.1058
  748MPD2    H511061   3.867   3.301   1.495  0.4553  0.1160  0.3788
  748MPD2    N111062   3.385   3.282   1.392 -0.1486  0.1554  0.4602
  748MPD2    H711063   3.299   3.233   1.371 -0.6408  0.7841  1.0125
  749TMC3    C111064   4.093   3.191   1.537  0.2864 -0.6901 -0.5703
  749TMC3    C211065   4.179   3.178   1.643 -1.3190  0.6190 -0.2131
  749TMC3    C311066   4.305   3.214   1.615  0.4129 -0.8011 -0.4465
  749TMC3    C411067   4.123   3.252   1.413  0.1443 -0.0592  1.0747
  749TMC3    C511068   4.251   3.295   1.405 -0.2648  0.0768 -0.0327
  749TMC3    C611069   4.341   3.278   1.503 -0.1812 -1.4450  0.0079
  749TMC3     C11070   3.963   3.120   1.554 -0.1830  0.6687  0.0845
  749TMC3     O11071   3.976   3.013   1.612 -0.3456  0.2613 -0.1627
  749TMC3     H11072   4.154   3.127   1.735  0.6464 -1.5522 -0.8756
  749TMC3    H111073   4.047   3.260   1.336  2.0949  0.5111 -0.7934
  749TMC3    H211074   4.440   3.318   1.489 -0.6802 -1.1764 -2.6997
  749TMC3    C711075   4.280   3.370   1.286  0.4480  0.6838  0.1479
  749TMC3    C811076   4.395   3.171   1.721 -0.5881  0.6112  0.2696
  749TMC3    O111077   4.360   3.458   1.298  0.2759 -0.2714  0.3609
  749TMC3    O211078   4.344   3.133   1.829  0.0014  0.1435  0.5352
  750MPD2     C11079   0.341   4.466  11.095 -0.1700 -0.2731 -0.4746
  750MPD2    C111080   0.354   4.385  11.206 -0.6062  0.2972  0.0140
  750MPD2    C211081   0.351   4.245  11.188 -0.1814  0.2724 -0.3863
  750MPD2    C311082   0.356   4.199  11.053  0.2463 -0.0447  0.1360
  750MPD2    C411083   0.357   4.286  10.950  0.5447 -0.4165 -0.1842
  750MPD2    C511084   0.350   4.419  10.967 -0.1329  0.7248 -0.0201
  750MPD2     H11085   0.356   4.179  11.273  0.3357  0.9078  0.0762
  750MPD2    H111086   0.346   4.258  10.846  1.4121 -0.1235 -0.3526
  750MPD2    H211087   0.334   4.572  11.116 -1.0304 -0.7344  1.5334
  750MPD2    H311088   0.348   4.486  10.882 -0.7157 -1.7622 -1.9585
  750MPD2     N11089   0.361   4.058  11.019  0.7235  0.1329  0.2623
  750MPD2    H511090   0.376   4.029  10.923  0.1498 -0.2558  0.2940
  750MPD2    N111091   0.373   4.446  11.333 -0.1108  0.1361 -1.0443
  750MPD2    H711092   0.363   4.547  11.338 -3.8071 -0.3632  1.8915
  751TMC3    C111093   0.333   3.819  11.050 -0.0661 -0.0701 -0.1500
  751TMC3    C211094   0.248   3.735  11.111 -0.1784  0.1821 -0.2430
  751TMC3    C311095   0.235   3.620  11.040 -0.6735  0.4624 -0.4823
  751TMC3    C411096   0.397   3.795  10.936 -0.2479 -1.0456 -0.2847
  751TMC3    C511097   0.387   3.665  10.883  1.0197  0.6028  1.0204
  751TMC3    C611098   0.305   3.573  10.936  0.3474 -0.2342  1.5859
  751TMC3     C11099   0.335   3.957  11.108  0.0018 -0.0814 -0.2250
  751TMC3     O11100   0.267   3.971  11.208 -0.2201  0.8742  0.2625
  751TMC3     H11101   0.173   3.768  11.182  0.0842 -0.9949  0.5879
  751TMC3    H111102   0.468   3.868  10.899  0.6957 -1.3586  0.9277
  751TMC3    H211103   0.282   3.475  10.897 -0.9691 -0.3233  2.5752
  751TMC3    C711104   0.487   3.617  10.798  0.3276  0.8187 -0.6489
  751TMC3    C811105   0.112   3.544  11.058  0.4800 -0.0514 -0.2848
  751TMC3    O111106   0.558   3.703  10.752  0.1372  0.5213 -1.0022
  751TMC3    O211107   0.067   3.498  10.956 -0.0968  0.1143 -0.2401
  752TMC3    C111108   3.400   3.858   0.086 -0.2643  0.7373  0.2127
  752TMC3    C211109   3.485   3.839   0.191  0.7588  0.2463  0.4284
  752TMC3    C311110   3.443   3.860   0.314  0.1991  1.0361  0.0143
  752TMC3    C411111   3.282   3.919   0.105 -0.1182  0.1828  0.2186
  752TMC3    C511112   3.247   3.958   0.234 -0.0217 -0.8190 -1.0166
  752TMC3    C611113   3.325   3.923   0.343 -0.1539 -0.3547  0.2410
  752TMC3     C11114   3.443   3.808  17.650 -0.3065 -0.2609 -0.1634
  752TMC3     O11115   3.556   3.761  17.642 -0.4715  0.1469 -0.0987
  752TMC3     H11116   3.584   3.800   0.167  1.7250  1.5025  2.3965
  752TMC3    H111117   3.206   3.920   0.028  0.3033 -3.0766 -0.2585
  752TMC3    H211118   3.301   3.935   0.448 -1.8812  0.5295 -0.2542
  752TMC3    C711119   3.116   4.018   0.243 -0.1202  0.0832 -0.2709
  752TMC3    C811120   3.512   3.776   0.411  0.1350  0.5116  0.4728
  752TMC3    O111121   3.050   4.055   0.147  0.6695  0.6293 -0.0183
  752TMC3    O211122   3.505   3.814   0.525 -0.7021  0.2519 -0.2943
  753TMC3    C111123   1.025   0.345  13.487  0.4568  0.4044 -0.1637
  753TMC3    C211124   1.040   0.346  13.621 -0.4292 -0.1456  0.1348
  753TMC3    C311125   1.040   0.221  13.678  0.3151 -0.7432  0.0986
  753TMC3    C411126   1.009   0.231  13.413 -0.0082  0.0694 -0.3750
  753TMC3    C511127   0.998   0.117  13.481 -0.2614  0.4650  0.9172
  753TMC3    C611128   1.012   0.102  13.614  0.0572  1.0581  0.6140
  753TMC3     C11129   1.050   0.466  13.402  0.3707 -0.2723  0.7154
  753TMC3     O11130   1.008   0.485  13.291 -0.2895 -0.5243  0.1219
  753TMC3     H11131   1.039   0.445  13.665  2.8134  0.7581 -1.8042
  753TMC3    H111132   1.004   0.227  13.305  2.4504  0.4778 -0.5152
  753TMC3    H211133   0.998   0.010  13.670  2.2992  1.0862  1.2372
  753TMC3    C711134   1.001   4.710  13.410 -0.0923  1.2038  0.3992
  753TMC3    C811135   1.067   0.211  13.819  0.9436 -0.7247 -0.1304
  753TMC3    O111136   1.058   4.718  13.301 -0.3703 -0.0756  0.0678
  753TMC3    O211137   1.032   0.109  13.872  0.6962 -0.1331  0.8814
  754MPD2     C11138   0.354   3.893  13.312  0.1271 -0.3430 -0.3452
  754MPD2    C111139   0.352   3.762  13.351 -0.3253  1.0853  0.4211
  754MPD2    C211140   0.248   3.682  13.302  0.1011 -0.2226 -0.5876
  754MPD2    C311141   0.139   3.735  13.229 -0.2653 -0.2125 -1.5580
  754MPD2    C411142   0.148   3.868  13.197 -0.3176 -0.5175 -0.8647
  754MPD2    C511143   0.259   3.943  13.237 -0.3798 -0.0435  0.4550
  754MPD2     H11144   0.236   3.578  13.332  0.5395  0.3840  1.7039
  754MPD2    H111145   0.070   3.924  13.148 -0.6422 -0.0906  0.1630
  754MPD2    H211146   0.415   3.972  13.356 -0.1972  0.4341 -1.2751
  754MPD2    H311147   0.263   4.049  13.211 -0.2899  0.4028  2.2777
  754MPD2     N11148   0.021   3.670  13.185  0.0168 -0.5712 -0.4885
  754MPD2    H511149   4.676   3.724  13.132 -0.7936 -0.4013  0.7083
  754MPD2    N111150   0.463   3.723  13.433 -0.5714 -0.1626 -0.0759
  754MPD2    H711151   0.537   3.792  13.435 -0.4968 -0.2193 -1.2150
  755MPD2     C11152   4.050   4.080  12.902 -0.2544 -0.1405  0.2933
  755MPD2    C111153   3.998   3.954  12.912 -0.3828  0.4873  0.7675
  755MPD2    C211154   4.093   3.851  12.936  0.0199  0.3055 -0.4323
  755MPD2    C311155   4.226   3.874  12.945 -0.6640  0.2724 -0.5064
  755MPD2    C411156   4.275   4.004  12.947  0.0120 -0.7877 -0.3803
  755MPD2    C511157   4.182   4.103  12.939 -0.7141  0.0344 -0.0456
  755MPD2     H11158   4.053   3.750  12.930 -1.4226  1.0044 -2.9336
  755MPD2    H111159   4.379   4.035  12.955 -0.6456  1.4880 -0.5191
  755MPD2    H211160   3.981   4.159  12.876 -0.6481 -0.5549  0.0758
  755MPD2    H311161   4.223   4.203  12.939 -1.0983  0.1877  1.3561
  755MPD2     N11162   4.318   3.766  12.958 -0.1566  0.0937  0.2570
  755MPD2    H511163   4.418   3.775  12.975 -0.1081  1.3542 -0.6959
  755MPD2    N111164   3.868   3.908  12.895  0.1665 -0.5128  0.0437
  755MPD2    H711165   3.850   3.808  12.896 -1.0697 -0.3136 -2.3169
  756MPD2     C11166   0.502   0.151   9.256 -0.7109 -0.2926 -0.7082
  756MPD2    C111167   0.556   0.048   9.331  0.3015 -0.1586 -0.7548
  756MPD2    C211168   0.486   4.649   9.329 -0.0094  0.2245  0.4523
  756MPD2    C311169   0.362   4.644   9.269  0.4076 -0.2575 -0.1181
  756MPD2    C411170   0.312   0.021   9.182 -0.3618 -0.1200  0.3514
  756MPD2    C511171   0.387   0.135   9.178  0.3456 -0.3697 -0.3228
  756MPD2     H11172   0.532   4.565   9.381  0.0782 -1.3061 -2.0863
  756MPD2    H111173   0.232   0.016   9.108  1.2486  0.1777 -1.4175
  756MPD2    H211174   0.547   0.250   9.251 -0.0521 -0.4749  1.7124
  756MPD2    H311175   0.354   0.212   9.110 -1.2284 -0.4177  0.3831
  756MPD2     N11176   0.296   4.526   9.291 -0.7097 -0.9051  0.0279
  756MPD2    H511177   0.336   4.467   9.363 -1.3739 -0.2860  0.9065
  756MPD2    N111178   0.674   0.062   9.411 -0.2666  0.3141 -0.1766
  756MPD2    H711179   0.712   4.697   9.446  0.1679  0.2940 -0.6903
  757MPD2     C11180   4.249   3.789   9.013 -0.0245 -0.0834 -0.6361
  757MPD2    C111181   4.335   3.730   9.109  0.2540 -0.0627 -0.5943
  757MPD2    C211182   4.428   3.819   9.161  0.2306 -0.2366 -0.0080
  757MPD2    C311183   4.439   3.952   9.129 -0.8871 -0.0499 -0.9372
  757MPD2    C411184   4.358   4.006   9.032  0.4415  0.0576  0.2563
  757MPD2    C511185   4.271   3.917   8.971  0.2308 -0.2073 -0.3448
  757MPD2     H11186   4.493   3.785   9.240 -2.2334  0.9956  2.5331
  757MPD2    H111187   4.350   4.107   8.994  0.2080  0.1096  0.4411
  757MPD2    H211188   4.172   3.728   8.967  1.5889 -1.1156 -2.0045
  757MPD2    H311189   4.204   3.955   8.895  0.2285  1.3263  0.4058
  757MPD2     N11190   4.528   4.032   9.201 -0.6496 -0.2506  0.0316
  757MPD2    H511191   4.574   3.998   9.284  0.3631 -0.5202 -0.6351
  757MPD2    N111192   4.301   3.598   9.160 -0.4585 -0.3018  0.1002
  757MPD2    H711193   4.215   3.565   9.118 -0.3411 -1.0120  0.4171
  758MPD2     C11194   3.947   3.579  16.221 -0.1346  0.9753 -0.0854
  758MPD2    C111195   4.058   3.585  16.305 -0.2095 -0.2946 -0.3990
  758MPD2    C211196   4.061   3.660  16.421 -0.1858 -0.7909 -0.1333
  758MPD2    C311197   3.956   3.737  16.453  0.5025  0.5236 -0.8041
  758MPD2    C411198   3.846   3.741  16.365 -0.1312  0.0609  0.6669
  758MPD2    C511199   3.842   3.662  16.254 -0.2355  0.0417 -0.1672
  758MPD2     H11200   4.148   3.649  16.485 -0.5733  0.8993  0.6990
  758MPD2    H111201   3.758   3.799  16.390  0.2514  0.7649  0.3728
  758MPD2    H211202   3.954   3.534  16.123 -0.8034 -0.4696  0.5293
  758MPD2    H311203   3.751   3.665  16.195  0.0355  0.5808 -0.5468
  758MPD2     N11204   3.958   3.818  16.569  0.0777 -0.0998 -0.7180
  758MPD2    H511205   3.866   3.851  16.595  0.7707  2.3432 -1.4213
  758MPD2    N111206   4.168   3.511  16.263  0.1248  0.0128  0.2735
  758MPD2    H711207   4.168   3.439  16.192 -0.5257 -0.9267  1.2178
  759MPD2     C11208   3.167   1.901   9.308  0.0592  0.2072 -0.4136
  759MPD2    C111209   3.241   1.838   9.410  0.1525 -0.0199 -0.1002
  759MPD2    C211210   3.376   1.861   9.421  0.8591 -0.5237  0.8293
  759MPD2    C311211   3.436   1.955   9.342  0.2188  0.1985 -0.6676
  759MPD2    C411212   3.362   2.019   9.241 -0.7435  0.7654 -0.3284
  759MPD2    C511213   3.231   1.995   9.238 -0.1085 -0.2209  0.0245
  759MPD2     H11214   3.421   1.814   9.509  0.5705 -0.0445  1.2286
  759MPD2    H111215   3.404   2.085   9.165  1.4233 -1.2842 -0.8959
  759MPD2    H211216   3.063   1.883   9.287  0.4131  0.3356 -2.2269
  759MPD2    H311217   3.182   2.046   9.155  0.3106  1.4742  0.8095
  759MPD2     N11218   3.569   1.983   9.371  0.4572  0.4661 -0.4651
  759MPD2    H511219   3.612   1.926   9.443  0.0677  0.4354 -0.2583
  759MPD2    N111220   3.185   1.730   9.489 -0.7487  0.0360  0.5493
  759MPD2    H711221   3.246   1.676   9.548  0.6228  0.2736 -0.6362
  760MPD2     C11222   3.392   3.352  11.863 -0.3423  0.5925  0.5104
  760MPD2    C111223   3.524   3.345  11.834 -0.3655 -0.8235 -0.5378
  760MPD2    C211224   3.598   3.242  11.887 -0.0046 -0.1202 -0.1704
  760MPD2    C311225   3.542   3.143  11.970 -0.1208  0.7255  0.0998
  760MPD2    C411226   3.402   3.143  11.994 -0.3757 -0.0735 -0.1811
  760MPD2    C511227   3.331   3.244  11.929 -0.0076  0.6681  0.3712
  760MPD2     H11228   3.702   3.243  11.857 -0.3118 -0.6219 -1.2399
  760MPD2    H111229   3.360   3.064  12.054 -1.2722  0.4596 -0.1109
  760MPD2    H211230   3.330   3.439  11.846  0.1609  0.5520 -1.6243
  760MPD2    H311231   3.225   3.254  11.947 -0.0556 -4.0255  2.5577
  760MPD2     N11232   3.616   3.042  12.033  0.2532 -0.8693 -0.1776
  760MPD2    H511233   3.556   2.987  12.093  0.9318 -1.4809 -0.0609
  760MPD2    N111234   3.598   3.443  11.760 -0.2202 -0.4146  0.0029
  760MPD2    H711235   3.695   3.448  11.790 -0.1162  2.3540 -0.8004
  761MPD2     C11236   4.407   3.399  11.299  0.0490 -0.4016  0.6895
  761MPD2    C111237   4.441   3.389  11.164 -0.7469 -0.2297 -0.1093
  761MPD2    C211238   4.561   3.442  11.130 -0.3903 -0.3734  0.3088
  761MPD2    C311239   4.654   3.496  11.220  0.0501  0.1482  0.8141
  761MPD2    C411240   4.604   3.521  11.347 -0.7498  0.5626  0.0920
  761MPD2    C511241   4.487   3.464  11.390  0.5809  0.7515  0.5625
  761MPD2     H11242   4.596   3.431  11.028 -2.5418  1.7067 -0.6244
  761MPD2    H111243   4.665   3.559  11.428  0.1739  0.6627 -0.6413
  761MPD2    H211244   4.315   3.353  11.335 -0.8184 -0.7925 -2.0068
  761MPD2    H311245   4.455   3.474  11.493 -1.3442  0.5730 -0.0194
  761MPD2     N11246   0.058   3.550  11.186  0.1033  0.2719 -0.4215
  761MPD2    H511247   0.111   3.603  11.253  0.3621 -0.1981 -0.2509
  761MPD2    N111248   4.368   3.323  11.069 -0.1230  0.4730  0.0179
  761MPD2    H711249   4.297   3.257  11.100 -0.1968 -0.7385 -2.8162
  762MPD2     C11250   0.087   3.389  10.639 -0.2345 -0.0896  0.8230
  762MPD2    C111251   0.046   3.257  10.608 -0.5940 -0.2776 -0.1743
  762MPD2    C211252   0.120   3.185  10.516 -0.5577 -0.5086  0.8530
  762MPD2    C311253   0.222   3.248  10.451 -0.2601 -0.1666 -0.4901
  762MPD2    C411254   0.261   3.380  10.474 -0.6441 -0.4136 -0.2932
  762MPD2    C511255   0.197   3.448  10.575  0.4759 -0.7258 -0.5594
  762MPD2     H11256   0.088   3.086  10.488  0.1197 -0.1184 -1.2745
  762MPD2    H111257   0.337   3.441  10.425 -1.5594 -0.6452 -1.9938
  762MPD2    H211258   0.034   3.455  10.707 -1.2892 -2.6029  2.4290
  762MPD2    H311259   0.230   3.550  10.593 -1.1564 -0.1457 -0.8226
  762MPD2     N11260   0.296   3.179  10.353  0.4894  0.3911  0.1345
  762MPD2    H511261   0.297   3.077  10.349 -3.2029  0.4007 -1.7987
  762MPD2    N111262   4.650   3.207  10.667  0.0926 -0.0508 -0.7184
  762MPD2    H711263   4.605   3.265  10.737 -2.6537  0.3791 -2.8907
  763MPD2     C11264   1.877   3.563  15.998  0.9532  0.1511 -0.1011
  763MPD2    C111265   1.761   3.623  16.032  1.2534  0.6532 -0.1439
  763MPD2    C211266   1.770   3.746  16.098 -0.3155  0.2541 -0.4060
  763MPD2    C311267   1.889   3.815  16.132  0.6092 -0.5323 -0.7391
  763MPD2    C411268   2.004   3.740  16.115 -0.4409 -0.2726 -0.3138
  763MPD2    C511269   1.997   3.620  16.045 -0.1749 -0.9208 -0.5763
  763MPD2     H11270   1.675   3.790  16.128 -0.1934  1.0391 -1.1545
  763MPD2    H111271   2.097   3.776  16.156  0.3477 -2.8231  0.0999
  763MPD2    H211272   1.885   3.475  15.936  1.3463  0.5501 -0.6158
  763MPD2    H311273   2.079   3.550  16.043 -0.5140 -1.2869 -1.4301
  763MPD2     N11274   1.905   3.933  16.193 -0.0123 -0.0669 -0.0467
  763MPD2    H511275   1.997   3.956  16.230 -0.4954  2.6440 -0.5170
  763MPD2    N111276   1.636   3.576  15.998 -0.3219  0.2852 -0.0815
  763MPD2    H711277   1.558   3.637  16.018 -0.4707 -0.1228  0.5964
  764MPD2     C11278   4.316   0.904  17.670  0.7549 -0.3671 -0.0972
  764MPD2    C111279   4.355   0.825  17.567  0.0511  0.2489  0.0052
  764MPD2    C211280   4.418   0.705  17.593 -0.1592 -0.4752 -1.2014
  764MPD2    C311281   4.439   0.658   0.032  0.1957 -0.5043  0.1449
  764MPD2    C411282   4.404   0.739   0.138 -0.2991  0.1307  0.2829
  764MPD2    C511283   4.338   0.858   0.109 -0.0286  0.0222 -0.4821
  764MPD2     H11284   4.440   0.633  17.515  2.9125  0.3961 -1.1542
  764MPD2    H111285   4.418   0.710   0.241 -0.6033  1.3782  0.6765
  764MPD2    H211286   4.266   0.997  17.647  2.4582  0.3345 -1.0334
  764MPD2    H311287   4.294   0.911   0.193 -0.3323 -0.2098 -0.4959
  764MPD2     N11288   4.470   0.517   0.049 -0.1562  0.2344  0.2236
  764MPD2    H511289   4.452   0.465  17.656  1.2582 -0.2338  0.2131
  764MPD2    N111290   4.314   0.854  17.432  0.2742 -0.7236  0.1253
  764MPD2    H711291   4.343   0.785  17.364  0.8660 -0.9390  0.6017
  765MPD2     C11292   4.187   2.889  15.358 -0.3522  0.0613  0.4419
  765MPD2    C111293   4.211   2.916  15.495 -0.1316 -0.8296  0.2709
  765MPD2    C211294   4.322   2.861  15.555  0.3315 -0.6362 -0.1841
  765MPD2    C311295   4.401   2.769  15.480 -0.5383  0.1076  0.0501
  765MPD2    C411296   4.380   2.751  15.346  0.1206  0.2997 -0.4294
  765MPD2    C511297   4.266   2.805  15.291  0.3945  0.3659  0.5766
  765MPD2     H11298   4.338   2.879  15.661 -0.3200 -0.1812 -0.1602
  765MPD2    H111299   4.442   2.689  15.282  1.8363  0.4135  1.1250
  765MPD2    H211300   4.101   2.932  15.306 -0.1720 -1.3505 -1.0435
  765MPD2    H311301   4.248   2.775  15.189  1.9596  0.2516  0.3323
  765MPD2     N11302   4.506   2.718  15.554  0.1636 -0.5078 -0.6061
  765MPD2    H511303   4.525   2.751  15.648 -0.6691 -0.8647 -0.3184
  765MPD2    N111304   4.118   3.005  15.556 -0.8486  0.5127 -0.2926
  765MPD2    H711305   4.035   3.023  15.500  0.3321  0.5619 -2.0190
  766MPD2     C11306   3.722   3.385  15.139 -1.0602  0.3766  0.1466
  766MPD2    C111307   3.801   3.293  15.207  0.0395  0.2728  0.8315
  766MPD2    C211308   3.879   3.204  15.131 -0.0385 -0.3427  0.1160
  766MPD2    C311309   3.868   3.196  14.995  0.4797  0.9167  0.5044
  766MPD2    C411310   3.782   3.280  14.930  0.3215  0.3510 -0.3633
  766MPD2    C511311   3.713   3.372  15.000 -0.2994 -0.7697 -0.8681
  766MPD2     H11312   3.949   3.139  15.183 -1.5924 -1.9545  0.1995
  766MPD2    H111313   3.787   3.301  14.824  0.0872 -2.5410 -0.9590
  766MPD2    H211314   3.662   3.454  15.197 -2.1542  1.9409 -2.8596
  766MPD2    H311315   3.642   3.440  14.955  0.4185  1.7785  1.8916
  766MPD2     N11316   3.952   3.114  14.915 -1.0879  0.2577 -0.2947
  766MPD2    H511317   3.959   3.141  14.818  0.1164 -0.0837 -0.3067
  766MPD2    N111318   3.800   3.290  15.345 -0.0611 -0.2790 -0.6109
  766MPD2    H711319   3.752   3.368  15.390 -0.7950 -1.5601  0.8248
  767MPD2     C11320   3.500   3.189  14.793 -0.0427  0.3247 -0.2088
  767MPD2    C111321   3.541   3.268  14.691 -0.6423 -0.1216  0.2143
  767MPD2    C211322   3.626   3.211  14.600 -0.1859 -0.0677 -0.5980
  767MPD2    C311323   3.662   3.074  14.593 -0.1089 -0.0459  0.1719
  767MPD2    C411324   3.619   2.997  14.697  0.6504  0.4774  0.6846
  767MPD2    C511325   3.541   3.060  14.800  0.1786 -0.3224  0.1098
  767MPD2     H11326   3.677   3.267  14.523 -1.4702  1.5029 -0.2996
  767MPD2    H111327   3.631   2.889  14.703 -2.4611  0.1537  1.0092
  767MPD2    H211328   3.436   3.233  14.869 -0.1751 -1.3659  0.6479
  767MPD2    H311329   3.499   3.004  14.883 -2.0970  0.9987 -0.1673
  767MPD2     N11330   3.741   3.012  14.489  0.7298 -0.1869 -0.2997
  767MPD2    H511331   3.773   3.072  14.415 -1.1777  0.7207 -0.3880
  767MPD2    N111332   3.501   3.400  14.689  0.1578 -0.2312  0.0811
  767MPD2    H711333   3.443   3.432  14.766  0.4432 -1.3926  0.7763
  768MPD2     C11334   0.158   1.888  10.417 -0.0455 -0.2995 -0.2613
  768MPD2    C111335   0.156   1.788  10.507 -0.1555 -0.6391 -1.0063
  768MPD2    C211336   0.257   1.790  10.604 -0.9911 -0.0052 -0.2452
  768MPD2    C311337   0.359   1.889  10.603 -0.3005 -0.0331 -0.5392
  768MPD2    C411338   0.358   1.986  10.499  0.6080  0.7050 -0.6994
  768MPD2    C511339   0.258   1.982  10.412 -1.2116  0.1416 -1.0615
  768MPD2     H11340   0.260   1.710  10.676 -1.7150 -0.2768 -0.5180
  768MPD2    H111341   0.435   2.062  10.492 -0.0148  1.3078 -1.0439
  768MPD2    H211342   0.071   1.898  10.353 -0.6653 -0.0229  0.6334
  768MPD2    H311343   0.247   2.056  10.333  0.2412  0.3418 -1.0868
  768MPD2     N11344   0.462   1.879  10.699  0.3824 -0.4078 -0.0125
  768MPD2    H511345   0.529   1.955  10.707 -1.0374  0.7729  0.5191
  768MPD2    N111346   0.052   1.693  10.521 -0.1883 -0.4268 -0.6034
  768MPD2    H711347   0.058   1.645  10.611  1.0406 -2.1940 -1.6163
  769MPD2     C11348   0.832   4.128  15.131 -0.7152  0.5115  0.5915
  769MPD2    C111349   0.707   4.171  15.164  0.1410 -0.3463  0.0801
  769MPD2    C211350   0.687   4.267  15.262  0.1209 -0.2557  0.2280
  769MPD2    C311351   0.800   4.315  15.332  0.3562  0.6035  0.4977
  769MPD2    C411352   0.921   4.266  15.303 -0.3739  0.0119  0.2875
  769MPD2    C511353   0.938   4.167  15.212 -0.3641 -0.1788 -0.0441
  769MPD2     H11354   0.591   4.310  15.287  0.2463 -0.2653  0.7304
  769MPD2    H111355   1.004   4.304  15.361 -2.4632  3.3817  1.1099
  769MPD2    H211356   0.854   4.053  15.055 -2.2181  0.3246  0.3508
  769MPD2    H311357   1.035   4.118  15.207 -0.5739 -0.6908  0.7202
  769MPD2     N11358   0.785   4.412  15.437 -0.4925  0.2360 -0.1724
  769MPD2    H511359   0.695   4.455  15.455 -0.7210  0.5807 -2.2132
  769MPD2    N111360   0.601   4.134  15.083 -0.6164  0.2512  0.4601
  769MPD2    H711361   0.618   4.067  15.008  2.6669  1.5969  0.0210
  770MPD2     C11362   0.120   3.311  14.865  0.3048 -0.3066  0.3821
  770MPD2    C111363   0.021   3.404  14.887  0.4764  0.0852  0.4901
  770MPD2    C211364   0.060   3.536  14.884  0.2029 -0.4377  0.5562
  770MPD2    C311365   0.199   3.576  14.876 -0.2070 -0.1354 -0.3048
  770MPD2    C411366   0.297   3.482  14.854 -0.1378  0.7030  0.0572
  770MPD2    C511367   0.253   3.348  14.844 -0.2614  0.8371  0.2674
  770MPD2     H11368   4.709   3.615  14.895  0.4025 -0.2557  0.5831
  770MPD2    H111369   0.402   3.504  14.838 -0.0323  0.4827  0.4460
  770MPD2    H211370   0.100   3.204  14.861 -1.9425  0.1500 -0.7908
  770MPD2    H311371   0.330   3.271  14.838 -1.4237 -0.3576  0.6737
  770MPD2     N11372   0.221   3.714  14.877 -0.4316 -0.2288 -0.4440
  770MPD2    H511373   0.142   3.777  14.872  0.9275  1.4611 -0.3224
  770MPD2    N111374   4.611   3.358  14.920  0.2974  0.3994 -0.2909
  770MPD2    H711375   4.598   3.258  14.918 -0.8943  0.5647 -0.8012
  771MPD2     C11376   1.938   1.931  13.361 -0.1781 -0.4579  0.9633
  771MPD2    C111377   1.875   2.051  13.342 -0.4775  0.7158 -0.7856
  771MPD2    C211378   1.768   2.060  13.254 -0.2779  0.1450  0.2532
  771MPD2    C311379   1.745   1.949  13.171  0.1539 -0.5189 -0.3641
  771MPD2    C411380   1.818   1.825  13.185 -0.0060  0.0123  0.2277
  771MPD2    C511381   1.912   1.815  13.288 -0.0849 -0.8573 -0.0776
  771MPD2     H11382   1.724   2.158  13.246 -1.2614 -0.3287 -0.0849
  771MPD2    H111383   1.790   1.740  13.124  2.2591 -0.0374 -0.7303
  771MPD2    H211384   2.027   1.921  13.422  1.4542 -1.8955 -1.6365
  771MPD2    H311385   1.971   1.727  13.309  1.3928 -0.0230 -0.7505
  771MPD2     N11386   1.654   1.979  13.068 -0.0425 -0.0864  0.4370
  771MPD2    H511387   1.602   2.065  13.070  1.0896  0.5846  1.0933
  771MPD2    N111388   1.910   2.172  13.420 -0.2180 -0.1202  0.1687
  771MPD2    H711389   1.846   2.251  13.424 -0.7977 -0.6021  0.3807
  772MPD2     C11390   1.538   2.593  13.808 -0.6931  0.5613  0.5806
  772MPD2    C111391   1.576   2.525  13.696  0.6483 -0.9165 -0.1152
  772MPD2    C211392   1.480   2.512  13.599 -0.0809  0.4764 -0.6135
  772MPD2    C311393   1.352   2.572  13.615 -0.6735  0.4513  0.3529
  772MPD2    C411394   1.321   2.642  13.729  0.3188 -0.2952  0.1765
  772MPD2    C511395   1.412   2.642  13.826 -0.3066  1.1394 -0.3468
  772MPD2     H11396   1.505   2.455  13.510  1.2861  1.0005 -0.5657
  772MPD2    H111397   1.222   2.687  13.741  1.0903  1.4332  0.1088
  772MPD2    H211398   1.601   2.594  13.896 -1.7173 -0.8639  1.3368
  772MPD2    H311399   1.382   2.679  13.923  1.6212 -0.0210  0.7063
  772MPD2     N11400   1.250   2.558  13.518  0.2223 -0.2270  0.2917
  772MPD2    H511401   1.179   2.630  13.527 -2.3478 -2.6714 -0.8924
  772MPD2    N111402   1.706   2.475  13.674  0.1828 -0.1449 -0.2194
  772MPD2    H711403   1.728   2.425  13.589 -0.5870 -1.9553  0.6536
  773MPD2     C11404   0.557   4.243   0.629  0.1948 -0.0422 -0.5372
  773MPD2    C111405   0.434   4.183   0.635 -0.8467  0.6632 -0.1043
  773MPD2    C211406   0.438   4.046   0.650 -0.5226 -0.2019  0.3940
  773MPD2    C311407   0.552   3.977   0.676 -0.4817  0.5088 -0.5775
  773MPD2    C411408   0.677   4.036   0.686  0.0685 -0.3897 -0.2512
  773MPD2    C511409   0.676   4.176   0.660  0.8210 -0.3065  0.0206
  773MPD2     H11410   0.348   3.986   0.640  0.8730 -1.9771 -1.5769
  773MPD2    H111411   0.770   3.983   0.701  0.2873  0.0925  0.0763
  773MPD2    H211412   0.553   4.347   0.599  1.8622 -0.3078 -1.7159
  773MPD2    H311413   0.773   4.226   0.663 -0.7785  2.7681  0.7314
  773MPD2     N11414   0.541   3.835   0.683  0.2405  0.0468 -0.1466
  773MPD2    H511415   0.449   3.799   0.658  0.0854 -0.9854  1.9068
  773MPD2    N111416   0.310   4.237   0.589  0.5108 -0.0549  0.0183
  773MPD2    H711417   0.235   4.170   0.594 -0.1539  0.7463  0.6495
  774MPD2     C11418   4.681   2.760  13.539 -0.5471 -0.4620  0.4343
  774MPD2    C111419   0.022   2.764  13.664  0.2311  0.1993 -0.5662
  774MPD2    C211420   0.078   2.886  13.695 -0.0006 -0.4872  0.4520
  774MPD2    C311421   0.088   2.989  13.602  0.4248 -0.1605  0.5748
  774MPD2    C411422   0.017   2.983  13.481 -0.0391  0.7052 -0.2079
  774MPD2    C511423   4.674   2.865  13.455  0.5886  0.1640  0.8772
  774MPD2     H11424   0.135   2.883  13.787  1.5656 -0.5047 -0.5160
  774MPD2    H111425   0.016   3.069  13.415 -1.2573  0.0156 -1.0886
  774MPD2    H211426   4.633   2.671  13.501 -1.5023 -0.3567  1.4112
  774MPD2    H311427   4.619   2.850  13.363  1.4224 -0.5380  0.4949
  774MPD2     N11428   0.168   3.100  13.631 -0.3359  0.4073  0.1603
  774MPD2    H511429   0.174   3.115  13.732  1.3142 -1.3686  0.3130
  774MPD2    N111430   0.018   2.644  13.736  0.0602 -0.3173  0.9704
  774MPD2    H711431   4.697   2.567  13.686  0.2326 -0.2548  0.7207
  775MPD2     C11432   0.977   4.348  16.023 -0.4445 -0.2589 -0.8720
  775MPD2    C111433   0.957   4.479  16.065 -0.7580  0.0152  0.2009
  775MPD2    C211434   1.024   4.585  16.007 -0.3865  0.6934 -0.2096
  775MPD2    C311435   1.124   4.563  15.912  0.0432 -0.0298  0.5752
  775MPD2    C411436   1.145   4.431  15.870  0.3858 -0.0023  0.0445
  775MPD2    C511437   1.076   4.325  15.927 -0.4397  0.4310 -0.8541
  775MPD2     H11438   1.008   4.687  16.039 -0.6692  0.3786  0.6411
  775MPD2    H111439   1.209   4.411  15.785 -2.6445 -2.2068 -1.7423
  775MPD2    H211440   0.933   4.257  16.061  0.8039  0.2658  1.7795
  775MPD2    H311441   1.104   4.224  15.901 -1.1190 -0.0469  0.2698
  775MPD2     N11442   1.204   4.668  15.848 -0.5437  0.3834  0.2697
  775MPD2    H511443   1.258   4.645  15.765  1.4790  0.3234  1.6080
  775MPD2    N111444   0.844   4.513  16.146  0.0957  0.5674 -0.3663
  775MPD2    H711445   0.796   4.435  16.191  1.1268  0.4747  0.5649
  776MPD2     C11446   0.539   0.302  11.337 -0.0650  0.1090 -1.4570
  776MPD2    C111447   0.614   0.253  11.446  0.4049 -0.0652  0.3242
  776MPD2    C211448   0.721   0.318  11.498 -0.2008 -0.6646 -0.3134
  776MPD2    C311449   0.748   0.445  11.453  0.5854  0.2768  0.3189
  776MPD2    C411450   0.673   0.502  11.349  0.3110  0.0363 -0.1986
  776MPD2    C511451   0.564   0.433  11.300  0.0643  0.1326  0.0604
  776MPD2     H11452   0.790   0.271  11.567  0.2044 -0.4371 -0.5661
  776MPD2    H111453   0.697   0.594  11.297 -0.3530  0.4799  0.2742
  776MPD2    H211454   0.451   0.257  11.291  0.5059  0.5670 -3.0209
  776MPD2    H311455   0.506   0.475  11.219  0.6775 -0.6350 -0.7835
  776MPD2     N11456   0.868   0.514  11.492  0.5898 -0.2667  0.0998
  776MPD2    H511457   0.885   0.597  11.436  0.0514 -0.3412 -0.1678
  776MPD2    N111458   0.564   0.131  11.499 -0.3768  0.4733 -0.5744
  776MPD2    H711459   0.483   0.089  11.453 -0.5330 -1.2038  1.2842
  777MPD2     C11460   0.453   2.833   0.885 -0.4108 -0.3523  0.1620
  777MPD2    C111461   0.491   2.734   0.974  0.3308  0.7224 -0.3213
  777MPD2    C211462   0.541   2.616   0.915 -0.0389 -0.0395  0.6515
  777MPD2    C311463   0.545   2.593   0.780  0.1874 -0.2901  0.8632
  777MPD2    C411464   0.510   2.694   0.695  0.2749 -0.1480  0.4754
  777MPD2    C511465   0.464   2.809   0.747 -0.6253  0.7601  0.3866
  777MPD2     H11466   0.578   2.533   0.973  0.9746 -0.7246 -0.9688
  777MPD2    H111467   0.514   2.674   0.589 -1.6026 -2.6977  0.8890
  777MPD2    H211468   0.408   2.929   0.911  0.4742 -0.5708  2.5065
  777MPD2    H311469   0.441   2.892   0.680  0.2535  1.0921  0.4850
  777MPD2     N11470   0.603   2.466   0.728  0.4202  0.3268 -0.0814
  777MPD2    H511471   0.639   2.403   0.799 -0.3220 -1.3331 -1.1712
  777MPD2    N111472   0.470   2.757   1.117  0.2652  0.0910 -0.3528
  777MPD2    H711473   0.433   2.847   1.145 -0.0158 -0.5732  1.3685
  778MPD2     C11474   1.626   2.970  14.927 -0.3280  0.6401 -0.5563
  778MPD2    C111475   1.694   2.855  14.879  0.5440 -0.4160  0.4908
  778MPD2    C211476   1.819   2.871  14.820 -0.1795  0.3914  0.0808
  778MPD2    C311477   1.880   3.000  14.821  0.1699 -0.1249 -0.0566
  778MPD2    C411478   1.807   3.106  14.867 -0.1390 -0.3561 -0.3899
  778MPD2    C511479   1.680   3.092  14.911 -0.6097  0.3890 -0.1602
  778MPD2     H11480   1.879   2.784  14.796 -0.9245  0.3232 -1.5555
  778MPD2    H111481   1.852   3.205  14.875 -0.5178 -0.3814  1.9768
  778MPD2    H211482   1.523   2.959  14.960  0.4127 -0.6761  1.3642
  778MPD2    H311483   1.615   3.170  14.948  1.3136  0.9793  1.9053
  778MPD2     N11484   2.014   3.010  14.776 -0.6519  0.2974 -0.3243
  778MPD2    H511485   2.055   2.923  14.743  0.6156  1.2691 -1.3143
  778MPD2    N111486   1.637   2.726  14.892  0.2955  0.4333  0.0885
  778MPD2    H711487   1.680   2.647  14.846 -2.1613 -0.6177 -0.4084
  779MPD2     C11488   1.214   1.445  14.139 -0.3184 -0.7178 -0.0069
  779MPD2    C111489   1.342   1.410  14.169  0.7203 -0.9568  0.2411
  779MPD2    C211490   1.443   1.507  14.169  0.5360  0.0887 -0.0167
  779MPD2    C311491   1.410   1.634  14.152 -0.3999 -0.2825 -0.1464
  779MPD2    C411492   1.281   1.671  14.127  0.0995 -0.3688 -0.5612
  779MPD2    C511493   1.188   1.574  14.126  0.8080  0.2055  0.4229
  779MPD2     H11494   1.546   1.487  14.194  1.0700  1.0486 -1.4510
  779MPD2    H111495   1.243   1.769  14.101 -0.6269  0.0509  2.0557
  779MPD2    H211496   1.130   1.378  14.131  0.6910 -2.0155  0.3813
  779MPD2    H311497   1.085   1.601  14.105  0.8486  0.2687  0.3047
  779MPD2     N11498   1.512   1.731  14.164 -0.1101 -0.7687 -0.1539
  779MPD2    H511499   1.609   1.698  14.161 -0.9028 -3.2861  1.1678
  779MPD2    N111500   1.376   1.281  14.216 -0.1965 -1.5659 -0.7290
  779MPD2    H711501   1.464   1.256  14.260 -0.4457  1.2952  1.3392
  780MPD2     C11502   0.580   1.429   0.955 -0.3574 -0.8673  0.1560
  780MPD2    C111503   0.722   1.437   0.948 -0.0094  0.0445  0.2740
  780MPD2    C211504   0.785   1.402   0.837  0.4038  0.4297  0.0925
  780MPD2    C311505   0.712   1.359   0.723 -0.5606  0.5889  0.5140
  780MPD2    C411506   0.579   1.362   0.727  0.0207 -0.1638  0.1065
  780MPD2    C511507   0.512   1.397   0.840  0.2692 -0.2391 -0.0196
  780MPD2     H11508   0.893   1.396   0.831  0.2847  0.6446 -2.4816
  780MPD2    H111509   0.527   1.353   0.633 -0.3201  1.8575  0.1069
  780MPD2    H211510   0.530   1.440   1.050  1.3953 -1.3638  1.1309
  780MPD2    H311511   0.404   1.405   0.841  0.0176 -3.3280 -1.5218
  780MPD2     N11512   0.780   1.323   0.604 -0.1645 -1.0834  0.3826
  780MPD2    H511513   0.728   1.318   0.517 -2.2255 -3.4706  1.8014
  780MPD2    N111514   0.797   1.469   1.062 -0.5693 -0.3124 -1.4461
  780MPD2    H711515   0.755   1.442   1.150  1.2230  2.7521  0.3464
  781MPD2     C11516   3.754   2.252  12.170  0.3998 -0.2669  0.8775
  781MPD2    C111517   3.679   2.362  12.141 -0.0947  0.1804 -0.6634
  781MPD2    C211518   3.687   2.418  12.019 -0.2429 -0.7060  0.0037
  781MPD2    C311519   3.760   2.362  11.922  0.3546  0.3324  0.3000
  781MPD2    C411520   3.822   2.245  11.947  0.7874 -0.8222 -0.0803
  781MPD2    C511521   3.824   2.193  12.075  0.1105 -0.0441  0.6546
  781MPD2     H11522   3.628   2.507  12.001 -0.7516 -1.1699 -0.6067
  781MPD2    H111523   3.886   2.191  11.879  0.8568 -1.4111  0.4570
  781MPD2    H211524   3.753   2.208  12.269  0.8748 -0.1998  0.9120
  781MPD2    H311525   3.881   2.104  12.100  0.1347 -0.3587 -0.5405
  781MPD2     N11526   3.747   2.411  11.791 -0.2088  0.1264  0.1701
  781MPD2    H511527   3.780   2.344  11.722 -1.5497  1.2371 -1.5573
  781MPD2    N111528   3.588   2.413  12.233  0.5037  0.0486  0.4253
  781MPD2    H711529   3.536   2.491  12.195  0.8196  0.5339  0.9908
  782MPD2     C11530   0.692   3.991   9.987  0.1739 -0.2409  0.3593
  782MPD2    C111531   0.763   3.917  10.080  0.4856  0.4831  0.2245
  782MPD2    C211532   0.825   3.980  10.189 -0.0938 -0.2488  0.2223
  782MPD2    C311533   0.811   4.115  10.202  0.1625  0.1586  0.1474
  782MPD2    C411534   0.742   4.195  10.104 -0.1297  0.0415 -0.1479
  782MPD2    C511535   0.680   4.127  10.004 -0.7439  0.2461  0.2337
  782MPD2     H11536   0.882   3.917  10.255 -0.2465  0.2013  0.7838
  782MPD2    H111537   0.732   4.303  10.104  0.1416  0.0546  2.2993
  782MPD2    H211538   0.643   3.947   9.901 -0.2743 -2.1238  1.5634
  782MPD2    H311539   0.633   4.169   9.916  0.1808  1.2947  0.2277
  782MPD2     N11540   0.890   4.169  10.312  0.4427  0.4038 -0.2841
  782MPD2    H511541   0.931   4.109  10.383 -0.6453  0.6774  0.5756
  782MPD2    N111542   0.778   3.778  10.080 -0.5656  0.4032 -0.9661
  782MPD2    H711543   0.815   3.728  10.159  1.2587  1.2821 -1.2687
  783MPD2     C11544   0.572   3.261  10.724 -0.0761 -0.0486 -0.0364
  783MPD2    C111545   0.578   3.399  10.709 -0.4074  0.1614 -0.1635
  783MPD2    C211546   0.633   3.451  10.593  0.3218 -0.1745 -0.3745
  783MPD2    C311547   0.687   3.360  10.494  0.2937  0.1022  0.6936
  783MPD2    C411548   0.668   3.223  10.513 -0.5596  0.0607  0.2380
  783MPD2    C511549   0.610   3.172  10.623  0.2181  0.2789 -0.0489
  783MPD2     H11550   0.638   3.557  10.570 -1.3309  0.3373  1.6933
  783MPD2    H111551   0.692   3.149  10.437 -1.1533 -0.4233  0.5122
  783MPD2    H211552   0.520   3.215  10.807 -0.5197  1.2075  0.3712
  783MPD2    H311553   0.597   3.066  10.642  0.2581  0.4392  0.8894
  783MPD2     N11554   0.751   3.409  10.376  0.1255 -0.5177  0.1281
  783MPD2    H511555   0.752   3.509  10.359  0.4238 -0.0632  2.7584
  783MPD2    N111556   0.511   3.476  10.807  0.1539 -0.0415 -0.3769
  783MPD2    H711557   0.470   3.420  10.881  2.4070 -0.4290  0.5585
  784MPD2     C11558   2.530   4.387   0.923 -0.0601 -0.6687 -0.6303
  784MPD2    C111559   2.465   4.452   1.021  0.0156  0.8382  0.1435
  784MPD2    C211560   2.356   4.530   0.997  1.0090 -1.1147 -0.8977
  784MPD2    C311561   2.302   4.539   0.877 -0.4762 -0.8721  0.4206
  784MPD2    C411562   2.372   4.478   0.770 -0.5885  0.1075 -0.2942
  784MPD2    C511563   2.484   4.405   0.797 -0.4777 -0.0024 -1.0003
  784MPD2     H11564   2.309   4.583   1.080  1.9642 -0.7813 -0.5686
  784MPD2    H111565   2.349   4.487   0.664 -3.6385  0.8222  0.4404
  784MPD2    H211566   2.614   4.322   0.944  0.8629  0.6650 -0.2037
  784MPD2    H311567   2.538   4.363   0.713 -1.0689 -0.0801 -1.3421
  784MPD2     N11568   2.174   4.605   0.863 -0.4757 -0.1074  0.2034
  784MPD2    H511569   2.139   4.654   0.944  0.1309  1.2844 -0.3712
  784MPD2    N111570   2.503   4.435   1.159  0.1354  0.0951  0.1575
  784MPD2    H711571   2.449   4.486   1.228  0.8211  1.6794 -0.4692
  785MPD2     C11572   3.511   1.878  10.616  0.1437 -0.2502 -0.5895
  785MPD2    C111573   3.431   1.976  10.659  0.6702 -1.1132  0.3235
  785MPD2    C211574   3.294   1.961  10.647  0.1682 -0.9107 -0.1727
  785MPD2    C311575   3.242   1.853  10.577 -0.2096 -0.0006  0.3768
  785MPD2    C411576   3.329   1.757  10.536 -0.2960 -0.3869 -0.0768
  785MPD2    C511577   3.456   1.771  10.554 -0.5348 -0.3032  0.6702
  785MPD2     H11578   3.229   2.040  10.682 -0.9957 -2.0182  0.1641
  785MPD2    H111579   3.304   1.666  10.483 -1.7518 -0.8482  1.3942
  785MPD2    H211580   3.617   1.881  10.638 -0.0723 -1.2514  0.5355
  785MPD2    H311581   3.518   1.684  10.531 -0.0025  0.2064  0.1772
  785MPD2     N11582   3.098   1.858  10.550 -0.2475 -0.3526 -0.4330
  785MPD2    H511583   3.044   1.939  10.581  2.9376  1.9039 -0.7579
  785MPD2    N111584   3.492   2.090  10.710  0.2483 -0.0484 -0.0479
  785MPD2    H711585   3.593   2.090  10.716  0.2600 -0.9744 -0.2876
  786MPD2     C11586   1.547   0.617  14.629 -0.4679  0.5762 -0.4990
  786MPD2    C111587   1.682   0.593  14.643 -0.2180  0.4154  0.0036
  786MPD2    C211588   1.754   0.648  14.740 -0.1445 -0.7007 -0.4821
  786MPD2    C311589   1.691   0.729  14.833  0.1770 -0.9495 -0.2136
  786MPD2    C411590   1.550   0.735  14.831  0.4162 -0.0673 -0.1672
  786MPD2    C511591   1.482   0.689  14.726 -0.0934 -0.0331 -0.7648
  786MPD2     H11592   1.855   0.614  14.761 -0.9294 -1.3408  2.2379
  786MPD2    H111593   1.494   0.786  14.909  0.1488  1.1306 -1.1386
  786MPD2    H211594   1.483   0.563  14.561  2.4992 -1.7165 -1.4739
  786MPD2    H311595   1.374   0.692  14.729  0.0020  1.5598  1.4133
  786MPD2     N11596   1.752   0.781  14.951  0.2177  0.2031 -0.0244
  786MPD2    H511597   1.699   0.825  15.025  0.7534  0.0415  0.4601
  786MPD2    N111598   1.748   0.497  14.563  0.6850  0.3714  0.2069
  786MPD2    H711599   1.845   0.485  14.590  0.8002  2.7243  0.8267
  787MPD2     C11600   2.147   0.223  14.872 -0.4587 -0.7526  0.1788
  787MPD2    C111601   2.148   0.141  14.761 -0.1807  0.1163  0.0144
  787MPD2    C211602   2.222   0.022  14.770 -0.2972  0.0389  0.1109
  787MPD2    C311603   2.308   4.719  14.877 -1.0039 -0.8129  0.0104
  787MPD2    C411604   2.306   0.080  14.990 -0.3140 -0.4092 -0.1456
  787MPD2    C511605   2.224   0.191  14.979  0.1346  0.1698 -0.1329
  787MPD2     H11606   2.226   4.680  14.683  0.0440  1.7852 -1.1822
  787MPD2    H111607   2.361   0.066  15.082  1.2815 -0.5256 -1.1100
  787MPD2    H211608   2.090   0.315  14.874 -1.2598 -1.2339 -1.3025
  787MPD2    H311609   2.213   0.253  15.067 -1.0547  0.5554 -0.5578
  787MPD2     N11610   2.405   4.615  14.863  0.0639 -0.6512  0.4615
  787MPD2    H511611   2.404   4.550  14.785  1.0317 -0.5380  0.3535
  787MPD2    N111612   2.072   0.177  14.642  0.3268  0.2503  0.4363
  787MPD2    H711613   2.026   0.267  14.647  1.2148  0.8600 -2.2067
  788MPD2     C11614   3.810   3.170   1.042 -0.5971  0.0484  0.0549
  788MPD2    C111615   3.721   3.178   0.942 -0.2962 -0.3258  0.1166
  788MPD2    C211616   3.627   3.279   0.946 -0.7229 -0.2755  0.7352
  788MPD2    C311617   3.617   3.370   1.048  0.9814 -0.4110 -0.0697
  788MPD2    C411618   3.699   3.355   1.151  0.0642 -0.6997 -0.3404
  788MPD2    C511619   3.791   3.252   1.151  0.3282 -0.5100  0.4239
  788MPD2     H11620   3.572   3.294   0.853 -2.2288 -0.8475  1.5376
  788MPD2    H111621   3.701   3.424   1.235  2.9213 -1.0964 -0.0694
  788MPD2    H211622   3.896   3.105   1.045  1.0749  2.3153  0.7400
  788MPD2    H311623   3.863   3.246   1.231  0.0658 -0.0149  0.6976
  788MPD2     N11624   3.531   3.483   1.049 -0.3256  0.0174 -0.4032
  788MPD2    H511625   3.539   3.558   1.117 -0.2594  1.4034 -1.9258
  788MPD2    N111626   3.730   3.085   0.830  0.1788 -0.3651  0.5159
  788MPD2    H711627   3.815   3.030   0.826  0.5203  0.2929 -1.3006
  789MPD2     C11628   4.229   3.358  16.610  0.0978 -0.1999  0.4983
  789MPD2    C111629   4.132   3.280  16.554  0.4411  0.3690  0.4388
  789MPD2    C211630   3.997   3.317  16.574  0.0908 -0.0171  0.4566
  789MPD2    C311631   3.957   3.419  16.664  0.3294  0.4094  0.1820
  789MPD2    C411632   4.063   3.472  16.735  0.1403 -0.0662 -0.4127
  789MPD2    C511633   4.195   3.453  16.697 -0.2970 -0.5996  0.3733
  789MPD2     H11634   3.921   3.275  16.508  0.1010  1.4911 -0.5200
  789MPD2    H111635   4.048   3.547  16.811 -0.4013  0.2848 -0.8610
  789MPD2    H211636   4.333   3.327  16.605  0.5110  1.0888  1.3559
  789MPD2    H311637   4.274   3.499  16.754 -1.4441  0.5966  0.9912
  789MPD2     N11638   3.832   3.470  16.684  0.1765 -0.5092  0.5368
  789MPD2    H511639   3.818   3.532  16.763  0.1406 -0.3839  0.4319
  789MPD2    N111640   4.168   3.176  16.470  0.1103 -0.5834  0.0740
  789MPD2    H711641   4.094   3.142  16.410  0.5855 -0.0876 -0.7918
  790MPD2     C11642   0.624   0.234  13.548  0.0670 -0.4295 -0.2110
  790MPD2    C111643   0.654   0.105  13.588  0.3297  0.3220 -0.3580
  790MPD2    C211644   0.648   0.003  13.491 -0.0772 -0.3614  0.1736
  790MPD2    C311645   0.610   0.033  13.363  0.1814 -0.3487 -0.7667
  790MPD2    C411646   0.583   0.163  13.324  0.4177  0.6911  0.2756
  790MPD2    C511647   0.596   0.264  13.417  0.3176 -0.2779 -0.3729
  790MPD2     H11648   0.663   4.621  13.514  1.2077 -0.2469 -0.1907
  790MPD2    H111649   0.560   0.187  13.221 -0.4875  0.0687  0.3350
  790MPD2    H211650   0.626   0.311  13.625 -2.5830 -1.0867  0.4902
  790MPD2    H311651   0.580   0.369  13.393  1.4491  0.2839  1.3217
  790MPD2     N11652   0.598   4.642  13.277 -0.2903 -0.2237 -0.6842
  790MPD2    H511653   0.632   4.554  13.315 -0.5378 -0.4500 -0.9943
  790MPD2    N111654   0.677   0.077  13.726 -0.2270  0.4329  0.4016
  790MPD2    H711655   0.652   0.150  13.793 -2.4852 -0.9933  1.1087
  791MPD2     C11656   4.639   4.518  12.974  0.4978  0.3298  0.1890
  791MPD2    C111657   0.003   4.411  12.960  0.2083 -0.0109  0.2598
  791MPD2    C211658   4.682   4.300  12.898  0.3670  0.0056 -0.5391
  791MPD2    C311659   4.552   4.292  12.850 -0.5208  0.0391  0.0926
  791MPD2    C411660   4.458   4.391  12.871 -0.3495  0.1007 -0.4677
  791MPD2    C511661   4.506   4.503  12.937 -0.7941  0.1595  0.3417
  791MPD2     H11662   0.023   4.214  12.881  0.8938  0.3187 -0.1327
  791MPD2    H111663   4.356   4.388  12.834  0.6074 -0.9349 -3.0002
  791MPD2    H211664   4.674   4.607  13.025 -0.3663 -0.7722  2.7337
  791MPD2    H311665   4.432   4.581  12.950 -1.3287 -0.1632 -0.7821
  791MPD2     N11666   4.521   4.177  12.772  0.4976 -0.0627  0.6383
  791MPD2    H511667   4.579   4.094  12.767  0.2500 -0.1044 -1.3844
  791MPD2    N111668   0.134   4.422  13.018 -0.5044  0.3894  0.1504
  791MPD2    H711669   0.162   4.504  13.070  0.8686 -0.4801  0.7874
  792MPD2     C11670   0.738   4.425  11.281  0.0609 -0.0861  0.4640
  792MPD2    C111671   0.754   4.516  11.182  0.0638  0.6640  0.2627
  792MPD2    C211672   0.754   4.460  11.048 -0.2013 -0.0858  0.5467
  792MPD2    C311673   0.727   4.327  11.026 -0.4720  0.4147 -0.0694
  792MPD2    C411674   0.713   4.243  11.134  0.0901  0.3244  0.1166
  792MPD2    C511675   0.715   4.291  11.261 -0.1117  0.1162 -0.7070
  792MPD2     H11676   0.786   4.525  10.967 -2.9787  1.7199  0.9129
  792MPD2    H111677   0.683   4.140  11.119  1.1115  0.0226  0.1407
  792MPD2    H211678   0.730   4.455  11.385  0.1403  0.0636  0.4263
  792MPD2    H311679   0.694   4.225  11.344 -0.8447  0.5913 -0.5131
  792MPD2     N11680   0.699   4.270  10.899  0.6932  0.0101  0.4718
  792MPD2    H511681   0.655   4.179  10.897 -4.8023  2.6529 -1.4092
  792MPD2    N111682   0.784   4.648  11.211  0.1073  0.2414 -0.2175
  792MPD2    H711683   0.791   4.676  11.308  1.6613 -0.8693 -0.0248
  793MPD2     C11684   0.572   0.124  10.116 -0.4857  0.4065  0.9622
  793MPD2    C111685   0.694   0.057  10.092 -0.0729  0.7090 -0.3213
  793MPD2    C211686   0.714   4.663  10.164  0.0398  0.5596  0.3824
  793MPD2    C311687   0.615   4.613  10.249 -0.3499 -0.7602 -0.6550
  793MPD2    C411688   0.495   4.675  10.253  0.9645 -0.1705 -0.4553
  793MPD2    C511689   0.471   0.073  10.196  0.6263  0.3152 -0.0443
  793MPD2     H11690   0.800   4.604  10.136  0.4704  1.1690  0.4125
  793MPD2    H111691   0.415   4.632  10.313 -0.2606 -0.1555 -2.0828
  793MPD2    H211692   0.546   0.218  10.069  3.1606  0.6687 -0.5005
  793MPD2    H311693   0.374   0.121  10.196  0.9576  0.9794 -1.8079
  793MPD2     N11694   0.639   4.490  10.314 -0.4477  0.7384 -0.3661
  793MPD2    H511695   0.736   4.463  10.327 -0.7470 -0.4550 -0.6615
  793MPD2    N111696   0.793   0.089   9.986 -0.8541 -0.2246 -0.4257
  793MPD2    H711697   0.867   0.022   9.966 -1.8725 -0.9837 -1.6612
  794MPD2     C11698   0.056   0.065  17.651  0.8861 -0.2258 -0.7274
  794MPD2    C111699   0.011   4.657  17.631  0.5196  0.8879 -0.6409
  794MPD2    C211700   4.655   4.634  17.518 -0.5393 -0.1079 -0.3259
  794MPD2    C311701   4.622   0.008  17.431  0.1293  0.0830 -0.5256
  794MPD2    C411702   4.662   0.140  17.451  0.3406  0.5214  0.3847
  794MPD2    C511703   0.023   0.162  17.560 -0.4875  0.4766 -0.0475
  794MPD2     H11704   4.611   4.535  17.513  0.8650 -0.7460  0.1894
  794MPD2    H111705   4.641   0.216  17.376  2.3398  0.8813  0.1895
  794MPD2    H211706   0.122   0.106   0.035  0.4363 -0.8708  0.0131
  794MPD2    H311707   0.065   0.258  17.588 -1.5106  1.0529 -0.4750
  794MPD2     N11708   4.535   4.712  17.318  0.7133 -0.1478  0.8330
  794MPD2    H511709   4.538   0.055  17.242 -0.6413 -0.6797  0.3292
  794MPD2    N111710   0.031   4.545   0.030 -0.4932 -0.2231  0.4392
  794MPD2    H711711   4.717   4.455   0.001 -0.2266  0.7654 -2.9960
  795MPD2     C11712   2.624   1.407  13.235 -0.5691 -0.2292 -0.4090
  795MPD2    C111713   2.606   1.280  13.188 -0.2374  0.6097  0.4497
  795MPD2    C211714   2.676   1.180  13.246  0.0354  0.0877 -0.1125
  795MPD2    C311715   2.779   1.202  13.334  0.3448  0.4711  0.0459
  795MPD2    C411716   2.804   1.333  13.369  0.5133 -0.5090  0.0236
  795MPD2    C511717   2.720   1.431  13.329  0.5542 -0.2138  0.0357
  795MPD2     H11718   2.641   1.078  13.238  0.9331 -0.1638 -0.8304
  795MPD2    H111719   2.887   1.366  13.430  1.0507  2.0286 -2.0757
  795MPD2    H211720   2.570   1.495  13.202  0.8237  0.6263 -0.4141
  795MPD2    H311721   2.735   1.531  13.368 -1.1984  0.1422 -0.1815
  795MPD2     N11722   2.852   1.091  13.386  0.4616  0.0546 -0.1522
  795MPD2    H511723   2.811   0.999  13.378 -2.3144  1.1926  1.0837
  795MPD2    N111724   2.505   1.259  13.091 -0.7815  0.5190 -0.6221
  795MPD2    H711725   2.465   1.166  13.078 -1.0504  0.6418 -0.6744
  796MPD2     C11726   2.136   3.149  15.662  0.2403 -0.1238  0.2740
  796MPD2    C111727   2.156   3.225  15.771  0.5571 -0.3337  0.0474
  796MPD2    C211728   2.108   3.358  15.778 -0.3656 -0.0899  0.0332
  796MPD2    C311729   2.026   3.406  15.674 -0.8093  0.3159 -0.5302
  796MPD2    C411730   2.007   3.321  15.568 -0.9559 -0.0913  0.0847
  796MPD2    C511731   2.067   3.201  15.558  0.8684  0.2521  0.5236
  796MPD2     H11732   2.117   3.429  15.859 -0.3273  0.0704 -0.1108
  796MPD2    H111733   1.955   3.348  15.476 -0.4971  0.6292  0.0402
  796MPD2    H211734   2.189   3.054  15.656  0.8234  0.1174  1.5124
  796MPD2    H311735   2.040   3.143  15.471  1.5204  3.2346 -1.6885
  796MPD2     N11736   1.982   3.534  15.677  0.6306 -0.1056  0.0841
  796MPD2    H511737   2.024   3.598  15.744  0.1252  0.0439  0.2544
  796MPD2    N111738   2.213   3.167  15.888 -0.4838 -0.2869 -0.4310
  796MPD2    H711739   2.224   3.067  15.898  2.6180  0.1907  1.0681
  797MPD2     C11740   3.197   2.761  16.801  0.2264  0.6556 -0.4638
  797MPD2    C111741   3.223   2.811  16.929 -0.2346  0.3047 -0.2457
  797MPD2    C211742   3.121   2.830  17.027  0.0521 -0.1551 -0.3366
  797MPD2    C311743   2.989   2.800  16.991  0.2966  0.0407 -0.4871
  797MPD2    C411744   2.966   2.766  16.856 -0.0449 -0.8051  0.6753
  797MPD2    C511745   3.068   2.730  16.768  0.0480 -0.0535  0.3590
  797MPD2     H11746   3.140   2.869  17.126  2.1562  1.8109 -1.5202
  797MPD2    H111747   2.865   2.747  16.825  0.6920 -1.9519 -1.0009
  797MPD2    H211748   3.274   2.751  16.725 -0.3058  2.7128 -1.2719
  797MPD2    H311749   3.047   2.703  16.665 -0.1113  2.4819 -0.2652
  797MPD2     N11750   2.895   2.831  17.085  0.1138  0.5509  0.1286
  797MPD2    H511751   2.926   2.884  17.166  1.5533 -0.5052  0.2566
  797MPD2    N111752   3.357   2.838  16.975  0.1750  0.2341 -0.4059
  797MPD2    H711753   3.364   2.880  17.068 -0.3046  0.1914 -0.3529
  798MPD2     C11754   3.190   3.410  17.399  0.2485  0.0629  0.7135
  798MPD2    C111755   3.153   3.284  17.356 -0.1585  0.3080 -0.7854
  798MPD2    C211756   3.253   3.192  17.330 -0.2096  0.2998  1.2125
  798MPD2    C311757   3.384   3.223  17.355 -0.2289  0.3414  0.1174
  798MPD2    C411758   3.414   3.346  17.417  0.6284  0.0503 -0.2689
  798MPD2    C511759   3.316   3.444  17.424  0.1997 -0.1641 -0.2518
  798MPD2     H11760   3.229   3.095  17.287  2.2118  0.2709 -0.0990
  798MPD2    H111761   3.518   3.371  17.433  0.6340  0.3372 -0.7526
  798MPD2    H211762   3.118   3.490  17.411 -0.8780 -0.7611 -0.4806
  798MPD2    H311763   3.346   3.541  17.461 -1.4302 -0.4308  1.7902
  798MPD2     N11764   3.487   3.137  17.309  0.3837 -0.0752 -0.0183
  798MPD2    H511765   3.585   3.155  17.325 -0.5925  3.9696  1.4306
  798MPD2    N111766   3.018   3.251  17.339  0.2449 -0.2431  0.2380
  798MPD2    H711767   2.951   3.314  17.383 -1.2277 -3.0603  1.9887
  799MPD2     C11768   2.197   4.337  14.914  0.5722  0.0636  0.0527
  799MPD2    C111769   2.226   4.243  14.814  0.6464 -0.0162 -0.0791
  799MPD2    C211770   2.187   4.259  14.683 -0.2045 -1.1404 -0.9598
  799MPD2    C311771   2.110   4.374  14.653 -0.2163 -0.5290  0.1305
  799MPD2    C411772   2.062   4.449  14.753 -0.3379 -0.4736 -0.3743
  799MPD2    C511773   2.111   4.436  14.882  0.1334 -0.7683  0.1592
  799MPD2     H11774   2.211   4.186  14.607  1.7337  0.7933 -2.2421
  799MPD2    H111775   2.002   4.539  14.747 -1.1295 -0.8608  1.7729
  799MPD2    H211776   2.248   4.338  15.010  0.3210  0.8325  0.1773
  799MPD2    H311777   2.090   4.513  14.955 -0.9726  1.0132 -2.0432
  799MPD2     N11778   2.069   4.415  14.523 -0.4707 -0.3699  0.2291
  799MPD2    H511779   2.011   4.498  14.522 -0.1404 -0.1991 -2.9055
  799MPD2    N111780   2.313   4.127  14.844  0.0280  0.8811  0.0834
  799MPD2    H711781   2.319   4.056  14.772  0.0970 -0.2342  1.1751
  800MPD2     C11782   2.238   0.780  14.097 -0.1636 -0.3023 -0.4109
  800MPD2    C111783   2.362   0.715  14.079 -0.6531  0.0168  0.3184
  800MPD2    C211784   2.365   0.599  14.004 -0.6909  0.0778  0.3305
  800MPD2    C311785   2.252   0.551  13.940  0.3976 -0.3323 -0.0006
  800MPD2    C411786   2.130   0.609  13.968  0.0968 -0.3778  0.0148
  800MPD2    C511787   2.127   0.727  14.040  0.2415  0.3068  0.7505
  800MPD2     H11788   2.460   0.556  13.975 -1.5652  0.4954 -3.1362
  800MPD2    H111789   2.042   0.563  13.925  0.2248  0.2011 -0.8689
  800MPD2    H211790   2.237   0.874  14.150  1.3054 -0.3320 -0.3467
  800MPD2    H311791   2.034   0.784  14.042 -0.5360 -0.9183 -0.5353
  800MPD2     N11792   2.267   0.445  13.851  0.6631  0.0125  0.2079
  800MPD2    H511793   2.358   0.399  13.849  0.1476 -1.1349  2.8000
  800MPD2    N111794   2.482   0.771  14.141 -0.4633 -0.2185  0.2331
  800MPD2    H711795   2.471   0.853  14.200  1.1074  0.5889 -0.5994
  801MPD2     C11796   2.701   1.436  14.310 -0.7643 -0.2554  0.5722
  801MPD2    C111797   2.622   1.326  14.290  0.4196  0.2019 -0.4842
  801MPD2    C211798   2.494   1.331  14.317  0.3529 -0.7104 -0.8332
  801MPD2    C311799   2.437   1.454  14.350 -0.1233 -0.3192  0.2936
  801MPD2    C411800   2.512   1.566  14.369 -0.0478  0.2000 -0.9501
  801MPD2    C511801   2.647   1.551  14.353 -0.2623 -0.3417  0.2467
  801MPD2     H11802   2.436   1.239  14.315 -2.0049  0.7166  1.3722
  801MPD2    H111803   2.472   1.664  14.393 -1.5398 -0.9425  1.2666
  801MPD2    H211804   2.805   1.434  14.279 -1.1052  2.3342 -0.7255
  801MPD2    H311805   2.715   1.633  14.366 -0.2930 -0.1784 -0.6083
  801MPD2     N11806   2.299   1.466  14.375 -0.1064  0.5009  0.1173
  801MPD2    H511807   2.268   1.545  14.431  0.5991  2.1647 -1.7999
  801MPD2    N111808   2.663   1.193  14.262  0.8014 -0.4316 -0.2966
  801MPD2    H711809   2.597   1.116  14.257  0.3943 -0.1860  1.3026
  802MPD2     C11810   1.604   1.635  16.853  0.6651 -0.3096  0.3110
  802MPD2    C111811   1.685   1.615  16.966  0.5933 -0.2502 -0.7525
  802MPD2    C211812   1.760   1.505  16.963  1.0425  0.1513 -0.4785
  802MPD2    C311813   1.781   1.424  16.854 -0.0844  0.0117 -0.7109
  802MPD2    C411814   1.703   1.453  16.741  0.1057  0.5289  0.0299
  802MPD2    C511815   1.616   1.559  16.743 -0.0522  0.4387 -0.3438
  802MPD2     H11816   1.834   1.492  17.041 -1.5893 -1.2349  1.7866
  802MPD2    H111817   1.708   1.409  16.642 -1.4684  0.8828 -0.1956
  802MPD2    H211818   1.553   1.730  16.849  1.9121  0.3269 -0.7770
  802MPD2    H311819   1.571   1.575  16.646  0.4894  1.1856 -0.4709
  802MPD2     N11820   1.893   1.341  16.847 -0.0699 -0.2908  0.1222
  802MPD2    H511821   1.953   1.343  16.929  1.4494 -1.9403 -0.9479
  802MPD2    N111822   1.684   1.693  17.086 -0.0363  0.4424  0.1393
  802MPD2    H711823   1.736   1.660  17.167 -3.3473 -1.2017  1.6065
  803MPD2     C11824   3.285   4.277  11.657  0.7423 -0.6887  0.2468
  803MPD2    C111825   3.384   4.279  11.748 -0.7745  0.6912  0.6248
  803MPD2    C211826   3.372   4.209  11.867  0.5295  0.4735  0.2901
  803MPD2    C311827   3.244   4.151  11.897  0.6622 -0.2222 -0.1448
  803MPD2    C411828   3.139   4.164  11.807  0.0349  0.4226  0.5459
  803MPD2    C511829   3.161   4.216  11.684  0.0117 -0.4064  0.1685
  803MPD2     H11830   3.457   4.199  11.934  2.0631 -0.9523 -1.8686
  803MPD2    H111831   3.043   4.116  11.820 -0.7296  1.4858 -1.2225
  803MPD2    H211832   3.292   4.339  11.568  0.2399 -0.0953  0.6195
  803MPD2    H311833   3.086   4.208  11.606  1.5929  0.5203 -1.4540
  803MPD2     N11834   3.216   4.076  12.013 -0.6485 -0.1062 -0.7158
  803MPD2    H511835   3.121   4.052  12.037  0.1876  0.4715  3.1276
  803MPD2    N111836   3.505   4.349  11.724  0.3653 -1.4916  0.4831
  803MPD2    H711837   3.580   4.320  11.785  0.0354  1.4247  2.2949
  804MPD2     C11838   2.566   1.226  16.789 -0.1494 -0.2659 -0.7183
  804MPD2    C111839   2.540   1.267  16.920 -0.3953  0.1655  0.3814
  804MPD2    C211840   2.607   1.364  16.979  0.1644 -0.0346  0.1005
  804MPD2    C311841   2.716   1.428  16.916  0.0928  0.6923  0.2243
  804MPD2    C411842   2.734   1.396  16.783  0.7448 -0.2663  0.7022
  804MPD2    C511843   2.661   1.298  16.718  0.0296 -0.2366  0.2777
  804MPD2     H11844   2.590   1.392  17.082  1.5869  1.7914 -0.1589
  804MPD2    H111845   2.800   1.456  16.720  0.3410 -0.3613  0.1843
  804MPD2    H211846   2.516   1.144  16.738  2.0594 -1.7753 -0.4677
  804MPD2    H311847   2.675   1.285  16.612 -0.4166  0.4443  0.1335
  804MPD2     N11848   2.789   1.535  16.981  0.0646  0.6931  0.1536
  804MPD2    H511849   2.762   1.562  17.075  1.3452  0.9448  0.4494
  804MPD2    N111850   2.454   1.204  17.005 -0.6227  0.1999  0.5651
  804MPD2    H711851   2.459   1.241  17.099  3.6373 -1.3776  0.9682
  805MPD2     C11852   1.815   4.535  15.516  0.3160 -0.1458 -0.1289
  805MPD2    C111853   1.939   4.510  15.468 -0.2284  0.3593  0.4420
  805MPD2    C211854   2.049   4.547  15.549 -0.2896 -0.8607  0.7526
  805MPD2    C311855   2.033   4.588  15.678 -0.3603 -0.2182  0.2893
  805MPD2    C411856   1.905   4.613  15.725  0.6656  0.4645 -0.5669
  805MPD2    C511857   1.800   4.583  15.645 -0.7771  0.1283 -0.6892
  805MPD2     H11858   2.152   4.538  15.517 -0.5125  0.5622 -0.3381
  805MPD2    H111859   1.873   4.650  15.822 -0.5085  0.3377 -0.9066
  805MPD2    H211860   1.728   4.522  15.453 -0.4510 -0.7065  1.0492
  805MPD2    H311861   1.700   4.608  15.677 -0.4167  1.4390 -0.5929
  805MPD2     N11862   2.145   4.607  15.759  0.0985  0.6236  0.2097
  805MPD2    H511863   2.234   4.608  15.711  0.4117 -0.4907  0.7707
  805MPD2    N111864   1.952   4.445  15.348 -0.4885  0.0340  0.2648
  805MPD2    H711865   2.048   4.421  15.323  0.1667  2.3791  0.5535
  806MPD2     C11866   1.833   4.341   0.911  0.0516  0.4998  0.6826
  806MPD2    C111867   1.958   4.297   0.858 -0.0271  0.1654 -0.4074
  806MPD2    C211868   1.980   4.310   0.720 -0.4575  0.3835 -0.4693
  806MPD2    C311869   1.884   4.366   0.642 -0.3990  0.4413  0.7568
  806MPD2    C411870   1.758   4.401   0.697  0.2554 -1.0387 -0.6592
  806MPD2    C511871   1.739   4.385   0.826 -0.5344 -0.7525 -0.5513
  806MPD2     H11872   2.083   4.292   0.691 -0.5292 -2.2327  0.9417
  806MPD2    H111873   1.685   4.442   0.629  1.9860  1.0851 -1.2354
  806MPD2    H211874   1.809   4.328   1.016  0.8286  0.1043  0.8098
  806MPD2    H311875   1.643   4.395   0.875  0.0196  0.0811  0.3598
  806MPD2     N11876   1.923   4.390   0.510  0.6847 -0.2999  0.6010
  806MPD2    H511877   2.023   4.375   0.501  0.9958  1.0671  1.8773
  806MPD2    N111878   2.050   4.244   0.956  0.2515 -0.0259  0.1384
  806MPD2    H711879   2.027   4.267   1.052 -1.1148  0.6613 -0.3573
  807MPD2     C11880   2.026   3.816   1.527  0.0460 -0.5026 -0.5068
  807MPD2    C111881   2.162   3.813   1.514  0.1838  0.3504 -0.0777
  807MPD2    C211882   2.234   3.720   1.580  0.1819  0.2707 -0.3024
  807MPD2    C311883   2.172   3.623   1.651 -0.0147 -0.1318 -0.2641
  807MPD2    C411884   2.037   3.626   1.676  1.0260 -0.2629  0.1449
  807MPD2    C511885   1.967   3.726   1.618  0.1738  0.5280  1.0173
  807MPD2     H11886   2.340   3.712   1.562 -0.1185  0.0320 -1.9387
  807MPD2    H111887   1.986   3.571   1.755 -0.9472  0.1719 -0.8345
  807MPD2    H211888   1.952   3.883   1.483 -2.5718 -1.3137  2.7088
  807MPD2    H311889   1.863   3.740   1.646  0.2978 -3.7805  3.6363
  807MPD2     N11890   2.258   3.513   1.692  0.6567  0.1028 -0.4135
  807MPD2    H511891   2.356   3.516   1.666  0.5072 -2.0486 -1.1821
  807MPD2    N111892   2.231   3.907   1.440  0.3090  0.6548  0.1911
  807MPD2    H711893   2.331   3.891   1.433  0.9384  4.0619  1.5209
  808MPD2     C11894   2.401   0.187   8.739  0.3527  0.2409 -0.2920
  808MPD2    C111895   2.470   0.230   8.849  0.1640 -0.2294  0.3169
  808MPD2    C211896   2.544   0.347   8.837 -0.8044  0.1849 -0.9506
  808MPD2    C311897   2.545   0.422   8.717 -0.9613  0.4659 -1.0462
  808MPD2    C411898   2.490   0.367   8.600  0.1709  0.1098  0.2932
  808MPD2    C511899   2.418   0.248   8.614 -0.3372 -0.3390 -0.3752
  808MPD2     H11900   2.587   0.380   8.931  1.3552 -1.0749 -1.4947
  808MPD2    H111901   2.489   0.429   8.510  2.2894  1.4128  1.1519
  808MPD2    H211902   2.325   0.110   8.729 -0.7197  1.0599  1.4964
  808MPD2    H311903   2.360   0.210   8.530 -1.8058 -0.2229  0.5932
  808MPD2     N11904   2.601   0.547   8.704  0.0908 -0.2550 -0.1477
  808MPD2    H511905   2.600   0.595   8.615 -0.2468 -0.5798 -0.3187
  808MPD2    N111906   2.471   0.162   8.969 -0.2547 -0.3471 -0.2264
  808MPD2    H711907   2.525   0.198   9.048 -1.4790  1.6348 -0.2727
  809MPD2     C11908   3.469   0.534   8.597  0.5355  0.4866 -0.1347
  809MPD2    C111909   3.437   0.540   8.734  0.5865  0.4410 -0.2776
  809MPD2    C211910   3.339   0.632   8.771 -0.7681 -0.0318  0.1318
  809MPD2    C311911   3.258   0.693   8.679 -0.0566 -0.9744 -0.3331
  809MPD2    C411912   3.293   0.689   8.542 -0.0809  0.0675  0.3890
  809MPD2    C511913   3.396   0.609   8.507  0.4980 -0.1441  0.4971
  809MPD2     H11914   3.307   0.640   8.875  0.1037  2.0404  0.2468
  809MPD2    H111915   3.241   0.742   8.463  1.3747  1.9319  0.7130
  809MPD2    H211916   3.555   0.478   8.560 -0.8284 -2.4896  1.1718
  809MPD2    H311917   3.423   0.593   8.403  0.6162  1.6880  0.2488
  809MPD2     N11918   3.136   0.744   8.720 -0.6171 -0.2821 -0.1590
  809MPD2    H511919   3.116   0.730   8.819  0.8646  2.5038  0.5311
  809MPD2    N111920   3.506   0.463   8.832 -0.2566 -0.4431  0.0742
  809MPD2    H711921   3.493   0.478   8.932  0.7066  1.5563 -0.1097
  810MPD2     C11922   2.840   4.477   9.966  0.3033  0.0474 -0.0513
  810MPD2    C111923   2.750   4.374   9.961 -0.5475 -0.8389 -0.4962
  810MPD2    C211924   2.773   4.263  10.043  0.3478  0.2103  0.0868
  810MPD2    C311925   2.884   4.255  10.124  0.0992  0.3313 -0.3752
  810MPD2    C411926   2.981   4.355  10.117 -0.0565  0.4522 -0.2594
  810MPD2    C511927   2.961   4.458  10.029 -0.3574  0.3310 -1.0328
  810MPD2     H11928   2.703   4.181  10.042  0.8022 -0.1819  0.6566
  810MPD2    H111929   3.074   4.356  10.173 -0.4820  1.0634  0.4386
  810MPD2    H211930   2.829   4.562   9.900  2.2701  0.9687  0.8043
  810MPD2    H311931   3.027   4.544  10.019  0.3277 -0.2912 -1.9165
  810MPD2     N11932   2.901   4.127  10.189  0.1553  0.3164 -0.4050
  810MPD2    H511933   2.827   4.061  10.168  0.9401 -0.4787 -0.6582
  810MPD2    N111934   2.633   4.389   9.883 -1.3930 -0.3886  0.3186
  810MPD2    H711935   2.619   4.475   9.831 -2.1066 -0.3806  0.5282
  811MPD2     C11936   1.934   0.015   9.533  0.4739  0.9535  0.9067
  811MPD2    C111937   2.049   0.034   9.603  0.3513  0.6777 -0.0632
  811MPD2    C211938   2.110   0.160   9.598  0.3422 -0.3432  0.0422
  811MPD2    C311939   2.059   0.264   9.526  0.1505 -0.3452 -0.1741
  811MPD2    C411940   1.942   0.239   9.459  1.0698 -0.2294  0.3727
  811MPD2    C511941   1.879   0.116   9.464 -0.4469  0.9114 -0.1828
  811MPD2     H11942   2.211   0.169   9.635  0.0985 -0.2202  0.6820
  811MPD2    H111943   1.899   0.322   9.404  1.1702 -1.1179 -1.0339
  811MPD2    H211944   1.881   4.643   9.533 -0.0240  1.2510  3.9096
  811MPD2    H311945   1.782   0.099   9.418  1.2382 -1.0541 -3.0503
  811MPD2     N11946   2.136   0.381   9.527 -0.2227  0.1980 -0.7867
  811MPD2    H511947   2.205   0.378   9.601 -2.1666 -1.7740  0.9192
  811MPD2    N111948   2.105   4.639   9.656 -0.4341 -0.6036 -0.1378
  811MPD2    H711949   2.049   4.555   9.658  1.0913 -1.6027  0.4565
  812MPD2     C11950   1.410   4.402  12.230 -0.1242  0.3155 -0.5884
  812MPD2    C111951   1.301   4.393  12.311  0.0840 -0.4199  0.1957
  812MPD2    C211952   1.280   4.282  12.397 -0.3840 -0.5124  0.3702
  812MPD2    C311953   1.375   4.181  12.396 -0.7143  0.2265  0.5962
  812MPD2    C411954   1.486   4.183  12.318 -0.2437  0.1925 -0.3950
  812MPD2    C511955   1.494   4.291  12.227 -0.1316  0.7040 -0.1643
  812MPD2     H11956   1.186   4.279  12.452 -1.2812  0.7878 -1.0909
  812MPD2    H111957   1.555   4.100  12.315  0.8779  1.1444 -0.8376
  812MPD2    H211958   1.423   4.481  12.157  3.5573 -0.7776 -1.1000
  812MPD2    H311959   1.581   4.287  12.162 -0.9632 -0.1674 -1.2210
  812MPD2     N11960   1.355   4.071  12.484  0.1391  0.9228 -1.2521
  812MPD2    H511961   1.276   4.077  12.547  0.5454 -2.9701 -0.3903
  812MPD2    N111962   1.203   4.499  12.301 -0.2201  0.2637  1.2499
  812MPD2    H711963   1.227   4.568  12.231  0.8515  0.3346  1.6884
  813MPD2     C11964   0.340   1.596  12.852 -0.3576  1.0349 -0.2009
  813MPD2    C111965   0.377   1.723  12.889  0.3786  0.1563  0.1527
  813MPD2    C211966   0.299   1.798  12.964 -0.0142 -0.8764  0.3156
  813MPD2    C311967   0.181   1.749  13.021  0.0149 -0.2496 -0.2556
  813MPD2    C411968   0.136   1.622  12.978 -0.3516 -0.6993 -0.2261
  813MPD2    C511969   0.217   1.545  12.895 -1.3195  0.4890 -0.5852
  813MPD2     H11970   0.311   1.904  12.986 -2.3848 -0.9599  2.1362
  813MPD2    H111971   0.039   1.578  13.001 -1.0353  0.5194 -0.7471
  813MPD2    H211972   0.405   1.526  12.801 -1.6636 -2.1451  2.4757
  813MPD2    H311973   0.182   1.455  12.845 -2.2888  0.3320  0.3744
  813MPD2     N11974   0.110   1.836  13.107 -0.0334 -0.1699  0.0424
  813MPD2    H511975   0.147   1.930  13.115 -1.1175  0.2009  0.7903
  813MPD2    N111976   0.500   1.776  12.849 -0.1963  1.1347  0.6907
  813MPD2    H711977   0.508   1.876  12.866  2.1448  0.8565  1.2567
  814MPD2     C11978   1.125   3.032  11.857  0.2445 -0.2800  0.1050
  814MPD2    C111979   1.117   3.148  11.781  0.6555 -0.1893 -0.6609
  814MPD2    C211980   1.227   3.233  11.795 -0.0248 -0.6772  0.2906
  814MPD2    C311981   1.328   3.223  11.886 -0.2019 -0.0040 -0.4832
  814MPD2    C411982   1.324   3.111  11.963 -0.3942  0.6148 -0.0699
  814MPD2    C511983   1.232   3.012  11.940  0.4947  0.2095 -1.0966
  814MPD2     H11984   1.226   3.319  11.729  0.4831 -2.0805 -1.5450
  814MPD2    H111985   1.392   3.090  12.044 -0.2604 -1.1210 -0.6233
  814MPD2    H211986   1.045   2.961  11.871  1.7228 -1.6125  1.7119
  814MPD2    H311987   1.222   2.926  12.007 -0.5517  1.2440  0.0780
  814MPD2     N11988   1.419   3.329  11.922 -0.0677 -0.0177  0.2717
  814MPD2    H511989   1.462   3.329  12.014  0.3482 -1.7871  0.0668
  814MPD2    N111990   1.009   3.179  11.698  0.5948  0.2311  0.3229
  814MPD2    H711991   1.028   3.248  11.625  0.5931 -0.1218 -0.0121
  815MPD2     C11992   1.493   1.278  12.015 -0.4713 -0.0319 -0.1638
  815MPD2    C111993   1.461   1.204  11.901 -0.1915 -0.0958  0.4007
  815MPD2    C211994   1.325   1.179  11.873  0.1230  0.3895 -0.3502
  815MPD2    C311995   1.227   1.222  11.958  0.2704  0.0394  0.0181
  815MPD2    C411996   1.258   1.296  12.077 -0.0631 -0.3617 -0.2078
  815MPD2    C511997   1.396   1.316  12.101  0.4928 -0.3617  0.0406
  815MPD2     H11998   1.287   1.126  11.786  0.2509 -0.2066 -0.0450
  815MPD2    H111999   1.184   1.343  12.140  1.9240  1.2177  0.9074
  815MPD2    H212000   1.595   1.309  12.031 -0.9713  3.2362 -3.2143
  815MPD2    H312001   1.430   1.367  12.191 -1.3243 -0.6532  0.8891
  815MPD2     N12002   1.094   1.199  11.925  0.9196 -0.0768 -0.3660
  815MPD2    H512003   1.070   1.164  11.833 -3.1839 -2.4086  1.5321
  815MPD2    N112004   1.567   1.174  11.803  0.1714 -0.6590  0.4304
  815MPD2    H712005   1.539   1.152  11.708 -0.4058 -0.6026  0.5879
  816MPD2     C12006   1.271   1.157  17.613 -0.4754 -0.4323  0.4629
  816MPD2    C112007   1.280   1.277  17.548 -0.7784  0.5189 -0.7912
  816MPD2    C212008   1.357   1.288  17.431  0.1515  0.4246  0.8516
  816MPD2    C312009   1.434   1.180  17.384 -0.3346 -0.0158  0.0097
  816MPD2    C412010   1.431   1.060  17.457 -0.0605 -1.0834 -0.5815
  816MPD2    C512011   1.343   1.053  17.568  0.0966 -0.8063  0.3514
  816MPD2     H12012   1.354   1.375  17.366 -0.1448 -1.6312 -1.8982
  816MPD2    H112013   1.496   0.976  17.434  3.1419  1.5906 -1.2612
  816MPD2    H212014   1.213   1.145   0.011  0.9915 -1.3845  1.2776
  816MPD2    H312015   1.348   0.962  17.628 -0.5779 -1.6003 -0.7974
  816MPD2     N12016   1.502   1.186  17.256 -0.0011 -0.1911  0.2291
  816MPD2    H512017   1.500   1.276  17.209 -1.7791 -0.4559 -0.1744
  816MPD2    N112018   1.200   1.381  17.604 -1.0351 -0.1126 -0.2971
  816MPD2    H712019   1.130   1.349  17.670 -2.4202 -0.5528 -2.0105
  817MPD2     C12020   0.997   2.151   9.959 -0.5234  0.0673  0.3741
  817MPD2    C112021   1.105   2.183   9.884 -0.0767  0.4813  0.5624
  817MPD2    C212022   1.112   2.307   9.826  0.1483 -0.0610  0.1990
  817MPD2    C312023   1.005   2.398   9.830 -0.1002 -0.6396 -0.5824
  817MPD2    C412024   0.885   2.364   9.899 -0.7204 -0.5174 -0.1460
  817MPD2    C512025   0.886   2.236   9.961 -0.3557 -0.6536 -0.3110
  817MPD2     H12026   1.205   2.336   9.780 -1.2077  0.7187 -2.0686
  817MPD2    H112027   0.797   2.425   9.909  0.4478  1.0952  0.2711
  817MPD2    H212028   0.989   2.053  10.004  1.1190 -0.0614  0.3938
  817MPD2    H312029   0.795   2.211  10.014 -0.5845 -0.1925 -0.4868
  817MPD2     N12030   1.008   2.524   9.759 -0.4200 -0.0646 -0.2494
  817MPD2    H512031   1.092   2.527   9.701 -0.2404  3.7738  0.1736
  817MPD2    N112032   1.223   2.099   9.876  0.4952  0.4309  0.8593
  817MPD2    H712033   1.302   2.146   9.832  0.1637 -0.9398 -1.2173
  818MPD2     C12034   4.622   2.428   9.903 -0.4570  0.8598 -1.2507
  818MPD2    C112035   4.542   2.317   9.886 -0.0826 -0.1594  0.3474
  818MPD2    C212036   4.585   2.209   9.809 -0.2051  0.7361  0.3022
  818MPD2    C312037   4.706   2.203   9.762 -0.3646 -0.3184  0.6469
  818MPD2    C412038   0.071   2.300   9.801  0.7160  0.1983  0.1235
  818MPD2    C512039   0.027   2.415   9.856  0.0102  0.0220  0.0332
  818MPD2     H12040   4.523   2.120   9.805  0.9548 -0.0479 -0.0735
  818MPD2    H112041   0.172   2.305   9.762  1.4329 -1.3057  1.7420
  818MPD2    H212042   4.584   2.525   9.933  2.2761  0.9860  1.8166
  818MPD2    H312043   0.092   2.502   9.856 -0.6344  0.5060  1.1607
  818MPD2     N12044   0.026   2.086   9.690 -0.3313 -0.4853  0.4233
  818MPD2    H512045   0.124   2.064   9.675 -0.5547 -1.0015 -0.2527
  818MPD2    N112046   4.418   2.314   9.948  0.1025  0.3308  0.7500
  818MPD2    H712047   4.354   2.240   9.922 -0.2698  0.5830  0.9350
  819MPD2     C12048   2.590   4.030  15.834  0.3552  0.2621  0.5091
  819MPD2    C112049   2.643   3.906  15.815  0.2143 -1.6643  0.0139
  819MPD2    C212050   2.778   3.888  15.845 -0.3744 -0.1544  0.0850
  819MPD2    C312051   2.863   3.995  15.869 -0.3365  0.4059 -0.1585
  819MPD2    C412052   2.799   4.116  15.863  0.0750 -0.0842 -0.7387
  819MPD2    C512053   2.670   4.135  15.862 -0.5771  0.1837  0.0904
  819MPD2     H12054   2.814   3.786  15.845 -0.8470 -0.3170  1.6445
  819MPD2    H112055   2.859   4.205  15.875 -0.5422  0.0269  1.6579
  819MPD2    H212056   2.483   4.041  15.818  0.5718  0.9002 -0.5681
  819MPD2    H312057   2.628   4.233  15.885 -4.0763 -1.5233  1.0159
  819MPD2     N12058   2.996   3.974  15.901  0.0298 -0.2703 -0.2394
  819MPD2    H512059   3.028   3.878  15.900  0.7816 -0.0151 -0.8327
  819MPD2    N112060   2.562   3.803  15.767 -0.0385 -0.1767  0.3919
  819MPD2    H712061   2.464   3.823  15.746  0.6517  1.8175 -0.9053
  820MPD2     C12062   1.904   3.647  15.089 -0.3762  0.4043  0.2798
  820MPD2    C112063   1.993   3.746  15.129  0.1482 -0.1312 -0.2833
  820MPD2    C212064   2.104   3.709  15.205  0.3105 -0.1179  0.3491
  820MPD2    C312065   2.116   3.572  15.244  0.1523  0.3456  0.2575
  820MPD2    C412066   2.010   3.485  15.209 -0.2422  0.2469 -0.5717
  820MPD2    C512067   1.910   3.518  15.126  0.1446 -0.0996  0.3482
  820MPD2     H12068   2.180   3.778  15.240  0.9814 -1.4455  1.4855
  820MPD2    H112069   2.006   3.380  15.238 -1.2558  0.0145 -1.5639
  820MPD2    H212070   1.817   3.670  15.028 -0.7080 -2.9242 -0.5508
  820MPD2    H312071   1.841   3.447  15.082 -1.1256  0.7629  0.9665
  820MPD2     N12072   2.226   3.530  15.326  0.4095  0.3494  0.2804
  820MPD2    H512073   2.219   3.431  15.345 -0.3420  0.6262  1.4756
  820MPD2    N112074   1.973   3.875  15.083 -0.2167  0.0400  0.2738
  820MPD2    H712075   1.893   3.882  15.021 -2.2806 -1.1512  2.7399
  821MPD2     C12076   2.313   0.413  13.063  0.6284  0.1972 -0.1541
  821MPD2    C112077   2.410   0.396  13.155  0.1226  0.0354 -0.8669
  821MPD2    C212078   2.537   0.446  13.124  0.4488  0.5467  0.1820
  821MPD2    C312079   2.576   0.506  13.006 -0.9973 -0.0212 -0.0936
  821MPD2    C412080   2.466   0.510  12.915  0.8884  0.5112 -0.3043
  821MPD2    C512081   2.342   0.470  12.943  0.0500  0.4172 -0.0107
  821MPD2     H12082   2.615   0.416  13.194 -0.3325  0.1983  0.9023
  821MPD2    H112083   2.492   0.519  12.810 -1.9854 -3.5541 -1.3529
  821MPD2    H212084   2.207   0.394  13.076  1.0962 -2.2036  0.2408
  821MPD2    H312085   2.273   0.473  12.860 -1.7076 -0.9555  1.4256
  821MPD2     N12086   2.712   0.537  12.969 -0.4680  0.4291 -0.1176
  821MPD2    H512087   2.728   0.578  12.878 -1.2528  1.1709  0.0813
  821MPD2    N112088   2.397   0.335  13.281 -0.2651  0.2539  0.3040
  821MPD2    H712089   2.470   0.342  13.351  0.2408 -1.1517 -0.0905
  822MPD2     C12090   2.908   0.676  15.812 -0.6376 -0.6081  0.2119
  822MPD2    C112091   2.976   0.655  15.929 -0.2100 -0.8725 -0.3238
  822MPD2    C212092   2.974   0.753  16.024  0.0562 -0.0294  0.2724
  822MPD2    C312093   2.906   0.874  16.008  0.4839 -0.6214  0.5253
  822MPD2    C412094   2.837   0.894  15.892  0.0329 -0.2871 -0.0066
  822MPD2    C512095   2.837   0.793  15.803  0.5327 -0.6821 -0.0586
  822MPD2     H12096   3.027   0.754  16.119  0.4469 -0.7306  0.0622
  822MPD2    H112097   2.787   0.985  15.861  2.5136  0.7011 -1.0479
  822MPD2    H212098   2.895   0.601  15.735  0.7164 -0.3807 -0.2268
  822MPD2    H312099   2.782   0.791  15.710 -0.0655  0.3220  0.2818
  822MPD2     N12100   2.924   0.971  16.109  0.3802  0.3834 -0.4071
  822MPD2    H512101   2.972   0.940  16.193 -0.7426  3.3808  1.3074
  822MPD2    N112102   3.050   0.536  15.945  0.3768 -0.4566  1.3595
  822MPD2    H712103   3.119   0.546  16.019 -1.2131  0.9296  2.6611
  823MPD2     C12104   3.005   1.187  16.865 -0.2320 -0.1304 -0.1708
  823MPD2    C112105   3.017   1.079  16.776 -0.1387  0.2791 -0.9361
  823MPD2    C212106   3.031   0.948  16.818  0.7804  0.0918 -0.3082
  823MPD2    C312107   3.017   0.921  16.955  0.9792  0.0847 -0.3728
  823MPD2    C412108   2.990   1.026  17.039 -0.0749  0.4478 -0.1597
  823MPD2    C512109   2.983   1.155  16.998 -0.0698 -0.4058 -0.1126
  823MPD2     H12110   3.048   0.869  16.746  1.1445  0.7456 -0.9412
  823MPD2    H112111   2.966   1.004  17.143  0.4683  0.9186  0.0635
  823MPD2    H212112   2.992   1.293  16.843 -0.4382 -0.8797 -3.7262
  823MPD2    H312113   2.957   1.237  17.064 -4.1751 -2.6239  0.9983
  823MPD2     N12114   3.028   0.791  17.008  0.2265  0.2073 -0.3785
  823MPD2    H512115   3.030   0.783  17.109 -2.7058 -1.6665 -0.4596
  823MPD2    N112116   3.038   1.119  16.646  0.0610 -0.1955  0.4699
  823MPD2    H712117   3.044   1.218  16.627  1.0194 -0.1926  0.7783
  824MPD2     C12118   3.263   4.419  15.820  0.5438  0.2210 -0.0083
  824MPD2    C112119   3.345   4.528  15.837 -0.1976  0.1678  0.1780
  824MPD2    C212120   3.477   4.511  15.833  0.1129  0.2544  0.2983
  824MPD2    C312121   3.537   4.392  15.809  0.0199 -0.4611 -0.4136
  824MPD2    C412122   3.451   4.287  15.780 -0.2168 -0.1540 -0.5426
  824MPD2    C512123   3.319   4.296  15.792 -0.6549  0.5019 -0.2787
  824MPD2     H12124   3.538   4.598  15.851  0.1433  0.2606  0.1655
  824MPD2    H112125   3.490   4.193  15.743 -0.4491 -0.8526  0.9912
  824MPD2    H212126   3.155   4.413  15.825  0.7037 -0.6616  2.7383
  824MPD2    H312127   3.254   4.214  15.766 -0.2900  0.0412  0.2638
  824MPD2     N12128   3.676   4.384  15.805  0.0912 -0.2072 -0.0672
  824MPD2    H512129   3.726   4.472  15.811  0.3169 -0.2675 -1.0147
  824MPD2    N112130   3.297   4.655  15.868  0.9476  0.1878  0.4700
  824MPD2    H712131   3.362   0.006  15.896 -0.8754  2.1164 -0.3723
  825MPD2     C12132   4.317   4.513  15.289 -0.5442 -0.0928  0.4026
  825MPD2    C112133   4.228   4.568  15.376 -0.0289  0.3431  0.5483
  825MPD2    C212134   4.194   4.703  15.362 -0.0569  1.0471 -0.2576
  825MPD2    C312135   4.251   0.062  15.266 -0.5904 -0.1137  0.3230
  825MPD2    C412136   4.340   0.006  15.181  0.5811 -0.3315  0.2064
  825MPD2    C512137   4.368   4.597  15.194 -0.2096 -0.3140  1.1177
  825MPD2     H12138   4.114   0.021  15.423 -1.3538 -2.3435  0.2910
  825MPD2    H112139   4.390   0.061  15.102  1.8146 -0.0584  1.1584
  825MPD2    H212140   4.356   4.413  15.301  0.9289  0.7081  2.1560
  825MPD2    H312141   4.434   4.548  15.123 -4.2990 -2.3266 -1.2858
  825MPD2     N12142   4.233   0.199  15.258  0.8032 -0.0825  0.5211
  825MPD2    H512143   4.287   0.247  15.188  1.1234 -0.3354  0.5943
  825MPD2    N112144   4.174   4.482  15.474  0.6690 -0.5692  0.1859
  825MPD2    H712145   4.218   4.391  15.479  0.9344 -0.4682 -0.3023
  826MPD2     C12146   4.235   4.440  13.133 -0.3045 -0.1379  0.3265
  826MPD2    C112147   4.306   4.539  13.201  0.0166 -0.5481  0.2613
  826MPD2    C212148   4.249   4.662  13.228  0.9402 -0.1471  0.1130
  826MPD2    C312149   4.122   4.688  13.194 -0.1316  0.6458 -0.9825
  826MPD2    C412150   4.054   4.590  13.128 -0.8510 -0.1351  0.1253
  826MPD2    C512151   4.112   4.473  13.091  0.3795 -0.3668  0.4444
  826MPD2     H12152   4.305   0.004  13.294  2.9392 -2.1835  0.4215
  826MPD2    H112153   3.950   4.608  13.102 -0.2727  2.3904 -0.3787
  826MPD2    H212154   4.276   4.341  13.112  0.8150  0.3180  0.3764
  826MPD2    H312155   4.049   4.403  13.036 -0.1657  0.3136  0.2044
  826MPD2     N12156   4.051   0.086  13.227  0.7327 -0.7338 -0.0109
  826MPD2    H512157   3.954   0.097  13.200  0.5355  0.0530  1.0137
  826MPD2    N112158   4.429   4.491  13.260  0.0396  0.6012  0.2211
  826MPD2    H712159   4.446   4.391  13.255  0.0389  0.5513  1.1942
  827MPD2     C12160   0.357   1.241  10.065  0.1523  0.5283 -0.2223
  827MPD2    C112161   0.327   1.107  10.102 -0.4366 -0.3159  0.0898
  827MPD2    C212162   0.250   1.031  10.011 -0.3120  0.3246 -0.4056
  827MPD2    C312163   0.216   1.079   9.889 -0.2886  0.5170 -0.5409
  827MPD2    C412164   0.258   1.204   9.851  0.2162 -0.7681 -0.2351
  827MPD2    C512165   0.316   1.281   9.944 -0.2505 -0.6321  0.2204
  827MPD2     H12166   0.217   0.931  10.038 -0.2200  0.1820 -0.8329
  827MPD2    H112167   0.219   1.259   9.766 -1.0055 -1.6647 -0.2731
  827MPD2    H212168   0.408   1.306  10.135 -0.4823  0.2247  0.5260
  827MPD2    H312169   0.346   1.381   9.915 -2.9263 -0.3143 -1.4477
  827MPD2     N12170   0.122   1.010   9.807  0.3364 -0.3252  0.6538
  827MPD2    H512171   0.092   0.920   9.841 -0.2160  0.5452  2.4741
  827MPD2    N112172   0.371   1.060  10.230 -0.4520 -0.3913 -0.1911
  827MPD2    H712173   0.417   1.131  10.285  1.7540 -1.4236 -0.6915
  828MPD2     C12174   3.209   0.187  12.698  0.4037  0.1129  0.1462
  828MPD2    C112175   3.219   0.271  12.582 -0.5049  1.1668 -0.5513
  828MPD2    C212176   3.351   0.307  12.536 -0.5055  0.3289 -0.1540
  828MPD2    C312177   3.463   0.242  12.580  0.1563 -0.3377 -0.0086
  828MPD2    C412178   3.450   0.147  12.684  0.5996 -0.3035 -0.1073
  828MPD2    C512179   3.326   0.132  12.748 -0.3891 -0.1796  0.0826
  828MPD2     H12180   3.361   0.373  12.451  0.0662  2.3252  1.4522
  828MPD2    H112181   3.533   0.085  12.717 -0.6687 -0.5887  2.5109
  828MPD2    H212182   3.117   0.159  12.749 -0.5556 -1.4282 -2.4459
  828MPD2    H312183   3.315   0.060  12.828  1.2695 -1.0715 -0.5006
  828MPD2     N12184   3.589   0.268  12.520 -0.1262 -0.2616 -0.1190
  828MPD2    H512185   3.674   0.240  12.569 -0.6404  0.7929  1.3537
  828MPD2    N112186   3.105   0.327  12.521 -0.0668  0.9015 -0.0901
  828MPD2    H712187   3.110   0.392  12.443  0.3422  0.8291 -0.1250
  829MPD2     C12188   3.191   0.400  11.692  0.4221  0.4822  0.3020
  829MPD2    C112189   3.064   0.440  11.702  0.3439  0.3972 -0.3596
  829MPD2    C212190   3.008   0.438  11.829 -0.6859  0.1491  0.6242
  829MPD2    C312191   3.090   0.424  11.944  0.6785  0.1488 -0.1268
  829MPD2    C412192   3.219   0.381  11.927  0.2950  0.1814 -0.1223
  829MPD2    C512193   3.264   0.374  11.800 -0.0119 -0.2186 -0.6667
  829MPD2     H12194   2.904   0.469  11.841 -0.7585  0.5174 -0.8846
  829MPD2    H112195   3.290   0.353  12.004 -1.2455 -0.2694  1.1145
  829MPD2    H212196   3.237   0.388  11.594  3.2129 -0.5491  1.7344
  829MPD2    H312197   3.367   0.342  11.790 -0.2279 -0.7360 -1.2520
  829MPD2     N12198   3.038   0.452  12.073  0.5634  0.1981  0.4142
  829MPD2    H512199   3.107   0.437  12.146 -0.8657 -1.4685  1.4166
  829MPD2    N112200   3.001   0.472  11.585  0.2644 -0.6499  0.1505
  829MPD2    H712201   3.061   0.472  11.503 -0.2843 -0.8160 -0.2489
  830MPD2     C12202   3.798   3.875  15.646  0.4125 -0.0655 -0.3454
  830MPD2    C112203   3.664   3.904  15.621  0.3321  0.3666 -0.0401
  830MPD2    C212204   3.625   3.998  15.532  0.9924  0.1600  0.9466
  830MPD2    C312205   3.717   4.072  15.467  0.3442  0.2389 -0.1662
  830MPD2    C412206   3.852   4.042  15.489  0.3020  0.1086  0.0640
  830MPD2    C512207   3.891   3.933  15.568  0.2764  0.3827  0.7504
  830MPD2     H12208   3.521   4.021  15.519  0.9708  0.4530  1.6204
  830MPD2    H112209   3.933   4.087  15.432  0.7279 -1.9097 -0.9548
  830MPD2    H212210   3.831   3.802  15.719  0.6938  0.3123 -0.1006
  830MPD2    H312211   3.993   3.896  15.575  0.1701  0.4245  2.4626
  830MPD2     N12212   3.693   4.190  15.395 -0.4491 -0.0741  0.0112
  830MPD2    H512213   3.768   4.242  15.350 -0.7933  0.4375  0.0242
  830MPD2    N112214   3.572   3.843  15.708 -0.9216 -0.0208 -0.1350
  830MPD2    H712215   3.609   3.793  15.788  0.6301  1.4191  0.0536
  831MPD2     C12216   3.468   0.923  16.544  0.5023 -0.2240 -0.5352
  831MPD2    C112217   3.397   0.908  16.431  0.5167 -0.9523  0.5781
  831MPD2    C212218   3.287   0.826  16.431 -0.4387 -0.2300 -0.0244
  831MPD2    C312219   3.245   0.759  16.540  0.0585 -0.3326  0.7696
  831MPD2    C412220   3.314   0.779  16.660  0.2229 -0.2141  0.2624
  831MPD2    C512221   3.429   0.863  16.659  0.1572  0.0694  0.5940
  831MPD2     H12222   3.238   0.812  16.335 -0.1236  0.7187 -0.3249
  831MPD2    H112223   3.280   0.729  16.750 -1.9530  0.4232 -0.2066
  831MPD2    H212224   3.563   0.975  16.548  0.3733  0.0970 -1.8620
  831MPD2    H312225   3.496   0.858  16.744  1.3525  2.3805 -0.2307
  831MPD2     N12226   3.152   0.651  16.547 -0.1062  0.4703  0.1892
  831MPD2    H512227   3.129   0.605  16.635 -2.3295 -0.6406 -0.9616
  831MPD2    N112228   3.442   0.983  16.317  0.6325 -0.4307  0.0607
  831MPD2    H712229   3.520   1.045  16.331  1.2520 -0.4465 -3.2622
  832MPD2     C12230   1.932   2.130  17.165 -0.5229 -0.3940 -0.0345
  832MPD2    C112231   1.866   2.243  17.156 -0.5235 -0.6738 -0.5743
  832MPD2    C212232   1.767   2.261  17.055 -0.4232  0.3376  0.3623
  832MPD2    C312233   1.725   2.158  16.983  0.3076 -0.6555  0.2650
  832MPD2    C412234   1.786   2.036  17.005 -0.0971  0.1501 -0.1773
  832MPD2    C512235   1.884   2.025  17.098  0.2518 -0.1495 -0.2951
  832MPD2     H12236   1.701   2.347  17.060 -2.3770 -1.0517 -2.0111
  832MPD2    H112237   1.747   1.956  16.943 -1.0749  1.5304 -1.3267
  832MPD2    H212238   2.023   2.127  17.223  0.7299  1.8025 -1.9058
  832MPD2    H312239   1.926   1.926  17.111  0.1762 -0.2674 -0.9358
  832MPD2     N12240   1.615   2.161  16.896  0.1060 -0.1277  0.2193
  832MPD2    H512241   1.585   2.072  16.858  0.8442 -0.1286 -0.3455
  832MPD2    N112242   1.905   2.346  17.241  0.1069 -0.0427  0.7057
  832MPD2    H712243   1.972   2.327  17.315 -1.5171 -1.2576  1.8745
  833MPD2     C12244   4.035   2.716  12.654  1.0794  0.4197  0.0564
  833MPD2    C112245   4.091   2.791  12.554  0.7881  0.4268  0.0861
  833MPD2    C212246   4.190   2.741  12.468 -0.3205 -0.2703 -0.6703
  833MPD2    C312247   4.245   2.617  12.492  0.3093 -0.2119 -0.0333
  833MPD2    C412248   4.201   2.546  12.602 -0.3141 -0.1837 -0.4219
  833MPD2    C512249   4.097   2.597  12.674  0.5589 -0.5861 -0.5034
  833MPD2     H12250   4.223   2.794  12.379 -0.2219 -1.6841 -1.4738
  833MPD2    H112251   4.238   2.449  12.631  0.5241 -0.1179 -1.2922
  833MPD2    H212252   3.954   2.753  12.717 -0.1665 -1.7137 -0.2781
  833MPD2    H312253   4.073   2.536  12.761 -3.9637  2.7734  0.6191
  833MPD2     N12254   4.350   2.564  12.412 -0.4703  0.1010  0.0259
  833MPD2    H512255   4.379   2.468  12.429 -1.1307 -0.2319 -0.7189
  833MPD2    N112256   4.036   2.925  12.537 -0.3719 -0.7121 -0.0472
  833MPD2    H712257   3.963   2.951  12.603 -0.4832  0.2019 -0.5320
  834MPD2     C12258   4.372   1.890  11.677  0.1648  0.4614 -0.2079
  834MPD2    C112259   4.377   2.013  11.612  0.0382 -0.2268  0.1368
  834MPD2    C212260   4.430   2.122  11.679  0.0359  0.1532  0.2332
  834MPD2    C312261   4.453   2.117  11.817  0.4325 -0.5751  0.5861
  834MPD2    C412262   4.432   1.998  11.884 -0.0715 -0.2151  0.3311
  834MPD2    C512263   4.398   1.884  11.811  0.8392 -0.0032 -0.7250
  834MPD2     H12264   4.447   2.220  11.637  1.2789 -0.8298 -1.5387
  834MPD2    H112265   4.445   1.990  11.991  2.0456  0.9794  0.1674
  834MPD2    H212266   4.348   1.793  11.635  0.6291  0.1349  0.2870
  834MPD2    H312267   4.389   1.796  11.874 -1.6505 -0.3120 -1.5020
  834MPD2     N12268   4.492   2.234  11.889 -1.0150  0.3994 -0.2465
  834MPD2    H512269   4.529   2.310  11.832  1.4272  0.0668  0.8879
  834MPD2    N112270   4.335   2.012  11.479 -0.4855  0.5967 -0.1364
  834MPD2    H712271   4.298   1.925  11.441 -0.7796 -0.3170  2.2094
  835MPD2     C12272   4.184   0.748  10.653 -0.0161 -0.5251 -1.1748
  835MPD2    C112273   4.078   0.657  10.654  0.5711 -0.1152  0.6276
  835MPD2    C212274   4.052   0.601  10.775 -0.2260 -0.4497  0.3829
  835MPD2    C312275   4.125   0.624  10.885  0.0481 -0.4992  0.3808
  835MPD2    C412276   4.239   0.703  10.874  0.2221  0.1154 -0.5008
  835MPD2    C512277   4.270   0.761  10.757 -0.5643  0.2952 -0.5185
  835MPD2     H12278   3.959   0.545  10.773  0.3589 -1.3868 -1.3912
  835MPD2    H112279   4.309   0.718  10.955 -0.7028 -2.5196  0.7897
  835MPD2    H212280   4.214   0.796  10.561 -1.9287  1.2398 -0.8825
  835MPD2    H312281   4.370   0.802  10.752 -0.5540  0.2220 -0.9190
  835MPD2     N12282   4.095   0.562  11.012  0.2105  0.3598 -0.0188
  835MPD2    H512283   4.154   0.588  11.090 -1.0748 -0.4884  1.2414
  835MPD2    N112284   3.980   0.633  10.556 -0.0349 -0.3881  0.6025
  835MPD2    H712285   3.905   0.567  10.577  1.0625 -1.9572 -0.3422
  836MPD2     C12286   3.426   0.705  11.198 -0.1376 -0.7165 -0.1978
  836MPD2    C112287   3.476   0.664  11.321 -0.1254  0.2431  0.0770
  836MPD2    C212288   3.407   0.689  11.439  0.0717  0.3852 -0.6264
  836MPD2    C312289   3.281   0.751  11.428 -0.3558  0.0042  0.1707
  836MPD2    C412290   3.231   0.780  11.303 -0.3279  0.1001  0.7823
  836MPD2    C512291   3.303   0.758  11.190  0.1716 -0.0326  0.3424
  836MPD2     H12292   3.443   0.657  11.536 -2.9381 -1.1408 -0.0218
  836MPD2    H112293   3.131   0.821  11.291 -0.1254  0.5376  0.6037
  836MPD2    H212294   3.483   0.680  11.109 -2.1783 -1.5814 -1.2711
  836MPD2    H312295   3.265   0.789  11.093  1.1830  0.6629  0.1730
  836MPD2     N12296   3.192   0.793  11.531 -0.1711  0.4379  0.3832
  836MPD2    H512297   3.105   0.840  11.507 -0.5863  0.1902  1.3755
  836MPD2    N112298   3.597   0.593  11.313 -0.4475  0.3594 -0.3294
  836MPD2    H712299   3.611   0.558  11.219  0.7058 -0.8294  0.2829
  837MPD2     C12300   2.220   1.021   9.966 -0.6350  0.1660 -0.5574
  837MPD2    C112301   2.123   1.022   9.871  0.4476  0.4215 -0.0183
  837MPD2    C212302   2.020   1.111   9.858  0.0002  0.3716 -0.2041
  837MPD2    C312303   2.024   1.219   9.942 -0.5743 -0.6710  0.3863
  837MPD2    C412304   2.126   1.229  10.029 -0.1988 -0.6969 -0.4160
  837MPD2    C512305   2.218   1.133  10.048  0.2632  0.5527  0.1338
  837MPD2     H12306   1.943   1.094   9.784  0.6217 -1.2179 -0.4862
  837MPD2    H112307   2.139   1.320  10.087  0.6386 -0.5170 -0.8935
  837MPD2    H212308   2.298   0.948   9.984 -2.7564 -1.1613  3.1401
  837MPD2    H312309   2.290   1.150  10.128  3.9196 -1.2815 -2.7760
  837MPD2     N12310   1.933   1.329   9.905  0.5623 -0.4674  0.4838
  837MPD2    H512311   1.872   1.309   9.826  0.8993 -0.7195  0.2884
  837MPD2    N112312   2.121   0.916   9.771 -0.1927 -0.1792 -0.3616
  837MPD2    H712313   2.056   0.922   9.693  1.6980  1.7079 -1.7811
  838MPD2     C12314   0.426   4.052  11.671  0.0556  0.4248 -0.0267
  838MPD2    C112315   0.507   3.948  11.717  0.2994 -0.7606  0.1985
  838MPD2    C212316   0.454   3.829  11.761 -0.0820 -0.5153  0.2160
  838MPD2    C312317   0.320   3.812  11.781  0.2679  0.0274  1.0022
  838MPD2    C412318   0.240   3.912  11.719 -0.0370  0.1150 -0.0686
  838MPD2    C512319   0.293   4.028  11.664 -0.2266 -0.3231  0.0348
  838MPD2     H12320   0.520   3.745  11.779  0.0541 -0.9410 -2.3806
  838MPD2    H112321   0.133   3.898  11.734 -0.1572 -0.1538 -1.1994
  838MPD2    H212322   0.474   4.144  11.638  2.0737 -0.6833 -0.2149
  838MPD2    H312323   0.224   4.104  11.629 -0.9919 -1.6079 -1.2333
  838MPD2     N12324   0.277   3.699  11.854  0.2413 -0.0743  0.2372
  838MPD2    H512325   0.350   3.661  11.913  0.3544 -0.5592 -0.2078
  838MPD2    N112326   0.646   3.949  11.697 -1.0175 -0.0092 -0.0104
  838MPD2    H712327   0.698   3.868  11.729  0.5986  1.0314 -0.0292
  839MPD2     C12328   0.481   3.348  11.779 -0.9120  0.2372  0.4322
  839MPD2    C112329   0.458   3.395  11.649 -0.2126  0.3834 -0.5633
  839MPD2    C212330   0.565   3.456  11.586 -0.0086 -0.0312  0.5477
  839MPD2    C312331   0.685   3.484  11.644  0.4645 -0.8263  0.3343
  839MPD2    C412332   0.709   3.433  11.775 -0.2325 -0.6052  0.4345
  839MPD2    C512333   0.603   3.361  11.836  0.6099 -0.1569  0.3543
  839MPD2     H12334   0.558   3.482  11.481 -0.8093 -1.3790  0.2776
  839MPD2    H112335   0.807   3.442  11.820 -0.3314  2.6190  0.0022
  839MPD2    H212336   0.404   3.296  11.834  0.9986 -2.6806  0.3446
  839MPD2    H312337   0.618   3.330  11.939  0.0690 -2.2697 -0.1925
  839MPD2     N12338   0.794   3.565  11.594  0.9189  0.4207 -0.1072
  839MPD2    H512339   0.867   3.594  11.659 -0.1589  0.7062  0.9670
  839MPD2    N112340   0.338   3.383  11.575  0.3820  0.0812 -0.0664
  839MPD2    H712341   0.349   3.400  11.475 -1.9381 -0.0678 -0.3271
  840MPD2     C12342   0.729   1.380  10.641 -0.1946  0.0291  0.3915
  840MPD2    C112343   0.691   1.268  10.715  0.2140  0.2322 -0.1218
  840MPD2    C212344   0.732   1.254  10.850  0.2509 -0.2618  0.7763
  840MPD2    C312345   0.788   1.362  10.911 -0.0338 -0.2121  0.0323
  840MPD2    C412346   0.821   1.478  10.839  0.8930  0.1814  0.4014
  840MPD2    C512347   0.786   1.484  10.708  0.2031  0.2920 -0.0537
  840MPD2     H12348   0.710   1.161  10.901 -0.0945  0.1969  1.4598
  840MPD2    H112349   0.877   1.557  10.889  0.1136 -0.0972  1.7075
  840MPD2    H212350   0.700   1.386  10.537  1.6210  1.1255 -0.0556
  840MPD2    H312351   0.794   1.575  10.651 -0.1310 -1.8163 -3.4564
  840MPD2     N12352   0.842   1.357  11.044  0.0772 -1.0901 -0.4853
  840MPD2    H512353   0.901   1.437  11.064  0.4864 -0.8270 -2.7218
  840MPD2    N112354   0.616   1.171  10.650 -0.5189  0.2464 -0.6423
  840MPD2    H712355   0.597   1.183  10.551 -0.7017 -1.9020 -0.8776
  841MPD2     C12356   0.625   1.255  13.946 -0.9903 -0.1110  0.3462
  841MPD2    C112357   0.643   1.164  14.051 -0.6002 -0.7789 -0.2692
  841MPD2    C212358   0.701   1.201  14.167 -0.1938  0.2544 -0.3588
  841MPD2    C312359   0.753   1.328  14.189 -0.2893  0.0367 -0.3761
  841MPD2    C412360   0.737   1.418  14.086 -0.2932 -0.2663 -0.2850
  841MPD2    C512361   0.673   1.380  13.970  0.0177  0.1498 -0.6936
  841MPD2     H12362   0.704   1.136  14.254  0.5343  0.9848  0.1647
  841MPD2    H112363   0.772   1.520  14.094 -1.3415  0.1055 -0.3736
  841MPD2    H212364   0.584   1.231  13.849 -2.2029 -0.7007  0.9961
  841MPD2    H312365   0.662   1.456  13.894  1.8553  2.5119  1.3988
  841MPD2     N12366   0.819   1.357  14.311  0.5681  0.7170 -0.7099
  841MPD2    H512367   0.814   1.283  14.380  2.0600  3.1782  2.0424
  841MPD2    N112368   0.598   1.035  14.025 -0.0431 -0.2812 -0.3119
  841MPD2    H712369   0.539   1.017  13.944  2.4078 -2.5400 -1.6266
  842MPD2     C12370   0.307   2.022  16.533  0.2716  0.3610 -0.1068
  842MPD2    C112371   0.386   2.136  16.555 -0.1263 -0.9009 -0.0949
  842MPD2    C212372   0.475   2.136  16.665  0.1413  0.3234 -0.3591
  842MPD2    C312373   0.477   2.027  16.752  0.0598 -0.2457 -0.1685
  842MPD2    C412374   0.402   1.916  16.718 -0.2619  0.0499 -0.4085
  842MPD2    C512375   0.318   1.911  16.612 -0.0334 -0.3140  0.1804
  842MPD2     H12376   0.528   2.228  16.685  1.0656 -0.3316  0.2338
  842MPD2    H112377   0.415   1.827  16.778  1.0836 -0.3857 -1.3549
  842MPD2    H212378   0.247   2.023  16.442  2.3752 -0.0790 -1.4876
  842MPD2    H312379   0.279   1.814  16.586 -1.4170  0.0414  0.9374
  842MPD2     N12380   0.540   2.037  16.886  0.6825  0.1526  0.4664
  842MPD2    H512381   0.528   1.956  16.947  0.4171  0.0311  0.2520
  842MPD2    N112382   0.369   2.246  16.464 -0.2396 -0.6044 -0.2466
  842MPD2    H712383   0.301   2.238  16.390  0.0684  2.3907 -0.8378
  843MPD2     C12384   3.081   2.488  17.277 -0.9882 -0.0904  0.7172
  843MPD2    C112385   2.985   2.534  17.363 -0.8782 -0.0488  0.0740
  843MPD2    C212386   3.012   2.660  17.419  0.2783 -0.2100  0.2310
  843MPD2    C312387   3.135   2.725  17.398  0.3577  0.3968 -0.1124
  843MPD2    C412388   3.232   2.667  17.320  0.6368 -1.0470  0.2423
  843MPD2    C512389   3.197   2.549  17.254 -0.2545 -0.9091  0.0231
  843MPD2     H12390   2.945   2.701  17.494 -0.6864  0.3394 -0.9358
  843MPD2    H112391   3.319   2.728  17.297 -0.4885  0.0403 -1.1176
  843MPD2    H212392   3.067   2.404  17.210 -1.0420  0.8945 -0.5086
  843MPD2    H312393   3.267   2.502  17.186 -0.2979  0.6265 -1.0821
  843MPD2     N12394   3.174   2.849  17.461  0.4222  0.4076 -1.2503
  843MPD2    H512395   3.274   2.858  17.454  0.5036  1.5018  1.4149
  843MPD2    N112396   2.865   2.466  17.373  0.2430 -0.6539  0.1150
  843MPD2    H712397   2.859   2.383  17.316 -1.1341  0.3280 -1.1756
  844MPD2     C12398   1.552   2.379  16.461 -0.6253 -0.1324  0.4020
  844MPD2    C112399   1.587   2.254  16.489  0.5047  0.6217  0.0208
  844MPD2    C212400   1.696   2.231  16.566 -0.5896  0.2678  0.7839
  844MPD2    C312401   1.758   2.339  16.623  0.4003 -0.3528 -0.1502
  844MPD2    C412402   1.715   2.465  16.601 -0.5322 -0.2049 -0.1639
  844MPD2    C512403   1.614   2.484  16.514  0.3234 -0.0490  0.4381
  844MPD2     H12404   1.745   2.134  16.571  0.0732  0.5674  0.1432
  844MPD2    H112405   1.776   2.548  16.636  2.1384 -1.6825 -1.3179
  844MPD2    H212406   1.468   2.410  16.399  0.7559 -1.2665 -2.0401
  844MPD2    H312407   1.586   2.579  16.470 -0.7622 -0.2370  0.7019
  844MPD2     N12408   1.871   2.309  16.704  0.3364  0.2123  0.8062
  844MPD2    H512409   1.878   2.210  16.727 -0.5715  0.3869  1.8215
  844MPD2    N112410   1.519   2.142  16.432  0.4392  0.3628 -0.1462
  844MPD2    H712411   1.553   2.050  16.454  0.5968 -0.1078 -2.3074
  845MPD2     C12412   2.384   2.922  17.310  0.2478  0.6192  0.5028
  845MPD2    C112413   2.310   2.944  17.197  0.1009  0.4661 -1.3361
  845MPD2    C212414   2.272   2.831  17.125  0.0643  0.2729 -0.1123
  845MPD2    C312415   2.304   2.701  17.167 -0.1075  0.6287 -1.2569
  845MPD2    C412416   2.367   2.689  17.288  0.4837 -0.4360  0.4247
  845MPD2    C512417   2.404   2.798  17.358 -0.3837 -0.1917 -0.0488
  845MPD2     H12418   2.220   2.840  17.030  0.4004  0.5018 -0.2733
  845MPD2    H112419   2.400   2.596  17.332  1.1233 -0.1062  0.6370
  845MPD2    H212420   2.419   3.006  17.369  1.6128  0.9674 -0.7898
  845MPD2    H312421   2.456   2.789  17.453  1.2638 -1.2363 -1.0611
  845MPD2     N12422   2.269   2.591  17.086  0.4180 -0.1955  0.5244
  845MPD2    H512423   2.213   2.611  17.004 -0.2033  0.9763  1.2271
  845MPD2    N112424   2.271   3.077  17.164 -0.6153  0.1398  0.0646
  845MPD2    H712425   2.288   3.147  17.237  1.0401  1.4674 -1.5758
  846MPD2     C12426   3.548   2.586  14.114 -0.0733  0.2752 -0.3096
  846MPD2    C112427   3.448   2.587  14.018 -0.0944 -0.0798 -0.3341
  846MPD2    C212428   3.320   2.619  14.065 -0.3602  0.4214 -0.3261
  846MPD2    C312429   3.291   2.627  14.201  0.2239 -0.2623 -0.7648
  846MPD2    C412430   3.397   2.630  14.296  0.1580 -0.4366 -0.1718
  846MPD2    C512431   3.523   2.610  14.244 -0.0894 -0.6627 -0.0926
  846MPD2     H12432   3.240   2.630  13.993  0.6900  1.0982 -1.3990
  846MPD2    H112433   3.386   2.657  14.401 -0.0142  0.4791 -0.4286
  846MPD2    H212434   3.653   2.568  14.094  0.2179  1.1061  0.4864
  846MPD2    H312435   3.604   2.607  14.317 -0.2756  0.0775  0.1422
  846MPD2     N12436   3.155   2.652  14.242  0.1019  0.3798 -0.3641
  846MPD2    H512437   3.078   2.653  14.175  0.1385 -0.2736 -0.4118
  846MPD2    N112438   3.475   2.580  13.882  0.3373 -0.0365 -0.7962
  846MPD2    H712439   3.397   2.594  13.819 -1.3856  2.3183  1.8161
  847MPD2     C12440   3.532   4.052  13.581  0.3198  0.4241  0.2710
  847MPD2    C112441   3.540   3.958  13.679 -0.5424 -0.2805 -0.1243
  847MPD2    C212442   3.576   3.830  13.633 -0.3746 -0.5017 -0.2360
  847MPD2    C312443   3.614   3.797  13.504  0.6545 -0.3100  0.2666
  847MPD2    C412444   3.625   3.903  13.417  0.4603  0.1786  0.5967
  847MPD2    C512445   3.575   4.029  13.451 -0.9092  0.8128 -0.7616
  847MPD2     H12446   3.559   3.751  13.706  0.1333  0.8570  1.3355
  847MPD2    H112447   3.649   3.895  13.311  0.7465  0.3018  0.6531
  847MPD2    H212448   3.499   4.152  13.603  1.1552  0.4416  1.4625
  847MPD2    H312449   3.567   4.103  13.372 -0.2152  0.5324 -1.0966
  847MPD2     N12450   3.637   3.666  13.474  0.1895  0.0659  0.1225
  847MPD2    H512451   3.654   3.609  13.557 -0.5724 -1.2488 -0.6273
  847MPD2    N112452   3.497   3.984  13.810 -0.2814  0.0177 -0.0165
  847MPD2    H712453   3.514   3.907  13.874 -2.8283  1.7829  2.7911
  848MPD2     C12454   1.087   2.506  16.353 -0.3650 -0.0236  0.3592
  848MPD2    C112455   1.157   2.554  16.462 -0.0294  0.4973 -0.0776
  848MPD2    C212456   1.180   2.687  16.484  0.0000  0.5076 -0.4720
  848MPD2    C312457   1.131   2.774  16.385 -0.5322 -0.5696 -0.3871
  848MPD2    C412458   1.051   2.727  16.279  0.0519 -0.2335 -0.4381
  848MPD2    C512459   1.019   2.594  16.267  0.2534 -0.5060 -0.3446
  848MPD2     H12460   1.241   2.722  16.567  0.6839  1.0800 -1.2217
  848MPD2    H112461   0.997   2.800  16.219  0.9180 -0.3155 -1.3275
  848MPD2    H212462   1.086   2.402  16.321 -0.0140  0.1648 -0.2678
  848MPD2    H312463   0.957   2.548  16.190  0.6758 -1.7195  0.0270
  848MPD2     N12464   1.156   2.911  16.379 -0.1866 -0.2539 -0.3471
  848MPD2    H512465   1.100   2.964  16.313  1.9432  1.5149 -0.7313
  848MPD2    N112466   1.205   2.461  16.556  0.0836 -0.3476 -0.0327
  848MPD2    H712467   1.251   2.498  16.638 -1.1886 -2.0062  1.4547
  849MPD2     C12468   0.546   1.777  14.138 -0.4897  0.1585  0.1157
  849MPD2    C112469   0.605   1.900  14.147  0.1569  0.0696 -0.2400
  849MPD2    C212470   0.668   1.937  14.268 -0.7543  0.0567  0.2010
  849MPD2    C312471   0.671   1.851  14.372 -0.8005  0.6313  0.2027
  849MPD2    C412472   0.616   1.726  14.351  0.1140  0.2021  0.0610
  849MPD2    C512473   0.555   1.685  14.240 -0.0552  0.3507  0.4152
  849MPD2     H12474   0.712   2.035  14.282 -0.6944  0.1881 -0.8888
  849MPD2    H112475   0.609   1.652  14.430 -0.4451  1.3825  1.1188
  849MPD2    H212476   0.506   1.745  14.043 -0.3119 -0.5038  0.2681
  849MPD2    H312477   0.513   1.586  14.229  1.4386 -0.1285 -1.0214
  849MPD2     N12478   0.729   1.868  14.501 -0.2120  0.1123 -0.0735
  849MPD2    H512479   0.695   1.798  14.565 -3.0424  0.3734 -1.2874
  849MPD2    N112480   0.608   1.981  14.035 -0.0546  0.3559 -0.2768
  849MPD2    H712481   0.581   1.930  13.951  2.2105 -0.6465 -0.4005
  850MPD2     C12482   3.066   0.306  14.697 -1.0484  0.6954 -0.1027
  850MPD2    C112483   3.068   0.403  14.798  0.8149  0.3557 -0.1469
  850MPD2    C212484   3.187   0.433  14.865 -0.0707  0.0234 -0.4830
  850MPD2    C312485   3.296   0.344  14.848 -0.0830  0.0217  0.5415
  850MPD2    C412486   3.283   0.248  14.751  0.7958  0.0481 -0.2550
  850MPD2    C512487   3.177   0.237  14.668 -0.5194 -0.9314 -0.1989
  850MPD2     H12488   3.192   0.515  14.936 -0.6586  0.1405 -0.5756
  850MPD2    H112489   3.368   0.189  14.718 -0.0262 -0.8885 -0.7209
  850MPD2    H212490   2.972   0.297  14.643 -0.3809 -1.8109 -0.8398
  850MPD2    H312491   3.174   0.163  14.589  1.8187 -0.1591 -1.0261
  850MPD2     N12492   3.424   0.349  14.917  0.4022  0.1856  0.0707
  850MPD2    H512493   3.499   0.289  14.885 -0.5803 -1.0152  0.0080
  850MPD2    N112494   2.940   0.458  14.833 -0.2327  0.3866  0.6256
  850MPD2    H712495   2.868   0.437  14.764  0.4996 -0.5493  0.1529
  851MPD2     C12496   3.341   0.354  15.600 -0.6673  0.3547  0.3581
  851MPD2    C112497   3.303   0.318  15.471  0.4358  0.1990  0.0743
  851MPD2    C212498   3.373   0.225  15.398  0.6047 -0.3247  0.5753
  851MPD2    C312499   3.470   0.154  15.460 -0.6040 -0.0950 -0.2327
  851MPD2    C412500   3.505   0.181  15.597 -0.6379  0.3716  0.0655
  851MPD2    C512501   3.441   0.285  15.665 -0.3523  0.1981  0.6362
  851MPD2     H12502   3.359   0.211  15.291  0.9221 -0.7173  0.5833
  851MPD2    H112503   3.575   0.120  15.652 -0.3683 -1.0524 -1.8519
  851MPD2    H212504   3.284   0.433  15.649 -0.2280  1.3183 -0.6894
  851MPD2    H312505   3.459   0.309  15.769  1.4885  0.0428  0.3435
  851MPD2     N12506   3.527   0.050  15.375  0.2064  0.1021 -0.3237
  851MPD2    H512507   3.488   0.044  15.282  0.5211 -1.8656 -0.3260
  851MPD2    N112508   3.192   0.384  15.409 -0.3526  0.8546 -0.4886
  851MPD2    H712509   3.144   0.463  15.451 -0.1993  1.3233 -1.2057
  852MPD2     C12510   2.981   1.967   9.806 -0.3004 -0.3748  0.0848
  852MPD2    C112511   3.049   2.024   9.913 -0.5553 -0.0303  0.0052
  852MPD2    C212512   3.156   2.107   9.897  0.2947  0.0517  0.9080
  852MPD2    C312513   3.215   2.119   9.772 -0.4938  0.0746  0.4409
  852MPD2    C412514   3.150   2.060   9.671  0.2496  0.5439  0.7949
  852MPD2    C512515   3.039   1.989   9.684 -0.4277 -0.1737 -0.3619
  852MPD2     H12516   3.196   2.153   9.986 -0.7357 -1.3343  2.0735
  852MPD2    H112517   3.184   2.079   9.570  0.5279  2.3366  1.2370
  852MPD2    H212518   2.890   1.907   9.807 -0.6238  0.2366  3.9854
  852MPD2    H312519   2.980   1.950   9.602  0.6204 -1.4180 -0.5349
  852MPD2     N12520   3.340   2.192   9.770 -0.2741  0.1308 -0.3527
  852MPD2    H512521   3.379   2.217   9.861 -0.9917  0.6460 -0.1812
  852MPD2    N112522   3.003   2.010  10.045 -0.2757  0.2525 -0.3796
  852MPD2    H712523   3.041   2.073  10.115  0.0409 -0.9636  0.5594
  853MPD2     C12524   0.108   2.321  12.261 -0.2086 -0.1603  0.2082
  853MPD2    C112525   0.182   2.440  12.235  0.0519 -0.3894 -0.0335
  853MPD2    C212526   0.213   2.482  12.110  0.3183 -0.0575  0.2807
  853MPD2    C312527   0.172   2.405  12.003  0.2573 -0.1315 -0.6368
  853MPD2    C412528   0.101   2.286  12.031 -0.1084  0.5678  0.2774
  853MPD2    C512529   0.072   2.240  12.158 -0.1530 -0.0049 -0.2315
  853MPD2     H12530   0.256   2.579  12.088  1.0956 -0.3113  0.6860
  853MPD2    H112531   0.077   2.224  11.946  1.3711 -1.0186  1.0201
  853MPD2    H212532   0.102   2.281  12.361  0.4646 -2.9604 -0.8729
  853MPD2    H312533   0.023   2.145  12.177 -2.7932  1.8067  2.0495
  853MPD2     N12534   0.188   2.454  11.864 -0.4474  0.0143  0.3392
  853MPD2    H512535   0.125   2.414  11.796 -1.2696  0.3693  0.8919
  853MPD2    N112536   0.211   2.516  12.357  0.1457  0.1869 -0.0592
  853MPD2    H712537   0.185   2.473  12.445  2.4093 -2.9067 -0.8836
  854MPD2     C12538   2.175   2.591  13.126 -0.1988 -0.1995  0.2418
  854MPD2    C112539   2.068   2.545  13.054 -0.7350 -0.7617 -0.3181
  854MPD2    C212540   2.042   2.406  13.055  0.1564  0.3334 -0.4003
  854MPD2    C312541   2.135   2.332  13.128 -0.2175  0.7613  0.6602
  854MPD2    C412542   2.239   2.383  13.204 -0.1204 -0.8044  0.7806
  854MPD2    C512543   2.263   2.515  13.198  0.9110 -0.3352 -1.1144
  854MPD2     H12544   1.951   2.367  13.013 -0.2370  0.0266  0.7273
  854MPD2    H112545   2.308   2.315  13.254  1.2891  1.4299  1.8410
  854MPD2    H212546   2.197   2.697  13.130  0.6505 -0.3794  0.2792
  854MPD2    H312547   2.335   2.567  13.261 -1.3992  0.5545  0.8312
  854MPD2     N12548   2.152   2.188  13.118 -0.1024 -0.1050 -0.3441
  854MPD2    H512549   2.231   2.141  13.161  0.3133 -0.0889 -1.1000
  854MPD2    N112550   1.994   2.631  12.969 -0.0711  0.1914 -0.3780
  854MPD2    H712551   2.031   2.723  12.947  1.4093 -0.4703 -0.6489
  855MPD2     C12552   2.749   1.773  13.513  0.1647 -0.7804 -0.4614
  855MPD2    C112553   2.621   1.738  13.548 -0.0733 -0.4781  0.1985
  855MPD2    C212554   2.523   1.722  13.451 -0.5728 -0.1473  0.7111
  855MPD2    C312555   2.551   1.749  13.317  0.6941 -0.4949  0.0821
  855MPD2    C412556   2.680   1.790  13.287 -0.7128 -0.0222  0.7538
  855MPD2    C512557   2.777   1.801  13.376 -0.7757  0.2372 -0.6791
  855MPD2     H12558   2.423   1.698  13.485 -0.8699  2.4925  1.6819
  855MPD2    H112559   2.706   1.803  13.182 -0.7480 -1.3378  0.5803
  855MPD2    H212560   2.825   1.784  13.590 -0.2392 -2.0606  0.1358
  855MPD2    H312561   2.881   1.817  13.349 -0.3439 -2.4180 -0.5899
  855MPD2     N12562   2.464   1.765  13.214  0.1327 -0.2891 -0.3540
  855MPD2    H512563   2.500   1.783  13.120  1.7330  0.6265  0.4232
  855MPD2    N112564   2.579   1.708  13.680  0.5376 -0.4539  0.0699
  855MPD2    H712565   2.486   1.671  13.692  0.3113  0.4804  1.1825
  856MPD2     C12566   4.495   2.989  13.807  1.0270  0.2485  0.0416
  856MPD2    C112567   4.503   3.121  13.836  0.5772 -0.2206  0.2662
  856MPD2    C212568   4.455   3.205  13.740 -0.2821 -0.2926  0.1862
  856MPD2    C312569   4.395   3.166  13.622  0.1672 -0.5934  0.5350
  856MPD2    C412570   4.370   3.030  13.606 -0.4816  0.0303  0.9001
  856MPD2    C512571   4.430   2.945  13.693  0.1035  0.4026  0.1588
  856MPD2     H12572   4.483   3.310  13.747 -2.2801  0.1840  1.0151
  856MPD2    H112573   4.306   2.994  13.527 -0.6536  0.1328  0.9922
  856MPD2    H212574   4.525   2.906  13.870 -0.4979 -1.6826 -1.7984
  856MPD2    H312575   4.423   2.837  13.679 -1.0702  0.6151 -0.9116
  856MPD2     N12576   4.331   3.256  13.532 -0.0846 -0.2964  0.2425
  856MPD2    H512577   4.270   3.219  13.459 -0.5568 -0.6491  0.8099
  856MPD2    N112578   4.545   3.175  13.953  0.8565 -0.4247 -0.1251
  856MPD2    H712579   4.532   3.274  13.973  1.0069 -0.5660  0.6628
  857MPD2     C12580   0.944   0.127  12.665 -0.3422 -1.1549 -0.0561
  857MPD2    C112581   1.079   0.149  12.663 -0.3615  0.8434 -0.5809
  857MPD2    C212582   1.126   0.278  12.676 -0.2248 -0.2721  0.5650
  857MPD2    C312583   1.040   0.382  12.702 -0.5174 -0.4176  0.7843
  857MPD2    C412584   0.903   0.365  12.699 -0.4003  0.1948 -0.2079
  857MPD2    C512585   0.859   0.235  12.679  0.3625  0.5082  0.3072
  857MPD2     H12586   1.231   0.305  12.681  0.0264 -1.3812  1.2449
  857MPD2    H112587   0.822   0.435  12.716 -2.5893 -2.5025  0.5281
  857MPD2    H212588   0.896   0.030  12.658 -0.2267 -1.2794  0.8377
  857MPD2    H312589   0.752   0.220  12.688  0.5075  0.2002  1.5100
  857MPD2     N12590   1.099   0.509  12.729  0.2653  0.5909  0.2677
  857MPD2    H512591   1.201   0.511  12.729  0.2903 -1.1451  0.9420
  857MPD2    N112592   1.164   0.045  12.645 -0.1203  0.0241 -0.4550
  857MPD2    H712593   1.125   4.674  12.649 -0.8320  0.3935  1.6303
  858MPD2     C12594   1.851   0.113  16.126  0.1300 -0.0132 -0.1955
  858MPD2    C112595   1.801   0.010  16.201 -0.3050  0.5054  0.0652
  858MPD2    C212596   1.716   0.047  16.305  0.2853  0.3866  0.0690
  858MPD2    C312597   1.686   0.180  16.342  0.0409  0.7117  0.3007
  858MPD2    C412598   1.746   0.276  16.261  0.4615  0.0254 -0.3704
  858MPD2    C512599   1.832   0.244  16.160  0.1134 -0.6812 -0.0969
  858MPD2     H12600   1.681   4.691  16.372 -0.9313  0.9907  0.1432
  858MPD2    H112601   1.728   0.380  16.289 -1.1334 -0.5170  0.5902
  858MPD2    H212602   1.918   0.100  16.042  0.1452 -2.8478  0.2567
  858MPD2    H312603   1.879   0.329  16.111  0.0508 -1.6125 -1.7821
  858MPD2     N12604   1.621   0.217  16.460 -0.1452 -0.3196 -0.5137
  858MPD2    H512605   1.632   0.312  16.497 -0.7193 -1.0417  1.5463
  858MPD2    N112606   1.833   4.593  16.175 -0.0266 -0.1854  0.6533
  858MPD2    H712607   1.902   4.583  16.102 -0.0998 -0.1212  0.5759
  859MPD2     C12608   0.635   1.941  15.803 -0.6505  0.4392 -0.0224
  859MPD2    C112609   0.629   1.913  15.669  0.3876  0.2940 -0.6408
  859MPD2    C212610   0.596   1.784  15.627 -0.6406  0.3024  0.0953
  859MPD2    C312611   0.577   1.679  15.719  0.3081  0.0883  0.4392
  859MPD2    C412612   0.576   1.712  15.852  0.0797 -0.2983 -0.4174
  859MPD2    C512613   0.609   1.837  15.893 -0.1263  0.5796  0.6847
  859MPD2     H12614   0.609   1.752  15.524  1.5513 -0.2406  0.5420
  859MPD2    H112615   0.558   1.635  15.926 -2.3178  0.1554 -0.5337
  859MPD2    H212616   0.668   2.038  15.840  0.3451  0.3734 -0.7477
  859MPD2    H312617   0.605   1.851  16.001 -1.4171 -0.8386  0.8378
  859MPD2     N12618   0.551   1.542  15.686  0.9184  0.6105  0.2887
  859MPD2    H512619   0.546   1.479  15.765  0.8262 -0.7939 -0.8508
  859MPD2    N112620   0.639   2.021  15.575 -0.3053  0.2420  0.2679
  859MPD2    H712621   0.639   2.120  15.599  0.8511  0.0679  0.9924
  860MPD2     C12622   3.108   1.910  11.581 -0.0215  0.0560  0.0468
  860MPD2    C112623   3.089   1.813  11.679  0.2609 -0.3346  0.4629
  860MPD2    C212624   2.965   1.815  11.742  0.2828 -0.0070  0.4706
  860MPD2    C312625   2.872   1.913  11.710 -0.0981  0.0402 -0.0452
  860MPD2    C412626   2.889   2.007  11.605 -0.2303 -0.1047  0.0948
  860MPD2    C512627   3.011   2.001  11.547  0.0060 -0.1733  0.2676
  860MPD2     H12628   2.945   1.754  11.829  0.3862  0.0204  0.5142
  860MPD2    H112629   2.812   2.080  11.581  0.4674  0.4285 -0.4911
  860MPD2    H212630   3.204   1.925  11.533  0.4491  0.3886  1.0844
  860MPD2    H312631   3.020   2.079  11.472  1.0925 -0.3370  0.2211
  860MPD2     N12632   2.763   1.919  11.786 -0.5342  0.9403  0.1995
  860MPD2    H512633   2.761   1.867  11.873 -3.5174 -1.1947 -1.1347
  860MPD2    N112634   3.187   1.717  11.724  0.2021 -0.4234 -0.2751
  860MPD2    H712635   3.151   1.662  11.801 -1.6045 -2.1429 -2.3310
  861MPD2     C12636   2.174   0.314  10.924 -0.1870 -0.2011 -0.7538
  861MPD2    C112637   2.064   0.273  10.990 -0.1007 -0.2215 -0.7276
  861MPD2    C212638   1.934   0.310  10.946  0.2611  0.4805  0.4927
  861MPD2    C312639   1.919   0.387  10.833 -0.0484 -0.0862 -0.2066
  861MPD2    C412640   2.037   0.442  10.776 -0.1288  0.1611  0.0031
  861MPD2    C512641   2.160   0.411  10.825  0.6501  0.0830 -0.5173
  861MPD2     H12642   1.856   0.256  10.999  1.0914  0.1963  1.4466
  861MPD2    H112643   2.033   0.514  10.696 -1.1936  2.7560  2.4046
  861MPD2    H212644   2.271   0.273  10.949  0.3097  1.3656 -0.1028
  861MPD2    H312645   2.249   0.453  10.780  0.3368 -0.7244 -1.9123
  861MPD2     N12646   1.801   0.430  10.778  0.0838  0.1384 -0.0529
  861MPD2    H512647   1.815   0.473  10.687 -0.7024 -2.2858 -1.3228
  861MPD2    N112648   2.067   0.200  11.112 -0.3297  0.0688 -0.1571
  861MPD2    H712649   1.976   0.184  11.153 -0.2642 -1.8260 -0.7284
  862MPD2     C12650   1.470   0.584  10.174  0.3732 -0.0205  0.5477
  862MPD2    C112651   1.592   0.567  10.234 -0.5710  0.2375  0.3359
  862MPD2    C212652   1.690   0.497  10.168  0.7373  0.9349 -0.5661
  862MPD2    C312653   1.661   0.457  10.040 -0.1866 -0.2460 -0.0728
  862MPD2    C412654   1.539   0.478   9.977  0.2036 -0.0443  0.1931
  862MPD2    C512655   1.447   0.548  10.046 -0.0231  0.5500 -0.4823
  862MPD2     H12656   1.785   0.478  10.216  0.7324 -1.6722 -1.5869
  862MPD2    H112657   1.511   0.451   9.876  1.6594  0.1274 -0.2629
  862MPD2    H212658   1.389   0.636  10.225  1.4013  2.1996 -0.0761
  862MPD2    H312659   1.352   0.557   9.995 -1.5517 -0.7079  2.1271
  862MPD2     N12660   1.750   0.381   9.959 -0.3076 -0.0581  0.4087
  862MPD2    H512661   1.717   0.350   9.868  0.0528  3.8921 -1.0978
  862MPD2    N112662   1.619   0.610  10.367 -0.2912  0.2453  0.3795
  862MPD2    H712663   1.707   0.578  10.406 -0.2747  1.0562  1.0174
  863MPD2     C12664   4.470   3.686  16.647 -0.6576  0.2753 -0.0124
  863MPD2    C112665   4.464   3.695  16.784  0.2221 -0.0752 -0.0699
  863MPD2    C212666   4.561   3.636  16.867  0.0769  0.9887 -0.0945
  863MPD2    C312667   4.665   3.570  16.806 -0.1619 -0.3222  0.3564
  863MPD2    C412668   4.676   3.566  16.669  0.3244 -1.1218 -0.1217
  863MPD2    C512669   4.578   3.620  16.590 -0.2234  0.3562  0.7708
  863MPD2     H12670   4.548   3.637  16.974  0.7622  0.7556 -0.0083
  863MPD2    H112671   0.036   3.513  16.622  2.3861  0.2265  2.0074
  863MPD2    H212672   4.394   3.718  16.578 -0.0105 -2.5228 -1.9976
  863MPD2    H312673   4.588   3.597  16.484 -1.1955  2.1824  0.2773
  863MPD2     N12674   0.038   3.498  16.882  0.3155 -0.1665 -0.0748
  863MPD2    H512675   0.119   3.464  16.830 -0.9550  0.9346 -2.7813
  863MPD2    N112676   4.345   3.759  16.833  0.0251 -0.0688 -0.2639
  863MPD2    H712677   4.278   3.774  16.758 -0.1279 -0.2128 -0.1553
  864MPD2     C12678   0.302   0.365  17.361  0.5144  0.2457  0.1920
  864MPD2    C112679   0.323   0.259  17.281 -0.6360 -0.7764 -0.1593
  864MPD2    C212680   0.409   0.279  17.173 -0.0907  0.5367  0.2361
  864MPD2    C312681   0.446   0.405  17.135 -1.0714 -0.3142  0.0273
  864MPD2    C412682   0.411   0.513  17.211  0.3369 -0.2742  0.9927
  864MPD2    C512683   0.337   0.491  17.321 -1.1884 -0.5106  0.5612
  864MPD2     H12684   0.441   0.199  17.106 -0.5385  1.4881 -1.1226
  864MPD2    H112685   0.440   0.613  17.181 -0.6468  0.0118  0.9698
  864MPD2    H212686   0.238   0.359  17.448  0.3635 -2.5376 -0.1162
  864MPD2    H312687   0.311   0.564  17.396 -0.8425  1.4679 -1.2394
  864MPD2     N12688   0.505   0.436  17.005  0.5049  0.4580  0.5617
  864MPD2    H512689   0.514   0.533  16.980  0.8013  0.2312 -0.2067
  864MPD2    N112690   0.269   0.137  17.321 -0.0904  0.2238 -1.2896
  864MPD2    H712691   0.219   0.129  17.409  1.9124  0.1841 -0.1654
  865MPD2     C12692   0.399   0.477  16.136 -0.7414  0.3598  0.7447
  865MPD2    C112693   0.440   0.417  16.256 -0.4263 -0.0174 -0.3874
  865MPD2    C212694   0.444   0.490  16.375  0.9633  0.6965 -0.0053
  865MPD2    C312695   0.418   0.627  16.373  0.0177 -0.6891 -0.0500
  865MPD2    C412696   0.376   0.684  16.258 -0.6342  0.6172 -0.3205
  865MPD2    C512697   0.367   0.609  16.146 -0.0089 -0.0683 -0.6395
  865MPD2     H12698   0.475   0.439  16.465  0.6452  3.2811  1.5492
  865MPD2    H112699   0.352   0.789  16.255  1.1244  1.0109 -0.8248
  865MPD2    H212700   0.375   0.431  16.041  0.8561  2.0797 -0.4698
  865MPD2    H312701   0.335   0.665  16.059 -1.1066  0.7755  0.3007
  865MPD2     N12702   0.429   0.715  16.481  0.7210  0.3586  0.3744
  865MPD2    H512703   0.378   0.800  16.463  0.3441 -0.5712 -2.9937
  865MPD2    N112704   0.470   0.275  16.255 -0.7254  0.0947  0.0443
  865MPD2    H712705   0.476   0.226  16.166 -3.9561 -1.3771  0.6281
  866MPD2     C12706   2.620   0.348  11.161  0.1946 -0.1491  0.0279
  866MPD2    C112707   2.582   0.419  11.049 -0.6503 -0.3064 -0.3100
  866MPD2    C212708   2.462   0.488  11.049  0.5318  0.2233 -0.2666
  866MPD2    C312709   2.408   0.512  11.175  0.2770 -0.3086 -0.3150
  866MPD2    C412710   2.461   0.466  11.292 -0.1040 -0.2680  0.3361
  866MPD2    C512711   2.559   0.375  11.281 -0.3409  0.7982  0.4266
  866MPD2     H12712   2.418   0.526  10.957  0.0526 -1.9386 -0.9184
  866MPD2    H112713   2.417   0.485  11.389  1.2014 -0.3838  0.9552
  866MPD2    H212714   2.715   0.296  11.159  0.4307  0.3638 -2.3856
  866MPD2    H312715   2.604   0.334  11.371 -0.4138  0.4989  0.3287
  866MPD2     N12716   2.294   0.598  11.190 -0.3606 -0.2955 -0.9591
  866MPD2    H512717   2.253   0.588  11.283  3.9231  2.5042  1.1966
  866MPD2    N112718   2.648   0.394  10.920 -0.4820  0.2773  0.3156
  866MPD2    H712719   2.711   0.314  10.926 -0.9456 -0.0423  0.8811
  867MPD2     C12720   3.955   0.254  16.786 -0.5414 -0.1242 -1.0411
  867MPD2    C112721   4.018   0.271  16.902  0.8068 -0.7533  0.1226
  867MPD2    C212722   4.040   0.397  16.949 -0.2232  0.6670  0.6741
  867MPD2    C312723   4.014   0.509  16.869  0.2028 -0.7648  0.0800
  867MPD2    C412724   3.957   0.490  16.744  0.0794  0.4239  0.2763
  867MPD2    C512725   3.923   0.365  16.709  0.5743 -0.3975  0.2342
  867MPD2     H12726   4.088   0.410  17.046  0.5105 -1.4336  0.5916
  867MPD2    H112727   3.935   0.572  16.676  1.5106  0.3100 -0.3440
  867MPD2    H212728   3.948   0.152  16.749 -0.7340 -0.5143  0.0690
  867MPD2    H312729   3.871   0.361  16.614 -0.7873  1.3808  0.9160
  867MPD2     N12730   4.036   0.638  16.925  0.3131 -0.0314  0.3468
  867MPD2    H512731   3.982   0.707  16.875  0.6301  0.3889  0.5867
  867MPD2    N112732   4.045   0.153  16.975  0.0398  0.2809  0.4540
  867MPD2    H712733   4.010   0.071  16.927  0.4096 -0.2591  1.0934
  868MPD2     C12734   1.393   3.508  13.136  0.1960  0.5926  0.4089
  868MPD2    C112735   1.474   3.525  13.249 -0.7777  0.0905 -0.5186
  868MPD2    C212736   1.419   3.568  13.365  0.3480 -0.3302  0.0256
  868MPD2    C312737   1.284   3.616  13.372  0.0531  0.2272  0.2227
  868MPD2    C412738   1.204   3.590  13.258 -0.3157  0.0175  0.0197
  868MPD2    C512739   1.263   3.539  13.150  0.4112  0.2388 -0.9226
  868MPD2     H12740   1.475   3.578  13.457  0.7672  0.1561 -0.2810
  868MPD2    H112741   1.100   3.620  13.255 -0.2897  0.1584  0.6404
  868MPD2    H212742   1.437   3.473  13.044 -0.9358  0.6347 -0.1477
  868MPD2    H312743   1.202   3.523  13.062 -3.3961 -1.2393  1.9469
  868MPD2     N12744   1.231   3.674  13.487  1.0964 -0.3417  0.5841
  868MPD2    H512745   1.296   3.680  13.565 -0.8719 -0.2355  2.2177
  868MPD2    N112746   1.609   3.489  13.230 -0.6838  0.0479  0.2783
  868MPD2    H712747   1.627   3.453  13.137  0.8818 -0.3346  0.7378
  869MPD2     C12748   2.675   1.948   1.075 -0.3140 -0.1001 -1.2158
  869MPD2    C112749   2.574   2.010   1.140 -0.8191  0.1069 -0.5050
  869MPD2    C212750   2.457   2.044   1.068 -0.5477  0.3780 -0.0950
  869MPD2    C312751   2.452   2.037   0.932 -0.0356  0.2040  0.7220
  869MPD2    C412752   2.558   1.975   0.864  0.1813 -0.1299  0.8516
  869MPD2    C512753   2.662   1.924   0.940  0.2321  0.0233 -0.2596
  869MPD2     H12754   2.376   2.099   1.115  0.9022  1.3560  1.2388
  869MPD2    H112755   2.559   1.965   0.756  0.5377  0.8516  0.7635
  869MPD2    H212756   2.760   1.905   1.128 -0.6101  2.4260  1.2734
  869MPD2    H312757   2.730   1.856   0.890  2.0934  1.8905 -0.2675
  869MPD2     N12758   2.345   2.086   0.850  0.9826 -0.3339 -0.0588
  869MPD2    H512759   2.350   2.062   0.751  0.9200 -1.5155  0.2347
  869MPD2    N112760   2.593   2.040   1.276 -0.1368 -0.1233 -0.0949
  869MPD2    H712761   2.679   2.004   1.316 -0.5339 -0.1046  0.7749
  870MPD2     C12762   1.377   1.324   1.650  0.4394 -0.0406 -0.2806
  870MPD2    C112763   1.453   1.304   1.541 -0.5237 -0.7109 -0.6001
  870MPD2    C212764   1.447   1.403   1.443  0.2631 -0.3281 -0.8432
  870MPD2    C312765   1.359   1.510   1.451 -0.4521  0.1139 -0.4237
  870MPD2    C412766   1.270   1.517   1.554  0.6957  0.8133 -0.2177
  870MPD2    C512767   1.283   1.427   1.655  0.4101  0.4726  0.1264
  870MPD2     H12768   1.500   1.385   1.351  0.6390  0.4930 -0.7934
  870MPD2    H112769   1.201   1.600   1.567 -1.7597 -1.5921  2.1023
  870MPD2    H212770   1.383   1.256   1.734  0.0854 -0.2118 -0.3948
  870MPD2    H312771   1.228   1.438   1.747  2.1704  0.0550  1.2170
  870MPD2     N12772   1.346   1.585   1.332  0.5702 -0.2892  0.2207
  870MPD2    H512773   1.398   1.549   1.253  1.5363  0.7710  0.3711
  870MPD2    N112774   1.539   1.190   1.524  1.0071 -0.3511  0.1768
  870MPD2    H712775   1.533   1.112   1.589 -1.1047 -0.8831 -0.6311
  871MPD2     C12776   3.073   0.062  16.671 -0.2316 -0.4521 -0.4511
  871MPD2    C112777   3.070   0.052  16.805 -0.4164  0.0051 -0.2942
  871MPD2    C212778   3.054   4.651  16.854 -0.4647 -0.1339 -0.0374
  871MPD2    C312779   3.036   4.540  16.773 -0.3959 -0.0656  0.1780
  871MPD2    C412780   3.042   4.551  16.635  0.2342 -0.1787  0.3490
  871MPD2    C512781   3.055   4.680  16.586 -0.0516 -0.2165  1.1225
  871MPD2     H12782   3.057   4.630  16.960  0.6641  1.5763  0.2628
  871MPD2    H112783   3.012   4.484  16.555 -0.7976  1.6024 -0.7696
  871MPD2    H212784   3.104   0.153  16.620 -2.5342  1.1273  0.9295
  871MPD2    H312785   3.033   4.692  16.480 -0.4440  1.7979  1.4327
  871MPD2     N12786   2.996   4.419  16.831 -0.7053 -0.1695  0.7113
  871MPD2    H512787   2.977   4.412  16.930  0.8162  2.1767  1.1636
  871MPD2    N112788   3.072   0.170  16.889 -0.4191 -0.3204 -0.0782
  871MPD2    H712789   3.069   0.261  16.842 -2.5589 -0.6796 -0.6592
  872MPD2     C12790   4.248   2.221  13.685  0.3113  0.1823  0.1183
  872MPD2    C112791   4.270   2.282  13.806 -0.7890  0.1002  0.2478
  872MPD2    C212792   4.166   2.314  13.885  0.4717 -0.3006 -0.0646
  872MPD2    C312793   4.040   2.265  13.852  0.0163 -0.0824  0.8358
  872MPD2    C412794   4.014   2.205  13.730  0.6806  0.2425 -0.5342
  872MPD2    C512795   4.120   2.193  13.643  0.1710  0.7921  0.1004
  872MPD2     H12796   4.189   2.378  13.970 -1.1801 -0.6201  0.6344
  872MPD2    H112797   3.917   2.176  13.693  0.3370  0.4392  0.2017
  872MPD2    H212798   4.325   2.198  13.612  0.3555  2.5225 -0.5712
  872MPD2    H312799   4.106   2.154  13.542  1.7992  0.1931  0.1051
  872MPD2     N12800   3.927   2.281  13.935 -0.0655 -0.1884 -0.2290
  872MPD2    H512801   3.842   2.263  13.883 -0.6434  1.6178  0.0994
  872MPD2    N112802   4.406   2.314  13.850 -0.3138 -0.3455 -0.0239
  872MPD2    H712803   4.412   2.368  13.935 -2.2979  2.6062 -1.7780
  873MPD2     C12804   0.840   2.758   0.952 -0.8422  0.0927  0.1864
  873MPD2    C112805   0.930   2.729   1.053 -0.4828  0.1603  0.3167
  873MPD2    C212806   1.048   2.661   1.033 -0.5549 -0.7589 -0.4535
  873MPD2    C312807   1.081   2.621   0.906 -0.6762 -0.8385  1.1357
  873MPD2    C412808   0.984   2.636   0.804 -0.0985 -0.2915 -0.0542
  873MPD2    C512809   0.867   2.702   0.829 -0.2117  0.6286  0.0958
  873MPD2     H12810   1.118   2.640   1.113  0.9674  0.4712 -1.4600
  873MPD2    H112811   0.998   2.591   0.707  1.0169 -0.1175  0.0337
  873MPD2    H212812   0.751   2.817   0.970  1.4223  3.8087 -0.6038
  873MPD2    H312813   0.798   2.706   0.746 -2.5129 -0.3819  1.9598
  873MPD2     N12814   1.193   2.549   0.874  0.5484  0.2180 -0.3536
  873MPD2    H512815   1.205   2.531   0.775  1.5753  0.1989 -0.2277
  873MPD2    N112816   0.886   2.779   1.177 -0.3599 -0.2032 -0.6159
  873MPD2    H712817   0.808   2.844   1.172  0.5829  1.2066  2.4397
  874MPD2     C12818   0.430   3.155  16.237 -0.2305  0.0986  0.4024
  874MPD2    C112819   0.510   3.044  16.243  1.1602 -0.4462  0.1949
  874MPD2    C212820   0.642   3.070  16.245 -0.2248  0.1688 -0.2455
  874MPD2    C312821   0.692   3.198  16.258  0.1901  0.9753 -0.0793
  874MPD2    C412822   0.606   3.311  16.251 -0.0789 -0.1232  0.8123
  874MPD2    C512823   0.473   3.285  16.231  0.5176  0.6800 -0.6934
  874MPD2     H12824   0.714   2.989  16.234 -1.5603 -0.9270 -0.9646
  874MPD2    H112825   0.631   3.415  16.231 -0.8611  0.0043  0.4485
  874MPD2    H212826   0.324   3.138  16.255 -0.5277  1.2915 -0.1544
  874MPD2    H312827   0.409   3.372  16.218 -0.2370  0.2805  0.3394
  874MPD2     N12828   0.830   3.202  16.288  0.5047 -0.0214 -0.8539
  874MPD2    H512829   0.878   3.113  16.302  0.4334  0.1440  0.4354
  874MPD2    N112830   0.450   2.919  16.268  0.2597  0.9648 -0.8273
  874MPD2    H712831   0.348   2.913  16.271  0.4951 -1.8821  1.3861
  875MPD2     C12832   1.794   1.027  14.669  0.2972  1.8053 -0.3570
  875MPD2    C112833   1.653   1.014  14.679 -0.3999 -0.2682  1.2242
  875MPD2    C212834   1.590   1.049  14.792 -0.0871  0.8085 -0.3674
  875MPD2    C312835   1.658   1.097  14.902  0.2630 -0.2426 -0.4740
  875MPD2    C412836   1.793   1.114  14.885 -0.0779 -0.0659  0.5012
  875MPD2    C512837   1.867   1.068  14.773  0.1494  0.1490 -0.5761
  875MPD2     H12838   1.482   1.052  14.791 -0.1747 -1.8882 -0.6370
  875MPD2    H112839   1.856   1.145  14.967  1.2010  2.4916 -1.4940
  875MPD2    H212840   1.853   0.990  14.586 -0.2153 -0.0541  0.1060
  875MPD2    H312841   1.973   1.085  14.764  0.3701 -1.3677 -0.8531
  875MPD2     N12842   1.590   1.145  15.017 -0.4104  0.5782 -0.4926
  875MPD2    H512843   1.635   1.199  15.090 -0.3470  0.1770 -0.2387
  875MPD2    N112844   1.572   0.981  14.568  0.5230  0.4162 -0.3589
  875MPD2    H712845   1.472   0.986  14.584  0.4592 -0.3120 -0.5038
  876MPD2     C12846   0.294   2.207  16.086  0.0789 -0.5191  0.0995
  876MPD2    C112847   0.424   2.269  16.098  0.4251 -0.6253  1.2866
  876MPD2    C212848   0.515   2.181  16.159 -0.3272  0.0490 -0.1619
  876MPD2    C312849   0.484   2.057  16.208  0.6732 -0.4313  0.0720
  876MPD2    C412850   0.356   2.003  16.197 -0.8834 -0.3527  0.0475
  876MPD2    C512851   0.259   2.090  16.143 -0.5787 -0.2892 -0.7664
  876MPD2     H12852   0.615   2.217  16.180 -0.1197  0.1059 -1.2536
  876MPD2    H112853   0.319   1.911  16.239 -0.2284  0.6514  2.8617
  876MPD2    H212854   0.214   2.269  16.046  3.7490  2.0473 -3.3734
  876MPD2    H312855   0.156   2.058  16.135 -0.8690  0.3929  0.2589
  876MPD2     N12856   0.592   1.975  16.268 -0.4481 -0.7325 -1.0732
  876MPD2    H512857   0.686   2.010  16.277 -0.9279 -0.3910  2.4098
  876MPD2    N112858   0.454   2.395  16.039  0.7803 -0.1516 -0.3134
  876MPD2    H712859   0.379   2.431  15.982  0.6882 -1.7125 -1.1889
  877MPD2     C12860   0.382   2.551  15.309  0.7553 -0.2340 -0.6575
  877MPD2    C112861   0.494   2.628  15.353 -0.1206  1.3007 -0.3767
  877MPD2    C212862   0.582   2.680  15.260 -0.0750  0.0976 -0.5631
  877MPD2    C312863   0.561   2.657  15.124 -0.2426  0.5393  0.3551
  877MPD2    C412864   0.461   2.572  15.079 -0.4791  0.3844  0.0207
  877MPD2    C512865   0.370   2.530  15.174  0.8112  0.8210  0.1787
  877MPD2     H12866   0.671   2.733  15.293  0.5097 -1.3923  0.2630
  877MPD2    H112867   0.443   2.554  14.974  0.8015 -0.6441 -0.0227
  877MPD2    H212868   0.297   2.517  15.368 -0.0218 -2.2824 -2.9658
  877MPD2    H312869   0.287   2.473  15.133  1.4296 -0.9052  1.3296
  877MPD2     N12870   0.640   2.712  15.023 -0.1197  0.2146 -0.3296
  877MPD2    H512871   0.631   2.662  14.935  0.3409 -0.4265 -0.0125
  877MPD2    N112872   0.528   2.661  15.485  0.3039  0.8646  0.0337
  877MPD2    H712873   0.600   2.731  15.498 -0.6058  1.8327 -0.2141
  878MPD2     C12874   1.008   1.601  13.247 -0.2850  0.1656 -0.3912
  878MPD2    C112875   0.990   1.725  13.194 -0.0587  0.0773 -0.0417
  878MPD2    C212876   0.968   1.821  13.286  0.8370  0.1069  0.0569
  878MPD2    C312877   0.952   1.795  13.421 -1.0231 -0.2301  0.1062
  878MPD2    C412878   0.978   1.673  13.473  0.4248 -0.7004  0.4500
  878MPD2    C512879   1.005   1.577  13.384  0.1776 -0.3205  0.6019
  878MPD2     H12880   0.933   1.912  13.239  0.0812  1.4660  3.2495
  878MPD2    H112881   0.978   1.644  13.577 -2.2802  0.0148  0.6382
  878MPD2    H212882   1.017   1.522  13.174  1.9576 -0.5606  0.6793
  878MPD2    H312883   1.029   1.485  13.435 -3.4820 -1.5821 -0.0081
  878MPD2     N12884   0.915   1.901  13.508  0.7018  0.0795  0.2289
  878MPD2    H512885   0.919   1.994  13.467 -1.0564  0.1279  0.1361
  878MPD2    N112886   0.992   1.736  13.056 -0.1062  0.3673 -0.1257
  878MPD2    H712887   0.978   1.648  13.006 -0.7673  0.3873  0.0173
  879MPD2     C12888   1.234   3.514  17.042 -0.9122 -0.1672 -0.4107
  879MPD2    C112889   1.165   3.431  17.131  0.7120  0.0176 -0.3613
  879MPD2    C212890   1.045   3.389  17.093  0.3945  0.4576 -0.4520
  879MPD2    C312891   0.993   3.415  16.965  0.4652 -0.1622 -0.2391
  879MPD2    C412892   1.062   3.492  16.873  0.5470 -0.0184  0.4633
  879MPD2    C512893   1.181   3.544  16.920 -0.9677 -0.0667  0.0342
  879MPD2     H12894   0.982   3.335  17.163 -0.4125  0.2421 -1.3375
  879MPD2    H112895   1.016   3.521  16.779  0.9247 -0.7684  0.0454
  879MPD2    H212896   1.334   3.551  17.064 -0.8488 -0.0960 -0.8256
  879MPD2    H312897   1.250   3.592  16.852  2.1156 -1.0248  2.4790
  879MPD2     N12898   0.864   3.370  16.930 -0.1601  0.1386 -0.5844
  879MPD2    H512899   0.827   3.404  16.841  0.5638 -0.1418 -0.9875
  879MPD2    N112900   1.226   3.402  17.253 -0.1511  0.4328 -0.2524
  879MPD2    H712901   1.303   3.464  17.275 -0.2789  0.9605 -1.2983
  880MPD2     C12902   1.792   0.614   0.221  0.3458  0.3239 -0.0752
  880MPD2    C112903   1.809   0.667   0.343 -0.3075  0.3733  0.0741
  880MPD2    C212904   1.824   0.582   0.458 -0.3984  0.0070 -0.1262
  880MPD2    C312905   1.816   0.441   0.447  0.1146  0.3697 -0.4860
  880MPD2    C412906   1.808   0.390   0.318  0.6145  0.1136  0.1352
  880MPD2    C512907   1.789   0.475   0.206  0.4656  0.2188 -0.3565
  880MPD2     H12908   1.835   0.624   0.558  1.8970 -0.3615 -0.2393
  880MPD2    H112909   1.786   0.285   0.306  1.1969 -0.2418  2.2614
  880MPD2    H212910   1.773   0.678   0.136 -0.8519 -2.2861 -1.7649
  880MPD2    H312911   1.771   0.428   0.110 -1.0508 -1.4458  0.7464
  880MPD2     N12912   1.829   0.357   0.561  0.1394  0.6241 -0.5308
  880MPD2    H512913   1.831   0.405   0.651  3.7585 -0.0010 -0.2751
  880MPD2    N112914   1.816   0.807   0.364  0.5256  0.2739  0.0504
  880MPD2    H712915   1.825   0.859   0.277  1.5435 -0.9073 -0.5494
  881MPD2     C12916   2.190   1.487  17.466 -0.3150 -0.1451 -0.5765
  881MPD2    C112917   2.230   1.359  17.515 -0.6461  0.6340  0.4668
  881MPD2    C212918   2.152   1.312  17.619  0.1652 -0.1642 -1.4982
  881MPD2    C312919   2.050   1.387  17.685  0.1515 -0.3958  0.0954
  881MPD2    C412920   2.020   1.511  17.642  0.1253 -0.5905  0.4997
  881MPD2    C512921   2.091   1.560  17.530  0.0147  0.7833  1.3467
  881MPD2     H12922   2.177   1.216  17.665  1.2929  0.1964 -1.3500
  881MPD2    H112923   1.941   1.572  17.683 -0.4518 -1.0296  0.0470
  881MPD2    H212924   2.238   1.533  17.380 -1.2399 -1.0949 -1.6190
  881MPD2    H312925   2.058   1.656  17.492 -0.1289  0.5210  0.8022
  881MPD2     N12926   1.974   1.329   0.096 -0.0448  0.7879  0.0747
  881MPD2    H512927   1.896   1.385   0.128  0.6251  1.3700  0.7101
  881MPD2    N112928   2.290   1.276  17.425  0.1761  0.4857  0.1973
  881MPD2    H712929   2.318   1.313  17.335  0.4488 -0.0323  0.0681
  882MPD2     C12930   0.981   2.588  14.311  0.4984  0.3020 -0.1539
  882MPD2    C112931   0.871   2.654  14.366  0.0108  0.8555 -0.6847
  882MPD2    C212932   0.749   2.635  14.307  0.3146 -0.1533 -0.2152
  882MPD2    C312933   0.734   2.553  14.198  0.0110  0.4128  0.9434
  882MPD2    C412934   0.838   2.485  14.153  0.1178  0.6485  0.6385
  882MPD2    C512935   0.961   2.509  14.205  0.1626  0.1335 -0.2598
  882MPD2     H12936   0.659   2.684  14.344  0.9615  0.5163  0.4537
  882MPD2    H112937   0.826   2.423  14.066  0.9319 -0.5095  1.3574
  882MPD2    H212938   1.077   2.598  14.360  1.5057 -2.4688 -1.5843
  882MPD2    H312939   1.035   2.438  14.170 -1.5366 -0.6073 -2.3970
  882MPD2     N12940   0.607   2.528  14.138  0.6935 -0.3507 -0.3783
  882MPD2    H512941   0.606   2.445  14.079  1.1348 -0.0104 -0.8597
  882MPD2    N112942   0.888   2.735  14.485  0.1493  0.4058  0.3266
  882MPD2    H712943   0.979   2.727  14.529  0.3381  3.1832  0.4732
  883MPD2     C12944   2.559   3.078  16.000 -0.1223 -0.4101  1.2108
  883MPD2    C112945   2.615   2.956  15.999  0.1690  0.5778  0.3632
  883MPD2    C212946   2.733   2.935  16.073  0.6192  0.7331 -0.5416
  883MPD2    C312947   2.786   3.030  16.159  0.1821 -0.2078 -0.2436
  883MPD2    C412948   2.719   3.151  16.156 -0.4881  0.3361 -0.0528
  883MPD2    C512949   2.614   3.177  16.074 -0.4829 -0.0361 -0.2427
  883MPD2     H12950   2.792   2.845  16.056  2.1830  1.6907 -0.1774
  883MPD2    H112951   2.758   3.233  16.215 -3.6682  0.4097  1.9441
  883MPD2    H212952   2.466   3.108  15.952  0.3934 -1.6579 -0.5479
  883MPD2    H312953   2.576   3.278  16.070 -1.1700 -0.2791  0.0758
  883MPD2     N12954   2.897   2.998  16.239  0.2064  0.1673 -0.1269
  883MPD2    H512955   2.926   2.901  16.246 -1.3676 -0.2303  0.8004
  883MPD2    N112956   2.563   2.848  15.927  0.1330 -0.3199 -0.1136
  883MPD2    H712957   2.617   2.763  15.943  0.7315  0.5528  2.5126
  884MPD2     C12958   3.916   3.683  15.232  0.2912 -0.0651  0.8933
  884MPD2    C112959   3.952   3.618  15.122  0.0390 -0.3429 -0.7307
  884MPD2    C212960   3.883   3.637  15.003 -0.2941  0.2271 -0.3665
  884MPD2    C312961   3.779   3.732  15.007  0.0116  0.1714 -0.4846
  884MPD2    C412962   3.742   3.798  15.127 -0.1425  0.1120 -0.3140
  884MPD2    C512963   3.810   3.771  15.237  0.1705 -0.6041 -0.2034
  884MPD2     H12964   3.914   3.596  14.908  0.4417 -1.9974  0.8136
  884MPD2    H112965   3.665   3.875  15.133 -0.0684  0.4462 -3.4118
  884MPD2    H212966   3.964   3.659  15.326  2.6781  0.1034 -0.2824
  884MPD2    H312967   3.776   3.823  15.326 -1.3317 -1.8309 -0.0596
  884MPD2     N12968   3.709   3.756  14.885  0.1444 -0.2784  0.1385
  884MPD2    H512969   3.729   3.692  14.809  3.2713  2.6963 -1.5887
  884MPD2    N112970   4.055   3.521  15.111 -0.5124  0.2287  0.1504
  884MPD2    H712971   4.068   3.485  15.017 -0.5727 -0.7348  0.5156
  885MPD2     C12972   2.551   3.870   0.132 -0.0431  0.1662 -0.1612
  885MPD2    C112973   2.577   3.746   0.077 -0.3317 -0.6157 -0.9083
  885MPD2    C212974   2.598   3.731  17.630 -0.3180  0.2946  0.8476
  885MPD2    C312975   2.582   3.838  17.552  0.2277 -0.3730  0.4948
  885MPD2    C412976   2.546   3.959  17.610  0.3715 -0.5013  0.2131
  885MPD2    C512977   2.543   3.976   0.050  0.1722 -0.3651  0.1358
  885MPD2     H12978   2.635   3.644  17.576 -0.1722  0.2558  1.0107
  885MPD2    H112979   2.532   4.051  17.554 -0.1045 -0.6262  0.1298
  885MPD2    H212980   2.558   3.892   0.238 -1.4508 -0.2837  0.0280
  885MPD2    H312981   2.533   4.074   0.094  0.5802  0.3934 -1.4796
  885MPD2     N12982   2.577   3.819  17.416 -0.0051  0.6280 -0.2632
  885MPD2    H512983   2.596   3.722  17.396 -0.0618  0.4169  0.7033
  885MPD2    N112984   2.596   3.639   0.167  0.4872 -0.1619 -0.0732
  885MPD2    H712985   2.566   3.648   0.263  0.2389 -1.1397 -0.0515
  886MPD2     C12986   4.319   1.522  15.118 -0.6692  0.9669  0.0495
  886MPD2    C112987   4.366   1.615  15.209  0.4690 -0.3983 -0.1535
  886MPD2    C212988   4.349   1.741  15.176  0.3213 -0.0691  0.2475
  886MPD2    C312989   4.297   1.780  15.056 -0.4838  0.5735  0.3868
  886MPD2    C412990   4.241   1.689  14.968  0.1395 -0.5584  0.1683
  886MPD2    C512991   4.245   1.557  15.011  0.4127  0.2014  0.5800
  886MPD2     H12992   4.405   1.810  15.239  1.8024  0.2553 -1.4159
  886MPD2    H112993   4.201   1.720  14.872 -0.6237  2.4939  1.4655
  886MPD2    H212994   4.304   1.417  15.143  0.9086  0.6727 -0.2267
  886MPD2    H312995   4.195   1.471  14.967 -1.3660  1.9940 -0.9255
  886MPD2     N12996   4.304   1.917  15.008 -0.1034  0.7632 -0.3339
  886MPD2    H512997   4.286   1.931  14.909 -0.9104 -1.6791 -0.5304
  886MPD2    N112998   4.434   1.580  15.329  0.6829 -0.1476 -0.2942
  886MPD2    H712999   4.468   1.655  15.389 -3.3530  0.1435  1.6056
  887MPD2     C13000   0.187   1.827  15.794 -0.1176 -0.4082  0.4255
  887MPD2    C113001   0.062   1.857  15.742 -0.0723 -0.4686 -0.7429
  887MPD2    C213002   0.031   1.991  15.724  0.1296 -0.0127  0.1537
  887MPD2    C313003   0.121   2.091  15.758 -0.5756 -0.5439 -0.1232
  887MPD2    C413004   0.243   2.058  15.809  0.4641  0.3657  0.0270
  887MPD2    C513005   0.278   1.927  15.822 -0.0147  0.1376  0.3280
  887MPD2     H13006   4.653   2.016  15.694  0.0552 -0.1367  0.2939
  887MPD2    H113007   0.321   2.126  15.841  0.0416  0.3716  1.0520
  887MPD2    H213008   0.240   1.732  15.795 -0.5752 -0.6621  0.0180
  887MPD2    H313009   0.368   1.897  15.875  0.4469 -1.1990 -1.1938
  887MPD2     N13010   0.081   2.225  15.722 -0.5121 -0.1650  0.9896
  887MPD2    H513011   4.709   2.238  15.687 -0.7277  0.5595  1.8421
  887MPD2    N113012   4.692   1.751  15.702  0.0291  0.4424 -0.7300
  887MPD2    H713013   4.602   1.772  15.662  0.3564  1.0355 -1.1511
  888MPD2     C13014   1.703   2.065  15.006 -0.3137  0.2528 -0.5724
  888MPD2    C113015   1.649   2.132  15.114 -0.4140 -0.4073  0.0618
  888MPD2    C213016   1.682   2.261  15.144  0.2623  0.2579  0.1503
  888MPD2    C313017   1.765   2.337  15.054  0.1488 -0.1885 -0.1109
  888MPD2    C413018   1.811   2.269  14.944 -0.4084  0.1540 -0.3365
  888MPD2    C513019   1.789   2.138  14.927 -0.3117  0.5112  0.2098
  888MPD2     H13020   1.643   2.312  15.232 -1.3633 -0.4812 -0.1335
  888MPD2    H113021   1.886   2.312  14.879  0.4318  1.4033  1.4556
  888MPD2    H213022   1.691   1.958  14.991 -1.2625 -0.0047  1.9262
  888MPD2    H313023   1.841   2.076  14.855  0.8288 -0.3414  1.7807
  888MPD2     N13024   1.821   2.460  15.086  0.3694  0.7857  0.3854
  888MPD2    H513025   1.778   2.499  15.169  0.1987 -0.4676  0.8836
  888MPD2    N113026   1.554   2.064  15.187 -0.2003  0.3129 -0.3571
  888MPD2    H713027   1.530   2.106  15.276 -1.6978  1.3932 -1.2963
  889MPD2     C13028   1.163   1.318  12.458 -0.0466  0.2980  0.0650
  889MPD2    C113029   1.214   1.293  12.582  0.4730 -0.6644  0.5814
  889MPD2    C213030   1.272   1.406  12.642 -0.2629  0.6678  0.6405
  889MPD2    C313031   1.254   1.539  12.599 -0.0817  0.1018  0.1510
  889MPD2    C413032   1.211   1.555  12.474  0.2408  0.3108  0.1391
  889MPD2    C513033   1.174   1.443  12.403  0.8319 -0.6934 -0.0842
  889MPD2     H13034   1.318   1.395  12.739 -0.0617  1.8530  0.6780
  889MPD2    H113035   1.213   1.652  12.427  3.3598  1.3675  2.4208
  889MPD2    H213036   1.148   1.244  12.381 -0.5959  0.8859 -0.3893
  889MPD2    H313037   1.131   1.458  12.305  0.0680 -1.1681  0.1840
  889MPD2     N13038   1.289   1.644  12.683  0.2672  0.6210  0.6804
  889MPD2    H513039   1.341   1.618  12.767 -2.0964 -1.0514  1.6135
  889MPD2    N113040   1.237   1.159  12.627 -0.1373 -0.2351 -0.5191
  889MPD2    H713041   1.275   1.161  12.721 -1.0223 -4.3194 -0.0922
  890MPD2     C13042   0.692   3.489  14.579  0.3888 -0.6984 -0.2287
  890MPD2    C113043   0.814   3.508  14.633  0.1289 -0.0392 -0.1124
  890MPD2    C213044   0.849   3.449  14.755 -0.1585  0.1070  0.6770
  890MPD2    C313045   0.753   3.369  14.819 -0.3453 -0.2926  0.1900
  890MPD2    C413046   0.631   3.334  14.758  0.0806 -0.9018 -0.7347
  890MPD2    C513047   0.607   3.393  14.640  0.2831  0.1410 -0.7033
  890MPD2     H13048   0.946   3.459  14.804 -0.5120  4.6214  0.4089
  890MPD2    H113049   0.552   3.274  14.802  1.1124 -0.9713  1.0413
  890MPD2    H213050   0.672   3.537  14.484  1.8528 -2.1728 -1.2940
  890MPD2    H313051   0.507   3.382  14.598  0.1850 -0.0422 -0.4212
  890MPD2     N13052   0.794   3.328  14.951 -0.3719  0.2125 -0.8464
  890MPD2    H513053   0.869   3.372  15.004  0.2151  0.9726 -2.3298
  890MPD2    N113054   0.911   3.584  14.557  0.3501  0.4754 -0.0373
  890MPD2    H713055   0.887   3.615  14.464  0.8143  2.7416  0.6093
  891MPD2     C13056   3.564   1.810  16.182 -0.4770  0.2744  0.0668
  891MPD2    C113057   3.485   1.889  16.260 -0.0043  0.1387  0.0458
  891MPD2    C213058   3.536   1.914  16.390  0.2713  0.3756 -0.2128
  891MPD2    C313059   3.667   1.884  16.424  0.3623 -0.3019 -0.2485
  891MPD2    C413060   3.747   1.814  16.341  0.1985  0.6619 -0.4560
  891MPD2    C513061   3.691   1.782  16.214  0.3895 -0.2604  0.1851
  891MPD2     H13062   3.490   1.979  16.464 -1.6582  1.5605 -2.4653
  891MPD2    H113063   3.851   1.791  16.357 -0.3031 -0.4303  1.2312
  891MPD2    H213064   3.535   1.783  16.081 -0.6999 -0.1421  0.2377
  891MPD2    H313065   3.739   1.718  16.141 -2.8879 -0.7236 -1.5692
  891MPD2     N13066   3.725   1.942  16.542  0.3345 -0.3069  0.5530
  891MPD2    H513067   3.662   2.005  16.591 -0.6423 -0.8718  0.0288
  891MPD2    N113068   3.363   1.943  16.209 -0.1671  0.1066  0.1636
  891MPD2    H713069   3.336   1.915  16.116 -0.0860 -0.3409  0.2743
  892MPD2     C13070   4.665   2.603  14.804 -0.5313  0.0605 -0.7544
  892MPD2    C113071   4.594   2.635  14.686 -0.2244  0.0571  0.8066
  892MPD2    C213072   4.656   2.612  14.564  0.2352  0.3030 -0.0546
  892MPD2    C313073   0.062   2.548  14.559 -0.6940 -0.1755  0.1961
  892MPD2    C413074   0.133   2.521  14.673 -0.0531 -0.2328  0.9318
  892MPD2    C513075   0.071   2.544  14.794  0.0381  0.0647 -0.0306
  892MPD2     H13076   4.596   2.615  14.473  1.6448 -0.3587 -1.0116
  892MPD2    H113077   0.235   2.482  14.672  0.7326  1.8742 -0.7479
  892MPD2    H213078   4.621   2.613  14.903  0.6111  0.0910 -0.2480
  892MPD2    H313079   0.119   2.516  14.886 -0.5726 -0.0192  0.2635
  892MPD2     N13080   0.114   2.506  14.431  0.0726 -0.4207 -0.0049
  892MPD2    H513081   0.197   2.447  14.435  0.0271 -0.5046 -0.3195
  892MPD2    N113082   4.471   2.692  14.691 -0.3028 -0.5681  0.2366
  892MPD2    H713083   4.431   2.718  14.602  1.9591  2.1247  0.0213
  893MPD2     C13084   1.003   1.789   1.633 -0.2592  0.2751 -0.6795
  893MPD2    C113085   1.069   1.856   1.734 -0.3120 -0.2003  0.5219
  893MPD2    C213086   0.998   1.887   1.847  0.0396 -0.5003 -0.2031
  893MPD2    C313087   0.867   1.842   1.872 -0.3355  0.0639  0.3398
  893MPD2    C413088   0.814   1.768   1.772  0.3673 -0.5299 -0.7468
  893MPD2    C513089   0.874   1.753   1.652  0.2227  0.4493  0.2651
  893MPD2     H13090   1.041   1.956   1.919 -1.0652  0.1669 -0.1666
  893MPD2    H113091   0.713   1.729   1.777  0.9452 -1.8692  0.3116
  893MPD2    H213092   1.051   1.778   1.536  0.7828  1.1322 -0.2603
  893MPD2    H313093   0.833   1.692   1.572  1.0397  1.4600 -0.9165
  893MPD2     N13094   0.783   1.877   1.982  0.2836  0.1046 -0.1442
  893MPD2    H513095   0.682   1.861   1.977 -0.0289  1.7358  1.0238
  893MPD2    N113096   1.207   1.887   1.702 -0.0707 -0.2515  0.4125
  893MPD2    H713097   1.229   1.892   1.603 -0.8851  0.0367  0.2372
  894MPD2     C13098   3.762   4.362   1.135 -0.3894  0.0551  0.0150
  894MPD2    C113099   3.838   4.268   1.205 -0.1205  0.6509 -0.1852
  894MPD2    C213100   3.968   4.249   1.174  0.1844  0.4932 -0.6163
  894MPD2    C313101   4.040   4.321   1.081  0.3255  1.0308  0.0125
  894MPD2    C413102   3.963   4.413   1.011 -0.1666 -0.5903 -0.0095
  894MPD2    C513103   3.827   4.433   1.038 -0.0280 -0.0508 -0.5760
  894MPD2     H13104   4.021   4.175   1.233 -1.5052 -0.7963 -0.7045
  894MPD2    H113105   4.008   4.461   0.925 -1.2265  0.4795  0.0454
  894MPD2    H213106   3.657   4.381   1.153 -0.4382  0.0250 -0.2481
  894MPD2    H313107   3.778   4.516   0.988 -0.2122  0.2878  0.1746
  894MPD2     N13108   4.177   4.292   1.063 -0.3949  0.1403 -0.4489
  894MPD2    H513109   4.200   4.215   1.125  2.5837  1.3613 -0.0654
  894MPD2    N113110   3.787   4.191   1.316  0.1487 -0.5981 -1.0881
  894MPD2    H713111   3.854   4.143   1.376 -1.8475  0.0639  1.6857
  895MPD2     C13112   4.076   1.752  13.386 -0.2862 -0.4026  0.1749
  895MPD2    C113113   4.014   1.627  13.402 -0.2641  0.6854  0.8173
  895MPD2    C213114   4.083   1.518  13.444  0.5586 -0.1441  0.4641
  895MPD2    C313115   4.221   1.523  13.447 -1.0353 -0.3478  0.1965
  895MPD2    C413116   4.281   1.648  13.447 -0.2801  0.3876 -0.1323
  895MPD2    C513117   4.214   1.763  13.410 -0.0505  0.0573  0.3357
  895MPD2     H13118   4.028   1.428  13.471  1.2157 -1.1566 -1.5747
  895MPD2    H113119   4.388   1.660  13.450 -0.5924  3.0065  0.3616
  895MPD2    H213120   4.023   1.838  13.347 -1.8135 -1.4972 -0.1687
  895MPD2    H313121   4.268   1.853  13.382 -0.8670  1.0984  2.0793
  895MPD2     N13122   4.308   1.402  13.468  0.8740  0.3272 -0.1037
  895MPD2    H513123   4.407   1.422  13.476  0.6226  0.7049  2.0551
  895MPD2    N113124   3.879   1.607  13.377  0.4088 -0.2989 -0.0556
  895MPD2    H713125   3.856   1.509  13.375  1.7435 -0.6989  2.9312
  896MPD2     C13126   1.339   4.420   0.622  0.5001  0.4779 -0.2360
  896MPD2    C113127   1.312   4.504   0.724  0.7176  0.1096  0.5854
  896MPD2    C213128   1.218   4.467   0.818 -0.2046 -0.1200  0.0853
  896MPD2    C313129   1.154   4.340   0.809 -0.1418  0.0774  0.1030
  896MPD2    C413130   1.190   4.257   0.707  0.2298  0.2338  0.0119
  896MPD2    C513131   1.286   4.295   0.623  0.1181  0.2627 -0.7860
  896MPD2     H13132   1.189   4.523   0.907  0.0431  1.5425 -0.8764
  896MPD2    H113133   1.151   4.160   0.680  0.0877  0.4125 -0.4432
  896MPD2    H213134   1.407   4.452   0.543  0.2564 -0.3452 -0.7817
  896MPD2    H313135   1.323   4.229   0.545  1.5048  1.8091 -1.4373
  896MPD2     N13136   1.052   4.306   0.907 -0.0873 -0.1195  0.8302
  896MPD2    H513137   1.014   4.377   0.969  2.0171  1.1322  0.6909
  896MPD2    N113138   1.376   4.631   0.721  0.4525 -0.0265 -0.5207
  896MPD2    H713139   1.436   4.657   0.643 -2.7891 -1.1960 -3.4285
  897MPD2     C13140   2.023   1.305  10.337  0.3009 -0.8055  0.0332
  897MPD2    C113141   2.086   1.409  10.389  0.2234 -0.1854 -0.5864
  897MPD2    C213142   2.123   1.409  10.522 -0.6686  0.4479 -0.3110
  897MPD2    C313143   2.084   1.302  10.604  0.2037 -0.1252  0.3091
  897MPD2    C413144   2.018   1.195  10.554  0.3788 -0.4251  0.0637
  897MPD2    C513145   1.983   1.201  10.415  0.1984 -0.4723  0.8491
  897MPD2     H13146   2.147   1.493  10.586 -1.1485  0.4162 -0.0852
  897MPD2    H113147   2.013   1.101  10.607  0.1769  0.2632  1.2634
  897MPD2    H213148   1.997   1.302  10.232 -0.7214  1.8709  0.2083
  897MPD2    H313149   1.935   1.118  10.364  1.2131 -1.8859  2.1804
  897MPD2     N13150   2.081   1.323  10.750 -0.3881  0.2714 -0.0996
  897MPD2    H513151   2.097   1.420  10.772 -1.5805  0.5379 -0.4168
  897MPD2    N113152   2.110   1.520  10.311  0.0816  0.2261 -0.4673
  897MPD2    H713153   2.065   1.512  10.220  1.7092 -0.0020 -1.2421
  898MPD2     C13154   0.201   1.777  17.558 -0.3772  0.2295  0.8093
  898MPD2    C113155   0.226   1.905  17.513 -0.0982  0.0021  0.3943
  898MPD2    C213156   0.185   1.940  17.387 -0.3867  0.0919  0.3327
  898MPD2    C313157   0.139   1.844  17.299 -0.0952  0.0463  0.2814
  898MPD2    C413158   0.127   1.711  17.340 -0.7078  0.1834 -0.8071
  898MPD2    C513159   0.161   1.679  17.468  0.5534 -0.1266 -0.8994
  898MPD2     H13160   0.186   2.042  17.350  0.2226  1.0914  3.1905
  898MPD2    H113161   0.085   1.637  17.273  0.6859  0.4652 -1.9852
  898MPD2    H213162   0.229   1.741  17.656  2.1258 -0.8724 -0.2924
  898MPD2    H313163   0.158   1.575  17.497  1.5264  0.6813  2.1786
  898MPD2     N13164   0.103   1.884  17.175 -0.0104 -0.3847 -0.8748
  898MPD2    H513165   0.121   1.984  17.166 -1.1788 -0.0725  0.2273
  898MPD2    N113166   0.277   2.011  17.593  0.0191 -0.0553  0.4752
  898MPD2    H713167   0.278   2.101  17.546 -1.9549  1.5232  3.4384
  899MPD2     C13168   0.452   3.033  17.575 -0.0951  0.2240  0.0111
  899MPD2    C113169   0.337   3.103  17.547 -0.1870  0.0610 -0.7541
  899MPD2    C213170   0.237   3.096  17.639 -0.1881  0.6057 -0.5618
  899MPD2    C313171   0.247   3.033   0.072  0.2638  0.1190 -0.0330
  899MPD2    C413172   0.354   2.952   0.100 -0.4503  1.3299 -0.4967
  899MPD2    C513173   0.447   2.947  17.691 -0.0747 -0.4680  0.6028
  899MPD2     H13174   0.151   3.161  17.627 -2.0893 -1.4175  2.1346
  899MPD2    H113175   0.360   2.888   0.187 -2.4781  1.3653 -0.3264
  899MPD2    H213176   0.540   3.032  17.511 -0.2481 -2.5896 -0.1201
  899MPD2    H313177   0.532   2.880   0.010 -0.0970 -0.6313 -0.1992
  899MPD2     N13178   0.151   3.055   0.171  0.4725 -0.7185  0.5671
  899MPD2    H513179   0.164   3.009   0.260  1.1436 -3.2077 -0.8026
  899MPD2    N113180   0.328   3.186  17.432  0.3250  0.4344 -0.2886
  899MPD2    H713181   0.418   3.208  17.389  0.7360 -0.2290  0.2313
  900MPD2     C13182   0.255   4.438  12.720  0.3667 -0.0406 -0.7100
  900MPD2    C113183   0.263   4.313  12.675 -0.5874 -0.1944  0.0191
  900MPD2    C213184   0.158   4.270  12.595 -0.5995 -0.0096 -0.2315
  900MPD2    C313185   0.053   4.351  12.557 -0.2987 -0.3630  0.0411
  900MPD2    C413186   0.045   4.475  12.616  0.1066  0.2761  0.0453
  900MPD2    C513187   0.152   4.525  12.693 -0.1707 -0.5563  0.4261
  900MPD2     H13188   0.168   4.172  12.551 -0.6475 -0.0356 -0.1851
  900MPD2    H113189   4.682   4.541  12.602 -0.2337 -0.4178 -1.0946
  900MPD2    H213190   0.332   4.466  12.792  1.4044 -0.6594 -1.5922
  900MPD2    H313191   0.137   4.624  12.734  0.2990 -1.9130  3.8606
  900MPD2     N13192   4.682   4.302  12.467 -0.9951  0.1782  0.1611
  900MPD2    H513193   4.692   4.204  12.442 -0.7910 -0.0930  1.3265
  900MPD2    N113194   0.368   4.226  12.690 -0.2838  0.1207 -0.7455
  900MPD2    H713195   0.358   4.127  12.670 -0.8393 -0.1990  1.1157
  901MPD2     C13196   0.532   3.343  13.069  0.6274  0.6568  0.2250
  901MPD2    C113197   0.615   3.338  12.969 -0.0561 -0.7984  0.2084
  901MPD2    C213198   0.639   3.457  12.903  0.2608 -0.5803  0.3244
  901MPD2    C313199   0.580   3.579  12.943  0.1287  0.3389 -1.0350
  901MPD2    C413200   0.493   3.578  13.051 -0.4398  0.4636  0.1997
  901MPD2    C513201   0.469   3.458  13.112  0.6950  0.1581  0.1925
  901MPD2     H13202   0.712   3.458  12.823 -0.3976  1.7797 -0.2528
  901MPD2    H113203   0.443   3.666  13.089  0.3478  0.5840  0.9454
  901MPD2    H213204   0.503   3.247  13.112  1.1630  1.0045  1.3520
  901MPD2    H313205   0.404   3.454  13.199  0.0830  0.2983 -0.2554
  901MPD2     N13206   0.611   3.698  12.871  0.4811  0.1547  0.1754
  901MPD2    H513207   0.693   3.695  12.811  1.1650 -0.0943  1.1179
  901MPD2    N113208   0.663   3.220  12.928  0.1101 -0.1121 -0.4218
  901MPD2    H713209   0.625   3.137  12.971 -1.8277  1.2959  0.6105
  902MPD2     C13210   3.727   1.993  13.033  0.2913 -0.0021 -0.0656
  902MPD2    C113211   3.839   2.052  12.983 -0.8406  0.0714 -0.8044
  902MPD2    C213212   3.927   1.981  12.894  0.5849  0.0076 -0.1726
  902MPD2    C313213   3.906   1.852  12.860 -0.4164  0.2183 -0.0937
  902MPD2    C413214   3.791   1.805  12.910  0.0202 -0.9318  0.1414
  902MPD2    C513215   3.708   1.863  12.995  0.1125  0.7413 -0.0806
  902MPD2     H13216   4.020   2.031  12.868  0.6169 -0.2500 -0.5436
  902MPD2    H113217   3.764   1.702  12.890 -1.9912  0.2150 -3.1556
  902MPD2    H213218   3.665   2.046  13.104  0.3946 -0.3869  0.3161
  902MPD2    H313219   3.617   1.811  13.021  0.3748 -0.4157 -1.4712
  902MPD2     N13220   3.987   1.769  12.778  0.0494 -0.0435 -0.1528
  902MPD2    H513221   3.954   1.677  12.751  1.6679 -0.8388  0.6336
  902MPD2    N113222   3.855   2.186  13.028  0.1183 -0.3009 -0.3692
  902MPD2    H713223   3.782   2.225  13.087 -0.1015 -0.1625 -0.7312
  903MPD2     C13224   4.130   1.927  12.046 -0.3961 -0.2121 -0.1059
  903MPD2    C113225   4.098   1.812  12.120 -0.0669 -0.0332 -1.3370
  903MPD2    C213226   3.984   1.745  12.089 -0.5618  0.5338 -0.1920
  903MPD2    C313227   3.905   1.782  11.982  0.0104 -0.1726  0.1806
  903MPD2    C413228   3.937   1.896  11.909 -0.1688  0.0933 -0.0631
  903MPD2    C513229   4.054   1.965  11.943  0.0642 -0.2502 -0.3646
  903MPD2     H13230   3.961   1.653  12.142  0.4199 -1.4947 -3.2571
  903MPD2    H113231   3.881   1.927  11.822 -0.1797 -0.5845 -0.2988
  903MPD2    H213232   4.221   1.979  12.073  0.5880 -1.4968 -0.9154
  903MPD2    H313233   4.077   2.054  11.886 -0.7472 -0.4690 -1.0265
  903MPD2     N13234   3.793   1.704  11.948 -0.4294  0.2236 -0.4476
  903MPD2    H513235   3.777   1.616  11.996 -0.7783 -0.1745 -1.2942
  903MPD2    N113236   4.181   1.781  12.231  0.7931 -0.3094  0.4025
  903MPD2    H713237   4.240   1.854  12.269  0.9217  1.2802 -2.8773
  904MPD2     C13238   3.709   1.289  13.728 -0.3541  0.4893  0.7591
  904MPD2    C113239   3.709   1.236  13.860 -0.4933  0.5673 -0.9304
  904MPD2    C213240   3.836   1.209  13.915 -0.2101  0.1799  0.6910
  904MPD2    C313241   3.956   1.231  13.853  0.9060 -0.4247 -0.0703
  904MPD2    C413242   3.949   1.298  13.733 -0.5650  0.0921 -0.5884
  904MPD2    C513243   3.828   1.337  13.685  0.2235  0.4182  0.0810
  904MPD2     H13244   3.839   1.165  14.014 -1.5909 -1.0098  0.2092
  904MPD2    H113245   4.041   1.323  13.681 -1.3378 -0.8940 -2.4283
  904MPD2    H213246   3.616   1.310  13.676 -1.4456 -1.7687  1.7887
  904MPD2    H313247   3.830   1.405  13.602 -0.2225  1.0437  0.5796
  904MPD2     N13248   4.075   1.192  13.917 -0.0010 -0.6365 -0.6515
  904MPD2    H513249   4.069   1.148  14.008  1.8177  0.3111 -0.0571
  904MPD2    N113250   3.600   1.197  13.936 -0.5175  0.1399 -0.0824
  904MPD2    H713251   3.621   1.146  14.021  0.7763 -0.4268 -0.7398
  905MPD2     C13252   3.358   1.115  13.316  0.1565 -0.8870  0.0964
  905MPD2    C113253   3.429   1.214  13.375  0.0091 -0.0592 -0.1664
  905MPD2    C213254   3.567   1.215  13.357  0.2483  0.3222  0.0981
  905MPD2    C313255   3.631   1.112  13.281  0.4837 -0.2003 -0.2169
  905MPD2    C413256   3.554   1.017  13.229 -0.3682  0.7652 -1.0560
  905MPD2    C513257   3.422   1.015  13.249 -0.3517  0.3503  0.4198
  905MPD2     H13258   3.630   1.290  13.403 -0.9302  1.1039  0.4458
  905MPD2    H113259   3.594   0.939  13.165  0.3238 -1.8042  2.5235
  905MPD2    H213260   3.254   1.115  13.345  0.1454  1.2276  0.0637
  905MPD2    H313261   3.372   0.923  13.219 -0.5887  0.9292 -0.9552
  905MPD2     N13262   3.770   1.108  13.255  0.2573 -0.0850  0.5095
  905MPD2    H513263   3.802   1.025  13.207  0.3345 -0.1786  0.7209
  905MPD2    N113264   3.362   1.304  13.460 -0.0433 -0.1733 -0.1253
  905MPD2    H713265   3.276   1.265  13.495  0.1336 -0.6118 -0.1811
  906MPD2     C13266   0.976   0.888  11.747  0.7471 -0.9696  0.4150
  906MPD2    C113267   0.898   0.924  11.639  0.4405 -0.2992 -0.0145
  906MPD2    C213268   0.786   0.844  11.621 -0.2901  0.2508 -0.1475
  906MPD2    C313269   0.741   0.755  11.722 -0.0726 -0.7276 -0.3558
  906MPD2    C413270   0.817   0.723  11.833  0.3827 -0.0031  0.3649
  906MPD2    C513271   0.936   0.791  11.841  0.5059  0.3679  0.3396
  906MPD2     H13272   0.734   0.857  11.527 -0.9124  1.3647  0.3564
  906MPD2    H113273   0.776   0.659  11.911  0.8305  0.6847  1.1727
  906MPD2    H213274   1.068   0.936  11.779 -1.0780  2.2879  0.8293
  906MPD2    H313275   1.003   0.769  11.923 -0.2259 -2.0227  0.2894
  906MPD2     N13276   0.613   0.697  11.709 -0.0852  0.0375 -0.5720
  906MPD2    H513277   0.607   0.603  11.745  0.9785  0.0623 -0.3112
  906MPD2    N113278   0.936   1.011  11.535 -0.2448  0.2032  0.4893
  906MPD2    H713279   0.886   1.003  11.447  0.3868  1.8768 -0.0164
  907MPD2     C13280   4.290   0.810  15.795 -0.0324  0.6535  0.2044
  907MPD2    C113281   4.326   0.687  15.743 -0.7794  0.0855 -0.1398
  907MPD2    C213282   4.407   0.604  15.819  0.1816  0.3145  0.0445
  907MPD2    C313283   4.443   0.632  15.948  0.0941  0.7699 -0.5721
  907MPD2    C413284   4.397   0.751  16.002 -0.6053 -0.2898  0.2444
  907MPD2    C513285   4.329   0.841  15.922  0.0867  0.5618  0.3130
  907MPD2     H13286   4.435   0.505  15.786 -1.0718  1.2570 -3.7975
  907MPD2    H113287   4.424   0.800  16.095 -0.5309  1.0854 -0.4894
  907MPD2    H213288   4.219   0.880  15.752  0.5136  0.1165 -1.5310
  907MPD2    H313289   4.322   0.941  15.963  2.4014  1.2007 -0.8171
  907MPD2     N13290   4.529   0.543  16.008 -0.6720  0.5985 -0.1992
  907MPD2    H513291   4.572   0.473  15.949 -0.9609 -0.5473  0.9474
  907MPD2    N113292   4.282   0.626  15.625 -0.1597 -0.0166  0.0776
  907MPD2    H713293   4.304   0.529  15.610  2.8974  0.8341 -0.9891
  908MPD2     C13294   2.319   1.314   9.553  0.4117 -0.7702  0.0425
  908MPD2    C113295   2.385   1.288   9.673  0.6595  0.0668 -0.6721
  908MPD2    C213296   2.380   1.378   9.781  0.0248  0.6818  0.0376
  908MPD2    C313297   2.303   1.492   9.773  0.9882 -0.6059  0.3262
  908MPD2    C413298   2.247   1.522   9.650 -0.1613 -0.3531 -0.3712
  908MPD2    C513299   2.258   1.433   9.545  0.0746  0.3600 -0.3763
  908MPD2     H13300   2.437   1.362   9.872 -1.4923  2.6359  1.3456
  908MPD2    H113301   2.188   1.611   9.630 -0.4326 -0.7030 -1.1196
  908MPD2    H213302   2.330   1.243   9.471 -0.8591 -0.3760 -0.4706
  908MPD2    H313303   2.214   1.459   9.449 -0.0577 -0.3342 -0.5053
  908MPD2     N13304   2.283   1.577   9.886  0.0826 -0.5756  0.1676
  908MPD2    H513305   2.301   1.542   9.980  0.7262  1.4941  0.8218
  908MPD2    N113306   2.466   1.171   9.687  0.1621 -0.1538 -0.7652
  908MPD2    H713307   2.522   1.169   9.772  0.7517  0.3665 -1.1463
  909MPD2     C13308   3.069   3.689  11.997  0.8178  0.2083  1.4405
  909MPD2    C113309   3.023   3.783  11.909  0.2491  0.2892  0.1689
  909MPD2    C213310   2.902   3.843  11.929  0.0096  0.4015  0.2999
  909MPD2    C313311   2.828   3.827  12.046  0.3503  0.5287 -0.2738
  909MPD2    C413312   2.884   3.742  12.138 -0.7759 -0.1878  0.2527
  909MPD2    C513313   3.000   3.678  12.111  0.0947 -0.8154 -0.0255
  909MPD2     H13314   2.862   3.912  11.855 -1.3210 -0.7654 -0.0542
  909MPD2    H113315   2.834   3.728  12.233 -0.1590  1.3200  0.7961
  909MPD2    H213316   3.168   3.647  11.987 -0.6040 -2.7433 -0.3996
  909MPD2    H313317   3.037   3.612  12.189 -1.3640 -1.3425  0.2064
  909MPD2     N13318   2.703   3.894  12.051  0.0243  0.6130  0.1731
  909MPD2    H513319   2.680   3.974  11.992  2.0581  0.2556 -1.1097
  909MPD2    N113320   3.097   3.823  11.792 -0.6759  0.0396  0.3118
  909MPD2    H713321   3.050   3.889  11.731 -1.7006  0.7315  1.8507
  910MPD2     C13322   4.047   1.221  15.979  0.0493  0.5822  0.0927
  910MPD2    C113323   4.043   1.083  15.954 -0.1043  0.2386 -0.0670
  910MPD2    C213324   4.023   1.030  15.828  0.7572 -1.0905 -0.4312
  910MPD2    C313325   4.024   1.119  15.722 -0.6164 -0.4905  0.0129
  910MPD2    C413326   4.013   1.254  15.745  0.1075 -0.4423 -0.1540
  910MPD2    C513327   4.025   1.301  15.875 -0.1464  0.2469  0.1016
  910MPD2     H13328   4.032   0.925  15.803  2.5662 -1.3369  1.2956
  910MPD2    H113329   4.000   1.333  15.673  1.1822 -0.9426 -0.8925
  910MPD2    H213330   4.070   1.268  16.073  0.9122 -1.1266  0.7373
  910MPD2    H313331   4.030   1.407  15.896  1.2213  0.5816 -1.9235
  910MPD2     N13332   4.034   1.073  15.591 -0.1116  0.3857 -0.0655
  910MPD2    H513333   4.015   0.977  15.566  0.0921  0.4931 -0.6460
  910MPD2    N113334   4.075   0.988  16.050 -0.2174  0.1103  0.3281
  910MPD2    H713335   4.081   0.892  16.018 -1.0716  0.5726 -1.2121
  911MPD2     C13336   1.795   2.262  16.203 -0.2721 -0.6771  1.0444
  911MPD2    C113337   1.872   2.367  16.248  0.1248 -0.4224 -0.6620
  911MPD2    C213338   1.813   2.495  16.241 -0.4139  0.4356  0.5906
  911MPD2    C313339   1.693   2.511  16.179 -0.8000  0.6385 -0.1168
  911MPD2    C413340   1.625   2.405  16.132 -0.3272  0.1008 -0.0189
  911MPD2    C513341   1.679   2.280  16.137  0.9336 -0.1586 -0.0822
  911MPD2     H13342   1.874   2.584  16.256 -0.9922  0.6452  1.6693
  911MPD2    H113343   1.535   2.417  16.073 -0.1073  1.4668 -0.0838
  911MPD2    H213344   1.830   2.160  16.215 -0.3901 -1.1759 -2.9274
  911MPD2    H313345   1.631   2.196  16.088  0.5419 -1.3293  2.2736
  911MPD2     N13346   1.637   2.641  16.166  0.5170  0.0919 -0.0738
  911MPD2    H513347   1.695   2.724  16.177 -0.6277  0.6424  1.7181
  911MPD2    N113348   1.993   2.325  16.314  0.3897 -0.3305  0.2063
  911MPD2    H713349   1.995   2.224  16.327  0.4214 -0.5611 -1.5603
  912MPD2     C13350   1.005   2.474  15.881  0.5280 -0.7980 -0.8203
  912MPD2    C113351   1.121   2.485  15.960 -0.7948 -0.7648  0.6471
  912MPD2    C213352   1.159   2.379  16.033  0.5455 -0.4977  0.0480
  912MPD2    C313353   1.101   2.254  16.027 -0.0161 -0.5323  0.6343
  912MPD2    C413354   0.991   2.240  15.939 -0.2402  0.2565  0.0411
  912MPD2    C513355   0.944   2.353  15.868  0.0737 -0.2358 -0.4220
  912MPD2     H13356   1.239   2.387  16.106  1.1451  0.3506 -0.7120
  912MPD2    H113357   0.944   2.142  15.931  1.6801 -0.5766 -0.8335
  912MPD2    H213358   0.956   2.553  15.824  1.3149  0.2273 -0.0778
  912MPD2    H313359   0.854   2.342  15.808  0.1853  0.1284 -0.6552
  912MPD2     N13360   1.153   2.154  16.109  0.0965 -0.2517  0.1069
  912MPD2    H513361   1.238   2.173  16.162 -0.3951  0.2383  0.7265
  912MPD2    N113362   1.196   2.605  15.983 -0.4784  0.2796 -0.0240
  912MPD2    H713363   1.265   2.598  16.057  0.3495 -1.2973 -0.9395
  913MPD2     C13364   2.515   2.287  11.225 -0.3925 -0.2977  0.3972
  913MPD2    C113365   2.414   2.204  11.241  0.3529  0.0297 -0.5563
  913MPD2    C213366   2.301   2.209  11.159 -0.1298 -0.2630  0.0071
  913MPD2    C313367   2.298   2.297  11.051 -0.0478  0.2157  1.1042
  913MPD2    C413368   2.410   2.379  11.036 -1.1632  0.8023 -0.0873
  913MPD2    C513369   2.521   2.369  11.109  0.1248 -0.1603 -0.2116
  913MPD2     H13370   2.224   2.134  11.176  1.0323 -1.5329 -0.3245
  913MPD2    H113371   2.406   2.443  10.949 -0.8354  1.8999  0.7009
  913MPD2    H213372   2.601   2.295  11.290  0.4349 -0.4502 -0.6801
  913MPD2    H313373   2.606   2.437  11.105  1.9842 -2.3941  1.8653
  913MPD2     N13374   2.199   2.286  10.951  0.2118 -0.3558  0.0132
  913MPD2    H513375   2.210   2.351  10.874 -1.1476 -1.2479 -0.9302
  913MPD2    N113376   2.429   2.119  11.348 -0.2816  0.6413 -0.0947
  913MPD2    H713377   2.524   2.105  11.379 -0.1539  1.7446  0.0324
  914MPD2     C13378   0.390   3.087  12.106 -0.6434 -0.4505  0.2058
  914MPD2    C113379   0.416   3.201  12.178 -0.0375 -0.2003  0.2187
  914MPD2    C213380   0.522   3.188  12.266  0.2060 -0.1325 -0.3947
  914MPD2    C313381   0.591   3.066  12.286 -0.0749  0.3921  0.2580
  914MPD2    C413382   0.562   2.958  12.205  0.0137  0.5601 -0.5226
  914MPD2    C513383   0.456   2.965  12.116 -0.4275  0.2336 -0.6754
  914MPD2     H13384   0.552   3.271  12.329  0.0703  0.5774 -1.2542
  914MPD2    H113385   0.613   2.862  12.208 -0.5357  0.2827  0.0764
  914MPD2    H213386   0.318   3.082  12.025  0.5549 -1.1873 -0.8147
  914MPD2    H313387   0.424   2.879  12.058 -0.2528 -1.4125  1.6924
  914MPD2     N13388   0.682   3.050  12.394  0.3313 -0.6417  0.0078
  914MPD2    H513389   0.697   3.129  12.456 -0.5453 -1.2759  1.0472
  914MPD2    N113390   0.359   3.331  12.142 -0.2146  0.4932  0.1343
  914MPD2    H713391   0.286   3.333  12.072  1.1690  0.4425 -1.3157
  915MPD2     C13392   3.352   3.680  16.225 -0.4757  0.0206 -0.2992
  915MPD2    C113393   3.242   3.661  16.147 -0.8437 -0.1691 -0.9233
  915MPD2    C213394   3.116   3.697  16.198 -0.0807 -0.3227 -0.4317
  915MPD2    C313395   3.109   3.764  16.322 -0.1623 -0.1268 -0.2471
  915MPD2    C413396   3.226   3.782  16.398 -0.1840 -0.2519  0.7726
  915MPD2    C513397   3.347   3.740  16.347  0.3017 -0.3490  0.0082
  915MPD2     H13398   3.025   3.672  16.146 -0.9516 -0.1081  1.0081
  915MPD2    H113399   3.222   3.822  16.499 -1.8520 -0.4909  0.8020
  915MPD2    H213400   3.443   3.639  16.184 -0.4204  2.5482 -2.7276
  915MPD2    H313401   3.442   3.741  16.399  0.6118 -2.6551 -0.5156
  915MPD2     N13402   2.985   3.803  16.377  0.3649  0.1976  0.0708
  915MPD2    H513403   2.905   3.753  16.339  0.5074 -0.2466  0.3479
  915MPD2    N113404   3.248   3.584  16.027  0.7315 -0.0266 -0.2170
  915MPD2    H713405   3.334   3.540  15.996  0.8652  0.8704 -1.1262
  916MPD2     C13406   0.957   1.725  15.829 -0.0402 -0.2615  0.4793
  916MPD2    C113407   0.928   1.626  15.928  0.0240  0.1044  0.3730
  916MPD2    C213408   0.905   1.497  15.887 -0.5158 -0.0768 -1.6369
  916MPD2    C313409   0.921   1.458  15.757  0.8124 -0.4900  0.4641
  916MPD2    C413410   0.955   1.558  15.660 -0.5310  0.5459 -0.1887
  916MPD2    C513411   0.975   1.690  15.697 -0.7871 -0.0269 -0.3075
  916MPD2     H13412   0.867   1.427  15.959  4.0031 -1.5808 -0.7526
  916MPD2    H113413   0.963   1.538  15.554  0.4733  0.5503 -0.1129
  916MPD2    H213414   0.974   1.829  15.855 -0.8729  0.3449 -1.3767
  916MPD2    H313415   0.999   1.760  15.618 -1.3104  0.4588 -0.0381
  916MPD2     N13416   0.894   1.326  15.723  0.4327 -0.3080  0.7400
  916MPD2    H513417   0.880   1.270  15.807  1.1454 -1.0087  0.3892
  916MPD2    N113418   0.902   1.668  16.059 -0.0846 -0.1613 -0.1577
  916MPD2    H713419   0.881   1.767  16.066  1.3535  0.1494 -0.1735
  917MPD2     C13420   1.432   4.037  10.718  0.6772 -0.4785  0.3389
  917MPD2    C113421   1.501   4.068  10.833  0.4989  0.1167  0.5346
  917MPD2    C213422   1.627   4.128  10.827  1.0937 -0.0792  0.1494
  917MPD2    C313423   1.685   4.159  10.704  0.2089  0.7300  0.1210
  917MPD2    C413424   1.611   4.135  10.587 -0.8822 -0.7779  0.2302
  917MPD2    C513425   1.487   4.063  10.598 -0.2960  1.1608 -0.0559
  917MPD2     H13426   1.685   4.141  10.919  1.0742 -1.5353  0.3696
  917MPD2    H113427   1.651   4.167  10.491  0.6693 -0.9043  0.8336
  917MPD2    H213428   1.337   3.985  10.724 -0.3872  1.2493 -1.4459
  917MPD2    H313429   1.446   4.033  10.502  1.2516 -2.0137  0.2661
  917MPD2     N13430   1.816   4.205  10.695  0.2887 -0.6530 -0.1067
  917MPD2    H513431   1.849   4.250  10.610 -1.8073  1.9286  0.4398
  917MPD2    N113432   1.447   4.013  10.952  0.6563  0.2938 -0.2560
  917MPD2    H713433   1.363   3.957  10.949  1.0701 -0.3901  0.6179
  918MPD2     C13434   1.657   3.975  12.008 -0.8231 -0.7762  1.2211
  918MPD2    C113435   1.730   3.883  11.944  0.0990 -0.2543 -0.8660
  918MPD2    C213436   1.699   3.863  11.810 -0.0362  0.5674  0.4548
  918MPD2    C313437   1.581   3.926  11.758 -0.1516 -0.3228 -0.0724
  918MPD2    C413438   1.507   4.016  11.834 -0.0290 -0.1145 -0.0109
  918MPD2    C513439   1.546   4.042  11.957 -1.0672 -0.9323  0.1925
  918MPD2     H13440   1.755   3.794  11.748 -1.1866  0.5356 -0.5623
  918MPD2    H113441   1.416   4.051  11.787  2.6481  1.1032 -4.3669
  918MPD2    H213442   1.679   3.999  12.111  1.0002 -1.1494  0.9127
  918MPD2    H313443   1.502   4.122  12.015  0.0187  0.7545 -1.3172
  918MPD2     N13444   1.537   3.888  11.626 -0.2164 -0.4603 -0.3758
  918MPD2    H513445   1.583   3.806  11.588 -0.2204 -0.7966  0.3473
  918MPD2    N113446   1.847   3.821  11.997  0.1683  0.1188 -0.2693
  918MPD2    H713447   1.894   3.755  11.937  1.4692 -0.7801  1.7289
  919MPD2     C13448   1.591   2.072  10.787  0.2612 -0.3247  0.8089
  919MPD2    C113449   1.689   2.146  10.854  0.6011 -0.0530 -0.0663
  919MPD2    C213450   1.744   2.258  10.787  0.1038 -0.2322  0.5247
  919MPD2    C313451   1.693   2.295  10.663  0.5120 -0.2395  0.0066
  919MPD2    C413452   1.593   2.222  10.604 -0.2158  0.7542 -0.2763
  919MPD2    C513453   1.549   2.108  10.664  0.8926 -0.5052 -0.9803
  919MPD2     H13454   1.816   2.319  10.839  0.3492  0.9892 -1.2801
  919MPD2    H113455   1.557   2.245  10.504  1.9944  1.1474 -0.9733
  919MPD2    H213456   1.555   1.976  10.824 -1.0498  0.3170  1.2139
  919MPD2    H313457   1.496   2.042  10.596 -1.2677 -0.3294  0.5411
  919MPD2     N13458   1.727   2.409  10.591 -0.4117  0.3235 -0.4643
  919MPD2    H513459   1.675   2.433  10.507 -0.9127 -1.5526 -0.6798
  919MPD2    N113460   1.746   2.109  10.978 -0.1987  0.2794 -0.0476
  919MPD2    H713461   1.832   2.154  11.006  0.3599 -0.1590 -1.0616
  920MPD2     C13462   1.813   2.679   9.688  0.3949  0.3591 -0.3164
  920MPD2    C113463   1.733   2.755   9.769  0.2667  0.4535 -0.5559
  920MPD2    C213464   1.755   2.745   9.900 -0.2620 -0.1255 -0.1479
  920MPD2    C313465   1.849   2.668   9.958  0.3127  0.3083  0.2556
  920MPD2    C413466   1.931   2.593   9.879  0.3511  0.3717  0.1162
  920MPD2    C513467   1.909   2.600   9.747  0.0365 -0.2798  0.3387
  920MPD2     H13468   1.695   2.812   9.961 -0.5624 -1.1947  0.7173
  920MPD2    H113469   2.018   2.532   9.898  0.0599 -0.1081 -0.0808
  920MPD2    H213470   1.808   2.681   9.580  3.1876  0.8763 -0.4297
  920MPD2    H313471   1.983   2.558   9.680  0.4067  1.8804 -0.6266
  920MPD2     N13472   1.851   2.681  10.094 -0.1252  1.2631 -0.1694
  920MPD2    H513473   1.783   2.739  10.143 -0.4084  0.0888  0.8288
  920MPD2    N113474   1.632   2.845   9.724 -0.3988  0.7725  0.4050
  920MPD2    H713475   1.575   2.886   9.798 -0.0958  0.8248  0.6118
  921MPD2     C13476   2.883   2.607  16.388 -0.3455 -0.0533 -0.0083
  921MPD2    C113477   2.834   2.480  16.357 -0.7026  0.3543 -0.1896
  921MPD2    C213478   2.718   2.438  16.415  0.1125  0.4013 -0.2494
  921MPD2    C313479   2.638   2.522  16.488 -0.3149  0.1184 -0.0592
  921MPD2    C413480   2.667   2.655  16.502  0.1257  0.1670  0.2589
  921MPD2    C513481   2.790   2.697  16.454 -0.6092 -0.4971 -0.4540
  921MPD2     H13482   2.697   2.331  16.417  1.2849  0.1499 -1.5673
  921MPD2    H113483   2.597   2.725  16.545 -1.9766 -1.7885  0.0696
  921MPD2    H213484   2.985   2.626  16.356 -0.4016  1.0637  0.4863
  921MPD2    H313485   2.822   2.798  16.477 -1.7332 -0.2853  0.1798
  921MPD2     N13486   2.512   2.478  16.534 -0.1844  0.1759 -0.0501
  921MPD2    H513487   2.450   2.544  16.579  0.6101  0.8909 -0.0076
  921MPD2    N113488   2.916   2.386  16.286  0.1425 -0.5179 -0.1795
  921MPD2    H713489   3.007   2.420  16.259  0.9526 -1.5868  1.1716
  922MPD2     C13490   3.568   4.174   0.290  0.2782  0.1871 -0.5449
  922MPD2    C113491   3.531   4.167   0.163 -0.5663  0.3012  0.1657
  922MPD2    C213492   3.417   4.219   0.118 -0.1525 -0.2859 -0.2708
  922MPD2    C313493   3.331   4.290   0.202  0.0211  0.6282 -0.3941
  922MPD2    C413494   3.366   4.289   0.338 -0.2504  0.0202 -1.0770
  922MPD2    C513495   3.488   4.238   0.374  0.3106  0.7848  0.6231
  922MPD2     H13496   3.394   4.205   0.013 -0.1540 -1.1478 -0.1566
  922MPD2    H113497   3.295   4.306   0.417 -1.0742 -1.2573 -1.5491
  922MPD2    H213498   3.653   4.120   0.330  0.2408 -0.2003 -0.9871
  922MPD2    H313499   3.518   4.237   0.479  0.5176 -2.3446  0.5308
  922MPD2     N13500   3.203   4.338   0.159  0.4687 -0.1847 -0.2843
  922MPD2    H513501   3.181   4.323   0.061 -2.5479  0.6159  0.2938
  922MPD2    N113502   3.617   4.120   0.060 -0.3339 -0.1628  0.4307
  922MPD2    H713503   3.588   4.121  17.655  0.4587  0.0377  0.1989
  923MPD2     C13504   0.113   1.678   8.767  0.4557  0.3646  0.1818
  923MPD2    C113505   0.186   1.765   8.839  0.4833 -0.0877 -0.5080
  923MPD2    C213506   0.285   1.713   8.917  0.3675  0.2176 -0.6128
  923MPD2    C313507   0.307   1.574   8.921 -0.5365  0.1697 -0.9252
  923MPD2    C413508   0.235   1.489   8.842  0.2973 -0.1558 -0.0908
  923MPD2    C513509   0.128   1.539   8.778 -0.0075 -0.6055  0.4596
  923MPD2     H13510   0.347   1.784   8.971 -0.3863  1.2280 -1.0760
  923MPD2    H113511   0.244   1.381   8.841  0.1375 -0.1505 -1.5845
  923MPD2    H213512   0.041   1.717   8.696  0.9825  0.1584 -0.4545
  923MPD2    H313513   0.068   1.469   8.721  1.6012 -0.4676 -1.4230
  923MPD2     N13514   0.414   1.515   8.992 -0.2023  0.2309  0.0337
  923MPD2    H513515   0.430   1.416   8.971  0.5212  0.3290  0.1325
  923MPD2    N113516   0.158   1.899   8.832 -0.1134 -0.6870  0.6502
  923MPD2    H713517   0.069   1.924   8.789  0.4690  1.1902  0.5565
  924MPD2     C13518   0.120   4.405  16.319  0.8458 -0.4438 -0.6077
  924MPD2    C113519   0.005   4.483  16.326 -0.2265  0.8371  0.3041
  924MPD2    C213520   0.005   4.608  16.262 -0.6381  0.3926 -0.3974
  924MPD2    C313521   0.118   4.647  16.194 -0.1176 -0.3356 -0.3766
  924MPD2    C413522   0.234   4.571  16.199 -0.4307  0.2142  0.7670
  924MPD2    C513523   0.233   4.445  16.255  0.1297  0.1262 -0.0718
  924MPD2     H13524   4.641   4.671  16.274 -0.8090 -0.0238  0.5327
  924MPD2    H113525   0.324   4.592  16.143 -1.0461  0.5685 -0.0936
  924MPD2    H213526   0.126   4.315  16.380  3.2308  1.2181  1.5841
  924MPD2    H313527   0.318   4.378  16.254 -1.3786 -1.8160  0.3983
  924MPD2     N13528   0.139   0.062  16.164  0.1177 -0.4027  0.5094
  924MPD2    H513529   0.235   0.092  16.151 -0.1011  1.1932  2.6169
  924MPD2    N113530   4.618   4.439  16.398 -0.0548 -0.1574 -0.4307
  924MPD2    H713531   4.644   4.372  16.470 -1.1006 -1.7202 -1.5186
  925MPD2     C13532   3.683   2.443  14.780 -0.4415  0.3239 -0.2549
  925MPD2    C113533   3.603   2.355  14.711  0.1439 -0.2413  0.1409
  925MPD2    C213534   3.496   2.287  14.773  0.4191 -0.5049 -0.6031
  925MPD2    C313535   3.456   2.329  14.900  0.2184  0.0521 -0.5333
  925MPD2    C413536   3.532   2.418  14.966 -0.0839  0.4985 -0.3147
  925MPD2    C513537   3.642   2.471  14.903  0.1656  0.2952 -0.5825
  925MPD2     H13538   3.427   2.228  14.713 -0.8715  0.4447 -0.0344
  925MPD2    H113539   3.528   2.441  15.072 -1.1053 -0.7145 -0.0854
  925MPD2    H213540   3.766   2.497  14.737 -1.5706  2.0692 -0.2227
  925MPD2    H313541   3.704   2.540  14.959  0.3199  0.1795 -0.6099
  925MPD2     N13542   3.362   2.261  14.978 -0.3289  0.6693  0.8411
  925MPD2    H513543   3.352   2.293  15.073  0.5893 -0.6953  1.3937
  925MPD2    N113544   3.623   2.325  14.572  0.4903  0.2843  0.1676
  925MPD2    H713545   3.564   2.249  14.538  2.0552 -2.3315  3.2627
  926MPD2     C13546   1.989   0.737  13.009  0.4048 -0.2110 -0.3558
  926MPD2    C113547   2.110   0.762  13.078 -0.0055  0.5802  0.2026
  926MPD2    C213548   2.204   0.838  13.015 -0.9913  0.4524 -0.2352
  926MPD2    C313549   2.174   0.891  12.890 -0.1936 -0.5051  0.1783
  926MPD2    C413550   2.058   0.862  12.822  0.4576 -0.3414 -0.5071
  926MPD2    C513551   1.964   0.791  12.887 -0.6822  1.2346  0.4030
  926MPD2     H13552   2.295   0.861  13.069 -0.2201  0.5708 -1.5662
  926MPD2    H113553   2.029   0.913  12.730  1.3453 -0.0742 -0.6413
  926MPD2    H213554   1.904   0.687  13.054  0.5840  0.2381  0.4834
  926MPD2    H313555   1.865   0.779  12.846 -0.5627  1.6596 -0.0017
  926MPD2     N13556   2.260   0.980  12.819 -0.0122 -0.2279  0.2483
  926MPD2    H513557   2.221   1.029  12.739 -0.3328 -1.0506 -0.0976
  926MPD2    N113558   2.133   0.715  13.209 -0.2483 -0.8371  0.2533
  926MPD2    H713559   2.217   0.749  13.256 -0.5652  2.0877 -1.3240
  927MPD2     C13560   1.915   4.119   0.341  0.1345  0.0239 -0.0855
  927MPD2    C113561   1.953   4.002   0.383  0.1862 -0.1458  0.0143
  927MPD2    C213562   2.040   3.921   0.315  0.1571 -0.0758 -0.4503
  927MPD2    C313563   2.078   3.959   0.191  0.4958 -0.0737 -0.0531
  927MPD2    C413564   2.026   4.081   0.142  0.1546  0.0068 -0.5144
  927MPD2    C513565   1.953   4.162   0.218 -0.1386 -0.0175  0.2189
  927MPD2     H13566   2.070   3.821   0.346 -1.4318 -0.1019  1.0139
  927MPD2    H113567   2.038   4.112   0.039  1.8497  0.5215 -0.1715
  927MPD2    H213568   1.845   4.188   0.388 -1.3450 -1.3848 -0.2173
  927MPD2    H313569   1.911   4.254   0.177 -2.4538 -1.8071 -1.4664
  927MPD2     N13570   2.145   3.873   0.101  0.1263  0.5124  0.5983
  927MPD2    H513571   2.154   3.780   0.140 -3.1564 -0.2061 -0.3624
  927MPD2    N113572   1.893   3.961   0.508 -0.0452  0.4158  1.0252
  927MPD2    H713573   1.821   4.023   0.544 -1.6039  0.0819 -1.5710
  928MPD2     C13574   0.719   1.833   1.268  0.2500 -0.3304  0.7964
  928MPD2    C113575   0.809   1.939   1.269 -0.0252 -0.1630 -0.1978
  928MPD2    C213576   0.843   1.986   1.146  0.1482  0.4388  0.3197
  928MPD2    C313577   0.807   1.928   1.027  0.2092  0.3539  0.7732
  928MPD2    C413578   0.737   1.806   1.035 -0.6584  0.2057  0.3461
  928MPD2    C513579   0.690   1.763   1.157 -0.4762  0.1339  0.2428
  928MPD2     H13580   0.912   2.069   1.143 -2.1711  2.2696 -2.8778
  928MPD2    H113581   0.717   1.738   0.953  0.7704  0.6394 -0.3584
  928MPD2    H213582   0.681   1.799   1.363 -3.0235 -0.3011 -0.4842
  928MPD2    H313583   0.630   1.673   1.162 -0.0073 -0.1482  0.7468
  928MPD2     N13584   0.846   1.981   0.901  0.5692  0.5589  0.5205
  928MPD2    H513585   0.829   1.924   0.819  0.1602 -1.6437  2.1297
  928MPD2    N113586   0.835   2.007   1.390  0.5908 -0.1204  0.2287
  928MPD2    H713587   0.815   1.965   1.480 -0.3762 -1.7279 -0.7394
  929MPD2     C13588   0.439   1.745  10.210  0.0639  0.5787 -0.7576
  929MPD2    C113589   0.344   1.643  10.200  0.3236 -0.0861 -0.0211
  929MPD2    C213590   0.289   1.628  10.079  0.3444  0.7486 -0.4618
  929MPD2    C313591   0.319   1.718   9.979  0.1483  0.1314  0.2472
  929MPD2    C413592   0.416   1.821   9.996 -0.3263 -0.5187 -0.5866
  929MPD2    C513593   0.487   1.820  10.103  0.7789 -0.6056  0.4469
  929MPD2     H13594   0.216   1.549  10.063  0.3762  0.5639  0.3078
  929MPD2    H113595   0.452   1.888   9.919  2.9734 -1.1379  0.4354
  929MPD2    H213596   0.489   1.773  10.302 -0.9507 -0.9345  0.2656
  929MPD2    H313597   0.564   1.895  10.117  1.5587 -1.2428 -0.4426
  929MPD2     N13598   0.251   1.720   9.857  0.2686  0.0967  0.2777
  929MPD2    H513599   0.288   1.795   9.800 -1.4424 -0.0379 -0.9720
  929MPD2    N113600   0.314   1.562  10.313  0.0320 -0.6850 -0.1282
  929MPD2    H713601   0.373   1.573  10.395 -0.4398 -0.6337  0.1989
  930MPD2     C13602   2.312   4.202  13.695  0.3900  0.4402  0.4382
  930MPD2    C113603   2.370   4.084  13.666  0.4817  0.4843 -0.0957
  930MPD2    C213604   2.294   3.970  13.665  0.6463 -0.0046  0.5531
  930MPD2    C313605   2.158   3.970  13.682  0.0562 -0.1612 -0.0489
  930MPD2    C413606   2.100   4.094  13.715 -0.1790 -0.6874 -0.4313
  930MPD2    C513607   2.175   4.208  13.717  0.1287 -0.6105 -0.1006
  930MPD2     H13608   2.349   3.878  13.648  0.8472  0.1721  0.2467
  930MPD2    H113609   1.993   4.093  13.736 -0.5037 -3.2214 -2.1443
  930MPD2    H213610   2.368   4.294  13.690 -0.4851  0.8827 -1.4320
  930MPD2    H313611   2.130   4.306  13.732  1.0040 -0.3843  1.0364
  930MPD2     N13612   2.081   3.854  13.706  0.2147 -0.1763 -0.7019
  930MPD2    H513613   1.986   3.869  13.738  0.2593 -1.5137  0.0750
  930MPD2    N113614   2.509   4.086  13.660 -0.2723 -0.2816 -0.4060
  930MPD2    H713615   2.563   4.164  13.695 -2.4856  0.4509  1.3856
  931MPD2     C13616   2.313   3.688   1.135 -0.8447  0.8889 -0.4374
  931MPD2    C113617   2.180   3.664   1.131 -0.7267  0.3691 -0.2219
  931MPD2    C213618   2.142   3.552   1.203  0.3939  0.2769 -0.0118
  931MPD2    C313619   2.229   3.471   1.271 -0.1149 -0.0443  0.5362
  931MPD2    C413620   2.359   3.501   1.276 -0.3486  1.3158  0.7057
  931MPD2    C513621   2.399   3.613   1.209 -0.0469  1.0338  0.4910
  931MPD2     H13622   2.038   3.524   1.195  0.5499 -0.0449 -0.9164
  931MPD2    H113623   2.426   3.454   1.347 -3.0878 -0.8929  1.8311
  931MPD2    H213624   2.340   3.784   1.092 -0.5516 -0.1279 -2.5167
  931MPD2    H313625   2.498   3.655   1.223  1.0973 -0.9458 -1.6894
  931MPD2     N13626   2.187   3.350   1.333 -0.1562 -0.3567  0.4481
  931MPD2    H513627   2.260   3.283   1.353 -2.2472 -2.7182  0.1701
  931MPD2    N113628   2.086   3.742   1.059 -0.2991  0.5463  0.1045
  931MPD2    H713629   2.127   3.808   0.994  0.7313 -0.2111 -0.0040
  932MPD2     C13630   3.743   1.727  11.140  0.0316  0.0552  0.6356
  932MPD2    C113631   3.840   1.744  11.238 -0.1226  0.1142  0.7800
  932MPD2    C213632   3.827   1.657  11.349 -0.2299 -0.8004 -0.9447
  932MPD2    C313633   3.730   1.563  11.363 -0.7556 -0.1042  0.0485
  932MPD2    C413634   3.630   1.564  11.268 -0.5328  0.1084 -0.7931
  932MPD2    C513635   3.639   1.635  11.154 -0.3616  0.8565  0.4755
  932MPD2     H13636   3.906   1.665  11.424 -1.6092  2.3950  0.1654
  932MPD2    H113637   3.555   1.485  11.273 -0.1826 -0.2685 -1.4285
  932MPD2    H213638   3.742   1.794  11.054 -0.1257  2.3195  2.4004
  932MPD2    H313639   3.572   1.618  11.071 -0.9083 -0.1020  1.1164
  932MPD2     N13640   3.711   1.474  11.470 -0.1394 -0.2459  0.4223
  932MPD2    H513641   3.622   1.426  11.472 -0.3906  0.2086  0.2272
  932MPD2    N113642   3.953   1.824  11.233  0.2401  0.4202  0.3960
  932MPD2    H713643   4.015   1.815  11.313 -0.1912 -0.3081  0.6450
  933MPD2     C13644   0.701   2.296   2.199  0.0622 -0.0262  0.0880
  933MPD2    C113645   0.653   2.278   2.072 -0.0732 -0.2060  0.3089
  933MPD2    C213646   0.516   2.290   2.047 -0.4402 -0.0994  0.0852
  933MPD2    C313647   0.423   2.305   2.145  0.2923 -0.5718 -0.3088
  933MPD2    C413648   0.471   2.333   2.272 -0.2810 -0.0532  0.0990
  933MPD2    C513649   0.608   2.329   2.302 -1.0113  0.5971 -0.4000
  933MPD2     H13650   0.482   2.262   1.948  0.4217 -1.8655  0.2792
  933MPD2    H113651   0.395   2.369   2.341  0.7280 -0.7588  1.5691
  933MPD2    H213652   0.804   2.278   2.226  0.3881  2.1275  0.3169
  933MPD2    H313653   0.642   2.340   2.404  0.1376 -2.1219 -0.5022
  933MPD2     N13654   0.288   2.309   2.105  0.1175  0.1263  0.1530
  933MPD2    H513655   0.260   2.303   2.008 -1.5169 -0.3071  0.6403
  933MPD2    N113656   0.747   2.241   1.977 -0.1428 -0.2530  0.5093
  933MPD2    H713657   0.842   2.229   2.010  0.6145  2.1534 -0.8052
  934MPD2     C13658   1.006   4.199   1.330  0.6139 -0.1474  0.1090
  934MPD2    C113659   0.884   4.188   1.390  0.1698  0.6616  0.3010
  934MPD2    C213660   0.829   4.060   1.402 -0.0116  0.1271  0.0863
  934MPD2    C313661   0.890   3.949   1.353  0.2446  0.5544  0.1426
  934MPD2    C413662   1.006   3.965   1.280 -0.1756  0.3341 -0.2289
  934MPD2    C513663   1.069   4.086   1.278  0.3449 -0.1196 -0.1288
  934MPD2     H13664   0.735   4.057   1.457 -0.6157 -1.1401 -1.0353
  934MPD2    H113665   1.047   3.874   1.238  0.8225  0.2101  1.0394
  934MPD2    H213666   1.057   4.295   1.321  0.1587  0.1081  0.2200
  934MPD2    H313667   1.166   4.092   1.230 -0.3566  0.0969 -1.5130
  934MPD2     N13668   0.839   3.821   1.360 -0.3173  0.4335  0.4201
  934MPD2    H513669   0.894   3.753   1.309  2.5402  1.4702  2.1672
  934MPD2    N113670   0.821   4.296   1.443  0.0417  0.1542  0.8160
  934MPD2    H713671   0.735   4.288   1.497  1.2428  0.0440  2.7359
  935MPD2     C13672   1.201   3.074   1.234  0.4594 -0.6684 -0.0724
  935MPD2    C113673   1.086   3.091   1.155 -0.1645  0.0201 -0.4809
  935MPD2    C213674   0.984   3.175   1.201 -0.2963  0.5154 -0.3565
  935MPD2    C313675   0.991   3.236   1.325 -0.3698 -0.1224  0.1803
  935MPD2    C413676   1.102   3.212   1.405 -0.1213  0.6729  0.1414
  935MPD2    C513677   1.204   3.131   1.358  0.3622  0.5652 -0.3379
  935MPD2     H13678   0.902   3.201   1.136  2.0239  1.8093 -2.7227
  935MPD2    H113679   1.099   3.249   1.506  1.5931 -0.3683  0.5819
  935MPD2    H213680   1.277   3.005   1.200 -1.6625 -2.2144 -1.7182
  935MPD2    H313681   1.277   3.115   1.437  1.4312  0.9189 -1.2457
  935MPD2     N13682   0.880   3.311   1.373 -0.7838  0.1283 -0.0822
  935MPD2    H513683   0.890   3.370   1.454 -0.2882 -0.6363  0.4219
  935MPD2    N113684   1.067   3.053   1.018 -0.6001 -0.5795  0.5944
  935MPD2    H713685   0.979   3.086   0.980 -0.0360 -0.6843 -0.8260
  936MPD2     C13686   4.142   0.245  12.471 -0.2100 -0.3406 -0.0282
  936MPD2    C113687   4.191   0.367  12.503  0.6136 -0.5291  0.0948
  936MPD2    C213688   4.249   0.442  12.400  0.1564 -0.4416  0.3493
  936MPD2    C313689   4.252   0.400  12.268  0.3698  0.1281 -0.2118
  936MPD2    C413690   4.202   0.270  12.238 -0.0369 -0.3602  0.0611
  936MPD2    C513691   4.139   0.202  12.341 -0.4887 -0.9249 -0.1581
  936MPD2     H13692   4.297   0.537  12.422  1.5560 -1.5908  2.2265
  936MPD2    H113693   4.200   0.235  12.136 -3.1527 -2.7003  0.9375
  936MPD2    H213694   4.096   0.181  12.546  0.0898  1.0201  1.3034
  936MPD2    H313695   4.111   0.099  12.323 -1.5059 -0.4300 -1.3980
  936MPD2     N13696   4.308   0.484  12.178  0.0705 -0.0685 -0.0914
  936MPD2    H513697   4.319   0.581  12.207 -1.8120  0.2119 -0.3235
  936MPD2    N113698   4.200   0.422  12.634  0.1408 -0.1858 -0.6372
  936MPD2    H713699   4.248   0.511  12.638  1.6056 -1.0819  1.3250
  937MPD2     C13700   2.316   1.701  11.177 -1.0942  0.3882  0.4350
  937MPD2    C113701   2.269   1.812  11.110  1.0737 -0.2223  0.4675
  937MPD2    C213702   2.359   1.885  11.036  0.0312 -0.0360 -0.0432
  937MPD2    C313703   2.498   1.855  11.032  0.4412  0.1508 -0.9007
  937MPD2    C413704   2.541   1.742  11.095 -0.2665 -0.3318  0.1528
  937MPD2    C513705   2.451   1.669  11.166  0.0830  0.0795  0.2469
  937MPD2     H13706   2.321   1.979  10.999 -1.3691 -1.2077 -1.5860
  937MPD2    H113707   2.644   1.712  11.108 -0.7270 -0.3920  3.8601
  937MPD2    H213708   2.260   1.636  11.244 -1.1916  0.3397  0.3050
  937MPD2    H313709   2.490   1.580  11.214  0.2842  0.2565  0.4100
  937MPD2     N13710   2.582   1.954  10.969  0.1727 -0.3836 -0.2251
  937MPD2    H513711   2.527   2.024  10.921  1.3694 -0.2864 -1.4457
  937MPD2    N113712   2.152   1.881  11.154 -0.3627 -0.6024  0.4825
  937MPD2    H713713   2.125   1.968  11.108 -0.5867 -0.2221  1.3200
  938MPD2     C13714   4.141   3.561   0.821 -0.2497  0.4748 -0.0015
  938MPD2    C113715   4.232   3.613   0.917  0.6309  0.1451 -0.7457
  938MPD2    C213716   4.251   3.536   1.033  0.5017 -0.4751  0.3219
  938MPD2    C313717   4.193   3.413   1.054 -0.3288 -0.1864 -0.1436
  938MPD2    C413718   4.114   3.368   0.954 -0.6676 -0.0808  0.3947
  938MPD2    C513719   4.079   3.445   0.844 -0.4830 -0.7647 -0.1888
  938MPD2     H13720   4.324   3.575   1.102  1.6254 -1.2722 -0.4089
  938MPD2    H113721   4.072   3.268   0.960 -1.4316  0.2715  0.9441
  938MPD2    H213722   4.122   3.601   0.722 -0.8137  0.4115  0.0836
  938MPD2    H313723   4.008   3.409   0.772 -0.4241 -0.7634 -0.2475
  938MPD2     N13724   4.209   3.337   1.172 -0.1606  0.0213 -0.1892
  938MPD2    H513725   4.162   3.247   1.164  0.7463 -0.5348  0.6376
  938MPD2    N113726   4.303   3.735   0.890  0.1733  0.3244  0.0151
  938MPD2    H713727   4.380   3.744   0.955  0.5384 -2.0199 -0.0874
  939MPD2     C13728   0.915   0.042   0.884  0.2855  0.2556 -0.3011
  939MPD2    C113729   0.999   0.148   0.857  0.5415  0.0902 -0.5439
  939MPD2    C213730   1.060   0.159   0.733  0.7014  0.9074 -0.0788
  939MPD2    C313731   1.044   0.057   0.639 -0.4610 -0.2778 -0.4778
  939MPD2    C413732   0.966   4.670   0.677  0.0938 -0.1168  0.2680
  939MPD2    C513733   0.892   4.669   0.794  0.1333  0.0910  0.3151
  939MPD2     H13734   1.111   0.250   0.702 -0.4705  0.4042 -3.4737
  939MPD2    H113735   0.956   4.587   0.609  2.3752  0.5266 -0.8723
  939MPD2    H213736   0.867   0.032   0.981 -1.0107 -1.0422 -1.0744
  939MPD2    H313737   0.836   4.580   0.820 -1.6400  1.1016  0.0319
  939MPD2     N13738   1.110   0.069   0.515 -0.1402 -0.5059  0.1398
  939MPD2    H513739   1.151   0.158   0.489  0.8932 -0.7731  0.8450
  939MPD2    N113740   1.016   0.242   0.962  0.6128 -0.0873 -0.1599
  939MPD2    H713741   0.968   0.213   1.046  0.3283  1.0289  0.0726
  940MPD2     C13742   4.662   0.371  12.515 -0.1528 -0.3598  0.0486
  940MPD2    C113743   0.060   0.341  12.568  0.0937  0.2467  0.4514
  940MPD2    C213744   0.115   0.222  12.535 -0.4689  0.2963  0.6851
  940MPD2    C313745   0.059   0.130  12.449 -0.2546  0.2949  0.4021
  940MPD2    C413746   4.656   0.155  12.405  0.0715  0.6834 -0.2478
  940MPD2    C513747   4.605   0.278  12.427 -0.4619  0.6312  0.1725
  940MPD2     H13748   0.206   0.193  12.587 -0.2535 -0.7053 -0.2471
  940MPD2    H113749   4.604   0.090  12.336  1.1187  0.2732 -0.6523
  940MPD2    H213750   4.601   0.456  12.541  0.0304 -0.1325 -0.2652
  940MPD2    H313751   4.502   0.295  12.396 -1.2820  1.2136  3.2083
  940MPD2     N13752   0.128   0.015  12.410  0.3263 -0.0182 -0.6000
  940MPD2    H513753   0.070   4.670  12.361  1.7351 -1.2206 -0.5928
  940MPD2    N113754   0.124   0.430  12.653 -0.0385  0.0560  0.2576
  940MPD2    H713755   0.217   0.408  12.687 -0.9964 -0.9992  2.2468
  941MPD2     C13756   0.084   4.199   9.848  0.1662  0.0460  0.0292
  941MPD2    C113757   4.706   4.290   9.822  0.5185  0.8734 -0.2241
  941MPD2    C213758   4.601   4.257   9.738 -0.2694  0.1143 -1.0968
  941MPD2    C313759   4.589   4.136   9.673 -0.2410  0.0455 -0.2241
  941MPD2    C413760   4.695   4.052   9.690  0.0918  0.5516  0.6116
  941MPD2    C513761   0.079   4.077   9.780  0.3265 -0.4189 -0.1576
  941MPD2     H13762   4.520   4.327   9.722  0.5395  1.4243  0.5206
  941MPD2    H113763   4.713   3.961   9.632 -2.6678  0.0990  0.4495
  941MPD2    H213764   0.174   4.217   9.906  0.2653  0.0511 -0.1257
  941MPD2    H313765   0.164   4.011   9.793  1.4156  0.8032 -1.0854
  941MPD2     N13766   4.471   4.105   9.597  0.0288  0.6595 -0.3213
  941MPD2    H513767   4.404   4.181   9.588 -0.8435  0.0079  0.6448
  941MPD2    N113768   4.702   4.417   9.886 -0.3592  0.6010 -0.0039
  941MPD2    H713769   4.615   4.466   9.864  0.2694  2.1711  0.9870
  942MPD2     C13770   3.961   2.053   8.998  0.3412  0.2037 -0.1518
  942MPD2    C113771   4.094   2.097   8.983 -0.0498 -0.2197  0.4784
  942MPD2    C213772   4.200   2.016   9.002 -0.2001 -0.1205  0.0979
  942MPD2    C313773   4.184   1.884   9.029  0.8176 -0.3735  0.4159
  942MPD2    C413774   4.052   1.836   9.040 -0.0375  0.6355  0.2929
  942MPD2    C513775   3.945   1.923   9.028  0.4734  0.4294  0.2211
  942MPD2     H13776   4.297   2.063   8.986 -0.6020  0.5707 -0.3333
  942MPD2    H113777   4.028   1.733   9.061 -1.0070  0.7636 -0.1558
  942MPD2    H213778   3.877   2.121   9.005  2.3646  2.8232 -0.7776
  942MPD2    H313779   3.845   1.888   9.050 -1.1514  3.4538 -2.4377
  942MPD2     N13780   4.291   1.795   9.029 -0.1422 -0.3035 -0.0727
  942MPD2    H513781   4.277   1.695   9.035  1.4288 -0.6477 -2.0788
  942MPD2    N113782   4.126   2.229   8.947 -0.0302  0.8382 -0.1620
  942MPD2    H713783   4.224   2.250   8.928 -0.1705  1.1040 -0.5950
  943MPD2     C13784   2.656   3.069   9.433  0.9348 -0.2968  0.4931
  943MPD2    C113785   2.633   3.045   9.565  0.4366  0.1570  0.8171
  943MPD2    C213786   2.704   3.128   9.651  0.6434  0.4094 -0.5150
  943MPD2    C313787   2.777   3.242   9.614 -0.0081  0.7724 -0.0621
  943MPD2    C413788   2.785   3.264   9.479 -0.1035 -0.4105  0.8979
  943MPD2    C513789   2.719   3.183   9.389  0.2843 -0.1871 -0.3974
  943MPD2     H13790   2.695   3.099   9.755 -0.1668  2.5443  0.0077
  943MPD2    H113791   2.849   3.342   9.440 -0.7087  1.0376  2.7563
  943MPD2    H213792   2.612   3.006   9.357  0.7509  0.6368 -0.1720
  943MPD2    H313793   2.720   3.210   9.284 -1.1382 -0.3594 -0.4654
  943MPD2     N13794   2.856   3.317   9.706 -0.0831  0.6521  0.2050
  943MPD2    H513795   2.833   3.300   9.804 -2.8428  3.2208 -0.0055
  943MPD2    N113796   2.571   2.923   9.595  0.1201 -0.0546 -0.2314
  943MPD2    H713797   2.572   2.850   9.524  0.6438 -0.8086  0.5601
  944MPD2     C13798   3.502   3.394  11.176  0.1664 -0.6139 -0.0267
  944MPD2    C113799   3.420   3.386  11.062 -0.1832 -0.2690 -0.7625
  944MPD2    C213800   3.283   3.425  11.071 -0.1055  0.2377  0.3843
  944MPD2    C313801   3.235   3.455  11.197  0.2092 -0.5000 -0.0442
  944MPD2    C413802   3.322   3.456  11.309  0.7267 -0.1062  0.5998
  944MPD2    C513803   3.456   3.432  11.296  0.1105  0.0799  0.1099
  944MPD2     H13804   3.212   3.425  10.989  1.0439 -1.7183 -0.6233
  944MPD2    H113805   3.283   3.491  11.403 -0.0501  1.8881 -0.4657
  944MPD2    H213806   3.607   3.368  11.165  0.3794  0.1937  0.0942
  944MPD2    H313807   3.524   3.442  11.380  0.2373 -2.5912  0.3326
  944MPD2     N13808   3.097   3.479  11.208 -0.4598  0.2044 -0.0611
  944MPD2    H513809   3.049   3.459  11.121  0.6383  1.0731 -0.8643
  944MPD2    N113810   3.483   3.348  10.941 -0.3502  0.4293  0.4304
  944MPD2    H713811   3.578   3.315  10.951 -1.1485 -1.2600  2.5234
    1TCq1    O113812   0.688   3.830  14.455  0.5058  0.3264 -0.2689
    1TCq1    C113813   0.734   3.906  14.561 -0.4064 -0.3313  0.4312
    1TCq1    O213814   0.769   3.856  14.668 -0.6817 -0.3231  0.5111
    1TCq1    C213815   0.717   4.054  14.552 -0.1710 -0.6070 -0.6474
    1TCq1    C313816   0.621   4.104  14.467  0.4650 -0.4255 -0.2727
    1TCq1    C413817   0.623   4.236  14.438  0.1766 -0.0603  0.0097
    1TCq1    C513818   0.685   4.323  14.521  0.0886  0.3595  0.6951
    1TCq1    C613819   0.783   4.272  14.601 -0.1572 -0.0039  0.1676
    1TCq1    C713820   0.793   4.140  14.628  0.3386  0.0647  0.1360
    1TCq1    C813821   0.879   4.360  14.665 -0.3473  0.2375  0.4952
    1TCq1    O413822   0.898   4.338  14.782  0.0339 -0.2240 -0.3998
    1TCq1    C913823   0.526   4.287  14.349 -1.0452 -0.0957  0.2686
    1TCq1    O513824   0.515   4.413  14.348 -0.2260  0.4329 -0.1753
    1TCq1    O613825   0.438   4.210  14.305  0.4786 -0.3002 -0.4124
    1TCq1    H113826   0.683   3.884  14.373  1.4449  1.0139  0.1132
    1TCq1    H213827   0.558   4.042  14.402  0.9102  0.2116 -1.3128
    1TCq1    H313828   0.677   4.429  14.499  0.3346  0.2753  0.2021
    1TCq1    H413829   0.871   4.098  14.690  0.3376 -1.3483 -0.8199
    2MPD2     C13830   1.091   0.103  14.732 -0.7272  0.1754  0.7557
    2MPD2    C113831   1.011   0.109  14.618 -0.3831 -0.4981 -0.3163
    2MPD2    C213832   0.958   4.716  14.578  0.0727 -0.3112 -0.2385
    2MPD2    C313833   0.972   4.596  14.648  0.5057 -0.0430  0.3208
    2MPD2    C413834   1.057   4.592  14.756  0.8320  0.4573  0.2371
    2MPD2    C513835   1.110   4.711  14.801  0.5201  0.0263  0.2202
    2MPD2     H13836   0.896   4.707  14.489  0.2320  3.5922 -0.7561
    2MPD2    H113837   1.075   4.496  14.803 -0.3205  0.4955  0.7539
    2MPD2    H213838   1.126   0.192  14.783 -0.6032  1.3363 -1.3566
    2MPD2    H313839   1.161   4.717  14.897  0.1136  0.0780  0.4337
    2MPD2     N13840   0.898   4.483  14.599 -0.1771  0.0211  0.6339
    2MPD2    H513841   0.865   4.491  14.504  0.1601 -0.2909  0.4899
    2MPD2    N113842   0.997   0.235  14.549  0.1678  0.1574 -0.2652
    2MPD2    H713843   1.051   0.317  14.577  1.3413 -1.1313  1.2346
    3TMC2    C113844   0.932   0.389  14.383 -0.2395  0.4881 -1.0118
    3TMC2    C213845   0.987   0.499  14.443 -0.6614  0.1692  0.2118
    3TMC2    C313846   1.019   0.604  14.363  0.1956  0.1048 -0.0926
    3TMC2    C413847   0.901   0.395  14.248  0.2266  0.6260 -0.5220
    3TMC2    C513848   0.910   0.514  14.179  0.1944  0.3877  0.5911
    3TMC2    C613849   0.972   0.619  14.237 -0.1090 -0.6157 -0.2061
    3TMC2     C13850   0.906   0.258  14.452 -0.4763  0.1656 -0.5143
    3TMC2     O13851   0.823   0.180  14.407 -0.2823  0.0048  0.5257
    3TMC2     H13852   0.994   0.500  14.551  1.8299  1.0460  0.0410
    3TMC2    H113853   0.849   0.311  14.203  1.2755 -0.4255  0.2262
    3TMC2    H213854   0.989   0.715  14.190 -0.0709 -0.4654  0.1155
    3TMC2    C713855   0.829   0.535  14.067  0.1144  0.7541  0.2145
    3TMC2    C813856   1.072   0.722  14.435 -0.7180  0.1364  1.1219
    3TMC2    O113857   0.740   0.459  14.041  0.4063 -0.5728  0.1750
    3TMC2    O213858   1.072   0.827  14.377 -0.0983 -0.5132  0.2727
    3TMC2    O513859   1.187   0.670  14.491  0.5035  0.4738 -0.3395
    3TMC2    H513860   1.181   0.574  14.509 -1.4906  0.5386 -0.6911
    4MPD2     C13861   0.379   1.356  13.284  0.9781 -0.1846  0.4146
    4MPD2    C113862   0.470   1.310  13.187  0.3171 -0.0458 -0.4210
    4MPD2    C213863   0.598   1.282  13.228  0.7808  0.2237 -0.0762
    4MPD2    C313864   0.640   1.296  13.353 -0.5417 -0.3088 -0.3193
    4MPD2    C413865   0.555   1.352  13.446  0.0543 -0.7056 -0.0624
    4MPD2    C513866   0.423   1.368  13.417  0.2387  0.9562 -0.0430
    4MPD2     H13867   0.668   1.253  13.150 -0.1043 -0.6243 -0.5619
    4MPD2    H113868   0.584   1.365  13.549 -0.4917 -1.7776  0.2234
    4MPD2    H213869   0.280   1.379  13.247  0.6541 -0.2409  1.2533
    4MPD2    H313870   0.360   1.409  13.494 -0.0735  0.0806  0.1628
    4MPD2     N13871   0.774   1.266  13.395 -0.3617  0.2172  0.5811
    4MPD2    H513872   0.785   1.283  13.494  1.3615  0.9928  0.2479
    4MPD2    N113873   0.426   1.293  13.053  0.4004 -0.0369 -0.0146
    4MPD2    H713874   0.326   1.276  13.051  0.2441  0.8764  0.2210
    5TCq2    C113875   0.889   1.252  13.316  0.1026 -0.3520  0.0298
    5TCq2    O213876   0.903   1.302  13.204 -0.2779 -0.2484 -0.0590
    5TCq2    C213877   1.001   1.202  13.393  0.1171  0.5759  0.0526
    5TCq2    C313878   1.120   1.257  13.376 -0.3234 -0.4099 -0.0633
    5TCq2    C413879   1.219   1.237  13.474 -0.2531 -0.0324  0.4598
    5TCq2    C513880   1.206   1.134  13.566 -0.3944 -0.3769 -0.5022
    5TCq2    C613881   1.081   1.073  13.575 -0.4800  0.5882  0.5698
    5TCq2    C713882   0.979   1.110  13.493  0.3137  0.5150 -0.4366
    5TCq2    C813883   1.059   0.950  13.649 -0.1621 -0.9648 -0.2431
    5TCq2    O413884   1.130   0.932  13.748 -0.3586  0.3209  0.6421
    5TCq2    C913885   1.356   1.285  13.458 -0.3343  0.4622  0.4403
    5TCq2    O513886   1.374   1.353  13.355 -0.4264 -0.1718  0.3472
    5TCq2    O613887   1.442   1.255  13.545 -0.6109 -0.1578  0.3841
    5TCq2    H213888   1.136   1.340  13.307 -0.4572  0.3849  0.8567
    5TCq2    H313889   1.295   1.102  13.619  0.8287  1.3018 -1.5298
    5TCq2    H413890   0.880   1.068  13.507  1.0271 -0.8917  0.4599
    6MPD1     C13891   4.224   2.365  13.353 -0.1761 -0.2972  0.1808
    6MPD1    C113892   4.354   2.391  13.318 -0.2898  0.0691 -0.8644
    6MPD1    C213893   4.417   2.319  13.218 -0.4411 -0.4266 -0.8025
    6MPD1    C313894   4.349   2.211  13.163 -0.0007  0.9534  0.3370
    6MPD1    C413895   4.223   2.182  13.202  0.4848  0.1175 -0.1087
    6MPD1    C513896   4.157   2.264  13.297  0.0612 -0.1864  0.5525
    6MPD1     H13897   4.519   2.346  13.195 -0.4346  0.7963  0.5955
    6MPD1    H113898   4.159   2.105  13.159 -0.8604  0.1671  1.8039
    6MPD1    H213899   4.166   2.418  13.427  0.8616  0.4928  0.4315
    6MPD1    H313900   4.051   2.266  13.319 -0.2922  0.0212 -1.1485
    6MPD1     N13901   4.410   2.133  13.060 -0.3550  0.4082 -0.2895
    6MPD1    H513902   4.350   2.067  13.011 -2.3755  3.6997 -2.2688
    6MPD1    N113903   4.425   2.496  13.380  0.3563 -0.2920  0.2419
    6MPD1    H613904   4.361   2.550  13.437  1.7859 -0.9194  2.4639
    6MPD1    H713905   4.484   2.547  13.315  0.5825  0.6782  1.2105
    7MPD2     C13906   4.434   1.440  12.914 -0.0202 -0.7843 -0.3194
    7MPD2    C113907   4.516   1.484  12.821 -0.3308 -0.8622  1.1695
    7MPD2    C213908   4.609   1.409  12.761  0.1650  0.5226  0.3597
    7MPD2    C313909   4.643   1.292  12.818 -0.1951 -0.5529 -0.3353
    7MPD2    C413910   4.562   1.241  12.921 -0.2124 -0.4935  0.1494
    7MPD2    C513911   4.459   1.318  12.967  0.0893  0.1467 -0.0919
    7MPD2     H13912   4.667   1.469  12.692  1.3528 -0.3674  0.5841
    7MPD2    H113913   4.580   1.147  12.972  1.1129  0.1030  0.7671
    7MPD2    H213914   4.339   1.490  12.929  0.7978  0.4219  0.8381
    7MPD2    H313915   4.389   1.273  13.037 -0.5046 -3.6124 -3.0835
    7MPD2     N13916   0.041   1.219  12.785  0.3517  0.1085  0.0199
    7MPD2    H513917   0.060   1.141  12.846 -0.2828  0.9539  1.2860
    7MPD2    N113918   4.510   1.622  12.781 -0.1566 -0.0592 -0.2721
    7MPD2    H713919   4.567   1.643  12.700 -0.1563 -1.5303 -0.6592
    8TMC3    C113920   0.256   1.205  12.685  0.3043 -0.3043  0.1690
    8TMC3    C213921   0.310   1.224  12.805 -0.2683 -0.2033 -0.6109
    8TMC3    C313922   0.439   1.264  12.817 -0.4484  0.5064  0.2477
    8TMC3    C413923   0.330   1.228  12.575 -0.3784  0.2770  0.1340
    8TMC3    C513924   0.460   1.272  12.580  0.3212  0.7952  0.9285
    8TMC3    C613925   0.516   1.291  12.705 -0.0289  0.5817 -0.2076
    8TMC3     C13926   0.116   1.246  12.673  0.3986 -0.8900 -0.1846
    8TMC3     O13927   0.098   1.327  12.580  0.1417  0.3885 -0.3779
    8TMC3     H13928   0.252   1.199  12.894  0.4702 -2.1003 -0.6654
    8TMC3    H113929   0.284   1.199  12.482 -0.5881  0.4697  0.1771
    8TMC3    H213930   0.614   1.336  12.718 -0.8177  2.1550  0.3543
    8TMC3    C713931   0.471   1.403  12.511  0.2928 -0.0914 -0.2596
    8TMC3    C813932   0.507   1.277  12.942  0.1895 -0.7857 -0.6639
    8TMC3    O113933   0.587   1.430  12.479 -0.0458 -0.4758  0.7940
    8TMC3    O213934   0.629   1.270  12.937 -0.6140 -0.2705  0.4553
    9TMC3    C113935   4.542   2.037  12.904 -0.0779  0.7358  0.2085
    9TMC3    C213936   4.647   2.055  12.816 -1.1889  0.6424 -0.5069
    9TMC3    C313937   4.645   1.972  12.707  0.3341  0.2656 -0.2538
    9TMC3    C413938   4.453   1.935  12.900 -0.1617  0.7304  0.6529
    9TMC3    C513939   4.465   1.846  12.792  0.1390  1.4843 -0.4899
    9TMC3    C613940   4.559   1.863  12.699 -0.2984  0.6168  0.1827
    9TMC3     C13941   4.534   2.136  13.003 -0.1342  0.2113 -0.3154
    9TMC3     O13942   4.624   2.217  13.023 -0.6160  0.5290  0.0464
    9TMC3     H13943   0.006   2.124  12.837 -1.4191  0.8394 -0.2576
    9TMC3    H113944   4.393   1.911  12.986  0.8400  1.5361  1.5726
    9TMC3    H213945   4.559   1.796  12.614 -2.9660  0.2414  0.4834
    9TMC3    C713946   4.428   1.715  12.831 -0.2728  0.6500  0.6621
    9TMC3    C813947   0.032   1.978  12.609 -0.1049  0.3834  0.0889
    9TMC3    O113948   4.344   1.706  12.914  0.4419 -0.0483 -0.0109
    9TMC3    O213949   0.093   2.080  12.585 -0.4938  0.6124 -0.5379
   10MPD2     C13950   0.435   1.700  12.452  0.0357  0.1673 -0.3802
   10MPD2    C113951   0.339   1.615  12.500  0.2363 -0.4853  0.0072
   10MPD2    C213952   0.216   1.667  12.545  0.2938 -0.1891  0.6055
   10MPD2    C313953   0.196   1.801  12.544  0.3161 -0.4330 -0.3338
   10MPD2    C413954   0.291   1.890  12.492  0.3881  0.3097  0.0223
   10MPD2    C513955   0.411   1.840  12.452  0.7343 -0.4678  0.4992
   10MPD2     H13956   0.138   1.604  12.586 -0.6048  0.2537 -0.4547
   10MPD2    H113957   0.279   1.997  12.483  2.4634  0.4755 -0.6028
   10MPD2    H213958   0.526   1.661  12.408 -0.1816  0.1825 -0.8462
   10MPD2    H313959   0.475   1.912  12.401  0.2140 -0.5263 -0.2442
   10MPD2     N13960   0.064   1.846  12.585  0.2469 -0.5092 -0.3153
   10MPD2    H513961   0.003   1.771  12.616 -1.2153  1.2857  1.1582
   10MPD2    N113962   0.358   1.484  12.521 -0.3866 -0.0371  0.1857
   10MPD2    H713963   0.277   1.442  12.566 -0.6201  1.7628  1.4427
   11MPD2     C13964   0.750   0.579  13.782 -0.1365 -1.0096 -0.1431
   11MPD2    C113965   0.843   0.653  13.854  0.0101 -0.3590 -0.0199
   11MPD2    C213966   0.906   0.750  13.785 -0.1343  0.0186  0.4490
   11MPD2    C313967   0.892   0.759  13.649  0.8192 -1.1864 -0.0698
   11MPD2    C413968   0.807   0.687  13.576 -0.3979 -0.5511  0.5299
   11MPD2    C513969   0.733   0.596  13.645  0.2104  0.5647  0.6788
   11MPD2     H13970   0.968   0.813  13.848  1.0322 -0.6877 -0.0001
   11MPD2    H113971   0.773   0.707  13.475  1.7273  0.3645 -0.0143
   11MPD2    H213972   0.692   0.499  13.827  0.9653 -1.4172  0.5469
   11MPD2    H313973   0.660   0.546  13.583  0.6637  1.4839 -0.6088
   11MPD2     N13974   0.955   0.871  13.593  0.0018  0.1611  0.1402
   11MPD2    H513975   0.929   0.893  13.497 -0.5420  0.0589  0.2677
   11MPD2    N113976   0.877   0.633  13.983  0.2491 -0.3875  0.3876
   11MPD2    H713977   0.948   0.693  14.025 -0.3547  1.0465 -0.6372
    1MPD1     C13978   2.835   2.169  16.677 -0.8620 -0.6130 -0.7401
    1MPD1    C113979   2.875   2.304  16.695  1.0462  0.6801 -0.0509
    1MPD1    C213980   3.003   2.341  16.663  0.8882 -0.2955 -0.5549
    1MPD1    C313981   3.095   2.247  16.612  0.3677  0.5727 -0.1616
    1MPD1    C413982   3.057   2.117  16.591  0.4537  0.7051 -0.5500
    1MPD1    C513983   2.931   2.082  16.621  0.8832 -0.5389 -1.0363
    1MPD1     H13984   3.031   2.445  16.678 -1.3196  0.0946  0.7808
    1MPD1    H113985   3.125   2.048  16.543 -0.1377  1.1015 -1.9508
    1MPD1    H213986   2.732   2.142  16.696 -0.4151 -1.8595 -0.0494
    1MPD1    H313987   2.896   1.982  16.597  0.6583 -0.7443  0.1726
    1MPD1     N13988   3.227   2.282  16.563  0.0068  0.7557  0.6404
    1MPD1    H513989   3.286   2.206  16.530  1.5826  1.6246  1.4311
    1MPD1    N113990   2.788   2.395  16.754  0.6149  0.3811 -0.0420
    1MPD1    H613991   2.695   2.356  16.767  0.0839  2.2483  1.7552
    1MPD1    H713992   2.774   2.475  16.694 -1.6026  0.4565  0.5857
    2MPD1     C13993   3.881   3.007  16.700  0.2377 -0.1025 -0.0687
    2MPD1    C113994   3.744   3.009  16.708  0.7003 -0.2166  0.4651
    2MPD1    C213995   3.685   2.885  16.676  0.3895 -0.2631  0.1052
    2MPD1    C313996   3.764   2.772  16.663 -0.0769  0.5196 -0.6245
    2MPD1    C413997   3.900   2.782  16.673  0.2540  0.3198  0.1961
    2MPD1    C513998   3.959   2.901  16.676 -0.3636  0.1039 -0.7680
    2MPD1     H13999   3.580   2.882  16.647 -0.2789  0.5128  2.4634
    2MPD1    H114000   3.968   2.698  16.679 -1.7491 -1.3014  0.2405
    2MPD1    H214001   3.939   3.098  16.713 -2.9689  2.0231 -0.5646
    2MPD1    H314002   4.066   2.914  16.676 -0.7314  3.0451 -0.7412
    2MPD1     N14003   3.694   2.653  16.638  0.5729  0.4783 -0.5528
    2MPD1    H514004   3.593   2.666  16.631  0.5360  0.7929  0.5403
    2MPD1    N114005   3.676   3.138  16.703  0.6254 -0.2504  0.4942
    2MPD1    H614006   3.713   3.218  16.753  0.4318  0.8805 -1.1592
    2MPD1    H714007   3.578   3.130  16.731  0.1008 -1.7993 -1.7524
    3TMC3    C114008   3.644   2.443  16.566  0.2076  0.2789 -0.1418
    3TMC3    C214009   3.696   2.338  16.491  0.4753  0.0221  0.0616
    3TMC3    C314010   3.601   2.285  16.401  0.0553 -0.2187  0.0490
    3TMC3    C414011   3.512   2.476  16.586  0.6171  0.3026 -0.4233
    3TMC3    C514012   3.426   2.404  16.513  0.0121 -0.4245 -0.4852
    3TMC3    C614013   3.470   2.323  16.413  0.5978 -0.5851 -0.9880
    3TMC3     C14014   3.745   2.533  16.612 -0.1627 -0.6132 -0.0476
    3TMC3     O14015   3.863   2.496  16.597 -0.1619  0.0121 -0.3490
    3TMC3     H14016   3.801   2.315  16.476  0.7790  1.4782 -0.0167
    3TMC3    H114017   3.473   2.547  16.657  1.0623 -0.5196  0.6351
    3TMC3    H214018   3.392   2.291  16.345  1.8368 -1.1765 -2.1549
    3TMC3    C714019   3.284   2.411  16.562  0.3428 -0.5871 -0.3680
    3TMC3    C814020   3.631   2.227  16.267 -0.6949 -1.4535 -0.2847
    3TMC3    O114021   3.234   2.522  16.589  0.4645 -0.4774  0.6291
    3TMC3    O214022   3.535   2.199  16.189 -0.6259  0.1326  0.4087
    4MPD1     C14023   3.971   2.044  15.930  0.4917  0.6720 -0.5776
    4MPD1    C114024   4.045   2.104  16.034  0.0486 -0.2946  0.0039
    4MPD1    C214025   3.973   2.160  16.139  1.1226  0.4530 -0.2706
    4MPD1    C314026   3.834   2.162  16.139 -0.0490  0.0693  0.0481
    4MPD1    C414027   3.769   2.104  16.037 -0.0537  1.2852 -0.1635
    4MPD1    C514028   3.837   2.052  15.931 -0.3964 -0.1660 -0.2742
    4MPD1     H14029   4.041   2.197  16.215 -0.2605  2.0656  0.1765
    4MPD1    H114030   3.661   2.094  16.035  0.2548 -2.3126  1.2536
    4MPD1    H214031   4.020   1.980  15.857 -2.3703 -1.8098 -0.2806
    4MPD1    H314032   3.781   1.996  15.857 -0.0650  0.8154 -1.2578
    4MPD1     N14033   3.768   2.212  16.256  0.2791 -0.2694 -0.2857
    4MPD1    H514034   3.828   2.263  16.320 -3.0465  2.5203  0.5714
    4MPD1    N114035   4.179   2.100  16.046  0.3224  0.7570 -0.2870
    4MPD1    H614036   4.230   2.065  15.965  0.6509  0.8299 -0.1106
    4MPD1    H714037   4.223   2.186  16.076 -0.3622  1.8435 -2.3434
    1TCq1    O114038   0.157   0.819  12.369 -0.4661 -0.2914  0.0579
    1TCq1    C114039   0.103   0.904  12.277 -0.4826  0.4454 -0.4889
    1TCq1    O214040   4.709   0.926  12.244 -0.1952 -0.5321  0.3903
    1TCq1    C214041   0.200   1.005  12.243 -0.5401  0.3053 -0.5411
    1TCq1    C314042   0.327   0.974  12.267  0.9907 -0.5361  0.6496
    1TCq1    C414043   0.422   1.075  12.255 -0.5682 -0.0268 -0.6380
    1TCq1    C514044   0.386   1.206  12.238  0.0667 -0.2806 -0.4977
    1TCq1    C614045   0.256   1.230  12.203  0.1133  0.0289  0.1820
    1TCq1    C714046   0.158   1.131  12.200  0.4251 -0.3544  0.2404
    1TCq1    C814047   0.218   1.362  12.168  0.8166  0.2227 -0.3105
    1TCq1    O414048   0.095   1.377  12.178  0.0711  0.5710  0.6533
    1TCq1    C914049   0.554   1.051  12.298 -0.1710  0.3148  0.6081
    1TCq1    O514050   0.571   0.940  12.356 -0.2056 -0.1091  0.4355
    1TCq1    O614051   0.631   1.150  12.308 -0.4945  0.0259 -0.1326
    1TCq1    H114052   0.246   0.847  12.398  0.1395 -1.0222 -1.0814
    1TCq1    H214053   0.358   0.871  12.262  1.1510 -0.6611  4.5060
    1TCq1    H314054   0.466   1.279  12.243 -0.3956  0.1917 -0.0485
    1TCq1    H414055   0.051   1.145  12.193  0.6584  0.6404 -1.3446
    2MPD1     C14056   0.294   1.871  12.093 -0.4838  0.4789 -0.3766
    2MPD1    C114057   0.408   1.809  12.060 -0.3252  0.0559 -0.5801
    2MPD1    C214058   0.409   1.670  12.076 -0.7540  0.0561 -0.6493
    2MPD1    C314059   0.303   1.596  12.125 -0.5248  0.7104 -0.0147
    2MPD1    C414060   0.188   1.661  12.165  0.0722  0.1429 -0.1110
    2MPD1    C514061   0.189   1.801  12.149 -0.6543  0.1343  1.2227
    2MPD1     H14062   0.500   1.619  12.048  0.3729  1.0336  1.2504
    2MPD1    H114063   0.100   1.612  12.204  0.9939 -2.3754 -1.2238
    2MPD1    H214064   0.267   1.973  12.068  2.0609  1.7387  1.9522
    2MPD1    H314065   0.097   1.856  12.165  0.0414  2.5570 -2.9523
    2MPD1     N14066   0.318   1.454  12.133 -0.2500  0.6645 -0.5489
    2MPD1    H514067   0.405   1.415  12.099 -0.4260  0.3464 -0.6390
    2MPD1    N114068   0.513   1.882  12.008 -0.5874  0.1646 -0.1093
    2MPD1    H614069   0.505   1.981  12.029 -0.3592  0.3071 -0.7071
    2MPD1    H714070   0.604   1.846  12.036 -0.8447 -0.9552 -0.7034
    1TCq1    O114071   2.672   1.707   1.522 -0.2719  0.3310 -0.0770
    1TCq1    C114072   2.536   1.689   1.518 -0.3170  0.3263  0.1854
    1TCq1    O214073   2.454   1.766   1.468  0.5070 -0.4593 -0.9694
    1TCq1    C214074   2.495   1.585   1.612  0.1908 -0.5368 -0.3130
    1TCq1    C314075   2.580   1.546   1.708 -0.2405  0.0172 -0.0422
    1TCq1    C414076   2.540   1.448   1.798  0.0798 -0.1889 -0.3576
    1TCq1    C514077   2.410   1.397   1.796 -0.0988 -0.1641 -0.3439
    1TCq1    C614078   2.327   1.446   1.699 -0.2484  0.7845 -0.5024
    1TCq1    C714079   2.364   1.543   1.608 -0.0077  0.4055 -0.7439
    1TCq1    C814080   2.180   1.423   1.696 -0.8501  0.0160  0.1887
    1TCq1    O414081   2.125   1.480   1.605 -0.4579  0.4130 -0.2765
    1TCq1    C914082   2.601   1.439   1.926 -1.1117  0.0862  0.0353
    1TCq1    O514083   2.553   1.354   2.011 -0.2238  0.0039 -0.3431
    1TCq1    O614084   2.702   1.510   1.947 -0.5542 -0.2266 -0.1622
    1TCq1    H114085   2.721   1.636   1.569 -1.6514 -0.5343  0.0788
    1TCq1    H214086   2.664   1.607   1.739  0.4119 -0.9703  0.1045
    1TCq1    H314087   2.369   1.336   1.876  1.8699 -0.3209  0.5343
    1TCq1    H414088   2.301   1.585   1.530 -1.5315 -1.0883 -0.3131
    2MPD1     C14089   1.754   1.182   1.834  0.2438  0.0886  0.2427
    2MPD1    C114090   1.859   1.127   1.909  0.0184 -0.4871 -0.6635
    2MPD1    C214091   1.985   1.177   1.890 -0.0974  0.0210  0.0210
    2MPD1    C314092   2.007   1.276   1.797  0.3241 -0.1678  0.4602
    2MPD1    C414093   1.905   1.331   1.725 -0.6627 -0.1399 -0.1460
    2MPD1    C514094   1.776   1.281   1.747  0.3220  0.3496  0.0898
    2MPD1     H14095   2.065   1.134   1.949 -0.9043  0.2122  1.2521
    2MPD1    H114096   1.913   1.417   1.660  1.6096  0.0589  0.3704
    2MPD1    H214097   1.653   1.150   1.858 -0.3126  1.3751 -0.3672
    2MPD1    H314098   1.699   1.324   1.685  2.8032  1.3561 -2.2883
    2MPD1     N14099   2.140   1.318   1.780  0.9394 -0.3693  0.3132
    2MPD1    H514100   2.206   1.285   1.849  0.9566 -3.1378 -1.0080
    2MPD1    N114101   1.839   1.035   2.015 -0.4368 -0.2956  0.6313
    2MPD1    H614102   1.766   0.966   2.000  0.6169 -0.8180 -2.1181
    2MPD1    H714103   1.923   0.976   2.019 -0.0079  0.3603  1.3429
    1MPD1     C14104   1.638   2.778  13.415 -0.4840 -1.0921  1.0708
    1MPD1    C114105   1.727   2.711  13.334 -0.5178 -0.0358  0.2926
    1MPD1    C214106   1.678   2.646  13.218 -0.3396 -0.0480 -0.8591
    1MPD1    C314107   1.546   2.657  13.185 -0.4296 -0.7354 -0.5684
    1MPD1    C414108   1.463   2.733  13.265 -0.3932  0.7398 -0.1387
    1MPD1    C514109   1.508   2.794  13.378  0.2450  0.4527  0.0386
    1MPD1     H14110   1.735   2.590  13.144  0.8899 -0.0283  0.0610
    1MPD1    H114111   1.358   2.740  13.240 -0.9974 -0.7425  1.9399
    1MPD1    H214112   1.667   2.820  13.511  2.0030 -1.6454  0.5413
    1MPD1    H314113   1.448   2.860  13.439 -1.2032 -2.8910  2.2134
    1MPD1     N14114   1.513   2.606  13.060 -0.1889 -0.0509  0.3934
    1MPD1    H514115   1.587   2.548  13.021 -1.0965 -0.9973  0.0816
    1MPD1    N114116   1.861   2.689  13.366 -0.1005 -0.5867 -0.2667
    1MPD1    H614117   1.927   2.689  13.288  0.7312  0.5013  0.4388
    1MPD1    H714118   1.895   2.745  13.443  0.4065  0.6286 -1.3866
    2MPD1     C14119   0.807   2.853  11.129 -0.0167 -0.7840  0.6783
    2MPD1    C114120   0.912   2.840  11.044 -0.3384 -0.5167  0.7392
    2MPD1    C214121   0.977   2.716  11.043 -0.2991  0.4893  0.6203
    2MPD1    C314122   0.945   2.617  11.135  0.3136 -0.8524 -0.2922
    2MPD1    C414123   0.847   2.641  11.230  0.0123 -0.0376  0.6031
    2MPD1    C514124   0.780   2.759  11.226 -0.0752  0.7811  0.0913
    2MPD1     H14125   1.050   2.704  10.964 -0.0602 -0.2845  0.9625
    2MPD1    H114126   0.831   2.576  11.316  0.5610  0.3487  0.9915
    2MPD1    H214127   0.754   2.946  11.139  0.9153  0.3185 -4.7724
    2MPD1    H314128   0.698   2.771  11.295 -1.3406 -1.7778 -0.9490
    2MPD1     N14129   1.015   2.487  11.134 -0.7032 -0.2345 -0.7767
    2MPD1    H514130   0.980   2.419  11.201 -1.0701  0.3576 -0.3753
    2MPD1    N114131   0.937   2.933  10.941  0.4605  0.2724  0.3363
    2MPD1    H614132   1.036   2.936  10.919  0.0916  0.2365 -1.2787
    2MPD1    H714133   0.894   3.022  10.966  0.8245  0.3921  0.5312
    3MPD1     C14134   1.170   1.945  10.328  0.1021 -0.4198  0.2381
    3MPD1    C114135   1.197   2.075  10.340  0.2628 -0.1342 -0.3441
    3MPD1    C214136   1.208   2.134  10.463 -0.6111 -0.3474 -0.6057
    3MPD1    C314137   1.189   2.051  10.579  0.8623 -0.0484  0.4309
    3MPD1    C414138   1.167   1.913  10.568  0.3468  0.3570 -0.0138
    3MPD1    C514139   1.147   1.867  10.436 -0.2473 -0.1704 -0.4599
    3MPD1     H14140   1.243   2.235  10.479 -1.2641  0.0259 -1.5959
    3MPD1    H114141   1.154   1.840  10.647 -0.0378 -0.7471 -1.0929
    3MPD1    H214142   1.162   1.888  10.236  0.6561  0.6316 -0.4614
    3MPD1    H314143   1.127   1.762  10.417  0.6025 -0.2366 -0.9723
    3MPD1     N14144   1.212   2.112  10.704  0.0908 -0.5680 -0.3534
    3MPD1    H514145   1.224   2.212  10.709  1.2089 -0.7166  0.0857
    3MPD1    N114146   1.213   2.146  10.217  0.5298  0.6036 -0.2699
    3MPD1    H614147   1.173   2.112  10.130 -1.0819  0.3644  0.5623
    3MPD1    H714148   1.206   2.248  10.221  1.3007  0.6154  0.8688
    4MPD2     C14149   1.041   2.574  12.340 -0.4214 -0.2298 -0.5094
    4MPD2    C114150   1.145   2.491  12.376  0.4940  0.0468 -0.1066
    4MPD2    C214151   1.136   2.361  12.343  0.2580 -0.3400 -0.3420
    4MPD2    C314152   1.038   2.310  12.262 -0.0544  0.0353  0.7403
    4MPD2    C414153   0.941   2.399  12.212 -0.5631  0.5787  0.4110
    4MPD2    C514154   0.938   2.531  12.258  0.0545 -0.7323  0.3646
    4MPD2     H14155   1.212   2.290  12.372 -0.0239 -0.6950 -0.4700
    4MPD2    H114156   0.869   2.361  12.141  0.9861 -1.7500  0.1106
    4MPD2    H214157   1.051   2.680  12.361  0.8075  0.2174 -3.3745
    4MPD2    H314158   0.858   2.601  12.238  1.4610  0.2073 -1.9473
    4MPD2     N14159   1.043   2.177  12.206  0.6256  0.5020 -0.3564
    4MPD2    H514160   0.967   2.157  12.142 -1.2628  1.5141  1.5488
    4MPD2    N114161   1.261   2.521  12.449  0.2300  0.0000 -0.2615
    4MPD2    H714162   1.320   2.441  12.469  1.0273  0.6327 -0.0760
    5TMC3    C114163   1.382   2.622  12.628  0.1586  0.4227  0.3552
    5TMC3    C214164   1.350   2.651  12.757 -0.0554 -0.0526  0.2295
    5TMC3    C314165   1.401   2.580  12.860  0.2641 -0.2752  0.7676
    5TMC3    C414166   1.475   2.528  12.598 -0.1312 -0.6170 -0.0256
    5TMC3    C514167   1.505   2.445  12.700  0.6551 -0.1412 -0.5606
    5TMC3    C614168   1.474   2.466  12.834  0.5129  1.1257 -0.6343
    5TMC3     C14169   1.271   2.635  12.529  0.3340  0.7315  0.4569
    5TMC3     O14170   1.197   2.732  12.529  0.3571 -0.1303 -0.6574
    5TMC3     H14171   1.286   2.735  12.780 -0.0330 -0.4408  1.7345
    5TMC3    H114172   1.523   2.511  12.502  2.3433  0.8221  0.9407
    5TMC3    H214173   1.496   2.398  12.915 -1.2973 -0.1323 -1.2068
    5TMC3    C714174   1.496   2.323  12.640  0.2789  0.2644  1.0748
    5TMC3    C814175   1.400   2.641  12.992  0.1092 -0.4371  0.2726
    5TMC3    O114176   1.427   2.327  12.540 -0.3609  0.7563  0.1788
    5TMC3    O214177   1.319   2.725  13.023  0.0651 -0.0907  0.2507
    6TMC3    C114178   1.169   2.320  11.050  0.3053 -0.3000 -0.1865
    6TMC3    C214179   1.174   2.252  10.929 -0.6223 -0.4617  0.4595
    6TMC3    C314180   1.225   2.128  10.939 -0.1022 -0.0635  0.1189
    6TMC3    C414181   1.207   2.271  11.169  0.0430  0.4154  0.2315
    6TMC3    C514182   1.254   2.142  11.168 -0.4479  0.0515  0.2906
    6TMC3    C614183   1.274   2.073  11.056 -0.0265  0.0597  1.0855
    6TMC3     C14184   1.118   2.454  11.040 -0.1445 -0.4824  0.8579
    6TMC3     O14185   1.146   2.510  10.935 -0.3683 -0.2490 -0.4412
    6TMC3     H14186   1.144   2.303  10.838  1.0165 -1.5244 -0.6953
    6TMC3    H114187   1.212   2.327  11.262 -0.2130 -0.0662  0.5320
    6TMC3    H214188   1.286   1.965  11.050  0.5764  0.1776  0.1053
    6TMC3    C714189   1.281   2.091  11.297  0.1413  0.5220  0.5311
    6TMC3    C814190   1.231   2.044  10.819 -0.2383  0.3303 -0.1870
    6TMC3    O114191   1.226   2.142  11.394 -0.3786  0.2990  0.5715
    6TMC3    O214192   1.231   1.927  10.838 -0.3660  0.2947  0.9065
    7MPD2     C14193   1.645   1.864  12.489  0.1308  0.0377 -0.5395
    7MPD2    C114194   1.531   1.937  12.459  0.3198 -0.4803  0.1242
    7MPD2    C214195   1.504   2.051  12.531  0.3720 -0.4926 -0.1152
    7MPD2    C314196   1.593   2.103  12.618 -0.0747 -0.4883  0.4742
    7MPD2    C414197   1.711   2.032  12.652  0.3938  0.6092  0.5357
    7MPD2    C514198   1.732   1.917  12.582 -0.6254 -1.1123  0.2804
    7MPD2     H14199   1.412   2.100  12.502  1.4383  0.4047 -2.0464
    7MPD2    H114200   1.796   2.061  12.713  1.7514 -1.5671 -0.3050
    7MPD2    H214201   1.680   1.771  12.445 -1.8178 -1.0163  0.1241
    7MPD2    H314202   1.828   1.867  12.597 -0.6836 -1.0762  0.7532
    7MPD2     N14203   1.580   2.228  12.685 -0.6448 -0.1471 -0.6279
    7MPD2    H514204   1.639   2.240  12.767 -1.4907  0.3212 -0.1005
    7MPD2    N114205   1.428   1.912  12.365  0.3487  0.1685  0.1524
    7MPD2    H714206   1.349   1.975  12.361 -0.5089 -0.7582  2.5785
    8TMC3    C114207   1.320   1.824  12.179 -0.2307 -0.3037  0.4527
    8TMC3    C214208   1.345   1.845  12.046 -0.5926 -0.2815  0.1848
    8TMC3    C314209   1.270   1.931  11.972 -0.6847 -0.0420  0.3178
    8TMC3    C414210   1.209   1.884  12.230 -0.3420 -0.4275  0.1983
    8TMC3    C514211   1.137   1.970  12.159  0.0365  0.2696 -0.0016
    8TMC3    C614212   1.162   1.995  12.025  0.5887  0.0686  0.3134
    8TMC3     C14213   1.439   1.818  12.265  1.2263 -0.0972  0.5524
    8TMC3     O14214   1.536   1.753  12.243  0.6361  0.5810  0.4407
    8TMC3     H14215   1.438   1.801  12.011 -1.3395  0.1963 -2.4314
    8TMC3    H114216   1.174   1.849  12.326  1.8660 -1.7875  0.4919
    8TMC3    H214217   1.112   2.071  11.966 -1.4978 -1.8744 -0.4355
    8TMC3    C714218   1.129   2.079  12.245 -0.8952  0.6033 -1.0189
    8TMC3    C814219   1.287   1.931  11.824 -0.6415  0.4556 -0.1028
    8TMC3    O114220   1.207   2.072  12.339  0.0491  0.2104 -0.3845
    8TMC3    O214221   1.205   1.997  11.763 -0.8504  0.0765 -0.2618
    9MPD2     C14222   1.509   1.736  11.600 -1.0611  0.6693  0.1322
    9MPD2    C114223   1.421   1.842  11.636  0.2051  0.2987 -0.0142
    9MPD2    C214224   1.377   1.925  11.538 -0.2770 -0.8365  0.2110
    9MPD2    C314225   1.407   1.906  11.405 -0.0919  0.0531 -0.3203
    9MPD2    C414226   1.497   1.812  11.381  0.2637 -0.4983  1.2467
    9MPD2    C514227   1.549   1.730  11.473  0.2186  0.6491 -0.4273
    9MPD2     H14228   1.308   2.003  11.566  0.6558  0.3414 -0.7776
    9MPD2    H114229   1.517   1.775  11.281  1.0950 -3.3801  2.4895
    9MPD2    H214230   1.522   1.656  11.671  0.8556  0.6826 -0.1977
    9MPD2    H314231   1.599   1.641  11.436  1.1483 -0.0161  2.4157
    9MPD2     N14232   1.363   1.982  11.297  0.5383  0.5771 -0.1009
    9MPD2    H514233   1.413   1.962  11.211 -1.3749  1.8030 -1.4909
    9MPD2    N114234   1.381   1.848  11.773  0.0980  0.4869  0.8819
    9MPD2    H714235   1.435   1.795  11.842 -0.9070 -1.0686  0.4679
    1MPD1     C14236   0.360   1.095  17.140  0.1808 -0.0530 -0.8550
    1MPD1    C114237   0.334   0.972  17.084  0.4035  0.5492 -0.3456
    1MPD1    C214238   0.446   0.907  17.030 -0.2320  0.1288  0.1802
    1MPD1    C314239   0.573   0.967  17.029  0.2726 -0.3059 -0.5129
    1MPD1    C414240   0.581   1.094  17.070 -0.2458 -0.2329 -0.4889
    1MPD1    C514241   0.476   1.156  17.124 -0.5798  0.4958 -0.7846
    1MPD1     H14242   0.432   0.810  16.983  0.7254 -1.0196  2.2833
    1MPD1    H114243   0.670   1.157  17.069 -1.4594  1.5305  2.7865
    1MPD1    H214244   0.287   1.153  17.195  1.4146  0.6349  0.0338
    1MPD1    H314245   0.487   1.259  17.155 -0.3637  0.4426 -0.6843
    1MPD1     N14246   0.684   0.906  16.977 -0.7182 -0.3569 -0.2395
    1MPD1    H514247   0.762   0.965  16.949  1.6873 -3.8907 -0.9745
    1MPD1    N114248   0.204   0.913  17.097 -0.3352  0.2941 -0.0415
    1MPD1    H614249   0.123   0.974  17.109  0.4106  1.4194 -0.7012
    1MPD1    H714250   0.181   0.859  17.014  0.2294 -0.7198  0.4724
    2MPD1     C14251   1.170   0.012  16.944 -0.2985 -0.4302  0.0840
    2MPD1    C114252   1.092   0.071  17.047 -0.0617 -0.2390 -0.1352
    2MPD1    C214253   1.032   0.187  17.006 -0.5814  0.1777 -0.6898
    2MPD1    C314254   1.071   0.265  16.901  0.1929 -0.3734  0.2820
    2MPD1    C414255   1.163   0.212  16.807 -0.2885  0.1402 -0.2622
    2MPD1    C514256   1.220   0.088  16.834  0.4443 -0.3457  0.3242
    2MPD1     H14257   0.960   0.234  17.072 -1.0359  0.8835 -1.7050
    2MPD1    H114258   1.199   0.260  16.717  0.7186  0.8054  0.4914
    2MPD1    H214259   1.198   4.630  16.953  3.2407  0.5014  0.1831
    2MPD1    H314260   1.293   0.040  16.770 -0.9470  0.4312 -1.8707
    2MPD1     N14261   1.006   0.389  16.890 -0.0049 -0.4659 -0.0696
    2MPD1    H514262   0.936   0.418  16.958 -0.3314  0.3272 -0.7438
    2MPD1    N114263   1.042   0.001  17.152 -0.8132  0.2767 -0.1516
    2MPD1    H614264   1.101   4.646  17.180  1.7962  1.5251 -2.1050
    2MPD1    H714265   1.028   0.052  17.239 -0.0329  1.3510 -0.6471
    3TCq2    C114266   1.070   0.486  16.813 -0.2580 -0.4121 -0.2543
    3TCq2    O214267   1.165   0.478  16.736  0.0261  0.5145  0.0940
    3TCq2    C214268   0.994   0.609  16.805  0.3770 -0.0411  0.0216
    3TCq2    C314269   1.053   0.715  16.735  0.0771 -0.6548  0.2101
    3TCq2    C414270   0.985   0.836  16.720 -0.1020  0.0484  1.7465
    3TCq2    C514271   0.868   0.855  16.777  0.5235 -0.2041 -0.0027
    3TCq2    C614272   0.815   0.755  16.855 -0.1075  0.1198 -0.1538
    3TCq2    C714273   0.875   0.633  16.863 -0.0114  0.5232  0.5873
    3TCq2    C814274   0.699   0.777  16.938  0.4265 -0.1621  0.4090
    3TCq2    O414275   0.628   0.684  16.975  0.6230 -0.6703 -0.1484
    3TCq2    C914276   1.049   0.939  16.654 -0.1817 -0.3520 -0.1726
    3TCq2    O514277   1.144   0.909  16.576  0.2701  0.3642 -0.0555
    3TCq2    O614278   0.995   1.053  16.659  0.0815  0.2124 -0.1123
    3TCq2    H214279   1.156   0.703  16.704 -0.2250 -2.2894 -0.1927
    3TCq2    H314280   0.816   0.951  16.774  2.4388  0.8812  1.6484
    3TCq2    H414281   0.826   0.562  16.928 -3.0377  0.9603 -1.2299
    1TCq1    O114282   4.201   4.504  12.364  0.5247  0.4243  0.7558
    1TCq1    C114283   4.128   4.414  12.437 -0.1969  0.6483  0.2660
    1TCq1    O214284   4.034   4.364  12.376 -0.3267  0.1891 -0.6279
    1TCq1    C214285   4.113   4.483  12.563  0.3905 -0.3394 -0.6451
    1TCq1    C314286   3.989   4.500  12.611  0.2322  0.4612 -0.4274
    1TCq1    C414287   3.973   4.578  12.724  0.0088  0.1116 -0.7125
    1TCq1    C514288   4.082   4.650  12.776  0.0270 -0.3837  0.5417
    1TCq1    C614289   4.207   4.633  12.717  0.2276 -0.2821  0.5411
    1TCq1    C714290   4.223   4.540  12.617 -0.2037 -0.2988  0.5967
    1TCq1    C814291   4.317   0.008  12.736 -0.3993 -0.9087 -0.0107
    1TCq1    O414292   4.391   0.025  12.640 -0.0630  0.1919 -0.2371
    1TCq1    C914293   3.845   4.588  12.787  0.3162  0.0091 -0.2023
    1TCq1    O514294   3.758   4.500  12.757 -1.0410  0.1339 -0.4792
    1TCq1    O614295   3.822   4.680  12.875  0.2823 -0.2423  0.1637
    1TCq1    H114296   4.261   4.558  12.419  0.8602  1.2560 -0.4214
    1TCq1    H214297   3.904   4.451  12.564  1.1051 -0.6664 -0.8230
    1TCq1    H314298   4.070   0.006  12.850  0.9156  0.2644  0.0065
    1TCq1    H414299   4.320   4.507  12.583 -0.9422 -0.2457 -1.5704
    2MPD2     C14300   4.438   0.260  12.800 -0.2564  0.0497 -0.1617
    2MPD2    C114301   4.390   0.169  12.896 -0.7157 -0.4100 -0.5101
    2MPD2    C214302   4.419   0.190  13.030 -0.0967 -0.1884  0.2827
    2MPD2    C314303   4.488   0.303  13.074  0.4767  0.4266  0.0990
    2MPD2    C414304   4.532   0.389  12.981 -0.0887  0.7926 -0.1809
    2MPD2    C514305   4.510   0.365  12.844 -0.1801 -0.6325  0.4953
    2MPD2     H14306   4.387   0.117  13.104 -1.0637  1.7998  1.8054
    2MPD2    H114307   4.594   0.475  13.003  0.2827  0.2439  0.9539
    2MPD2    H214308   4.428   0.238  12.695  0.1422 -1.5176  0.1215
    2MPD2    H314309   4.543   0.434  12.768 -1.0444 -0.2912  0.4216
    2MPD2     N14310   4.530   0.311  13.207  0.1537  0.0865 -0.0560
    2MPD2    H514311   4.474   0.252  13.267  1.3868  0.4200  1.4154
    2MPD2    N114312   4.311   0.061  12.859 -0.6678 -0.3534  0.0712
    2MPD2    H714313   4.254   0.009  12.925 -1.6229 -1.2811 -1.4887
    3TCq1    O114314   0.015   0.581  13.803  0.1814 -0.0693 -0.0158
    3TCq1    C114315   4.690   0.609  13.681 -0.0234 -0.4887 -0.9828
    3TCq1    O214316   4.684   0.721  13.626  0.1116 -0.4365  0.1001
    3TCq1    C214317   4.706   0.484  13.600 -0.2272 -0.5328 -0.6630
    3TCq1    C314318   4.702   0.357  13.659  1.0252 -0.3516 -0.6415
    3TCq1    C414319   4.662   0.248  13.589  0.3053 -0.4143  0.5445
    3TCq1    C514320   4.631   0.264  13.459  0.7185  0.1633 -0.1032
    3TCq1    C614321   4.626   0.394  13.403  0.0285  0.1020  0.5645
    3TCq1    C714322   4.664   0.501  13.474  0.0418 -0.5504 -0.2447
    3TCq1    C814323   4.601   0.411  13.261  0.3344  0.2815  0.2756
    3TCq1    O414324   4.630   0.521  13.210  0.3983 -0.0449 -0.1368
    3TCq1    C914325   4.665   0.117  13.659 -0.0359 -0.1744  0.0279
    3TCq1    O514326   4.664   0.124  13.783  0.2735 -0.0697 -0.0382
    3TCq1    O614327   4.691   0.013  13.592 -0.0742 -0.0267  0.4392
    3TCq1    H114328   0.018   0.485  13.818  0.3176 -0.0080  0.3427
    3TCq1    H214329   0.003   0.344  13.764 -2.2553  1.5438  0.3193
    3TCq1    H314330   4.609   0.175  13.403 -0.3857 -0.5060  1.3789
    3TCq1    H414331   4.658   0.599  13.427 -0.9462  0.2075  1.4259
    1MPD2     C14332   3.350   1.196  15.106  0.4512  0.5322 -0.0194
    1MPD2    C114333   3.387   1.226  14.977  0.2698 -0.4787  0.4998
    1MPD2    C214334   3.497   1.175  14.917  0.1808 -0.3536 -0.7119
    1MPD2    C314335   3.575   1.080  14.977  0.8911 -0.1555  0.7378
    1MPD2    C414336   3.543   1.051  15.107  0.6548 -0.0130  0.6799
    1MPD2    C514337   3.440   1.114  15.171 -0.0008 -0.0155  0.6916
    1MPD2     H14338   3.529   1.211  14.820 -0.0945  0.7535 -0.3896
    1MPD2    H114339   3.608   0.991  15.169  2.0914 -1.3122 -2.0966
    1MPD2    H214340   3.267   1.248  15.154 -0.9877 -1.5062 -0.2970
    1MPD2    H314341   3.432   1.094  15.278 -0.9172 -1.4418  0.3623
    1MPD2     N14342   3.682   1.012  14.901  0.1887  0.3845  0.2927
    1MPD2    H514343   3.725   0.937  14.954  1.4524  0.1210 -1.0919
    1MPD2    N114344   3.304   1.330  14.914  0.1198 -0.1624 -0.4460
    1MPD2    H714345   3.221   1.364  14.962 -0.4069  0.0799 -1.5287
    2TMC3    C114346   3.211   1.425  14.717  0.6820 -0.2389  0.0067
    2TMC3    C214347   3.113   1.333  14.699  0.3348  0.0785 -0.9759
    2TMC3    C314348   3.058   1.320  14.577 -0.7386  0.0280 -0.0003
    2TMC3    C414349   3.241   1.505  14.618  0.4388 -0.2286 -0.3820
    2TMC3    C514350   3.180   1.502  14.497  0.4723 -0.1407  0.2293
    2TMC3    C614351   3.096   1.402  14.474  0.3437  0.3476  0.2614
    2TMC3     C14352   3.328   1.377  14.780 -0.6801 -0.5376 -0.8092
    2TMC3     O14353   3.429   1.366  14.708  0.0911 -0.0859 -0.5286
    2TMC3     H14354   3.096   1.258  14.775 -0.4295  0.1314 -1.0921
    2TMC3    H114355   3.315   1.582  14.635  0.4600 -0.3873  0.2169
    2TMC3    H214356   3.081   1.374  14.370 -0.4286  0.2864  0.3863
    2TMC3    C714357   3.235   1.570  14.380 -0.5267  0.0335  1.3150
    2TMC3    C814358   3.088   1.189  14.534 -0.5522 -0.0217 -0.0036
    2TMC3    O114359   3.155   1.579  14.289  0.3801 -0.2798  0.4929
    2TMC3    O214360   3.186   1.175  14.462 -0.3601  0.2172  0.2864
    3TCq1    O114361   4.313   2.120  14.199 -0.0932  0.2829 -0.1937
    3TCq1    C114362   4.319   2.070  14.322 -0.4015 -0.3539 -0.7361
    3TCq1    O214363   4.418   2.087  14.399 -0.0705 -0.2111 -0.6648
    3TCq1    C214364   4.218   1.963  14.333 -0.1695 -0.3345 -0.0105
    3TCq1    C314365   4.248   1.855  14.411  0.5176 -0.3040  0.2819
    3TCq1    C414366   4.153   1.755  14.432 -0.2938 -0.0720  0.3729
    3TCq1    C514367   4.041   1.755  14.352 -0.0410 -0.0910 -0.3856
    3TCq1    C614368   4.015   1.860  14.270  0.1008 -0.1217  0.3472
    3TCq1    C714369   4.094   1.970  14.263  0.5030  0.2432  0.2289
    3TCq1    C814370   3.881   1.865  14.210  0.1579 -0.0514 -0.3607
    3TCq1    O414371   3.865   1.951  14.121  0.3264 -0.7980 -0.4060
    3TCq1    C914372   4.157   1.668  14.547 -0.0645 -0.4377 -0.0273
    3TCq1    O514373   4.057   1.594  14.557 -0.1085  0.1937 -0.3432
    3TCq1    O614374   4.238   1.715  14.629  0.3335 -0.4092  0.5135
    3TCq1    H114375   4.260   2.066  14.137  1.7987 -2.9266  0.9942
    3TCq1    H214376   4.346   1.847  14.455  0.4745 -0.8045  0.2868
    3TCq1    H314377   3.988   1.661  14.346 -0.2962  0.0301 -0.0546
    3TCq1    H414378   4.068   2.066  14.221 -1.5942 -0.6615 -0.4804
    4MPD2     C14379   3.606   1.794  14.116 -0.5037  0.5837  0.2222
    4MPD2    C114380   3.661   1.747  14.231  0.4487 -0.0733 -0.1252
    4MPD2    C214381   3.582   1.677  14.321 -0.4701 -0.6362  0.3919
    4MPD2    C314382   3.445   1.659  14.303 -0.1496 -0.2878 -0.1063
    4MPD2    C414383   3.403   1.698  14.177  0.2969  0.4794  0.1425
    4MPD2    C514384   3.480   1.774  14.095  0.0947  0.4734  0.1448
    4MPD2     H14385   3.616   1.642  14.417  2.6709 -1.1642 -0.9164
    4MPD2    H114386   3.304   1.679  14.137  0.5026  1.5945 -0.9188
    4MPD2    H214387   3.662   1.854  14.045 -0.2406  0.6151  0.4558
    4MPD2    H314388   3.431   1.809  14.005 -0.3657  2.2993  1.1058
    4MPD2     N14389   3.365   1.600  14.398 -0.2770  0.0413  0.2630
    4MPD2    H514390   3.402   1.575  14.489 -0.7319 -0.7185  0.2380
    4MPD2    N114391   3.797   1.777  14.271  0.5769  0.3728  0.5868
    4MPD2    H714392   3.830   1.731  14.355  0.5448  1.8157  1.3762
    5TMC2    C114393   3.565   0.787  14.589 -0.0364  0.0968  0.1143
    5TMC2    C214394   3.596   0.677  14.662  0.0544  0.4001 -0.2941
    5TMC2    C314395   3.689   0.693  14.761 -0.4988 -0.2602  0.8499
    5TMC2    C414396   3.642   0.898  14.602  0.0741 -0.0814 -0.9375
    5TMC2    C514397   3.736   0.914  14.700 -0.4841  0.0241  0.9556
    5TMC2    C614398   3.764   0.807  14.775 -0.3595  0.5453  0.9391
    5TMC2     C14399   3.437   0.818  14.550  0.1224  0.2829  0.2133
    5TMC2     O14400   3.420   0.913  14.469  0.6639  0.3659  0.0074
    5TMC2     H14401   3.540   0.585  14.657 -0.2552  0.5124  1.0525
    5TMC2    H114402   3.603   0.991  14.563  3.2557  1.3536 -0.6795
    5TMC2    H214403   3.835   0.815  14.856 -1.1003 -1.4032  1.7811
    5TMC2    C714404   3.723   1.036  14.774 -0.1651  0.0176 -0.0023
    5TMC2    C814405   3.757   0.575  14.803  0.2325 -0.4241 -0.4442
    5TMC2    O114406   3.698   1.134  14.708 -0.7223  1.3584  0.4470
    5TMC2    O214407   3.733   0.463  14.750 -0.2332 -0.0648 -0.1438
    5TMC2    O514408   3.791   0.587  14.932 -0.1544  0.3589  0.5331
    5TMC2    H514409   3.787   0.677  14.969 -1.2782 -0.2591  1.9264
    6MPD2     C14410   2.949   0.874  14.640  0.2802 -0.7606 -0.0919
    6MPD2    C114411   3.044   0.963  14.618 -0.3264 -0.2121  0.3335
    6MPD2    C214412   3.167   0.925  14.613  1.3561 -0.3709 -0.2702
    6MPD2    C314413   3.202   0.794  14.611 -0.6010 -0.9560  0.5734
    6MPD2    C414414   3.102   0.698  14.637 -0.1792 -0.1207 -0.0693
    6MPD2    C514415   2.973   0.742  14.644  0.2240  0.0563  0.1175
    6MPD2     H14416   3.237   1.007  14.603  0.4585  0.3448 -0.7414
    6MPD2    H114417   3.125   0.592  14.644  2.8456  0.6816  2.1676
    6MPD2    H214418   2.848   0.909  14.660  0.0151 -1.1274 -0.7813
    6MPD2    H314419   2.894   0.668  14.650 -0.4221  0.6423 -1.0723
    6MPD2     N14420   3.333   0.745  14.605  0.3247 -0.1273 -0.0336
    6MPD2    H514421   3.347   0.648  14.630  0.9931 -0.1381 -0.4495
    6MPD2    N114422   3.012   1.102  14.607 -0.7757 -0.9743  0.1063
    6MPD2    H714423   2.926   1.138  14.647 -1.3750 -1.8369 -0.3995
  945NH3     N114424   4.556   1.154  17.620  0.2891 -0.4112 -0.4330
  945NH3     H214425   4.593   1.078  17.675 -0.0922  0.2498  0.7226
  945NH3     H314426   4.516   1.222  17.684  1.1356 -0.7446  0.4382
  945NH3     H414427   4.475   1.109  17.579 -0.3564  0.6197 -0.3112
  946SOD     NA14428   3.317   1.035  14.312 -0.0106  0.4487 -0.0263
  947SOD     NA14429   0.650   0.746  12.283 -0.1786 -0.0361 -0.1397
  948SOD     NA14430   3.344   2.147   1.207  0.0712 -0.0995 -0.1477
  949SOD     NA14431   4.205   0.114  10.218  0.2262  0.1423 -0.2813
  950SOD     NA14432   2.755   0.763  10.254  0.3749 -0.1060 -0.5550
  951SOD     NA14433   0.727   0.980  16.096 -0.2039  0.1394  0.0353
  952SOD     NA14434   4.258   3.926  10.341 -0.3880  0.1199  0.1657
  953SOD     NA14435   2.098   2.292  10.100 -0.1872  0.2045 -0.2041
  954SOD     NA14436   1.313   0.947  16.247  0.1298  0.2169 -0.2553
  955SOD     NA14437   0.477   4.589  14.446 -0.1465  0.5216 -0.3351
  956SOD     NA14438   4.355   4.258   0.184 -0.1245 -0.5080  0.4056
  957SOD     NA14439   0.752   4.329   3.987 -0.2731 -0.5614  0.0536
  958SOD     NA14440   3.353   2.121   5.499 -0.1967 -0.1778 -0.0624
  959SOD     NA14441   3.415   4.271  14.416 -0.2510  0.2049  0.3866
  960SOD     NA14442   4.048   1.665   5.174 -0.1297  0.1294  0.2299
  961SOD     NA14443   3.126   3.106  11.623  0.0727 -0.3136  0.2755
  962SOD     NA14444   3.125   2.591   9.105 -0.3350 -0.0918  0.5328
  963SOD     NA14445   3.030   0.835  10.556 -0.2760  0.3891  0.5841
  964SOD     NA14446   3.391   3.473   8.930 -0.0130 -0.1316  0.0311
  965SOD     NA14447   2.295   0.062   1.562 -0.3926  0.3416 -0.6907
  966SOD     NA14448   4.703   4.615  13.769  0.1854  0.4280 -0.3091
  967SOD     NA14449   2.138   2.859   0.350 -0.7353 -0.4578 -0.0454
  968SOD     NA14450   3.320   2.700  14.626 -0.6540 -0.4874  0.0408
  969SOD     NA14451   0.574   4.162  17.583  0.7391 -0.0551 -0.3403
  970SOD     NA14452   3.446   3.772  10.180 -0.1184  0.0532  0.1290
  971SOD     NA14453   0.550   1.685  15.296 -0.0051 -0.4288 -0.3037
  972SOD     NA14454   3.695   4.296  12.757 -0.0520  0.3262 -0.3069
  973SOD     NA14455   0.649   0.266   2.866  0.6841  0.1921  0.0469
  974SOD     NA14456   3.652   4.571  12.950 -0.1877 -0.0481  0.5909
  975SOD     NA14457   4.505   3.516  17.518 -0.0072  0.2282  0.3741
  976SOD     NA14458   0.769   0.988  12.425  0.3333  0.1532  0.2723
  977SOD     NA14459   3.129   1.661   1.905  0.0301  0.3263  0.1447
  978SOD     NA14460   0.678   2.432  16.756  0.2186  0.1449 -0.2238
  979SOD     NA14461   1.931   3.856  12.683  0.2577  0.1490  0.2252
  980SOD     NA14462   0.266   4.673  14.053  0.7613  0.2442 -0.0769
  981SOD     NA14463   3.381   3.527  10.276 -0.1590  0.2199 -0.2086
  982SOD     NA14464   0.480   4.640   0.566 -0.3228  0.3364 -0.0075
  983SOD     NA14465   1.467   0.508  13.079  0.0940  0.0079  0.4095
  984SOD     NA14466   2.153   2.424   9.314 -0.1072 -0.3198  0.2262
  985SOD     NA14467   3.067   2.994  10.177  0.4115  0.0047  0.1418
  986SOD     NA14468   1.016   2.395   1.328 -0.0294 -0.2911  0.5201
  987SOD     NA14469   4.368   0.365  10.168  0.4868 -0.2309 -0.1572
  988SOD     NA14470   3.739   4.224   9.335  0.0690 -0.5957 -0.4719
  989SOD     NA14471   1.532   1.160   5.261 -0.4594  0.2345 -0.1282
  990SOD     NA14472   4.103   1.565   9.463  0.1386  0.1725 -0.4492
  991SOD     NA14473   1.517   3.572  14.540 -0.5556  0.7272 -0.2880
  992SOD     NA14474   3.811   1.237  14.525 -0.5006  0.7603 -0.1855
  993SOD     NA14475   4.350   3.601  10.852 -0.3979 -0.0752  0.2293
  994SOD     NA14476   1.464   1.560  13.398 -0.1266 -0.1170  0.0258
  995SOD     NA14477   3.596   0.800  15.374  0.3844  0.0303  0.0340
  996SOD     NA14478   1.296   2.148   3.058 -0.3938 -0.2301 -0.4043
  997SOD     NA14479   0.403   4.321   1.996  0.3426  0.7319 -0.4689
  998SOD     NA14480   2.787   2.691   0.957  0.2673 -0.2291 -0.3219
  999SOD     NA14481   3.421   3.721   4.007  0.3898 -1.1065 -0.3008
 1000SOD     NA14482   2.894   4.111  15.322 -0.2501 -0.0873  0.3090
 1001SOD     NA14483   4.627   3.408  12.582  0.4722 -0.0942  0.2393
 1002SOD     NA14484   4.247   4.587  11.815 -0.3862 -0.4400  0.0008
 1003SOD     NA14485   3.799   3.881   9.861  0.0689  0.0486  0.1104
 1004SOD     NA14486   0.785   1.286  12.434  0.0647  0.2106 -0.0620
 1005SOD     NA14487   0.586   0.209  14.420  0.1940 -0.6992  0.5468
 1006SOD     NA14488   2.053   1.706   1.621  0.0585  0.0069 -0.3499
 1007SOD     NA14489   0.783   2.115  11.670  0.0897 -0.0029  0.5436
 1008SOD     NA14490   0.686   3.237  13.417 -0.4755 -0.1532 -1.0188
 1009SOD     NA14491   3.267   2.175   7.619 -0.0689 -0.0542  0.1431
 1010SOD     NA14492   3.730   4.681   0.151 -0.1115 -0.3718  0.6394
 1011SOD     NA14493   0.155   4.409  10.505  0.5422  0.3825 -0.1542
 1012SOL     OW14494   0.855   2.855  10.584 -0.6315  0.5097 -0.5441
 1012SOL    HW114495   0.904   2.938  10.586 -2.4117  1.5681 -1.0105
 1012SOL    HW214496   0.792   2.864  10.656 -1.0662 -0.4477 -0.8101
 1013SOL     OW14497   2.242   3.397   3.408 -0.1385 -0.0481 -0.4227
 1013SOL    HW114498   2.302   3.445   3.351  1.3425 -1.5280 -0.1284
 1013SOL    HW214499   2.186   3.343   3.353  0.2220 -0.1639 -0.6737
 1014SOL     OW14500   3.603   4.632   0.348 -0.0555  0.3392  0.1976
 1014SOL    HW114501   3.590   4.575   0.424 -2.1015  1.5328  0.7354
 1014SOL    HW214502   3.516   4.666   0.326 -0.2559 -1.8041 -2.2635
 1015SOL     OW14503   3.776   3.650   0.017 -0.3466  0.3403 -0.5588
 1015SOL    HW114504   3.753   3.558   0.012 -2.4589  0.7226  2.1086
 1015SOL    HW214505   3.700   3.684  17.661 -0.7379 -0.4859 -0.5126
 1016SOL     OW14506   3.068   0.487   6.496 -1.1022  0.5147  0.4390
 1016SOL    HW114507   2.973   0.498   6.488 -1.1149  0.6545  0.7968
 1016SOL    HW214508   3.069   0.409   6.552  3.3718 -0.7182 -1.4086
 1017SOL     OW14509   4.369   1.790   5.968  0.0083  0.1193  0.5102
 1017SOL    HW114510   4.439   1.813   5.908  0.7690 -0.4867  1.1589
 1017SOL    HW214511   4.365   1.871   6.019  2.0477  1.0138 -0.7632
 1018SOL     OW14512   4.337   0.907   1.619 -0.6242 -0.7655 -0.2511
 1018SOL    HW114513   4.377   0.840   1.674 -1.4536 -0.0418  1.2541
 1018SOL    HW214514   4.315   0.981   1.677  2.3273 -0.3756  0.3475
 1019SOL     OW14515   3.866   1.244   2.342  0.3431  0.3339  0.1374
 1019SOL    HW114516   3.939   1.196   2.381 -0.5638 -1.1501  0.0492
 1019SOL    HW214517   3.869   1.336   2.367 -0.0339 -0.0991  1.7497
 1020SOL     OW14518   3.061   3.524   2.455 -0.1163  0.2957 -0.2631
 1020SOL    HW114519   3.133   3.513   2.393  0.8185  1.2808  0.6578
 1020SOL    HW214520   3.084   3.600   2.508 -1.1074  0.8910 -0.6740
 1021SOL     OW14521   4.690   4.688   4.514 -0.1144 -0.2944  0.5363
 1021SOL    HW114522   4.665   0.027   4.445  0.1527 -1.0127 -0.1914
 1021SOL    HW214523   4.620   4.624   4.513  1.3767 -1.8886 -1.2784
 1022SOL     OW14524   1.173   3.073  16.999  0.2951  0.1942  0.0973
 1022SOL    HW114525   1.135   3.086  16.912  0.2403 -0.2062  0.0615
 1022SOL    HW214526   1.110   3.123  17.050  1.6300  0.1739  1.7738
 1023SOL     OW14527   1.758   4.496   7.384 -0.0780 -0.0577 -0.6567
 1023SOL    HW114528   1.829   4.432   7.389 -0.7930 -0.9945 -2.1183
 1023SOL    HW214529   1.687   4.433   7.397  0.0133  0.2934  1.4645
 1024SOL     OW14530   0.978   1.002  14.099  0.4841 -0.4643  0.3262
 1024SOL    HW114531   1.033   1.044  14.165  2.4908 -1.4012 -0.7667
 1024SOL    HW214532   0.914   0.967  14.161 -0.7707 -0.0919 -0.7642
 1025SOL     OW14533   3.148   4.143   5.107  0.0643  0.3305 -0.6586
 1025SOL    HW114534   3.192   4.137   5.022  1.3607 -4.3093  0.3752
 1025SOL    HW214535   3.185   4.060   5.138 -0.3597  0.0633 -0.8750
 1026SOL     OW14536   0.606   2.021   6.275 -0.3554 -0.3226  0.0882
 1026SOL    HW114537   0.604   2.004   6.369  1.2567 -1.0509 -0.0075
 1026SOL    HW214538   0.693   1.992   6.248 -1.8674 -3.4446 -1.5011
 1027SOL     OW14539   1.551   3.480   1.557  0.1991  0.0742  0.0227
 1027SOL    HW114540   1.459   3.459   1.538 -0.1834  1.9411 -0.1204
 1027SOL    HW214541   1.582   3.502   1.469  1.2976 -0.4353  0.2790
 1028SOL     OW14542   0.265   1.331  13.853 -0.0594  0.2352 -0.5480
 1028SOL    HW114543   0.192   1.343  13.793  0.3177  0.0434 -1.0511
 1028SOL    HW214544   0.275   1.235  13.851  0.9870  0.3196  0.5033
 1029SOL     OW14545   4.189   2.758   6.907 -0.1952  0.6019  0.4939
 1029SOL    HW114546   4.183   2.815   6.831  0.7625  1.9456  1.4361
 1029SOL    HW214547   4.279   2.727   6.896 -0.6535 -0.2341 -0.9006
 1030SOL     OW14548   1.022   0.867   9.091  0.1980  0.0519  0.7755
 1030SOL    HW114549   0.993   0.869   8.999 -0.6018  0.1494  1.0296
 1030SOL    HW214550   0.957   0.811   9.133 -0.9134  0.5473 -0.2447
 1031SOL     OW14551   3.485   3.758   1.889  0.2272  0.0470 -0.1019
 1031SOL    HW114552   3.392   3.754   1.865  0.1135  0.9569  0.1652
 1031SOL    HW214553   3.508   3.671   1.857 -3.7440 -0.5272 -1.4641
 1032SOL     OW14554   2.987   4.568   1.455 -0.3776  0.4754 -0.1651
 1032SOL    HW114555   3.066   4.526   1.423  1.2413  2.9911  0.5174
 1032SOL    HW214556   3.018   4.658   1.439  0.2045  0.2270 -0.4429
 1033SOL     OW14557   2.622   0.682  15.096 -0.1039  0.1770  0.0230
 1033SOL    HW114558   2.542   0.632  15.108  1.6436 -2.9635 -1.4344
 1033SOL    HW214559   2.674   0.640  15.028  1.3557 -0.8183  1.7392
 1034SOL     OW14560   0.110   4.353  16.665  0.1702 -0.5749  0.0036
 1034SOL    HW114561   0.201   4.347  16.635 -0.5719  0.3712 -2.4449
 1034SOL    HW214562   0.095   4.281  16.726 -3.2169  1.3114  1.4237
 1035SOL     OW14563   1.560   1.127   8.359 -0.0542  0.1382  0.1813
 1035SOL    HW114564   1.490   1.062   8.354  1.1945 -0.9733 -2.4877
 1035SOL    HW214565   1.501   1.201   8.376 -0.1935  0.4840 -1.8518
 1036SOL     OW14566   1.827   2.637   7.681 -0.3007 -0.3997  0.1938
 1036SOL    HW114567   1.855   2.728   7.681 -0.0563 -0.4781  1.7426
 1036SOL    HW214568   1.790   2.630   7.769 -1.4524 -0.3026 -0.2727
 1037SOL     OW14569   0.634   1.702   6.298  0.3275 -0.1923 -0.2647
 1037SOL    HW114570   0.689   1.755   6.241  0.1839 -1.3828 -1.4901
 1037SOL    HW214571   0.545   1.705   6.263 -0.4159  0.1675  1.6337
 1038SOL     OW14572   3.166   1.144   6.353 -0.4845  0.1888 -0.2810
 1038SOL    HW114573   3.139   1.106   6.436 -1.6751 -1.4093 -1.4040
 1038SOL    HW214574   3.120   1.086   6.292  0.6510 -1.2417  0.2345
 1039SOL     OW14575   3.089   2.723  11.012 -0.3930 -0.3548 -0.4382
 1039SOL    HW114576   3.035   2.700  10.936  3.0768 -0.1177 -2.9908
 1039SOL    HW214577   3.146   2.779  10.959 -0.2233  0.1273  0.2504
 1040SOL     OW14578   3.565   3.854   2.655  0.6448 -0.1480  0.4220
 1040SOL    HW114579   3.524   3.816   2.733 -2.4750  3.2393  0.4692
 1040SOL    HW214580   3.505   3.929   2.652 -0.0597 -0.7769 -1.1295
 1041SOL     OW14581   2.713   0.383   4.272 -0.0520  0.3068  0.2615
 1041SOL    HW114582   2.625   0.422   4.268  0.3046  0.8484 -2.3391
 1041SOL    HW214583   2.750   0.443   4.336 -0.4488  0.9876 -0.1457
 1042SOL     OW14584   3.931   4.568  13.937  0.5245 -0.1746  0.3178
 1042SOL    HW114585   3.933   4.487  13.886 -1.5198 -0.4428  0.6627
 1042SOL    HW214586   3.859   4.615  13.895  1.0171 -1.1590 -1.6342
 1043SOL     OW14587   4.164   2.063   6.003 -0.1398  0.2904 -0.5235
 1043SOL    HW114588   4.246   2.112   6.002  0.1862 -0.2351  0.1648
 1043SOL    HW214589   4.140   2.064   5.911  1.2522  1.0972 -0.8647
 1044SOL     OW14590   2.561   3.440   8.796  0.7046 -0.6854  0.0652
 1044SOL    HW114591   2.478   3.481   8.817 -0.3183 -1.7437 -1.8537
 1044SOL    HW214592   2.538   3.410   8.708  0.8621 -1.5802  0.3280
 1045SOL     OW14593   1.169   3.176  10.343 -0.2989 -0.0744 -0.5773
 1045SOL    HW114594   1.147   3.130  10.262 -1.0820  0.1459 -0.4893
 1045SOL    HW214595   1.087   3.173  10.393 -0.9755  0.3803 -1.6479
 1046SOL     OW14596   0.288   2.514   4.187 -0.1073 -0.5647 -0.2884
 1046SOL    HW114597   0.272   2.482   4.276  0.5614  0.0569  0.0528
 1046SOL    HW214598   0.281   2.439   4.127 -0.7830 -1.4094  0.8351
 1047SOL     OW14599   0.443   0.251   0.232 -0.2128  0.7865 -0.1372
 1047SOL    HW114600   0.470   0.180   0.174  0.1604  1.5439 -0.8947
 1047SOL    HW214601   0.523   0.298   0.254 -0.2607  0.3773  0.8825
 1048SOL     OW14602   1.674   1.737   3.189 -0.4254  0.5659 -0.1316
 1048SOL    HW114603   1.679   1.833   3.191 -1.6338  0.6179  0.6124
 1048SOL    HW214604   1.641   1.715   3.102 -1.8203  0.1522  0.5077
 1049SOL     OW14605   2.250   0.236   2.179 -0.1671  0.3075 -0.5168
 1049SOL    HW114606   2.310   0.202   2.245  0.6148 -0.8222 -1.7972
 1049SOL    HW214607   2.253   0.327   2.207  2.6664 -0.5470  1.9768
 1050SOL     OW14608   4.414   2.954   3.964  0.0770  0.2251  0.1742
 1050SOL    HW114609   4.478   2.886   3.988 -0.8648 -0.4577  0.7725
 1050SOL    HW214610   4.333   2.911   3.991  0.4893  0.5255  1.8767
 1051SOL     OW14611   1.689   2.995   2.210 -0.3984  0.4807 -0.3310
 1051SOL    HW114612   1.689   2.900   2.223 -0.0817  0.5048 -0.1465
 1051SOL    HW214613   1.607   3.002   2.260 -0.4894 -0.7029 -0.3314
 1052SOL     OW14614   1.929   0.557  16.153 -0.0476 -0.0077 -0.2895
 1052SOL    HW114615   1.861   0.524  16.095  0.0446 -0.7877  0.0437
 1052SOL    HW214616   2.002   0.524  16.102 -0.8310  0.4488 -1.6926
 1053SOL     OW14617   2.129   3.785   3.735  0.2002  0.3333  0.3962
 1053SOL    HW114618   2.060   3.763   3.672  1.3152  0.6142 -0.9039
 1053SOL    HW214619   2.206   3.729   3.725 -0.0921 -0.1974  1.0572
 1054SOL     OW14620   2.944   1.357  10.686  0.1730  0.1044 -0.0008
 1054SOL    HW114621   2.891   1.384  10.761 -0.4103 -0.4579 -0.2049
 1054SOL    HW214622   3.003   1.430  10.674  0.1442 -0.1361 -1.6542
 1055SOL     OW14623   1.067   3.004   5.161 -0.3323  0.0393 -0.6292
 1055SOL    HW114624   1.109   3.088   5.143  0.3850 -0.2063 -0.1041
 1055SOL    HW214625   1.005   3.036   5.226  0.1418  0.6617 -0.4808
 1056SOL     OW14626   1.798   2.833   6.246 -0.0681 -0.0827 -0.6853
 1056SOL    HW114627   1.856   2.759   6.261 -2.5284 -2.4187 -2.6001
 1056SOL    HW214628   1.846   2.882   6.179 -2.1869  0.8088 -1.5562
 1057SOL     OW14629   2.333   0.353   9.738 -0.1767  0.0851 -0.5433
 1057SOL    HW114630   2.388   0.276   9.729  0.4201  0.4290  0.1799
 1057SOL    HW214631   2.350   0.380   9.828  1.2735  1.1432 -1.1315
 1058SOL     OW14632   3.197   0.376   0.417 -0.4457  0.1737  0.5943
 1058SOL    HW114633   3.156   0.447   0.466 -1.2344  1.6119 -2.1114
 1058SOL    HW214634   3.233   0.426   0.343 -2.2905  0.1189 -0.3417
 1059SOL     OW14635   0.072   1.875   8.438 -0.1633 -0.1792  0.5419
 1059SOL    HW114636   0.150   1.892   8.492  0.4386 -1.5516  0.0894
 1059SOL    HW214637   0.011   1.924   8.493  0.9660  1.8927 -0.0050
 1060SOL     OW14638   3.264   2.111   0.560 -0.2068 -0.1495  0.3079
 1060SOL    HW114639   3.349   2.080   0.530  0.1511  0.4881  0.6703
 1060SOL    HW214640   3.233   2.175   0.496  0.4943  0.3496  0.4725
 1061SOL     OW14641   1.766   0.846   3.452  0.5154 -0.0217 -0.3172
 1061SOL    HW114642   1.800   0.928   3.488  1.0565 -1.1616  1.7715
 1061SOL    HW214643   1.843   0.794   3.431 -0.0738 -1.2602  0.5690
 1062SOL     OW14644   2.334   1.827   6.303  0.4731 -0.2484 -0.2518
 1062SOL    HW114645   2.385   1.815   6.383  0.8387 -1.1161 -0.6176
 1062SOL    HW214646   2.312   1.737   6.278  2.2620 -0.8560  0.3280
 1063SOL     OW14647   1.292   4.030   2.226 -0.2902  0.0444 -0.5037
 1063SOL    HW114648   1.332   4.013   2.141 -0.4827  1.3085 -0.8478
 1063SOL    HW214649   1.261   4.119   2.212  0.9145  0.2614 -1.7478
 1064SOL     OW14650   0.445   4.692   8.050  0.2080 -0.2363  0.1968
 1064SOL    HW114651   0.496   0.038   8.006 -0.8004 -0.3986 -1.1980
 1064SOL    HW214652   0.483   4.609   8.021 -1.3346 -1.1370  0.7810
 1065SOL     OW14653   4.477   2.508   5.191 -0.0942  0.3857 -0.0203
 1065SOL    HW114654   4.511   2.513   5.102 -1.7511 -1.4981 -0.7554
 1065SOL    HW214655   4.466   2.596   5.227 -0.4799  0.3798 -0.1288
 1066SOL     OW14656   4.720   0.814   4.569 -0.4090 -0.3468 -0.3274
 1066SOL    HW114657   4.716   0.718   4.575  1.4509 -0.3146  1.6458
 1066SOL    HW214658   0.047   0.841   4.646  0.0213 -1.5010 -0.1953
 1067SOL     OW14659   2.758   3.853  10.904 -0.4555  0.7748 -0.0273
 1067SOL    HW114660   2.839   3.893  10.936 -1.3997  1.3350  1.7192
 1067SOL    HW214661   2.709   3.924  10.862 -0.5808  0.2861 -0.6977
 1068SOL     OW14662   0.487   2.959   7.883  0.4503  0.0596 -0.6946
 1068SOL    HW114663   0.465   2.914   7.965 -0.3597  0.0667 -0.9087
 1068SOL    HW214664   0.499   2.874   7.839 -3.8189 -1.2009  0.5817
 1069SOL     OW14665   3.867   3.874   1.049 -0.1165 -0.2581 -0.1743
 1069SOL    HW114666   3.899   3.838   0.966 -4.1249 -1.8673 -0.9790
 1069SOL    HW214667   3.784   3.913   1.023  0.8927  2.2354  0.3537
 1070SOL     OW14668   0.141   2.317   7.210  0.0710 -0.0696 -0.1523
 1070SOL    HW114669   0.077   2.315   7.280 -0.7639  0.9292 -0.8820
 1070SOL    HW214670   0.210   2.374   7.242  0.8573  0.1841 -2.2521
 1071SOL     OW14671   0.322   1.910   3.726 -0.3441 -0.1503  0.2624
 1071SOL    HW114672   0.362   1.824   3.736  2.2734  1.1144  0.6108
 1071SOL    HW214673   0.340   1.918   3.633 -0.1627  0.5875  0.3665
 1072SOL     OW14674   3.019   0.276   3.353  0.0474  0.0923  0.5646
 1072SOL    HW114675   3.074   0.238   3.421  0.5295 -2.7404 -1.4343
 1072SOL    HW214676   3.019   0.371   3.368 -1.1026  0.2198 -0.2796
 1073SOL     OW14677   0.057   4.303   1.296  0.0620 -0.4973  0.3738
 1073SOL    HW114678   4.702   4.327   1.346 -0.6162 -1.5741 -0.1411
 1073SOL    HW214679   0.080   4.384   1.252  1.3193 -0.3592  1.3139
 1074SOL     OW14680   2.434   2.985   1.338  0.1255 -0.0294  0.1204
 1074SOL    HW114681   2.427   2.955   1.428 -0.1024 -2.2993 -0.6576
 1074SOL    HW214682   2.499   3.055   1.334 -0.9604  0.9256 -0.9348
 1075SOL     OW14683   1.060   4.243   2.337  0.3557  0.3308 -0.1716
 1075SOL    HW114684   1.059   4.170   2.399 -0.4681 -0.6227 -1.3132
 1075SOL    HW214685   1.146   4.282   2.349  0.2877  0.6706 -0.8109
 1076SOL     OW14686   0.703   3.612  16.080  0.5396  0.0113 -0.1474
 1076SOL    HW114687   0.762   3.539  16.099 -0.3293 -1.2642 -2.4309
 1076SOL    HW214688   0.752   3.663  16.015 -0.7253 -0.6913 -1.6541
 1077SOL     OW14689   4.584   0.153  17.072 -0.3966 -0.1279 -0.3104
 1077SOL    HW114690   4.668   0.172  17.030 -0.2392  0.5823  0.3241
 1077SOL    HW214691   4.523   0.192  17.009  1.9764  0.8364 -1.9920
 1078SOL     OW14692   3.060   2.219   3.819 -0.2185 -0.1330 -0.1428
 1078SOL    HW114693   2.973   2.229   3.780 -0.5315 -0.1150  0.5589
 1078SOL    HW214694   3.109   2.185   3.744  0.3968 -0.2123  0.2923
 1079SOL     OW14695   2.647   1.750   2.607 -0.2952 -0.2441 -0.4715
 1079SOL    HW114696   2.567   1.779   2.565 -0.1780 -0.2462 -0.6960
 1079SOL    HW214697   2.627   1.657   2.619 -0.9284  0.1860  1.7852
 1080SOL     OW14698   1.819   2.635   2.816 -0.5757  0.4899  0.5409
 1080SOL    HW114699   1.907   2.669   2.801 -0.2320  0.4050  2.3434
 1080SOL    HW214700   1.806   2.577   2.741 -0.9986  0.5804  0.5424
 1081SOL     OW14701   1.986   4.694   1.271  0.8712 -0.2228  0.7742
 1081SOL    HW114702   2.026   4.683   1.357  1.3621  0.7423  0.6680
 1081SOL    HW214703   2.017   0.058   1.244  0.7583 -0.7890 -1.1477
 1082SOL     OW14704   4.076   3.094   5.541 -0.2830 -0.1183  0.5458
 1082SOL    HW114705   4.166   3.081   5.511 -0.2810 -2.5785  1.6848
 1082SOL    HW214706   4.055   3.172   5.489 -0.4408 -0.7066 -0.2675
 1083SOL     OW14707   4.588   4.061   8.425 -0.2077  0.0786 -0.1562
 1083SOL    HW114708   4.652   4.082   8.356 -0.6735  1.1893 -0.2549
 1083SOL    HW214709   4.585   4.142   8.477  2.8938 -0.3878  0.7411
 1084SOL     OW14710   0.937   1.979  11.803 -0.1592  0.0944  0.3614
 1084SOL    HW114711   1.026   1.990  11.772 -0.6594  2.0222 -0.4182
 1084SOL    HW214712   0.928   1.887  11.778 -2.1714  0.4065 -0.0888
 1085SOL     OW14713   0.984   0.096   4.837 -0.1702  0.4328  0.3976
 1085SOL    HW114714   1.065   0.136   4.870  0.5544  0.5856 -1.5145
 1085SOL    HW214715   1.017   0.096   4.747 -1.7257  1.0932 -0.1682
 1086SOL     OW14716   4.136   2.332   4.573 -0.3644 -0.1066  0.3706
 1086SOL    HW114717   4.098   2.363   4.490  1.5241  0.9420 -0.1155
 1086SOL    HW214718   4.203   2.270   4.543  0.9283  2.2859 -1.7163
 1087SOL     OW14719   3.318   3.846   4.390  0.6249 -0.1294  0.0614
 1087SOL    HW114720   3.364   3.812   4.312 -0.3348 -1.5911  0.1331
 1087SOL    HW214721   3.345   3.783   4.457  0.4599  1.5457  1.6883
 1088SOL     OW14722   2.325   4.492   1.687  0.0695 -0.0289  0.0688
 1088SOL    HW114723   2.234   4.513   1.665  1.1944  2.5559 -2.0095
 1088SOL    HW214724   2.334   4.546   1.766  2.8989 -0.0470 -0.2540
 1089SOL     OW14725   3.743   4.448   5.627 -0.0898 -0.3524  0.0902
 1089SOL    HW114726   3.698   4.411   5.703  0.2199 -0.9820 -0.0344
 1089SOL    HW214727   3.821   4.486   5.667  0.7558 -0.1127 -1.7471
 1090SOL     OW14728   1.397   0.371   9.209  0.0210  0.1210  0.1691
 1090SOL    HW114729   1.348   0.453   9.201 -1.5884 -0.7752  0.9163
 1090SOL    HW214730   1.460   0.382   9.137 -1.0585  0.6524 -0.6911
 1091SOL     OW14731   3.141   4.493   1.247 -0.1032 -0.0445 -0.6826
 1091SOL    HW114732   3.195   4.460   1.175 -0.1020 -2.2207  0.3179
 1091SOL    HW214733   3.118   4.411   1.289  0.0455  0.5981  0.6428
 1092SOL     OW14734   2.800   4.452   6.389 -0.1197 -0.0794 -0.0630
 1092SOL    HW114735   2.878   4.406   6.422 -0.3579  0.2123  0.9030
 1092SOL    HW214736   2.810   4.436   6.295  0.6000  1.9761 -0.3426
 1093SOL     OW14737   2.496   3.544   6.764 -0.0346  0.1465 -0.1919
 1093SOL    HW114738   2.553   3.620   6.773  2.6198 -1.9061  0.1192
 1093SOL    HW214739   2.550   3.470   6.737 -0.0985  0.5570 -1.4387
 1094SOL     OW14740   3.348   4.496   3.079 -0.0655  0.0678 -0.0573
 1094SOL    HW114741   3.352   4.566   3.014 -3.4015 -0.7554 -1.1514
 1094SOL    HW214742   3.422   4.442   3.050 -0.3571 -2.9885  4.9652
 1095SOL     OW14743   2.063   1.999   8.275  0.2757  0.1517  0.1479
 1095SOL    HW114744   2.006   2.073   8.298 -1.1408 -1.1921  0.9566
 1095SOL    HW214745   2.149   2.028   8.305  0.1193  0.7619  0.0081
 1096SOL     OW14746   0.951   4.522   9.945 -0.5574  0.1214  0.5580
 1096SOL    HW114747   1.016   4.576   9.989 -1.7008  1.8454  0.1408
 1096SOL    HW214748   0.939   4.443   9.998 -0.5163  0.2167  0.7063
 1097SOL     OW14749   1.694   4.440  16.547  0.3974  0.1519 -0.4448
 1097SOL    HW114750   1.695   4.454  16.453 -1.0849  0.5907 -0.3859
 1097SOL    HW214751   1.640   4.361  16.548 -1.1848  1.2354 -0.7166
 1098SOL     OW14752   4.024   3.225   2.343  0.5868  0.6309  0.1425
 1098SOL    HW114753   4.068   3.189   2.420  1.1302  0.1043 -0.4122
 1098SOL    HW214754   4.017   3.320   2.356  1.7409  1.1214 -2.6803
 1099SOL     OW14755   3.101   0.334   8.767  0.5308 -0.6740  0.2192
 1099SOL    HW114756   3.026   0.287   8.804  1.8888  0.3143  4.3009
 1099SOL    HW214757   3.118   0.410   8.823  0.7380 -0.1734 -0.5195
 1100SOL     OW14758   2.119   4.671   8.563 -0.7020 -0.2556  0.2984
 1100SOL    HW114759   2.094   4.616   8.637 -1.1906 -0.5506 -0.0834
 1100SOL    HW214760   2.062   4.634   8.495 -1.2206  1.4327 -0.1793
 1101SOL     OW14761   2.921   1.451   0.539  0.0944  0.3571  0.1321
 1101SOL    HW114762   2.999   1.429   0.488  1.3413  1.6749  1.4790
 1101SOL    HW214763   2.853   1.436   0.473  1.1980 -2.4280 -0.3680
 1102SOL     OW14764   0.869   4.554  11.961  0.4537 -0.1002 -0.5428
 1102SOL    HW114765   0.796   4.511  11.917  0.5283  1.5909 -2.3291
 1102SOL    HW214766   0.949   4.502  11.953  1.7481  1.7963  0.0174
 1103SOL     OW14767   1.277   2.079   2.590 -0.0664 -0.4590  0.3307
 1103SOL    HW114768   1.347   2.014   2.593  0.1788 -0.1849  0.5118
 1103SOL    HW214769   1.209   2.030   2.543 -0.4808 -0.4074  0.8755
 1104SOL     OW14770   4.478   3.741   4.464  0.3828 -0.3032  0.3532
 1104SOL    HW114771   4.389   3.728   4.497  1.3743 -1.2997  2.6153
 1104SOL    HW214772   4.470   3.829   4.426 -1.2795  0.4784  2.4809
 1105SOL     OW14773   4.404   0.548   4.197  0.3146 -0.8083 -0.4593
 1105SOL    HW114774   4.427   0.460   4.228 -1.4257 -1.3706 -0.7477
 1105SOL    HW214775   4.474   0.597   4.240  1.0896 -1.8765 -0.5164
 1106SOL     OW14776   3.536   0.301  10.029  0.2861  0.6768 -0.4751
 1106SOL    HW114777   3.560   0.211  10.050  2.7846  0.7973 -2.7771
 1106SOL    HW214778   3.444   0.284  10.006 -0.5640  1.1641  2.6564
 1107SOL     OW14779   1.478   4.025   6.067 -0.5325  0.0795  0.6188
 1107SOL    HW114780   1.459   4.044   5.975  0.3142 -0.6410  0.2889
 1107SOL    HW214781   1.554   4.081   6.082  0.5018 -0.9563 -0.7011
 1108SOL     OW14782   4.174   2.496   0.677 -0.5900  0.8300 -0.6848
 1108SOL    HW114783   4.168   2.424   0.615  0.7306  0.2435 -0.1258
 1108SOL    HW214784   4.146   2.573   0.627 -1.5002  1.7789  1.3292
 1109SOL     OW14785   2.201   0.915   0.065 -0.2658  0.2982  0.0472
 1109SOL    HW114786   2.242   0.959  17.683  1.4196 -1.3070  0.0295
 1109SOL    HW214787   2.134   0.981   0.080  0.8107  1.9333 -2.3443
 1110SOL     OW14788   0.945   4.068   3.107  0.0141 -0.0982  0.5144
 1110SOL    HW114789   0.859   4.030   3.125 -0.2996 -0.0709 -0.9582
 1110SOL    HW214790   0.917   4.156   3.083 -1.0255 -0.9096 -1.2320
 1111SOL     OW14791   0.427   2.835  14.424 -0.0072 -0.5561 -0.2625
 1111SOL    HW114792   0.508   2.821  14.473 -0.1438 -0.6625 -0.0671
 1111SOL    HW214793   0.440   2.777  14.349  1.6616  0.4933 -0.7815
 1112SOL     OW14794   3.401   4.087   2.664 -0.1197 -0.0125  0.0704
 1112SOL    HW114795   3.357   4.102   2.747 -0.3995  1.4253 -0.3389
 1112SOL    HW214796   3.330   4.102   2.601 -0.5872 -1.7163  0.1972
 1113SOL     OW14797   4.135   4.343   4.986 -0.7279  0.1218 -0.2967
 1113SOL    HW114798   4.074   4.304   5.048 -0.5239 -0.6143 -0.5690
 1113SOL    HW214799   4.178   4.411   5.039  2.0632 -0.8639 -1.2801
 1114SOL     OW14800   1.823   2.413   5.346  0.2379 -0.0578  0.3091
 1114SOL    HW114801   1.850   2.345   5.408  2.1393 -0.4244 -0.9032
 1114SOL    HW214802   1.737   2.432   5.382  0.9687  1.5128  1.2497
 1115SOL     OW14803   2.113   2.088   7.741 -0.6433  0.1477  0.3630
 1115SOL    HW114804   2.193   2.056   7.699 -0.8671  0.2868 -0.1575
 1115SOL    HW214805   2.062   2.007   7.741  1.3544 -1.1024 -1.1952
 1116SOL     OW14806   1.916   2.952   4.333  0.4183 -0.3280 -0.1352
 1116SOL    HW114807   1.845   2.908   4.285  2.0736 -1.8236 -1.1835
 1116SOL    HW214808   1.916   2.902   4.414  1.6823  1.4903  0.9794
 1117SOL     OW14809   2.098   1.384   7.272 -0.9231  0.0740  0.0638
 1117SOL    HW114810   2.016   1.352   7.311 -0.4506 -0.3941  0.6760
 1117SOL    HW214811   2.129   1.305   7.228 -0.6074  1.1520 -1.6627
 1118SOL     OW14812   2.411   0.856   2.327  0.3303  0.4660 -0.1138
 1118SOL    HW114813   2.496   0.839   2.367  0.4153 -0.1327 -0.5524
 1118SOL    HW214814   2.414   0.797   2.252  0.5743  0.0791  0.2026
 1119SOL     OW14815   2.312   0.672   4.093  0.2834 -0.2838  0.4055
 1119SOL    HW114816   2.340   0.764   4.094 -1.9878  0.4229 -1.8250
 1119SOL    HW214817   2.398   0.632   4.107 -0.2354 -1.4372  0.2779
 1120SOL     OW14818   1.076   3.564  11.984 -0.5222 -0.6604  0.2862
 1120SOL    HW114819   1.071   3.470  11.999  0.1956 -0.6591  0.5262
 1120SOL    HW214820   1.020   3.601  12.052 -1.0546 -0.2650 -0.3681
 1121SOL     OW14821   1.451   2.689   8.102  0.3793 -0.4951  0.0466
 1121SOL    HW114822   1.537   2.724   8.126 -0.3458  0.1767  1.6836
 1121SOL    HW214823   1.445   2.595   8.122 -0.6418 -0.3685  0.3424
 1122SOL     OW14824   2.407   1.850   2.234 -0.0607 -0.1646  0.3046
 1122SOL    HW114825   2.438   1.938   2.255  0.3811 -0.0833 -0.6520
 1122SOL    HW214826   2.441   1.834   2.145 -3.1235  0.3170 -0.9468
 1123SOL     OW14827   0.527   4.633   9.663  0.0062 -0.3773 -0.2206
 1123SOL    HW114828   0.440   4.600   9.640 -0.3591 -0.3644  1.1553
 1123SOL    HW214829   0.505   0.003   9.668 -1.7068 -0.8490  0.8282
 1124SOL     OW14830   2.160   3.121   8.384 -0.4233  0.6027 -0.0412
 1124SOL    HW114831   2.092   3.189   8.380 -1.1754 -0.2294 -1.1208
 1124SOL    HW214832   2.162   3.072   8.302 -0.6541  0.3014  0.1355
 1125SOL     OW14833   1.718   3.859   8.255  0.2152 -0.3068  0.4453
 1125SOL    HW114834   1.716   3.948   8.220  0.0708 -0.4612  0.0630
 1125SOL    HW214835   1.659   3.868   8.330 -0.3827  0.1618 -0.0806
 1126SOL     OW14836   0.371   0.564   2.737 -0.3433  0.2802  0.1700
 1126SOL    HW114837   0.283   0.594   2.759 -0.8163 -0.7599 -0.2881
 1126SOL    HW214838   0.349   0.546   2.646 -1.8651 -0.0387  0.5999
 1127SOL     OW14839   2.094   3.979   3.128  0.1076 -0.3088 -0.1699
 1127SOL    HW114840   2.095   3.996   3.034  0.1249 -3.7334 -0.7668
 1127SOL    HW214841   2.185   4.005   3.143  0.1016 -0.2662 -0.2086
 1128SOL     OW14842   0.605   0.282   1.543  0.0654  0.5030  0.5962
 1128SOL    HW114843   0.618   0.242   1.457  1.8977 -2.4583  2.2315
 1128SOL    HW214844   0.688   0.329   1.542 -0.4604  1.3503 -2.6791
 1129SOL     OW14845   4.119   4.381   4.265 -0.2827  0.5044  0.6446
 1129SOL    HW114846   4.039   4.434   4.261  0.1990  1.3322  2.2587
 1129SOL    HW214847   4.110   4.362   4.358  1.8861  0.4829  0.8582
 1130SOL     OW14848   2.157   3.004   2.034  0.5171  0.8626 -0.1538
 1130SOL    HW114849   2.216   3.062   2.083  0.4856  0.2687  0.5706
 1130SOL    HW214850   2.081   3.057   2.012  1.8417  2.6453 -0.4483
 1131SOL     OW14851   0.291   3.946  12.623  0.2267  0.2800  0.0519
 1131SOL    HW114852   0.226   3.899  12.570 -0.4913  0.3186  0.8970
 1131SOL    HW214853   0.364   3.942  12.561  0.1270 -3.0172  0.1019
 1132SOL     OW14854   2.839   0.978   5.548 -0.0162  0.1864 -0.4604
 1132SOL    HW114855   2.805   1.063   5.577 -0.5720 -0.1596 -0.0939
 1132SOL    HW214856   2.810   0.986   5.457 -0.7772 -0.2267 -0.2569
 1133SOL     OW14857   2.526   4.485   7.627  0.4796  0.1302  0.1894
 1133SOL    HW114858   2.503   4.495   7.719 -0.3240  0.3430 -0.0323
 1133SOL    HW214859   2.591   4.415   7.631  0.5273  0.1766  0.2247
 1134SOL     OW14860   2.761   2.590   4.386 -0.6602 -0.1634  0.5454
 1134SOL    HW114861   2.798   2.675   4.411  1.1211 -0.3168 -1.5463
 1134SOL    HW214862   2.760   2.599   4.291  0.6510  1.4025  0.6860
 1135SOL     OW14863   0.585   0.529  14.518 -0.1141 -0.7256 -0.4536
 1135SOL    HW114864   0.523   0.540  14.446  0.7578 -0.3929 -1.1464
 1135SOL    HW214865   0.611   0.621  14.527  1.6800 -1.2253 -0.5829
 1136SOL     OW14866   3.001   2.086   6.500  0.5817  0.5039 -0.3379
 1136SOL    HW114867   2.947   2.161   6.523 -1.0685 -0.6304 -0.5211
 1136SOL    HW214868   2.963   2.020   6.558  0.0622  1.6261  0.5869
 1137SOL     OW14869   3.399   0.144   7.904 -0.0646  0.1733 -0.2778
 1137SOL    HW114870   3.386   0.221   7.959 -2.5561 -0.1019 -0.4950
 1137SOL    HW214871   3.378   0.179   7.818  3.0366 -3.5192 -2.5488
 1138SOL     OW14872   1.833   2.252   7.744  0.0069  0.5010  0.1624
 1138SOL    HW114873   1.844   2.172   7.694  0.7900 -1.0923  2.8721
 1138SOL    HW214874   1.827   2.218   7.834  1.0086 -1.7395 -0.6217
 1139SOL     OW14875   1.861   4.462   5.350 -0.0183  0.4382 -0.4251
 1139SOL    HW114876   1.782   4.418   5.381 -1.1609  2.7752 -0.0567
 1139SOL    HW214877   1.922   4.411   5.403 -0.8572  0.6039  0.7089
 1140SOL     OW14878   4.373   2.022  10.033 -0.7506 -0.2403 -0.1992
 1140SOL    HW114879   4.281   2.030  10.058 -0.9595  0.5780 -1.2216
 1140SOL    HW214880   4.424   1.988  10.106 -1.7262  0.3303  0.7524
 1141SOL     OW14881   3.172   0.971   1.397 -0.3118 -0.6292 -0.5904
 1141SOL    HW114882   3.111   1.004   1.464  1.0425 -0.9171  0.7831
 1141SOL    HW214883   3.109   0.959   1.326  1.2322  0.8784 -2.2004
 1142SOL     OW14884   1.407   3.551   3.805 -0.6082 -0.0625  0.3681
 1142SOL    HW114885   1.487   3.575   3.759 -0.7428  1.6342  1.0311
 1142SOL    HW214886   1.349   3.626   3.795  0.3710  0.7059  0.5166
 1143SOL     OW14887   4.014   1.322   1.617  0.7645  0.5393  0.1655
 1143SOL    HW114888   4.095   1.366   1.643  1.8188 -2.2060  1.4838
 1143SOL    HW214889   3.956   1.346   1.690  1.6052  1.0264  0.6748
 1144SOL     OW14890   2.867   2.898   0.980 -0.4278  0.3513 -0.8353
 1144SOL    HW114891   2.842   2.961   1.048 -1.0641  0.6642 -1.3669
 1144SOL    HW214892   2.862   2.945   0.897 -1.2315  2.9645  0.7006
 1145SOL     OW14893   4.114   2.618  17.275  0.1396 -0.5161  0.4324
 1145SOL    HW114894   4.159   2.541  17.238 -0.6770 -1.0311  0.5180
 1145SOL    HW214895   4.153   2.611  17.362  0.3507 -2.0623  0.2224
 1146SOL     OW14896   0.525   3.897   5.172 -0.4298  0.6700 -0.4952
 1146SOL    HW114897   0.568   3.844   5.104 -0.1069 -0.7286  0.7887
 1146SOL    HW214898   0.589   3.961   5.202 -1.7180  1.7809 -0.1322
 1147SOL     OW14899   4.175   1.184  10.159  0.2935 -0.0603  0.3390
 1147SOL    HW114900   4.207   1.168  10.071 -1.0052  2.7477 -0.6522
 1147SOL    HW214901   4.084   1.213  10.148  0.4030  0.4576  0.8091
 1148SOL     OW14902   3.662   0.013   1.341  0.4070 -0.0162  0.2851
 1148SOL    HW114903   3.626   4.655   1.303 -0.1730 -0.0174  0.8378
 1148SOL    HW214904   3.753   0.021   1.312 -0.4166  1.8537 -1.8452
 1149SOL     OW14905   2.110   2.782   7.329 -0.0026  0.0049  0.4483
 1149SOL    HW114906   2.175   2.747   7.269 -0.6239  0.5047 -0.5031
 1149SOL    HW214907   2.078   2.701   7.368 -0.2145  0.4632  1.2473
 1150SOL     OW14908   3.459   4.490   1.275  0.2489  0.1569 -0.0635
 1150SOL    HW114909   3.499   4.409   1.307  0.5957  0.5145  0.3872
 1150SOL    HW214910   3.428   4.514   1.362 -1.3719 -1.3034 -0.2219
 1151SOL     OW14911   2.836   3.597  10.840  0.2283 -0.4916  0.1532
 1151SOL    HW114912   2.823   3.684  10.878 -2.7943 -0.7159 -0.3723
 1151SOL    HW214913   2.818   3.620  10.748  1.3041  1.3657  0.4072
 1152SOL     OW14914   2.217   2.256   5.316 -0.3690 -0.1001 -0.1625
 1152SOL    HW114915   2.307   2.278   5.291  0.0492 -0.6679  0.8497
 1152SOL    HW214916   2.240   2.173   5.358  1.1405  1.5452  2.2926
 1153SOL     OW14917   0.190   1.465  17.095  0.0702  0.0767  0.2062
 1153SOL    HW114918   0.138   1.543  17.077 -1.2716 -1.0144 -0.7352
 1153SOL    HW214919   0.281   1.487  17.113  0.4474  0.0927 -1.8107
 1154SOL     OW14920   4.597   3.634   9.553 -0.4951  0.0848  0.0245
 1154SOL    HW114921   4.563   3.624   9.464  0.7024 -0.1311 -0.3955
 1154SOL    HW214922   4.576   3.727   9.566 -1.0423  0.0992 -0.9564
 1155SOL     OW14923   1.322   1.619  13.556 -0.0480 -0.1429 -0.5404
 1155SOL    HW114924   1.300   1.700  13.602 -1.6949 -1.7187  1.4699
 1155SOL    HW214925   1.275   1.562  13.617  1.2875  1.0537  1.6025
 1156SOL     OW14926   0.524   3.076   4.725 -0.1905 -0.4321 -0.1248
 1156SOL    HW114927   0.524   3.169   4.748  1.2507 -0.9592  1.9177
 1156SOL    HW214928   0.443   3.050   4.768 -0.4057 -1.6859 -1.2844
 1157SOL     OW14929   0.582   2.706   7.223 -0.1682  0.1910 -0.0651
 1157SOL    HW114930   0.542   2.745   7.146  2.3669  2.9843  0.0450
 1157SOL    HW214931   0.674   2.703   7.198  0.0937  2.2690  0.6339
 1158SOL     OW14932   0.641   1.301  16.345  0.5696  0.3578 -0.2094
 1158SOL    HW114933   0.715   1.286  16.403  2.6583  2.0022 -2.4523
 1158SOL    HW214934   0.568   1.255  16.386  2.3931  0.9250  3.6653
 1159SOL     OW14935   4.717   1.404   0.570  0.4359 -0.1657  0.0936
 1159SOL    HW114936   4.646   1.428   0.629 -0.2674 -2.3393  0.1240
 1159SOL    HW214937   4.715   1.310   0.585 -0.8592 -0.1797 -0.1344
 1160SOL     OW14938   0.053   1.824   7.555 -0.2195 -0.0816  0.4170
 1160SOL    HW114939   0.046   1.881   7.479  0.7642  1.1449  1.2497
 1160SOL    HW214940   4.700   1.766   7.545 -0.1962 -0.1155  0.4387
 1161SOL     OW14941   0.113   1.212   7.546  0.2746  0.5001 -0.2744
 1161SOL    HW114942   0.109   1.305   7.568  1.2629  0.2153  1.1336
 1161SOL    HW214943   0.176   1.175   7.608 -0.9112 -1.2869 -0.1204
 1162SOL     OW14944   0.421   0.867   7.347  0.2029  0.4010  0.1638
 1162SOL    HW114945   0.375   0.811   7.284 -1.0410 -0.1718  1.5882
 1162SOL    HW214946   0.512   0.838   7.339  0.6269  1.4056  1.4733
 1163SOL     OW14947   0.641   0.977   3.557 -0.2184 -0.0234 -0.1719
 1163SOL    HW114948   0.680   0.890   3.564 -1.7538 -0.5572  1.6416
 1163SOL    HW214949   0.547   0.960   3.562 -0.0075 -0.9632  0.4964
 1164SOL     OW14950   3.055   1.693   5.695  0.2639  0.2758 -0.1333
 1164SOL    HW114951   3.029   1.604   5.672 -2.1025  0.0430  3.3615
 1164SOL    HW214952   3.024   1.750   5.625  0.3437 -0.5693 -0.8544
 1165SOL     OW14953   1.193   1.415   5.944  0.1453 -0.5880 -0.3123
 1165SOL    HW114954   1.174   1.393   5.852 -0.5685  0.2172 -0.3622
 1165SOL    HW214955   1.288   1.408   5.939  0.1806  0.3701 -1.0509
 1166SOL     OW14956   4.163   2.503  17.566 -0.1610  0.7492  0.4481
 1166SOL    HW114957   4.258   2.508  17.555 -0.4114  0.2355 -2.0490
 1166SOL    HW214958   4.160   2.450  17.645 -0.3569  0.6921  0.4023
 1167SOL     OW14959   3.876   2.285   4.952 -0.1588  0.5516 -0.0119
 1167SOL    HW114960   3.840   2.255   5.036 -1.6391  1.1413 -0.4432
 1167SOL    HW214961   3.805   2.252   4.897 -0.1401  1.9813 -0.8782
 1168SOL     OW14962   1.985   2.977   7.211  0.4092 -0.1227 -0.0156
 1168SOL    HW114963   1.892   2.962   7.225  0.1073  0.9452 -0.8070
 1168SOL    HW214964   2.020   2.900   7.256  0.0368 -0.8276 -0.9443
 1169SOL     OW14965   4.365   4.122   2.681  0.3225 -0.1716  0.2149
 1169SOL    HW114966   4.270   4.112   2.684  0.2420  0.6909  0.7258
 1169SOL    HW214967   4.394   4.142   2.770 -2.4263  2.6322  0.4984
 1170SOL     OW14968   1.272   3.441   1.512 -0.4519  0.0309 -0.1319
 1170SOL    HW114969   1.257   3.533   1.534  1.6227  0.0760  1.0022
 1170SOL    HW214970   1.245   3.397   1.593 -0.0316 -0.2535 -0.1490
 1171SOL     OW14971   4.172   0.745   2.302 -0.0775 -0.7905  0.0158
 1171SOL    HW114972   4.126   0.767   2.221 -2.8470 -0.7787  1.5908
 1171SOL    HW214973   4.113   0.677   2.335 -0.4049 -0.3626  0.3100
 1172SOL     OW14974   2.798   0.857   4.408  0.3919 -0.7610  0.0286
 1172SOL    HW114975   2.812   0.876   4.501  0.1317 -1.0917  0.1310
 1172SOL    HW214976   2.784   0.947   4.378  0.5210 -0.7100  0.1186
 1173SOL     OW14977   2.968   4.581  13.851 -0.2220 -0.0452 -0.1791
 1173SOL    HW114978   2.899   4.617  13.907 -0.5803 -0.3420 -0.4290
 1173SOL    HW214979   3.000   4.499  13.888  1.4700 -0.1793 -1.9501
 1174SOL     OW14980   4.106   3.234   5.064 -0.4306  0.2498  0.6295
 1174SOL    HW114981   4.106   3.157   5.007 -0.0046 -0.0932  1.0852
 1174SOL    HW214982   4.196   3.225   5.095 -0.7407  0.0126  1.4759
 1175SOL     OW14983   0.081   0.385  14.005 -0.2884 -0.1932  0.4709
 1175SOL    HW114984   0.152   0.409  14.065 -0.9714 -3.0579  2.3804
 1175SOL    HW214985   0.034   0.330  14.067  0.8549 -0.2774  1.2752
 1176SOL     OW14986   2.154   3.627  11.110 -0.5439 -0.1134 -0.2657
 1176SOL    HW114987   2.142   3.720  11.093 -2.2131 -0.1395  0.8333
 1176SOL    HW214988   2.161   3.616  11.205  1.0976  0.5281 -0.3195
 1177SOL     OW14989   3.213   2.735  11.516  0.3137  0.0922  0.1080
 1177SOL    HW114990   3.284   2.800  11.514  0.3220  0.1341  2.1516
 1177SOL    HW214991   3.159   2.761  11.590  2.1252  1.0046  1.1176
 1178SOL     OW14992   4.406   1.199  12.127  0.6723 -0.7070 -0.5501
 1178SOL    HW114993   4.319   1.239  12.118 -0.2727 -2.3582  1.1451
 1178SOL    HW214994   4.456   1.265  12.079 -0.2596  1.6128  1.6656
 1179SOL     OW14995   0.523   2.445   6.411  0.2966  0.3770  0.1554
 1179SOL    HW114996   0.481   2.392   6.342  1.3098  0.2856 -0.3857
 1179SOL    HW214997   0.484   2.411   6.492 -0.3598 -1.5726 -0.9578
 1180SOL     OW14998   0.127   1.887  11.272  0.3450 -0.3382  0.0930
 1180SOL    HW114999   0.072   1.956  11.235  2.4307  3.0924  3.3031
 1180SOL    HW215000   0.060   1.845  11.326 -0.1808 -0.0409 -0.3242
 1181SOL     OW15001   3.501   3.054   4.994 -0.0553 -0.4218  0.3877
 1181SOL    HW115002   3.514   3.144   5.024  0.3014  0.4916 -2.4816
 1181SOL    HW215003   3.523   3.003   5.073  3.2025  0.6002  0.1399
 1182SOL     OW15004   3.125   4.549   5.623 -0.2986  0.0154  0.1717
 1182SOL    HW115005   3.119   4.475   5.562 -0.4579 -0.1366  0.3759
 1182SOL    HW215006   3.183   4.610   5.577 -0.3451  0.4099  0.6413
 1183SOL     OW15007   3.007   2.236   2.230  0.0685  0.3794 -0.4914
 1183SOL    HW115008   3.057   2.177   2.174  2.3456  1.3858  0.4696
 1183SOL    HW215009   2.917   2.226   2.198  0.3317  0.5616 -1.2864
 1184SOL     OW15010   1.503   1.305  13.803 -0.3957 -0.0310  0.8863
 1184SOL    HW115011   1.471   1.278  13.716  0.0276  1.1524  0.3665
 1184SOL    HW215012   1.432   1.269  13.856 -0.6004 -2.2153 -0.8259
 1185SOL     OW15013   0.300   3.285   3.858  0.0358 -0.5668 -0.0766
 1185SOL    HW115014   0.241   3.219   3.824  0.4085 -0.6341 -0.6036
 1185SOL    HW215015   0.362   3.227   3.902 -1.1602 -0.9329  1.1071
 1186SOL     OW15016   0.414   1.730   5.419  0.7225  0.1247  0.6174
 1186SOL    HW115017   0.397   1.721   5.513 -0.1174  1.6906  0.6187
 1186SOL    HW215018   0.461   1.814   5.416  0.9358 -0.0420 -0.6975
 1187SOL     OW15019   3.975   3.482   4.377 -0.5604  0.3499  0.2437
 1187SOL    HW115020   3.890   3.456   4.412 -1.6761  2.3697 -0.9381
 1187SOL    HW215021   3.970   3.567   4.421 -2.8814  0.1129  0.4447
 1188SOL     OW15022   2.577   0.333  12.100 -0.4898  0.3678 -0.5881
 1188SOL    HW115023   2.558   0.254  12.050 -0.3390 -0.3546  0.4762
 1188SOL    HW215024   2.671   0.352  12.092 -0.5526  0.2086 -1.6362
 1189SOL     OW15025   3.613   0.514   7.919 -0.4473  0.2221 -0.3671
 1189SOL    HW115026   3.623   0.434   7.970  3.7441  1.3175  0.4929
 1189SOL    HW215027   3.581   0.570   7.990 -0.4778  0.2088 -0.3703
 1190SOL     OW15028   3.409   3.377   3.281 -0.3504  0.2169 -0.0073
 1190SOL    HW115029   3.406   3.468   3.309 -3.1849 -0.0187  0.4913
 1190SOL    HW215030   3.318   3.346   3.279  0.8630 -3.3296 -1.5235
 1191SOL     OW15031   1.101   0.068   3.991  0.2799 -0.9070  0.1533
 1191SOL    HW115032   1.181   0.113   4.015  0.5536 -2.4247  2.1046
 1191SOL    HW215033   1.102   0.001   4.060  0.4816 -0.7625  0.2878
 1192SOL     OW15034   1.178   3.366   4.998 -0.0815 -0.5166 -0.5159
 1192SOL    HW115035   1.143   3.282   4.968 -0.8713 -0.1103 -0.7580
 1192SOL    HW215036   1.187   3.352   5.092 -0.1204 -1.5557 -0.6668
 1193SOL     OW15037   2.906   0.027   7.340  0.1189  0.5602 -0.3215
 1193SOL    HW115038   2.907   0.099   7.403  0.1369 -0.9007  1.3535
 1193SOL    HW215039   2.940   4.686   7.403 -1.0823  0.4718  0.2251
 1194SOL     OW15040   2.991   3.989   5.723 -0.4127 -0.2401  0.5590
 1194SOL    HW115041   3.027   4.068   5.764 -0.6027  1.1746 -2.0275
 1194SOL    HW215042   2.985   3.930   5.799 -1.5698  0.1891  0.8080
 1195SOL     OW15043   2.538   0.801   7.689  0.4359 -0.1714 -0.4106
 1195SOL    HW115044   2.632   0.816   7.681  0.3598 -0.8709 -2.7025
 1195SOL    HW215045   2.537   0.706   7.699 -0.2101 -0.0734  0.3647
 1196SOL     OW15046   0.509   0.726  15.793  0.3978 -0.1771 -0.5648
 1196SOL    HW115047   0.452   0.803  15.785  1.1718  0.5371  0.9126
 1196SOL    HW215048   0.577   0.755  15.853 -0.3443 -0.2614  0.3207
 1197SOL     OW15049   4.600   0.905   4.948  0.1542  0.2190  0.2472
 1197SOL    HW115050   4.651   0.873   5.022  1.2200 -0.4897 -0.7832
 1197SOL    HW215051   4.658   0.903   4.871 -1.4863 -0.6291 -0.9671
 1198SOL     OW15052   3.295   4.067   9.567  0.2214  0.1808  0.3353
 1198SOL    HW115053   3.234   4.112   9.625  0.7494 -1.0963  1.8760
 1198SOL    HW215054   3.315   3.992   9.622 -0.8604 -0.6577 -0.4029
 1199SOL     OW15055   1.710   1.603  16.396  0.0960 -0.2405  0.1475
 1199SOL    HW115056   1.796   1.584  16.434 -0.2354 -0.4186  0.8014
 1199SOL    HW215057   1.712   1.553  16.314 -0.5593 -0.8712  0.5107
 1200SOL     OW15058   0.948   3.022  14.348 -0.4092 -0.5090  0.4174
 1200SOL    HW115059   0.885   2.988  14.285 -0.9733  2.5617 -0.6811
 1200SOL    HW215060   0.893   3.060  14.417  1.2141  0.8978  0.9278
 1201SOL     OW15061   4.621   1.934   5.170 -0.5212  0.4212  0.5166
 1201SOL    HW115062   4.622   1.885   5.253  3.0169 -2.2017 -1.0714
 1201SOL    HW215063   4.700   1.896   5.132  0.2445  1.2089  1.3434
 1202SOL     OW15064   0.970   4.439   1.794  0.0518  0.0561  0.1681
 1202SOL    HW115065   0.972   4.473   1.883 -1.0995  1.8475 -0.5074
 1202SOL    HW215066   0.903   4.372   1.807  0.3633 -0.5695 -1.3910
 1203SOL     OW15067   1.007   1.203   8.730 -0.3134  0.2735  0.1633
 1203SOL    HW115068   0.926   1.207   8.781  0.7999 -1.2557  2.0528
 1203SOL    HW215069   1.074   1.203   8.799  0.7644  3.3094 -0.9046
 1204SOL     OW15070   1.047   3.039  16.763 -0.4685  0.0871 -0.3744
 1204SOL    HW115071   0.983   2.970  16.778  1.5585 -1.4809  1.0727
 1204SOL    HW215072   1.125   3.006  16.719 -0.1856 -0.2864  0.4018
 1205SOL     OW15073   1.707   1.705   5.355  0.0681  0.2284  0.6294
 1205SOL    HW115074   1.765   1.679   5.283 -1.8956 -2.8285  0.1115
 1205SOL    HW215075   1.672   1.789   5.326  2.3171  0.8257 -0.3363
 1206SOL     OW15076   0.634   2.171   4.612 -0.1661  0.2563 -0.0682
 1206SOL    HW115077   0.655   2.094   4.560  1.0687  0.2345  0.4515
 1206SOL    HW215078   0.623   2.139   4.702 -3.5230  0.3674 -0.4557
 1207SOL     OW15079   1.134   0.185  11.664 -0.4211 -0.3087  0.8668
 1207SOL    HW115080   1.056   0.228  11.699 -0.4700  0.0026  0.3793
 1207SOL    HW215081   1.150   0.228  11.580  2.3926 -1.7867  0.6354
 1208SOL     OW15082   2.699   1.095  11.506 -0.1534  0.0142 -0.4950
 1208SOL    HW115083   2.688   1.047  11.588  1.6612  0.3877 -0.0476
 1208SOL    HW215084   2.615   1.142  11.506  0.3725  0.9393 -1.8405
 1209SOL     OW15085   2.377   2.710   4.010  0.2411 -0.5377 -0.1880
 1209SOL    HW115086   2.393   2.615   4.014 -3.3773 -1.0776  2.2613
 1209SOL    HW215087   2.318   2.712   3.933  0.3854  0.4572 -0.2668
 1210SOL     OW15088   3.539   1.333   5.501  0.6973  0.2049  0.8050
 1210SOL    HW115089   3.489   1.360   5.424 -0.3116 -1.9550  0.6944
 1210SOL    HW215090   3.511   1.242   5.517 -1.5108  0.6302 -0.6712
 1211SOL     OW15091   3.028   0.962   6.212  0.2205 -0.1182 -0.2614
 1211SOL    HW115092   3.087   0.887   6.200 -0.8837 -0.9375 -0.6133
 1211SOL    HW215093   2.941   0.922   6.220  0.7405 -1.4598 -1.3042
 1212SOL     OW15094   1.474   1.307  15.945 -0.0122  0.4638  0.0390
 1212SOL    HW115095   1.485   1.296  15.850 -3.8739 -2.1674 -0.1032
 1212SOL    HW215096   1.397   1.362  15.956  0.5713  1.5616 -1.2571
 1213SOL     OW15097   4.505   0.907   5.799  0.2103  0.4306 -0.4286
 1213SOL    HW115098   4.593   0.942   5.812  0.5346 -0.2638 -0.7442
 1213SOL    HW215099   4.526   0.831   5.853 -2.3622  1.1840  1.6253
 1214SOL     OW15100   0.839   3.056  13.489  0.2524  0.2895 -0.0480
 1214SOL    HW115101   0.850   2.979  13.433 -1.6747  0.4825 -0.6942
 1214SOL    HW215102   0.931   3.081  13.494  0.2669  0.2874 -0.2959
 1215SOL     OW15103   1.070   1.543   4.017 -0.4149 -0.1981 -0.8405
 1215SOL    HW115104   1.050   1.450   4.032 -0.0200 -0.2553 -0.6630
 1215SOL    HW215105   0.990   1.592   3.998  0.8936  3.1109  2.1707
 1216SOL     OW15106   0.724   1.544   6.039  0.5114 -0.4628  0.2151
 1216SOL    HW115107   0.766   1.471   5.994  2.2920  1.1772 -0.7675
 1216SOL    HW215108   0.685   1.588   5.963  0.9323  0.7642  0.7091
 1217SOL     OW15109   0.219   1.488   0.042 -0.2226  0.1109 -0.6347
 1217SOL    HW115110   0.269   1.495  17.653  0.8514 -1.4372 -0.0940
 1217SOL    HW215111   0.162   1.416   0.014  1.4298 -2.0715  1.6608
 1218SOL     OW15112   3.338   2.271   3.858  0.4209 -0.2770  0.0880
 1218SOL    HW115113   3.257   2.226   3.878 -0.9158  2.6417  1.2891
 1218SOL    HW215114   3.406   2.204   3.858  0.5942 -0.1023 -0.2241
 1219SOL     OW15115   2.127   0.427   4.567 -0.4524  0.8226 -0.5014
 1219SOL    HW115116   2.108   0.345   4.612 -1.4806  0.6859 -1.1730
 1219SOL    HW215117   2.039   0.459   4.548 -0.3023  2.3965  1.4119
 1220SOL     OW15118   0.134   0.508   4.836  0.4001  0.2014 -0.5106
 1220SOL    HW115119   0.222   0.538   4.811 -0.1451  2.5632  0.3780
 1220SOL    HW215120   0.083   0.549   4.766 -0.4487  2.5502  1.4695
 1221SOL     OW15121   2.729   3.048  10.929 -0.0719  0.2399  0.3027
 1221SOL    HW115122   2.788   3.109  10.886 -1.3961  0.1348 -1.6456
 1221SOL    HW215123   2.695   3.096  11.005  1.4541 -0.4286  1.4162
 1222SOL     OW15124   4.016   0.088   1.436  0.0857  0.4878 -0.4309
 1222SOL    HW115125   3.991   4.721   1.414  1.5032  0.1734 -0.7942
 1222SOL    HW215126   4.014   0.118   1.345 -0.4324 -0.3523 -0.6924
 1223SOL     OW15127   1.770   1.609  14.229  0.6100 -0.0862 -0.0257
 1223SOL    HW115128   1.815   1.641  14.307  0.7310 -0.2508 -0.0268
 1223SOL    HW215129   1.838   1.557  14.186 -1.2467 -1.6133 -1.1050
 1224SOL     OW15130   0.755   4.173   0.083  0.3213  0.0227 -0.4785
 1224SOL    HW115131   0.777   4.261   0.054  1.2130 -0.1973 -0.4979
 1224SOL    HW215132   0.710   4.193   0.164 -0.1916  1.0394 -1.0257
 1225SOL     OW15133   4.158   0.280   2.094 -0.2153  0.3532  0.0634
 1225SOL    HW115134   4.135   0.315   2.180  0.4967  0.1800  0.3248
 1225SOL    HW215135   4.139   0.344   2.026 -1.3960  0.9773  0.9825
 1226SOL     OW15136   2.252   0.609   4.962 -0.2389 -0.1832  0.6556
 1226SOL    HW115137   2.343   0.630   4.983  0.1309 -1.7461  0.6374
 1226SOL    HW215138   2.246   0.514   4.951  0.5303 -0.0493 -0.9484
 1227SOL     OW15139   3.599   2.847   2.809 -0.2256  0.2901  0.2676
 1227SOL    HW115140   3.521   2.902   2.802 -0.7882 -0.2072  2.5202
 1227SOL    HW215141   3.562   2.786   2.873  1.0467 -1.6658 -0.8736
 1228SOL     OW15142   3.572   3.461   7.192 -0.6524  0.0717 -0.2778
 1228SOL    HW115143   3.659   3.499   7.203 -1.1483  0.5518  2.0047
 1228SOL    HW215144   3.580   3.371   7.225  1.7696  0.6643  0.7417
 1229SOL     OW15145   2.165   2.586   9.159  0.4647  0.1118  0.3304
 1229SOL    HW115146   2.244   2.585   9.105  0.6481 -0.7489  0.6227
 1229SOL    HW215147   2.173   2.674   9.197 -2.1671  0.2817  0.4696
 1230SOL     OW15148   1.671   1.026   8.077  0.4977  0.1813 -0.1230
 1230SOL    HW115149   1.672   0.961   8.006  0.0321  1.4805 -1.3215
 1230SOL    HW215150   1.665   0.959   8.145 -1.7862 -0.0830 -0.6102
 1231SOL     OW15151   4.600   0.274   7.928 -0.3471 -0.6195  0.3681
 1231SOL    HW115152   4.512   0.310   7.936  0.0163  0.2956  0.3110
 1231SOL    HW215153   4.659   0.348   7.943  2.4211 -2.7391  0.1058
 1232SOL     OW15154   2.417   4.705   2.439  0.1459  0.3706 -0.0474
 1232SOL    HW115155   2.342   4.646   2.443  0.8979 -0.6050 -0.2290
 1232SOL    HW215156   2.440   4.702   2.346 -0.7003  2.0431 -0.3077
 1233SOL     OW15157   1.170   1.968   8.692  0.2542 -0.4480  0.0273
 1233SOL    HW115158   1.082   1.954   8.727  0.3790  0.5935  0.7775
 1233SOL    HW215159   1.206   1.879   8.697 -2.1927 -1.5347 -1.5065
 1234SOL     OW15160   1.447   2.542   2.858  0.2549 -0.7375  0.0880
 1234SOL    HW115161   1.477   2.461   2.817 -0.1895 -1.1672  0.6104
 1234SOL    HW215162   1.439   2.592   2.777  1.0913  0.8462  0.9671
 1235SOL     OW15163   1.153   2.881   5.928  0.0197  0.0771 -0.6376
 1235SOL    HW115164   1.212   2.811   5.955  0.6150  1.5836  1.9740
 1235SOL    HW215165   1.182   2.896   5.838  1.5319 -2.6310 -0.5952
 1236SOL     OW15166   4.685   2.786   9.764 -0.3513 -0.3487  0.1158
 1236SOL    HW115167   4.700   2.744   9.680 -0.5544 -1.6152  0.7100
 1236SOL    HW215168   0.029   2.745   9.820 -0.1887 -0.3276 -0.0645
 1237SOL     OW15169   1.666   3.879   1.476 -0.1089 -0.0623  0.4556
 1237SOL    HW115170   1.662   3.790   1.512  2.0778  0.1096  1.1349
 1237SOL    HW215171   1.575   3.907   1.475 -0.0758  0.1083  1.4631
 1238SOL     OW15172   0.920   1.881   6.707 -0.2631 -0.3321 -0.3606
 1238SOL    HW115173   0.999   1.881   6.653 -0.9581 -4.1276 -1.3459
 1238SOL    HW215174   0.906   1.788   6.725  1.1463 -0.3126  0.8404
 1239SOL     OW15175   1.139   1.673   3.095 -0.8428  0.5026  0.2022
 1239SOL    HW115176   1.121   1.599   3.153  1.4273  0.4975  0.8953
 1239SOL    HW215177   1.147   1.738   3.165 -0.3554 -2.3685  2.7789
 1240SOL     OW15178   0.378   0.280   4.631 -0.3141 -0.5001 -0.3998
 1240SOL    HW115179   0.403   0.188   4.633 -1.1218 -0.7050  0.1544
 1240SOL    HW215180   0.305   0.272   4.692 -0.1498 -1.3339 -0.3134
 1241SOL     OW15181   1.116   1.548   3.341  0.1510  0.0437 -0.1319
 1241SOL    HW115182   1.112   1.630   3.391 -1.9865  0.1717 -0.5193
 1241SOL    HW215183   1.102   1.478   3.404  0.9981 -0.6782 -0.7532
 1242SOL     OW15184   0.560   0.777   6.241 -0.4454  0.2741 -0.6519
 1242SOL    HW115185   0.567   0.864   6.278  0.2162 -0.4898  1.0033
 1242SOL    HW215186   0.606   0.790   6.158 -2.3255 -2.5750 -2.1503
 1243SOL     OW15187   2.375   1.832   9.584  0.4585  0.3572 -0.3823
 1243SOL    HW115188   2.354   1.926   9.586  0.7403  0.4023  0.7365
 1243SOL    HW215189   2.313   1.806   9.652  0.4566 -1.0429 -0.9320
 1244SOL     OW15190   0.196   3.601   7.121 -0.5110  1.0319  0.6782
 1244SOL    HW115191   0.211   3.589   7.215 -0.0220  0.3361  0.5164
 1244SOL    HW215192   0.193   3.512   7.084 -1.5276  0.9011  1.0782
 1245SOL     OW15193   2.975   2.982   3.215  0.2516  0.0981 -0.1307
 1245SOL    HW115194   2.941   3.000   3.303  1.3506  1.7847 -0.0588
 1245SOL    HW215195   3.037   2.912   3.234 -0.4482 -0.7622 -1.0360
 1246SOL     OW15196   1.127   0.992   1.981 -0.4021 -0.3982  0.1716
 1246SOL    HW115197   1.112   0.901   1.958  0.4404 -0.5988  0.4349
 1246SOL    HW215198   1.048   1.022   2.026 -0.5754  2.1897 -1.7830
 1247SOL     OW15199   3.106   0.385   3.751  0.7188 -0.2694 -0.6453
 1247SOL    HW115200   3.137   0.321   3.687  0.7058 -0.6588 -0.2550
 1247SOL    HW215201   3.013   0.363   3.745  0.0245  3.0618 -1.9939
 1248SOL     OW15202   2.001   1.344  17.173  0.1498 -0.5768  0.0960
 1248SOL    HW115203   1.964   1.293  17.245  0.2710 -2.9135 -1.4925
 1248SOL    HW215204   1.981   1.434  17.198  0.8715 -0.3049 -0.3090
 1249SOL     OW15205   2.066   4.379   5.511 -0.0520 -0.5687 -0.1900
 1249SOL    HW115206   2.108   4.299   5.479  1.9920  0.5712 -0.3067
 1249SOL    HW215207   2.037   4.349   5.597  1.0757 -0.9099  0.0613
 1250SOL     OW15208   2.666   3.363   3.865  0.4445 -0.2266  0.1545
 1250SOL    HW115209   2.698   3.326   3.783 -0.0216  1.8833 -0.9897
 1250SOL    HW215210   2.633   3.295   3.923 -0.5157  0.2279  0.1487
 1251SOL     OW15211   0.385   2.641   3.483  0.0910 -0.1820 -0.1504
 1251SOL    HW115212   0.386   2.681   3.397 -0.2001 -0.0137 -0.0754
 1251SOL    HW215213   0.472   2.601   3.475 -1.0256 -1.8728 -3.6528
 1252SOL     OW15214   3.537   0.592   0.358  0.2473 -0.0936  0.2827
 1252SOL    HW115215   3.556   0.686   0.365 -2.6595  0.5183  0.1300
 1252SOL    HW215216   3.617   0.558   0.320 -0.2055 -1.6558  0.7479
 1253SOL     OW15217   3.297   2.548   4.789  0.0223  0.0147  0.0360
 1253SOL    HW115218   3.286   2.515   4.878 -0.0952 -2.6409 -0.9374
 1253SOL    HW215219   3.217   2.515   4.747 -1.4276  2.3150  0.9735
 1254SOL     OW15220   4.017   2.730   4.974  0.1082 -0.3126 -0.7610
 1254SOL    HW115221   3.964   2.664   4.930 -0.6011  0.5803 -1.2448
 1254SOL    HW215222   4.073   2.752   4.899  2.3783  1.6898  1.5111
 1255SOL     OW15223   3.638   4.035   9.196 -0.2868 -0.0048  0.5100
 1255SOL    HW115224   3.556   4.005   9.236 -0.0231 -0.8141  0.4420
 1255SOL    HW215225   3.671   3.950   9.165  2.1978  1.4085 -0.7449
 1256SOL     OW15226   1.086   3.904   7.586 -0.3324  0.5376  0.3504
 1256SOL    HW115227   1.128   3.889   7.501 -0.4561 -1.0477  0.5696
 1256SOL    HW215228   1.145   3.867   7.651  1.0446  1.9776 -0.0814
 1257SOL     OW15229   3.630   3.489   1.910 -0.1332 -0.4467 -0.1480
 1257SOL    HW115230   3.722   3.479   1.935  0.4338  2.2509 -1.1373
 1257SOL    HW215231   3.602   3.406   1.946 -0.0836 -1.2110 -1.8545
 1258SOL     OW15232   0.596   1.458  16.131  0.7420 -0.7079 -0.3165
 1258SOL    HW115233   0.515   1.501  16.157  1.5757  0.8165 -0.2606
 1258SOL    HW215234   0.617   1.425  16.219 -1.4100  0.7056  0.7385
 1259SOL     OW15235   2.159   1.123  14.066 -0.7169  0.2254  0.1209
 1259SOL    HW115236   2.162   1.161  14.154 -0.9244 -2.0867  1.1252
 1259SOL    HW215237   2.235   1.166  14.027  0.0495 -1.0227  0.2443
 1260SOL     OW15238   1.071   3.305   3.430 -0.6966  0.2768  0.1275
 1260SOL    HW115239   1.099   3.214   3.440 -0.1933  0.5790  1.4673
 1260SOL    HW215240   1.150   3.358   3.439 -1.1978  1.1217 -0.4688
 1261SOL     OW15241   0.540   1.911   4.346 -0.0304  0.0119  0.2508
 1261SOL    HW115242   0.534   1.834   4.289 -1.1175  1.5743 -1.7468
 1261SOL    HW215243   0.588   1.865   4.414  0.4659  0.2916  0.0924
 1262SOL     OW15244   2.268   1.406   4.379  0.0257 -0.3646 -0.6724
 1262SOL    HW115245   2.364   1.411   4.373 -0.0297  0.4584 -0.8189
 1262SOL    HW215246   2.245   1.498   4.366  0.8111 -0.2279 -1.0917
 1263SOL     OW15247   4.356   0.790   2.492  0.3697  0.6017 -0.6911
 1263SOL    HW115248   4.296   0.768   2.421  1.3701 -0.2419 -1.2859
 1263SOL    HW215249   4.289   0.810   2.557  0.4311  0.1919 -0.5004
 1264SOL     OW15250   2.119   0.622   3.876 -0.1701  0.1975  0.3644
 1264SOL    HW115251   2.182   0.620   3.948 -0.9140  2.3649  1.0520
 1264SOL    HW215252   2.094   0.714   3.874 -2.6784 -0.5007  0.4242
 1265SOL     OW15253   4.481   1.946  10.275 -0.1826  0.0925  0.4463
 1265SOL    HW115254   4.399   1.969  10.319 -0.0799  0.2532  0.5538
 1265SOL    HW215255   4.511   1.880  10.338 -2.0715 -1.3147 -0.1213
 1266SOL     OW15256   3.470   1.332  17.162 -0.1323  0.5002  0.2085
 1266SOL    HW115257   3.557   1.365  17.138  0.3383 -0.9827 -0.1115
 1266SOL    HW215258   3.430   1.331  17.075  0.5934 -1.3032 -0.1219
 1267SOL     OW15259   1.348   4.306   9.296  0.1675  0.5294  0.3565
 1267SOL    HW115260   1.294   4.375   9.333  0.1934  1.2783 -1.0052
 1267SOL    HW215261   1.316   4.236   9.354  1.4984 -0.7582 -0.4710
 1268SOL     OW15262   1.959   2.233   2.452 -0.2777  0.6844  0.0633
 1268SOL    HW115263   1.892   2.174   2.486  0.8897 -1.1372 -0.8243
 1268SOL    HW215264   2.032   2.171   2.447 -0.0336  1.0327 -0.7384
 1269SOL     OW15265   2.234   3.318   2.346 -0.5532  0.0357  0.7964
 1269SOL    HW115266   2.170   3.296   2.415 -0.2459 -1.5411  0.5743
 1269SOL    HW215267   2.311   3.305   2.402  1.4975  0.3588 -1.9652
 1270SOL     OW15268   1.235   3.738   3.711  0.0073 -0.0816  0.5672
 1270SOL    HW115269   1.279   3.733   3.626  0.9200 -1.3715  1.1121
 1270SOL    HW215270   1.164   3.799   3.691 -0.8810 -1.4047 -0.3627
 1271SOL     OW15271   3.364   0.946   0.566 -0.5284 -0.1223 -0.9061
 1271SOL    HW115272   3.383   0.864   0.612  0.4089  0.8033  0.3692
 1271SOL    HW215273   3.413   1.013   0.613 -2.4638  1.9221 -1.7888
 1272SOL     OW15274   2.013   4.277   6.183  0.1698 -0.2250 -0.6288
 1272SOL    HW115275   1.959   4.356   6.185  0.8222  0.1899  1.4038
 1272SOL    HW215276   2.047   4.289   6.272  2.2785  1.2359 -1.6219
 1273SOL     OW15277   1.882   0.129   4.928 -0.5233  0.0769  0.1665
 1273SOL    HW115278   1.970   0.106   4.956  0.0153  1.4819 -0.3792
 1273SOL    HW215279   1.831   0.076   4.990  0.7171  0.8378  1.8243
 1274SOL     OW15280   1.723   1.408   2.356  0.1300 -0.3649  0.3162
 1274SOL    HW115281   1.775   1.350   2.301  1.7693  2.9554 -1.6560
 1274SOL    HW215282   1.650   1.351   2.379 -0.6383 -0.2987 -2.0549
 1275SOL     OW15283   4.291   2.143   4.894  0.1237  0.1706  0.2904
 1275SOL    HW115284   4.253   2.230   4.906  0.7427  0.5055 -0.1525
 1275SOL    HW215285   4.207   2.098   4.900 -0.1307  0.7159  0.8960
 1276SOL     OW15286   2.294   3.854   0.843  0.1588  0.0229  0.0945
 1276SOL    HW115287   2.292   3.759   0.835 -5.8854  0.2099 -0.1526
 1276SOL    HW215288   2.299   3.881   0.752 -2.8898 -2.2869 -0.7379
 1277SOL     OW15289   1.044   1.007  10.087  0.3726 -0.2620 -0.2664
 1277SOL    HW115290   1.007   0.967  10.166  1.4522 -0.9500 -0.1139
 1277SOL    HW215291   1.087   1.086  10.120  1.4362 -1.3408  0.9082
 1278SOL     OW15292   0.713   0.900   7.800 -0.0234 -0.3612  0.4790
 1278SOL    HW115293   0.799   0.895   7.756 -0.3625 -0.5918 -0.1571
 1278SOL    HW215294   0.668   0.933   7.722  1.1206  1.3042  0.5255
 1279SOL     OW15295   0.489   1.002  14.394  0.2643 -0.2489  0.6709
 1279SOL    HW115296   0.435   0.937  14.439 -0.0919  0.2370  0.9491
 1279SOL    HW215297   0.550   0.941  14.352  2.1789  1.5298  0.8453
 1280SOL     OW15298   1.572   2.183   8.255 -0.4240  0.0367 -0.5448
 1280SOL    HW115299   1.542   2.185   8.346  0.8010  0.0912 -0.1332
 1280SOL    HW215300   1.518   2.113   8.219 -1.5675  1.7901 -2.2403
 1281SOL     OW15301   0.873   0.868   1.577  0.1717  0.8388  0.0233
 1281SOL    HW115302   0.846   0.779   1.555 -0.0487  1.1880 -1.1090
 1281SOL    HW215303   0.888   0.912   1.493 -0.7760 -1.2700 -1.2672
 1282SOL     OW15304   3.146   0.401   9.501  0.5454 -0.5274 -0.2123
 1282SOL    HW115305   3.143   0.321   9.554  1.4357 -0.3620  0.0915
 1282SOL    HW215306   3.063   0.393   9.454  0.1378  2.0486  0.0763
 1283SOL     OW15307   2.236   1.538  15.453 -0.0907  0.3528 -0.5024
 1283SOL    HW115308   2.251   1.609  15.515 -1.0737  0.0381  0.1011
 1283SOL    HW215309   2.144   1.521  15.473  0.4627 -0.2035  1.6719
 1284SOL     OW15310   2.372   2.965   4.123 -0.0304  0.1704  0.3738
 1284SOL    HW115311   2.276   2.969   4.121  0.0185  0.7606 -1.0832
 1284SOL    HW215312   2.392   2.875   4.101  3.4122  1.0827 -0.2155
 1285SOL     OW15313   3.899   4.592   6.339  0.0044 -0.6143  0.5416
 1285SOL    HW115314   3.824   4.536   6.318  1.1623 -2.1457  0.5398
 1285SOL    HW215315   3.858   4.676   6.319 -0.1852 -0.2337  2.4793
 1286SOL     OW15316   0.754   1.839  11.559 -0.4875  0.4666 -0.9447
 1286SOL    HW115317   0.680   1.901  11.557 -0.4752  0.5413  0.8771
 1286SOL    HW215318   0.780   1.830  11.467  1.6623  2.5129 -0.5366
 1287SOL     OW15319   2.028   3.259   6.919 -0.5733  0.4987 -0.1321
 1287SOL    HW115320   1.955   3.293   6.866 -0.2879 -1.0973 -1.5254
 1287SOL    HW215321   2.089   3.330   6.903 -1.4978  0.7001 -2.6676
 1288SOL     OW15322   4.684   1.799  11.459  0.1008 -0.4096  0.3279
 1288SOL    HW115323   0.027   1.747  11.505  2.9495  2.5803 -0.3033
 1288SOL    HW215324   4.617   1.732  11.449  0.0199  0.0471 -2.2699
 1289SOL     OW15325   4.125   3.014   4.860 -0.3822 -0.3797  0.0369
 1289SOL    HW115326   4.052   3.046   4.807 -0.3690  1.3802  1.0607
 1289SOL    HW215327   4.138   2.934   4.809  0.2129 -0.5082  0.3900
 1290SOL     OW15328   3.623   1.058   5.295 -0.4543 -0.8611  0.3015
 1290SOL    HW115329   3.718   1.066   5.288 -0.7027  1.9652  0.2632
 1290SOL    HW215330   3.600   1.044   5.203 -0.5455  1.2507  0.0080
 1291SOL     OW15331   0.260   2.035   5.206 -0.2557  0.3320  0.1419
 1291SOL    HW115332   0.263   2.063   5.114 -1.5093 -0.2861 -0.0873
 1291SOL    HW215333   0.190   1.970   5.197 -0.3785  0.6396 -1.2057
 1292SOL     OW15334   0.836   3.352   7.021  0.1321 -0.0404  0.2137
 1292SOL    HW115335   0.811   3.275   7.072  2.3165 -1.2170 -0.4987
 1292SOL    HW215336   0.834   3.425   7.083 -0.2597  0.7448 -0.7213
 1293SOL     OW15337   2.709   1.555   7.712 -0.1718 -0.4388  0.0104
 1293SOL    HW115338   2.759   1.596   7.782 -1.0561  1.3896 -0.4503
 1293SOL    HW215339   2.621   1.554   7.750  0.5369 -1.1311  1.6200
 1294SOL     OW15340   4.574   3.434   5.176 -0.0336  0.2595  0.2935
 1294SOL    HW115341   4.661   3.433   5.217  0.7279 -0.5715 -1.3307
 1294SOL    HW215342   4.596   3.429   5.082 -0.6249  2.6409  0.0242
 1295SOL     OW15343   1.978   3.513   8.838  0.7908 -0.0505 -0.5452
 1295SOL    HW115344   1.961   3.605   8.817  0.7522 -0.3083 -1.6505
 1295SOL    HW215345   1.896   3.469   8.813  0.5032 -0.2146  0.6780
 1296SOL     OW15346   0.400   1.937   9.187  0.2070  0.4532  0.2207
 1296SOL    HW115347   0.435   1.858   9.147  1.0439  0.7935  0.2966
 1296SOL    HW215348   0.313   1.900   9.206 -1.6969  5.1914  0.6684
 1297SOL     OW15349   4.220   0.347   4.761  0.1357  0.4805 -0.5167
 1297SOL    HW115350   4.183   0.403   4.693  1.3791  1.4217 -0.4117
 1297SOL    HW215351   4.143   0.357   4.817 -0.7461  0.7373 -1.7650
 1298SOL     OW15352   0.883   4.596   3.621 -0.3893 -0.1574 -0.2673
 1298SOL    HW115353   0.806   4.589   3.677  0.4315  1.4081  1.0826
 1298SOL    HW215354   0.885   4.683   3.582  1.7751 -0.2003 -0.2992
 1299SOL     OW15355   2.524   3.918   7.813 -0.1197 -0.0528  0.2021
 1299SOL    HW115356   2.565   3.843   7.856 -1.5937  0.2720  2.1744
 1299SOL    HW215357   2.457   3.957   7.868  1.3779  0.1976  1.8466
 1300SOL     OW15358   1.120   3.097  10.064  0.1947 -0.2745 -0.1811
 1300SOL    HW115359   1.048   3.036  10.046 -1.0658  0.8477  0.9815
 1300SOL    HW215360   1.149   3.081   9.974  0.0838 -0.8413 -0.1129
 1301SOL     OW15361   4.059   1.154   8.019  0.0428 -0.0692  0.3917
 1301SOL    HW115362   3.976   1.201   8.010 -0.0893 -0.2145  0.8445
 1301SOL    HW215363   4.077   1.148   7.925  1.4974 -0.4967  0.6971
 1302SOL     OW15364   1.560   1.074   4.446 -0.7065 -0.2873  0.2287
 1302SOL    HW115365   1.588   1.056   4.356 -1.0549  1.2547 -0.1887
 1302SOL    HW215366   1.586   0.992   4.488 -0.6254  0.3333  1.3976
 1303SOL     OW15367   4.222   4.536   3.032 -0.2097 -0.2972  0.1481
 1303SOL    HW115368   4.130   4.543   3.008 -0.1812 -2.4557 -0.6056
 1303SOL    HW215369   4.250   4.456   2.987 -0.4199  0.0255 -0.5625
 1304SOL     OW15370   0.421   3.084   1.871 -0.2491  0.2920  0.8114
 1304SOL    HW115371   0.397   3.146   1.939 -0.5584  1.1200 -0.0646
 1304SOL    HW215372   0.396   3.124   1.788  3.1476  0.9450  0.1109
 1305SOL     OW15373   0.639   1.446   2.711  0.1122 -0.3457 -0.1294
 1305SOL    HW115374   0.699   1.515   2.741 -1.4131  0.3376  1.3784
 1305SOL    HW215375   0.562   1.503   2.709  0.1175 -0.2862  1.7038
 1306SOL     OW15376   0.347   2.642   1.919  0.0418 -0.3854 -0.0837
 1306SOL    HW115377   0.263   2.596   1.914  0.1184 -0.5901  0.4911
 1306SOL    HW215378   0.338   2.680   2.006  1.1598  0.2391 -0.2469
 1307SOL     OW15379   2.560   3.473   5.437  0.2191  0.1350  0.1643
 1307SOL    HW115380   2.477   3.510   5.407  0.2850  1.2754  1.3849
 1307SOL    HW215381   2.535   3.389   5.476 -0.2234  0.0789 -0.2498
 1308SOL     OW15382   4.603   1.095   2.324 -0.5377 -0.1238  0.0926
 1308SOL    HW115383   4.633   1.007   2.346 -1.3241 -0.2572  0.6417
 1308SOL    HW215384   4.635   1.108   2.235 -1.6513  0.2903 -0.2554
 1309SOL     OW15385   0.269   0.581  15.121  0.2225  0.1340 -0.0664
 1309SOL    HW115386   0.202   0.615  15.181  0.9506 -0.0748  0.8525
 1309SOL    HW215387   0.338   0.643  15.144  1.5747 -1.2159 -0.5502
 1310SOL     OW15388   1.711   1.564   3.400  0.4820  0.2376  0.6212
 1310SOL    HW115389   1.801   1.596   3.404  0.7878 -0.7433  1.4007
 1310SOL    HW215390   1.681   1.598   3.315  0.7849 -1.0207  0.0109
 1311SOL     OW15391   4.249   2.261   8.550 -0.2310 -0.5983 -0.0809
 1311SOL    HW115392   4.257   2.233   8.459  1.2603  3.1448 -1.0793
 1311SOL    HW215393   4.153   2.264   8.556 -0.2651 -3.1741  0.7387
 1312SOL     OW15394   1.449   2.452   8.268 -0.1636  0.2483 -0.5082
 1312SOL    HW115395   1.521   2.389   8.277  1.0092  1.2265 -2.9068
 1312SOL    HW215396   1.477   2.533   8.311  1.1119 -0.9373  0.9205
 1313SOL     OW15397   2.384   0.557  15.096  0.1252  0.0413 -0.2895
 1313SOL    HW115398   2.412   0.472  15.062  1.4684 -0.9131  3.2164
 1313SOL    HW215399   2.294   0.563  15.064  0.1627  0.0290 -0.3976
 1314SOL     OW15400   3.077   2.908   2.054  0.3537  0.3597 -0.8117
 1314SOL    HW115401   3.091   2.900   1.960  1.6217  3.1904 -0.8573
 1314SOL    HW215402   2.998   2.854   2.058 -1.4153  2.9411 -1.1999
 1315SOL     OW15403   0.910   3.920   5.035  0.1696 -0.0009 -0.6250
 1315SOL    HW115404   0.848   3.849   5.016 -0.7422  0.4266  0.6701
 1315SOL    HW215405   0.978   3.873   5.083 -1.0346 -2.7189 -1.5493
 1316SOL     OW15406   3.785   4.374  12.265  0.4328 -0.1919 -0.4977
 1316SOL    HW115407   3.862   4.348  12.316 -1.1631 -0.2218  1.8569
 1316SOL    HW215408   3.812   4.461  12.235 -0.5619  0.1537 -0.3668
 1317SOL     OW15409   4.657   0.059   8.524  0.0668  0.2165 -0.0524
 1317SOL    HW115410   4.592   0.072   8.593 -0.3809  1.9519 -0.8016
 1317SOL    HW215411   4.715   4.717   8.565 -2.6860 -1.0884  1.7481
 1318SOL     OW15412   3.382   3.893   9.810 -0.5816 -0.3663  0.2419
 1318SOL    HW115413   3.339   3.819   9.767 -0.0962 -0.5614  0.0977
 1318SOL    HW215414   3.456   3.849   9.851  1.9007  0.7003 -3.0615
 1319SOL     OW15415   1.807   2.262  14.583 -0.1119 -0.5569 -0.2882
 1319SOL    HW115416   1.798   2.340  14.529 -3.1014 -0.4250  0.3575
 1319SOL    HW215417   1.719   2.258  14.620  0.3206  1.6718  0.9789
 1320SOL     OW15418   4.396   4.398   3.485  0.1027  0.1192  0.2970
 1320SOL    HW115419   4.471   4.346   3.456  0.7815  0.1275  2.0219
 1320SOL    HW215420   4.403   4.472   3.425 -2.0189  1.2227  1.4203
 1321SOL     OW15421   3.543   2.443   5.118  0.1816  0.1432  0.6260
 1321SOL    HW115422   3.504   2.526   5.091 -1.4644 -0.9763 -0.4406
 1321SOL    HW215423   3.602   2.480   5.184 -0.9534 -0.5989  2.0795
 1322SOL     OW15424   4.647   3.361   8.198 -0.0798 -0.3532 -0.1656
 1322SOL    HW115425   4.697   3.437   8.169  0.6617 -0.3033  1.2006
 1322SOL    HW215426   4.564   3.406   8.188 -0.2036 -0.7244 -0.7928
 1323SOL     OW15427   0.264   2.502   2.695  0.1599  0.2353  0.2754
 1323SOL    HW115428   0.235   2.426   2.644 -0.7465 -1.3001  3.1172
 1323SOL    HW215429   0.189   2.511   2.752  0.0928  0.7183  0.1175
 1324SOL     OW15430   4.234   4.210   6.198  0.0561  0.3465  0.2625
 1324SOL    HW115431   4.240   4.297   6.237  0.0688  0.3513  0.2501
 1324SOL    HW215432   4.303   4.164   6.246 -0.8491  0.6820  1.8810
 1325SOL     OW15433   2.959   3.273  13.929  0.2853  0.1507  0.4501
 1325SOL    HW115434   2.937   3.202  13.869 -0.7401  1.0186 -0.2052
 1325SOL    HW215435   2.982   3.342  13.866  0.5155  0.7929  1.2286
 1326SOL     OW15436   0.462   3.463  15.640  0.4670 -0.1841  0.5026
 1326SOL    HW115437   0.449   3.472  15.545 -1.6239  1.1634  0.9165
 1326SOL    HW215438   0.515   3.385  15.649  0.9080  0.0247 -0.2753
 1327SOL     OW15439   3.397   2.276   2.237  0.0528  0.7207  0.4640
 1327SOL    HW115440   3.438   2.321   2.163 -0.5132 -0.2711 -0.4731
 1327SOL    HW215441   3.317   2.325   2.257 -0.3696  0.6895 -1.1097
 1328SOL     OW15442   4.624   0.050   6.109  0.2209 -0.1144 -0.0333
 1328SOL    HW115443   4.646   0.104   6.185  0.9988  0.9846 -1.0431
 1328SOL    HW215444   4.653   4.690   6.147  0.0375 -0.8007 -1.3925
 1329SOL     OW15445   0.124   0.620  17.576  0.5304 -0.6252 -0.4748
 1329SOL    HW115446   0.194   0.584  17.630  1.7406  2.0105 -0.2836
 1329SOL    HW215447   0.124   0.711  17.606  1.7645 -0.3264 -1.3732
 1330SOL     OW15448   1.414   2.316   5.715  0.1954  0.2515 -0.0256
 1330SOL    HW115449   1.454   2.340   5.798  1.3792  0.5556 -0.6906
 1330SOL    HW215450   1.356   2.389   5.692  0.1320  0.6592  1.4159
 1331SOL     OW15451   4.287   2.170   6.369  0.0313  0.5566 -0.5995
 1331SOL    HW115452   4.306   2.258   6.338  1.0859  1.0996  1.5678
 1331SOL    HW215453   4.195   2.166   6.345 -0.2855  0.4027  0.6181
 1332SOL     OW15454   3.524   3.080   3.703  0.1678 -0.3931 -0.4759
 1332SOL    HW115455   3.463   3.062   3.631  0.2241  0.8522 -0.8236
 1332SOL    HW215456   3.552   2.991   3.727 -3.3236 -1.7549 -1.4663
 1333SOL     OW15457   3.218   2.918  14.651 -0.0423 -0.0649  0.0833
 1333SOL    HW115458   3.156   2.973  14.699  0.8715  2.5838 -1.7625
 1333SOL    HW215459   3.207   2.955  14.563  1.2181  0.0614 -0.0297
 1334SOL     OW15460   1.056   1.154   2.219  0.5999 -0.3651  0.2057
 1334SOL    HW115461   0.982   1.105   2.182 -0.6944  1.4353  0.4166
 1334SOL    HW215462   1.038   1.133   2.311 -0.5072  1.3080  0.3609
 1335SOL     OW15463   0.855   2.207   3.201 -0.0793  0.3192 -0.2371
 1335SOL    HW115464   0.877   2.280   3.143  2.8474 -1.6690 -1.6388
 1335SOL    HW215465   0.843   2.131   3.145 -0.7504 -0.8410  1.4839
 1336SOL     OW15466   0.970   3.611   9.402 -0.0526  0.2414  0.4287
 1336SOL    HW115467   0.999   3.698   9.377  1.8577 -0.1070  1.4370
 1336SOL    HW215468   0.922   3.638   9.481 -0.2429 -2.6197  1.3053
 1337SOL     OW15469   1.515   1.124  12.383 -0.3355 -0.1860 -0.3360
 1337SOL    HW115470   1.496   1.041  12.424  0.1310 -0.2564 -0.2626
 1337SOL    HW215471   1.429   1.165  12.386  0.9518  2.5517 -0.0139
 1338SOL     OW15472   1.694   0.548   5.851 -0.4911  0.8777  0.0195
 1338SOL    HW115473   1.740   0.601   5.916 -0.5059  0.2273  0.5611
 1338SOL    HW215474   1.759   0.547   5.781  2.6574 -1.6025  2.9869
 1339SOL     OW15475   3.624   0.360   7.198 -0.3351  0.4403 -0.9068
 1339SOL    HW115476   3.529   0.355   7.202 -0.2775 -0.2535 -0.3690
 1339SOL    HW215477   3.644   0.342   7.107  2.1386 -0.5540 -0.1822
 1340SOL     OW15478   2.139   3.119   0.618 -0.0024 -0.1354 -0.3099
 1340SOL    HW115479   2.181   3.046   0.572 -1.9000 -0.3743 -1.6583
 1340SOL    HW215480   2.053   3.110   0.577  0.4003  0.6657 -1.3246
 1341SOL     OW15481   3.876   1.264  10.273 -0.5861  0.2411  0.4887
 1341SOL    HW115482   3.896   1.242  10.364 -1.2265 -0.8168  0.3679
 1341SOL    HW215483   3.826   1.188  10.243 -0.6283  0.8716 -0.9913
 1342SOL     OW15484   3.309   2.026   8.852 -0.1806 -0.4348 -0.4273
 1342SOL    HW115485   3.324   2.107   8.900 -1.3019 -1.8401  2.3012
 1342SOL    HW215486   3.398   2.015   8.819  0.1244 -3.9660  1.6003
 1343SOL     OW15487   1.600   1.756   7.830 -0.0268 -0.5538 -0.5157
 1343SOL    HW115488   1.677   1.757   7.774 -0.3566  0.5483 -0.9356
 1343SOL    HW215489   1.557   1.683   7.785 -1.2988  0.3217 -0.7062
 1344SOL     OW15490   1.909   0.174   2.174 -0.0177 -0.0151  0.8136
 1344SOL    HW115491   1.920   0.229   2.252  1.9816 -1.5497  1.6034
 1344SOL    HW215492   1.976   0.106   2.178  1.4396  1.3966  0.1252
 1345SOL     OW15493   0.475   0.784  17.641 -0.0131 -0.1142  0.0795
 1345SOL    HW115494   0.455   0.842   0.022  1.1579  1.5643 -0.9533
 1345SOL    HW215495   0.513   0.836  17.571 -1.3570  0.2880 -0.3645
 1346SOL     OW15496   0.193   0.732   8.343  0.6553  0.4550 -0.4125
 1346SOL    HW115497   0.105   0.736   8.382  0.5332  0.8450 -0.7252
 1346SOL    HW215498   0.211   0.826   8.343  0.8703  0.4124 -0.6533
 1347SOL     OW15499   3.449   0.458   7.495  0.2066 -0.0848 -0.5929
 1347SOL    HW115500   3.510   0.386   7.479  1.7050  0.7041  1.5214
 1347SOL    HW215501   3.500   0.507   7.560 -2.2432 -0.9208  1.9572
 1348SOL     OW15502   4.717   3.202  12.937  0.9224 -0.6818  0.1260
 1348SOL    HW115503   0.017   3.284  12.894  1.4058 -1.7177 -1.5880
 1348SOL    HW215504   0.066   3.194  13.001  1.3790 -1.2539 -0.4567
 1349SOL     OW15505   4.443   4.211   6.383  0.3040  0.0371 -0.1054
 1349SOL    HW115506   4.432   4.284   6.444 -1.9496 -1.3794  1.2089
 1349SOL    HW215507   4.433   4.144   6.451 -1.1379  2.2429  1.8651
 1350SOL     OW15508   4.477   4.598   2.378 -0.3481  0.3625  0.4199
 1350SOL    HW115509   4.415   4.670   2.379 -0.9546 -0.1335 -1.4001
 1350SOL    HW215510   4.468   4.562   2.466 -0.8898  0.2407  0.3130
 1351SOL     OW15511   2.980   1.052   3.288  0.1047  0.7088  0.2005
 1351SOL    HW115512   2.930   1.130   3.262  0.6834  2.2672  3.7825
 1351SOL    HW215513   2.922   0.985   3.252 -0.6515  1.1264  0.6438
 1352SOL     OW15514   1.062   3.878   2.147  1.4508  0.2349  0.1581
 1352SOL    HW115515   1.102   3.883   2.060 -0.9492 -0.3905 -0.9789
 1352SOL    HW215516   1.139   3.904   2.198  1.0512 -0.3126  1.0443
 1353SOL     OW15517   4.058   4.629   2.681 -0.2401  0.2928 -0.4141
 1353SOL    HW115518   4.144   4.662   2.656  0.7150 -0.1678  2.1896
 1353SOL    HW215519   4.041   4.564   2.612 -1.4275 -2.3276  2.3161
 1354SOL     OW15520   0.644   4.404   5.854  0.1270 -0.0564 -0.6246
 1354SOL    HW115521   0.638   4.394   5.949 -0.6085 -1.5569 -0.8349
 1354SOL    HW215522   0.735   4.377   5.844  0.3378  0.4702 -0.1083
 1355SOL     OW15523   3.090   1.968   5.103  0.2904  0.7351  0.2723
 1355SOL    HW115524   3.105   1.874   5.096  0.4771  0.7841  0.0027
 1355SOL    HW215525   3.164   1.998   5.050  0.2350 -2.1782 -1.4337
 1356SOL     OW15526   0.423   3.714   7.023  0.5921 -0.3058 -0.7180
 1356SOL    HW115527   0.338   3.672   7.031 -0.2351  1.4686 -0.2095
 1356SOL    HW215528   0.460   3.661   6.952 -0.3751 -1.3660 -0.4351
 1357SOL     OW15529   3.599   3.264   8.409 -0.1432  0.6766 -0.4842
 1357SOL    HW115530   3.681   3.246   8.455 -0.0142 -2.5664 -1.9704
 1357SOL    HW215531   3.630   3.276   8.320  0.6245 -0.2497 -0.3446
 1358SOL     OW15532   3.264   4.463   4.122  0.4227 -0.5310 -0.5245
 1358SOL    HW115533   3.204   4.396   4.155  0.4536  0.4884  1.5971
 1358SOL    HW215534   3.313   4.425   4.050  0.2894 -0.9387 -0.3981
 1359SOL     OW15535   2.020   4.171   5.724 -0.2984 -0.1222  0.8915
 1359SOL    HW115536   2.024   4.118   5.644 -1.9024 -1.5107  1.7232
 1359SOL    HW215537   2.066   4.121   5.790 -0.6505 -0.8498  0.5891
 1360SOL     OW15538   1.138   3.224   8.897 -0.3123  0.5584  0.6227
 1360SOL    HW115539   1.206   3.179   8.848 -0.0915  0.0668  1.3861
 1360SOL    HW215540   1.063   3.219   8.838  1.5836  0.0465 -1.7582
 1361SOL     OW15541   3.058   1.914   3.183 -0.8195 -0.0452 -0.7864
 1361SOL    HW115542   2.968   1.927   3.153 -1.1437  0.0814  0.2336
 1361SOL    HW215543   3.090   1.847   3.123 -0.8394 -1.4970  0.8165
 1362SOL     OW15544   3.315   1.492   8.288  0.1180  0.5614 -0.4065
 1362SOL    HW115545   3.227   1.523   8.309 -0.1258 -2.1090  2.5092
 1362SOL    HW215546   3.295   1.415   8.234  0.1854  2.3896 -3.0443
 1363SOL     OW15547   4.482   1.505   3.153  0.4336  0.5576 -0.0385
 1363SOL    HW115548   4.544   1.535   3.087  2.0883 -0.5666  1.0320
 1363SOL    HW215549   4.476   1.411   3.139  0.0144  0.5077  0.4383
 1364SOL     OW15550   2.079   1.698   8.590  0.6706 -0.6155 -0.0754
 1364SOL    HW115551   2.071   1.602   8.586 -2.9903 -0.3612  0.9915
 1364SOL    HW215552   2.027   1.712   8.510 -1.3512 -0.9191  1.1798
 1365SOL     OW15553   4.559   4.273   4.784 -0.3002  0.3748  0.3710
 1365SOL    HW115554   4.471   4.307   4.800 -0.4450  0.3355 -0.3740
 1365SOL    HW215555   4.600   4.289   4.870 -0.2208  1.6190  0.1066
 1366SOL     OW15556   1.020   0.928   6.900 -0.7568 -0.1805  0.4341
 1366SOL    HW115557   1.076   0.867   6.949  0.7844  0.5334 -0.4125
 1366SOL    HW215558   1.065   0.919   6.816 -2.8658  1.6388 -0.8769
 1367SOL     OW15559   1.677   3.706   6.642 -0.3891 -0.2850  0.9039
 1367SOL    HW115560   1.681   3.800   6.659 -2.2884 -0.2489  1.1482
 1367SOL    HW215561   1.763   3.676   6.669 -0.0879 -1.1020 -0.9081
 1368SOL     OW15562   4.575   0.581  11.340 -0.3883 -0.4783  0.2962
 1368SOL    HW115563   4.578   0.499  11.390 -1.7452 -0.6680  0.0839
 1368SOL    HW215564   4.484   0.573  11.309  0.4431 -1.0861 -1.9341
 1369SOL     OW15565   4.084   2.446   8.029 -0.1125 -0.0576  0.2195
 1369SOL    HW115566   4.006   2.493   8.000 -1.1562 -2.0160 -0.0914
 1369SOL    HW215567   4.071   2.366   7.978  0.9128 -0.4002  0.4927
 1370SOL     OW15568   1.177   0.806  11.067  0.2417 -0.4033  0.4397
 1370SOL    HW115569   1.249   0.865  11.047 -0.6299  0.7466  0.7224
 1370SOL    HW215570   1.181   0.806  11.163  1.8066  2.4583  0.3658
 1371SOL     OW15571   1.079   2.175   8.080  0.6024 -0.1735 -0.5528
 1371SOL    HW115572   0.983   2.175   8.083  0.6450 -2.9771  0.7551
 1371SOL    HW215573   1.103   2.215   8.163 -2.2227 -2.8755  1.5839
 1372SOL     OW15574   4.702   0.816   1.020 -0.2321  0.2889  0.3304
 1372SOL    HW115575   4.671   0.898   0.982  1.2164  1.1827  1.0731
 1372SOL    HW215576   4.682   0.755   0.949  0.8227  0.5908 -0.2287
 1373SOL     OW15577   0.830   2.603  16.497  0.5990 -0.2814  0.3105
 1373SOL    HW115578   0.881   2.608  16.416  0.7917  1.3437  0.5333
 1373SOL    HW215579   0.811   2.511  16.518 -0.2421  0.4338  2.6451
 1374SOL     OW15580   0.906   1.957   2.819  0.1794  0.7905  0.2133
 1374SOL    HW115581   0.876   1.972   2.729  1.5584 -0.1700 -0.4094
 1374SOL    HW215582   0.993   1.994   2.805 -0.0587  0.8051 -1.2197
 1375SOL     OW15583   4.535   4.623  15.524 -0.9408  0.4127 -0.6303
 1375SOL    HW115584   4.535   4.528  15.512 -0.8105  0.4036 -0.5611
 1375SOL    HW215585   4.602   4.639  15.458  1.1043 -1.9127  0.8816
 1376SOL     OW15586   1.282   2.778   1.449  0.1929  0.5535 -0.0640
 1376SOL    HW115587   1.287   2.789   1.355  1.5977 -0.7972 -0.1454
 1376SOL    HW215588   1.349   2.709   1.448  1.6200  2.0002 -2.5655
 1377SOL     OW15589   0.765   3.812  17.496  0.4021 -0.0505 -0.3146
 1377SOL    HW115590   0.691   3.765  17.457  1.1260  0.4388 -2.3316
 1377SOL    HW215591   0.838   3.752  17.478  2.4487  2.1887  0.4502
 1378SOL     OW15592   0.609   3.259  13.632 -0.5053  0.1137  0.0340
 1378SOL    HW115593   0.588   3.182  13.686  1.5317 -1.9435 -2.0572
 1378SOL    HW215594   0.644   3.321  13.696 -1.1051 -0.6815  1.1394
 1379SOL     OW15595   3.285   3.146   4.662  0.4546  0.6131  0.2057
 1379SOL    HW115596   3.238   3.063   4.673  1.5403 -0.2524 -1.6541
 1379SOL    HW215597   3.218   3.206   4.629 -1.8846 -0.9949  1.9673
 1380SOL     OW15598   2.517   4.264  15.292  0.6846  0.1721 -0.1007
 1380SOL    HW115599   2.612   4.278  15.287  0.4227  2.0559  0.2884
 1380SOL    HW215600   2.491   4.233  15.206  2.6503 -0.5761 -0.4325
 1381SOL     OW15601   2.409   3.370   3.646  0.2328  0.3431  0.0335
 1381SOL    HW115602   2.394   3.358   3.552  0.3981 -0.4627  0.1106
 1381SOL    HW215603   2.504   3.363   3.649  0.2069 -0.5602 -1.5353
 1382SOL     OW15604   1.612   2.103   3.451 -0.2301 -0.5218  0.3606
 1382SOL    HW115605   1.626   2.070   3.362  1.1051  0.1877  0.3143
 1382SOL    HW215606   1.521   2.072   3.449 -0.0474 -1.0125 -0.4651
 1383SOL     OW15607   4.191   1.338  11.432  0.4049 -0.3382 -0.0316
 1383SOL    HW115608   4.251   1.296  11.493 -0.1741  0.2008  0.9205
 1383SOL    HW215609   4.108   1.324  11.477 -0.2769  4.5005  0.2664
 1384SOL     OW15610   1.127   3.794   8.538 -0.0735 -0.5284  0.4842
 1384SOL    HW115611   1.130   3.826   8.628 -1.1170 -1.3114  0.7956
 1384SOL    HW215612   1.108   3.700   8.541 -1.7278 -0.2174 -0.5771
 1385SOL     OW15613   4.196   3.379   0.509  0.1884 -0.1990 -0.7680
 1385SOL    HW115614   4.120   3.435   0.521 -0.5516 -0.9651 -1.8537
 1385SOL    HW215615   4.226   3.389   0.419 -2.7447  0.1126 -1.6912
 1386SOL     OW15616   0.688   1.624   3.241  0.4976 -1.1775 -0.1923
 1386SOL    HW115617   0.783   1.621   3.240  0.5589  0.6983  0.0215
 1386SOL    HW215618   0.666   1.652   3.152  0.7183 -3.5773 -1.0157
 1387SOL     OW15619   0.364   0.847  12.530  0.5271  0.2715  0.2442
 1387SOL    HW115620   0.436   0.877  12.474 -0.3527  1.3222 -0.3169
 1387SOL    HW215621   0.399   0.875  12.615  1.3195  0.4814 -0.1540
 1388SOL     OW15622   3.029   2.834   5.652  0.1932  0.5087  0.1220
 1388SOL    HW115623   3.042   2.755   5.704 -0.7707  0.5659  0.4422
 1388SOL    HW215624   3.082   2.814   5.575  0.3594 -1.9677  0.8900
 1389SOL     OW15625   4.237   1.239   5.621  0.1376 -0.2733 -0.2491
 1389SOL    HW115626   4.237   1.165   5.559  0.1418 -1.1272  0.7689
 1389SOL    HW215627   4.223   1.190   5.702  0.4398 -0.2907 -0.2042
 1390SOL     OW15628   0.608   0.239   8.643 -0.2881  0.4695 -0.9559
 1390SOL    HW115629   0.556   0.300   8.696 -1.3768  0.8263 -2.4416
 1390SOL    HW215630   0.627   0.293   8.566 -0.0017  1.5548 -0.1264
 1391SOL     OW15631   3.125   4.212   9.769 -0.8129 -0.8519 -0.2373
 1391SOL    HW115632   3.146   4.302   9.746 -2.0052  0.4079  3.4965
 1391SOL    HW215633   3.149   4.212   9.862  0.2431  2.3565 -0.5279
 1392SOL     OW15634   0.148   2.792   2.706 -0.2485  0.5215 -0.5283
 1392SOL    HW115635   0.195   2.835   2.634  0.1435 -2.3472 -1.9592
 1392SOL    HW215636   0.136   2.705   2.668 -1.4094 -0.3263  1.7994
 1393SOL     OW15637   0.837   2.884  16.439 -0.2469 -0.2420  0.4904
 1393SOL    HW115638   0.872   2.814  16.494  1.6922 -1.3441 -2.1331
 1393SOL    HW215639   0.763   2.843  16.393  0.7944 -0.8941 -0.6086
 1394SOL     OW15640   1.021   3.699  10.264 -0.8886 -0.1179  0.2149
 1394SOL    HW115641   1.065   3.615  10.278 -0.1356  0.3533  0.6455
 1394SOL    HW215642   1.040   3.743  10.346  0.2970  1.9383 -1.1671
 1395SOL     OW15643   3.064   3.388   7.437  0.0359 -0.3754  0.4656
 1395SOL    HW115644   3.026   3.471   7.467  0.5721  0.4328 -1.1046
 1395SOL    HW215645   3.155   3.417   7.435 -0.6489  1.6420 -1.7230
 1396SOL     OW15646   0.935   4.260   2.075  0.4901 -0.3443  0.6730
 1396SOL    HW115647   0.887   4.187   2.114  0.0584 -0.1991  0.4078
 1396SOL    HW215648   0.997   4.274   2.146  0.4460 -3.1385  1.2659
 1397SOL     OW15649   4.024   0.159   0.560 -0.4103 -0.6341  0.1699
 1397SOL    HW115650   4.054   0.178   0.649  1.1597  0.8246 -0.6686
 1397SOL    HW215651   4.038   0.064   0.563  1.5019 -0.4574 -2.3352
 1398SOL     OW15652   1.159   4.594  15.132  0.2956  0.1417  0.0520
 1398SOL    HW115653   1.112   4.539  15.069 -0.2062 -0.6609  1.1327
 1398SOL    HW215654   1.088   4.650  15.164 -0.4415 -0.3074 -0.8020
 1399SOL     OW15655   2.659   1.583  10.167  0.2094  0.0859 -0.1305
 1399SOL    HW115656   2.731   1.531  10.131  0.2069 -0.8736  1.2741
 1399SOL    HW215657   2.680   1.667  10.124  0.8571 -0.7061 -1.3811
 1400SOL     OW15658   2.655   0.845   2.429  0.3984  0.2582  0.1933
 1400SOL    HW115659   2.737   0.856   2.381 -0.1786  0.6535 -0.7082
 1400SOL    HW215660   2.685   0.874   2.515  1.4991 -0.3840  0.0295
 1401SOL     OW15661   4.553   1.271  10.778  0.4847 -0.4305  0.4354
 1401SOL    HW115662   4.473   1.220  10.792  0.0287 -0.2809 -1.6409
 1401SOL    HW215663   4.541   1.287  10.685 -2.0567 -0.4352  0.7536
 1402SOL     OW15664   1.495   3.811  15.515 -0.1651 -0.6939  0.0065
 1402SOL    HW115665   1.405   3.823  15.546 -0.8375 -1.9832 -1.3643
 1402SOL    HW215666   1.516   3.902  15.496 -3.3993  0.7885  3.6183
 1403SOL     OW15667   0.396   0.357  12.701  0.2154  0.4169 -0.9408
 1403SOL    HW115668   0.411   0.452  12.694  0.3060  0.5260  0.7241
 1403SOL    HW215669   0.430   0.335  12.787  1.0922 -1.9660 -1.8968
 1404SOL     OW15670   4.490   2.353  12.549 -0.7888  0.6689 -0.0148
 1404SOL    HW115671   4.583   2.370  12.534 -0.4614  0.3833  1.6748
 1404SOL    HW215672   4.493   2.316  12.638  0.5173  1.3001  0.2137
 1405SOL     OW15673   3.400   0.488   9.115  0.2053 -0.7235  0.2361
 1405SOL    HW115674   3.330   0.428   9.087 -0.7599  0.3552  0.3452
 1405SOL    HW215675   3.370   0.500   9.205 -0.1275  1.7334 -0.2126
 1406SOL     OW15676   1.920   1.604   4.380 -0.2029  0.5693 -0.1826
 1406SOL    HW115677   1.876   1.689   4.376  0.5759  0.9583 -0.4759
 1406SOL    HW215678   2.013   1.626   4.370 -0.1265  0.0231 -0.7028
 1407SOL     OW15679   0.833   4.288   4.195 -0.2134  0.1496  0.0998
 1407SOL    HW115680   0.921   4.250   4.190  0.1388  0.9641  0.1679
 1407SOL    HW215681   0.789   4.209   4.226 -0.1568  0.3986  0.8131
 1408SOL     OW15682   1.163   2.345   3.869 -0.4101  0.0012 -0.9143
 1408SOL    HW115683   1.135   2.274   3.927  0.9790 -0.0459 -0.2971
 1408SOL    HW215684   1.203   2.301   3.793  2.8926 -1.4295  1.6352
 1409SOL     OW15685   0.830   4.334   8.788  0.2599 -0.1229 -0.3430
 1409SOL    HW115686   0.817   4.247   8.749 -1.3295 -0.8249  1.7346
 1409SOL    HW215687   0.917   4.329   8.828  0.4012  0.1370 -0.6149
 1410SOL     OW15688   3.034   2.428   5.140  0.6545  0.1715 -0.4357
 1410SOL    HW115689   2.938   2.433   5.142  0.6923  0.2626  1.4020
 1410SOL    HW215690   3.046   2.347   5.189 -3.5527  1.8157  3.3797
 1411SOL     OW15691   3.068   1.395  13.709  0.1208 -0.1487 -0.5535
 1411SOL    HW115692   3.067   1.489  13.689 -0.9257 -0.2344 -0.8953
 1411SOL    HW215693   2.993   1.357  13.663 -0.7990 -0.2113  0.9887
 1412SOL     OW15694   0.160   4.706  13.110  0.6383  0.2164  0.0787
 1412SOL    HW115695   0.211   0.051  13.155  3.6985 -2.3011  0.4271
 1412SOL    HW215696   0.111   0.043  13.053 -0.4083 -1.8057 -1.1368
 1413SOL     OW15697   2.341   1.231   7.125 -0.0991 -0.0882 -0.3621
 1413SOL    HW115698   2.317   1.161   7.065  0.5915 -0.1390 -0.5805
 1413SOL    HW215699   2.435   1.217   7.124  0.1418  1.4866 -0.1336
 1414SOL     OW15700   1.343   0.147   5.745  0.0431 -0.1391 -0.3727
 1414SOL    HW115701   1.392   0.189   5.816 -2.6769  2.1656  0.1588
 1414SOL    HW215702   1.321   0.222   5.689  1.1854  0.4779  0.0133
 1415SOL     OW15703   1.089   1.950   2.424 -0.2331 -0.4904 -0.5997
 1415SOL    HW115704   1.133   1.926   2.343 -1.0769 -2.8460 -0.3723
 1415SOL    HW215705   1.017   1.887   2.418  1.1758 -1.9190 -2.1156
 1416SOL     OW15706   2.778   0.876   3.193 -0.9492  0.1500 -0.1349
 1416SOL    HW115707   2.710   0.812   3.172 -0.6521  0.4551 -2.0177
 1416SOL    HW215708   2.856   0.821   3.184 -0.2929  0.7086  2.0793
 1417SOL     OW15709   2.424   3.629   0.533  0.7318 -0.2198  0.2945
 1417SOL    HW115710   2.387   3.717   0.539 -2.1658 -1.3633 -0.8402
 1417SOL    HW215711   2.350   3.578   0.500  1.6832 -2.1626  1.2056
 1418SOL     OW15712   1.787   0.933   0.083  0.5088 -0.5041  0.7389
 1418SOL    HW115713   1.807   0.980   0.002  1.0532  0.3532  1.3627
 1418SOL    HW215714   1.694   0.912   0.075  0.2754  0.3648  1.2389
 1419SOL     OW15715   2.914   2.403  15.889 -0.4043  0.3143 -0.0542
 1419SOL    HW115716   2.858   2.327  15.874 -1.3573  0.5528  2.3607
 1419SOL    HW215717   3.002   2.370  15.870 -1.5304 -2.9187  0.3570
 1420SOL     OW15718   1.263   4.695  10.563 -1.2821  0.1098  0.0493
 1420SOL    HW115719   1.302   4.650  10.638 -2.6645 -0.5570  0.3775
 1420SOL    HW215720   1.230   0.057  10.594 -0.6287 -0.8760  3.3942
 1421SOL     OW15721   3.790   3.452  13.962  0.0873 -0.2689 -0.4193
 1421SOL    HW115722   3.881   3.452  13.932 -0.3224  0.3966 -1.6998
 1421SOL    HW215723   3.745   3.478  13.881 -0.9697 -0.7020  0.0192
 1422SOL     OW15724   1.174   3.850   4.737 -0.6729  0.2185 -0.2664
 1422SOL    HW115725   1.184   3.764   4.777  2.7875  0.3350 -0.9022
 1422SOL    HW215726   1.267   3.871   4.729 -0.2447 -0.5801  2.6625
 1423SOL     OW15727   4.262   3.653   5.949  0.2840 -0.5783 -0.8684
 1423SOL    HW115728   4.290   3.571   5.907  0.8632 -1.1541  0.6291
 1423SOL    HW215729   4.168   3.643   5.941  0.3105  1.0157 -3.1214
 1424SOL     OW15730   1.677   3.291   2.993  0.5264 -0.6572  0.1194
 1424SOL    HW115731   1.593   3.331   2.969  0.3672 -1.3262 -0.4680
 1424SOL    HW215732   1.733   3.334   2.929 -1.6129  1.7830 -0.1333
 1425SOL     OW15733   1.874   3.462   0.810 -1.1011 -0.6278 -0.2554
 1425SOL    HW115734   1.969   3.451   0.797 -1.0849 -1.3038  0.4723
 1425SOL    HW215735   1.848   3.432   0.723 -1.2492  0.3964 -0.5629
 1426SOL     OW15736   3.524   2.677   2.583  0.7401  0.8568  0.0104
 1426SOL    HW115737   3.570   2.723   2.654  2.9184 -1.3575  0.0282
 1426SOL    HW215738   3.536   2.583   2.596 -2.1785  0.5150  0.1864
 1427SOL     OW15739   4.047   4.282  11.866  0.1129 -0.1588 -0.3645
 1427SOL    HW115740   4.041   4.232  11.947  3.1451 -0.2609 -0.1761
 1427SOL    HW215741   4.118   4.341  11.892  0.0219  0.5820 -1.7671
 1428SOL     OW15742   2.672   2.663   5.321  0.3037 -0.0388  0.6790
 1428SOL    HW115743   2.636   2.668   5.410 -0.2302 -1.3523  0.5405
 1428SOL    HW215744   2.597   2.701   5.276  0.0390  0.2923  1.3958
 1429SOL     OW15745   0.999   3.540   6.331 -0.0835  0.3247  0.3792
 1429SOL    HW115746   0.989   3.553   6.425 -0.3108  4.0450 -0.1246
 1429SOL    HW215747   1.092   3.519   6.333 -0.5680 -1.5824  2.9077
 1430SOL     OW15748   4.121   2.745   0.597  0.6068  0.1703 -0.7039
 1430SOL    HW115749   4.028   2.724   0.584  0.7901 -0.2230 -1.3756
 1430SOL    HW215750   4.122   2.840   0.583 -1.3746  0.6470  2.3577
 1431SOL     OW15751   2.680   0.349   7.879  0.1443 -0.1287  0.3434
 1431SOL    HW115752   2.586   0.361   7.868  0.2405 -1.5394 -1.8819
 1431SOL    HW215753   2.692   0.338   7.974  1.4410  0.2930  0.2262
 1432SOL     OW15754   3.245   1.737   5.098 -0.0424 -0.3824  0.0391
 1432SOL    HW115755   3.262   1.692   5.015  0.4862 -0.7236  0.3330
 1432SOL    HW215756   3.329   1.711   5.135 -0.6789 -1.5652  0.6671
 1433SOL     OW15757   1.934   3.906   1.927  0.6003 -0.0871  0.1624
 1433SOL    HW115758   1.982   3.946   1.854  0.2680 -3.7188 -2.0590
 1433SOL    HW215759   1.975   3.819   1.933 -0.5824 -0.6058  0.6648
 1434SOL     OW15760   3.104   0.362   8.512 -0.1806 -0.1470 -0.4711
 1434SOL    HW115761   3.097   0.351   8.607 -3.9998 -0.3512 -0.7655
 1434SOL    HW215762   3.187   0.409   8.512 -0.3176  0.0901  0.7254
 1435SOL     OW15763   0.250   2.892   3.557  0.2301 -0.1228  0.3148
 1435SOL    HW115764   0.344   2.880   3.541  0.4645  2.9174 -0.6871
 1435SOL    HW215765   0.229   2.941   3.477 -0.1512 -1.7680 -0.5878
 1436SOL     OW15766   2.045   2.040  16.148  0.1011 -0.1707  0.1538
 1436SOL    HW115767   2.125   2.084  16.118 -0.1181  1.0304  1.3404
 1436SOL    HW215768   2.082   1.960  16.186  2.0322 -1.0161 -3.5050
 1437SOL     OW15769   1.646   2.601   8.838 -0.4733 -0.5722  0.6438
 1437SOL    HW115770   1.685   2.685   8.815 -3.3834  0.0430 -2.0190
 1437SOL    HW215771   1.724   2.568   8.883  1.7290  2.8480 -0.6240
 1438SOL     OW15772   1.973   4.583   1.914 -0.3226  0.2559 -0.2773
 1438SOL    HW115773   1.973   4.509   1.854 -0.8316 -0.5261  0.6815
 1438SOL    HW215774   1.936   4.649   1.856  2.0728  2.1628  0.3896
 1439SOL     OW15775   0.722   2.398   4.504  0.0523  0.2055  0.6024
 1439SOL    HW115776   0.695   2.316   4.544 -0.6238 -0.1401 -0.5548
 1439SOL    HW215777   0.733   2.358   4.417 -0.9113  2.3291 -0.4841
 1440SOL     OW15778   2.574   1.563   2.788  0.7541 -0.0876  0.2980
 1440SOL    HW115779   2.480   1.581   2.785  0.5522 -1.0773  0.5982
 1440SOL    HW215780   2.581   1.544   2.882 -0.8773  3.6415  1.1936
 1441SOL     OW15781   2.850   2.273   6.645 -0.0624 -0.2982 -0.2707
 1441SOL    HW115782   2.772   2.247   6.694 -0.5634  0.8980 -0.4351
 1441SOL    HW215783   2.883   2.333   6.712  0.9724 -0.1982 -0.8719
 1442SOL     OW15784   1.107   3.186   2.814  0.4152  0.0134  0.2771
 1442SOL    HW115785   1.136   3.273   2.785  0.3869 -0.4702 -1.2143
 1442SOL    HW215786   1.012   3.196   2.810  0.4314 -1.1390 -2.8223
 1443SOL     OW15787   1.223   1.992   4.239  0.0620  0.0084  0.8904
 1443SOL    HW115788   1.302   2.039   4.265 -0.5130 -0.0754  2.7366
 1443SOL    HW215789   1.239   1.979   4.145 -0.0656  2.1412  0.5684
 1444SOL     OW15790   1.060   3.406  11.524 -0.4221 -0.5154  0.0274
 1444SOL    HW115791   1.017   3.468  11.583 -0.9439  0.3943 -1.3308
 1444SOL    HW215792   1.129   3.456  11.481 -0.7728 -0.0382  0.0180
 1445SOL     OW15793   4.199   1.498   9.053 -0.6313  0.0332 -0.4052
 1445SOL    HW115794   4.137   1.425   9.050  0.1032 -0.5905 -0.4494
 1445SOL    HW215795   4.194   1.533   9.142 -0.0486 -2.9387  0.8123
 1446SOL     OW15796   4.229   3.069   4.305  0.1338  0.3524  0.0887
 1446SOL    HW115797   4.301   3.132   4.314  0.4813 -0.1764  1.0556
 1446SOL    HW215798   4.277   2.987   4.319 -0.4012 -0.1592 -1.0744
 1447SOL     OW15799   2.556   4.310   7.124 -0.2011  0.1771  0.1362
 1447SOL    HW115800   2.604   4.298   7.205  0.4207  3.7796  0.2781
 1447SOL    HW215801   2.495   4.236   7.131 -1.8141  1.3936 -0.9547
 1448SOL     OW15802   2.448   1.251   3.070  0.1354  0.1795 -0.0418
 1448SOL    HW115803   2.375   1.190   3.080  0.5651 -0.0220  1.7884
 1448SOL    HW215804   2.500   1.226   3.146 -0.0009  2.1140  0.6920
 1449SOL     OW15805   4.156   4.137  14.250  0.3261 -0.4522 -0.3688
 1449SOL    HW115806   4.143   4.101  14.162  2.4323  0.9801 -1.2850
 1449SOL    HW215807   4.112   4.222  14.248  1.3145 -0.0110 -3.1021
 1450SOL     OW15808   4.333   2.447   4.021 -0.6386 -0.0329  0.3079
 1450SOL    HW115809   4.275   2.381   3.983 -0.6788 -0.4156  1.0282
 1450SOL    HW215810   4.399   2.436   3.953 -1.2261  1.9988 -0.5889
 1451SOL     OW15811   1.343   1.191  13.147 -0.2729 -1.1573 -0.1232
 1451SOL    HW115812   1.438   1.191  13.154 -0.2371 -1.2737 -0.6457
 1451SOL    HW215813   1.332   1.262  13.211 -2.9759 -2.9967  1.4607
 1452SOL     OW15814   3.861   1.640  10.017  0.2754  0.0356  0.0430
 1452SOL    HW115815   3.859   1.550   9.984  0.3452 -0.0815  0.3514
 1452SOL    HW215816   3.952   1.666  10.004  0.9808 -1.3654  2.0412
 1453SOL     OW15817   1.487   2.572   5.196 -0.3876 -0.4731 -0.5784
 1453SOL    HW115818   1.523   2.563   5.108  1.3749  1.0062  0.0034
 1453SOL    HW215819   1.395   2.547   5.184 -0.9675  0.4480  1.8960
 1454SOL     OW15820   2.833   2.436   3.752  0.0871 -0.4650  0.0329
 1454SOL    HW115821   2.878   2.507   3.799 -2.3256  1.2536 -0.2779
 1454SOL    HW215822   2.756   2.431   3.808  1.1956  2.6127  1.8806
 1455SOL     OW15823   2.761   2.847  10.538 -0.2614  0.3992 -0.0716
 1455SOL    HW115824   2.725   2.840  10.449 -0.1567 -1.4871  0.0232
 1455SOL    HW215825   2.826   2.917  10.534  0.7050 -0.5230 -0.4518
 1456SOL     OW15826   2.967   4.483   7.435  0.0023  0.0774 -0.2656
 1456SOL    HW115827   2.928   4.494   7.522  1.2750 -0.8758  0.4217
 1456SOL    HW215828   2.888   4.498   7.383  0.3172 -3.2843 -1.7320
 1457SOL     OW15829   4.000   0.209   3.134 -1.4181  0.0573 -0.5425
 1457SOL    HW115830   4.006   0.235   3.042  0.7348  1.5425  0.0152
 1457SOL    HW215831   3.910   0.177   3.128 -1.3524 -0.0024 -1.1768
 1458SOL     OW15832   0.332   4.474  14.143 -0.1523 -0.2288 -0.4257
 1458SOL    HW115833   0.405   4.468  14.204  0.0139  2.5417 -0.3723
 1458SOL    HW215834   0.273   4.421  14.196  0.6457  0.4616  1.1272
 1459SOL     OW15835   1.119   2.921  12.347  0.1316  0.2636 -0.1342
 1459SOL    HW115836   1.112   2.871  12.428  0.5575 -0.6682 -0.6751
 1459SOL    HW215837   1.213   2.920  12.328  0.0725 -1.6161 -0.2942
 1460SOL     OW15838   0.048   4.065  17.342  0.0751  0.2819  0.5729
 1460SOL    HW115839   0.087   4.121  17.274  0.8692 -3.4837 -2.0372
 1460SOL    HW215840   4.703   4.127  17.368  0.0012  1.3978 -2.2972
 1461SOL     OW15841   0.333   4.223   1.599  0.2002  0.8889 -0.3824
 1461SOL    HW115842   0.265   4.181   1.650  0.3945  1.0761  0.0368
 1461SOL    HW215843   0.380   4.262   1.673  3.3951  0.4962 -2.2082
 1462SOL     OW15844   3.494   2.826   8.768  0.0061 -0.1456  0.1545
 1462SOL    HW115845   3.534   2.775   8.838 -2.1769 -1.0773  0.7524
 1462SOL    HW215846   3.542   2.908   8.765 -1.4879  0.6225 -2.5351
 1463SOL     OW15847   0.414   2.155   4.300 -0.5647 -0.7257  0.1009
 1463SOL    HW115848   0.487   2.162   4.239  0.0070 -0.4654  0.8203
 1463SOL    HW215849   0.444   2.068   4.328 -1.0926  0.1850  3.4573
 1464SOL     OW15850   3.933   2.821  17.351  0.3988  0.1100  0.0732
 1464SOL    HW115851   3.896   2.765  17.419 -3.6038  1.2568 -1.1296
 1464SOL    HW215852   3.990   2.756  17.310  1.9258  2.6620 -1.8223
 1465SOL     OW15853   1.927   2.918   0.781 -0.3572  0.0746 -0.1237
 1465SOL    HW115854   2.001   2.913   0.841  0.7543  0.2458 -1.4542
 1465SOL    HW215855   1.881   2.994   0.815  0.8439  0.8977 -0.3336
 1466SOL     OW15856   2.733   3.871   6.477 -0.0274  0.7038  0.5522
 1466SOL    HW115857   2.820   3.836   6.494 -0.6330 -0.8436  0.5040
 1466SOL    HW215858   2.749   3.953   6.430  0.6996  0.6916  0.7834
 1467SOL     OW15859   2.300   2.085  16.098  0.2186  0.5088 -0.4252
 1467SOL    HW115860   2.318   2.146  16.170  0.8967 -1.4528  1.0698
 1467SOL    HW215861   2.392   2.075  16.076  0.9247  1.0152  2.2534
 1468SOL     OW15862   3.427   2.820   6.210 -0.0975  0.0612  0.0874
 1468SOL    HW115863   3.442   2.911   6.233  1.4841 -0.2255  0.1542
 1468SOL    HW215864   3.341   2.812   6.251 -1.1052  0.0922 -2.0048
 1469SOL     OW15865   3.007   3.352  16.042 -0.4628  0.6730 -0.0310
 1469SOL    HW115866   2.980   3.291  16.111  0.5971 -0.9684 -1.0520
 1469SOL    HW215867   2.934   3.412  16.031  0.1491  1.5526  0.6713
 1470SOL     OW15868   2.271   2.822   6.778 -0.2640 -0.3987 -0.0520
 1470SOL    HW115869   2.364   2.822   6.803 -0.1965 -0.3264 -0.3121
 1470SOL    HW215870   2.230   2.766   6.844 -1.3621 -2.6335 -2.6637
 1471SOL     OW15871   3.092   4.530  14.297 -0.4614 -0.3972  0.3735
 1471SOL    HW115872   3.089   4.449  14.348  0.7758 -0.3394  0.5508
 1471SOL    HW215873   3.001   4.558  14.304 -0.9802 -1.9825 -0.0780
 1472SOL     OW15874   2.699   2.310   7.326 -0.6239  0.3397  0.4675
 1472SOL    HW115875   2.778   2.344   7.370 -0.2326  0.0705 -0.0315
 1472SOL    HW215876   2.710   2.218   7.351 -0.2029  1.2982  3.8281
 1473SOL     OW15877   0.189   1.931   6.539 -0.1849  0.0555 -0.2907
 1473SOL    HW115878   0.220   2.021   6.531 -0.4380  0.1281 -0.4774
 1473SOL    HW215879   0.097   1.938   6.512 -1.0786 -1.0613  2.4438
 1474SOL     OW15880   4.634   0.599   3.025  0.0407  0.0705  0.2302
 1474SOL    HW115881   4.582   0.520   3.039 -0.1309 -0.0246 -0.8971
 1474SOL    HW215882   4.627   0.631   3.115 -0.7249  2.3739 -0.6394
 1475SOL     OW15883   1.738   4.712  13.242 -0.4582  0.0823  0.1584
 1475SOL    HW115884   1.784   0.058  13.194 -1.2071  0.3721 -0.1379
 1475SOL    HW215885   1.655   0.033  13.260 -0.0649  1.1480 -0.5934
 1476SOL     OW15886   2.164   4.402   4.512  0.2015  0.1583 -0.1940
 1476SOL    HW115887   2.112   4.465   4.462 -0.2063  0.7026  0.9304
 1476SOL    HW215888   2.163   4.447   4.596  3.4301 -0.7486  0.3013
 1477SOL     OW15889   3.083   0.401   8.208 -0.0979  0.2624  0.0989
 1477SOL    HW115890   3.073   0.314   8.171  1.5659  1.0463 -2.1823
 1477SOL    HW215891   3.089   0.375   8.300  0.2887  1.3214  0.3803
 1478SOL     OW15892   2.456   0.095  11.352 -0.0042 -0.1654  0.1664
 1478SOL    HW115893   2.527   0.044  11.314 -0.2682  0.0917 -0.6817
 1478SOL    HW215894   2.426   0.144  11.275  1.4516  1.2886  0.5245
 1479SOL     OW15895   2.713   4.129   2.637  0.4193 -0.1514 -0.3215
 1479SOL    HW115896   2.729   4.063   2.705 -0.3710 -0.8453 -0.7954
 1479SOL    HW215897   2.669   4.076   2.570 -1.8431 -0.0371  1.0751
 1480SOL     OW15898   0.563   3.021   6.955 -0.3120  0.0751 -0.4341
 1480SOL    HW115899   0.550   3.107   6.915 -0.2707  0.6800  0.8513
 1480SOL    HW215900   0.476   3.003   6.990 -0.3111 -1.1652 -1.0653
 1481SOL     OW15901   2.461   0.462   4.352  0.0833  0.2362  0.0202
 1481SOL    HW115902   2.366   0.467   4.344 -0.1285 -0.5244  2.0954
 1481SOL    HW215903   2.481   0.554   4.369 -0.7858  0.2628  0.9274
 1482SOL     OW15904   1.454   4.278   1.880 -0.3859 -0.0689  0.3317
 1482SOL    HW115905   1.443   4.196   1.929 -1.4837 -0.3437 -0.3918
 1482SOL    HW215906   1.484   4.249   1.794 -1.9298  0.1970 -0.3045
 1483SOL     OW15907   0.141   4.311   5.190 -0.5960 -0.0412 -0.4614
 1483SOL    HW115908   0.183   4.251   5.251  2.0886  0.6478 -1.5846
 1483SOL    HW215909   0.218   4.367   5.174 -0.9396  0.8020  0.8827
 1484SOL     OW15910   2.025   3.483  14.145  0.7613 -0.2055 -0.0581
 1484SOL    HW115911   2.040   3.536  14.222 -0.3590 -2.5140  1.7632
 1484SOL    HW215912   1.935   3.450  14.158  0.6865 -0.8319 -2.1227
 1485SOL     OW15913   0.235   1.059   7.736  0.1497  0.5840  0.1709
 1485SOL    HW115914   0.239   0.994   7.665  2.0226  0.2217  0.6221
 1485SOL    HW215915   0.258   1.012   7.816  0.8141 -0.3501 -0.5680
 1486SOL     OW15916   1.793   2.099   5.998  0.0628  0.0426 -0.1963
 1486SOL    HW115917   1.797   2.078   6.092 -2.2639 -1.2297 -0.3824
 1486SOL    HW215918   1.833   2.026   5.952  2.5737 -0.8754  3.4694
 1487SOL     OW15919   4.343   4.372   6.615 -0.3812 -0.0326 -0.1051
 1487SOL    HW115920   4.281   4.375   6.688 -3.0463 -0.7334 -2.3345
 1487SOL    HW215921   4.423   4.386   6.664  0.5842  2.4569 -2.3752
 1488SOL     OW15922   4.646   1.766   3.917 -0.0202  0.1703 -0.4105
 1488SOL    HW115923   4.691   1.839   3.874 -2.7186  0.3678 -2.8655
 1488SOL    HW215924   4.564   1.760   3.869  0.1875 -1.4383 -0.5584
 1489SOL     OW15925   0.404   3.811  15.991 -0.2040 -0.0029 -0.5458
 1489SOL    HW115926   0.374   3.855  16.071 -0.3325 -0.0953 -0.5438
 1489SOL    HW215927   0.484   3.861  15.974 -1.1049  1.1698 -1.3436
 1490SOL     OW15928   2.275   1.288   2.732  0.0621 -0.5821  0.2417
 1490SOL    HW115929   2.268   1.368   2.784 -1.1257 -0.3078 -0.3546
 1490SOL    HW215930   2.193   1.244   2.750 -0.3458  0.4959  1.0780
 1491SOL     OW15931   3.545   0.845   8.936 -0.4821  0.0183 -0.1195
 1491SOL    HW115932   3.568   0.823   9.026  1.4138 -0.1288 -0.6227
 1491SOL    HW215933   3.455   0.814   8.933 -0.1303 -1.1246  1.1195
 1492SOL     OW15934   3.080   1.474   6.831  0.1251 -0.8065  0.4464
 1492SOL    HW115935   3.171   1.457   6.808 -0.1265  0.4079 -1.4403
 1492SOL    HW215936   3.089   1.510   6.920  0.3785 -0.9033  0.4599
 1493SOL     OW15937   3.231   3.420   1.772 -0.2967 -0.4079  0.4232
 1493SOL    HW115938   3.166   3.483   1.742  0.5465 -0.1492 -0.8629
 1493SOL    HW215939   3.309   3.464   1.738  1.5474 -3.3891  0.7661
 1494SOL     OW15940   3.530   2.246   5.318 -0.2944  0.0349 -0.2913
 1494SOL    HW115941   3.578   2.309   5.372 -0.8106 -0.9691  1.3320
 1494SOL    HW215942   3.487   2.295   5.248 -1.8830 -0.8175  0.1110
 1495SOL     OW15943   1.089   1.240   9.409  0.0666 -0.3787 -0.6325
 1495SOL    HW115944   1.123   1.219   9.496  0.1784  0.3400 -0.5021
 1495SOL    HW215945   1.029   1.313   9.423  1.1832  0.3888  0.1932
 1496SOL     OW15946   1.917   0.909   7.535  0.5846 -0.1304  0.7076
 1496SOL    HW115947   1.897   0.842   7.469 -0.7214  0.3125  0.6515
 1496SOL    HW215948   1.984   0.952   7.483 -0.0765 -1.0189 -0.9170
 1497SOL     OW15949   3.029   1.238   1.144 -0.1672 -0.1068  0.2856
 1497SOL    HW115950   3.045   1.294   1.068  1.7189 -1.0424 -0.0090
 1497SOL    HW215951   3.119   1.239   1.175  0.9688  2.5200 -3.0987
 1498SOL     OW15952   2.223   2.268   8.326 -0.2869 -0.1903 -0.6463
 1498SOL    HW115953   2.210   2.277   8.421  0.3730  0.8471 -0.6454
 1498SOL    HW215954   2.228   2.360   8.299 -4.5607 -0.0984 -1.0728
 1499SOL     OW15955   1.288   2.145   5.348 -0.1051 -0.0670  0.3887
 1499SOL    HW115956   1.373   2.110   5.374 -0.6307 -0.6074  1.4025
 1499SOL    HW215957   1.282   2.228   5.395 -0.8856  0.5502 -0.7851
 1500SOL     OW15958   0.512   0.709  15.525 -0.5105  0.2675  0.0403
 1500SOL    HW115959   0.541   0.703  15.616 -1.5103 -1.7098  0.2525
 1500SOL    HW215960   0.589   0.733  15.473  0.8896  0.2153  2.0773
 1501SOL     OW15961   2.162   2.248   9.662  0.1503  0.1365  0.3412
 1501SOL    HW115962   2.167   2.328   9.609 -1.8289 -0.9059 -1.4347
 1501SOL    HW215963   2.226   2.191   9.619 -1.8409 -1.6169 -0.2802
 1502SOL     OW15964   3.639   1.178   1.460 -0.0216  0.1467  0.4798
 1502SOL    HW115965   3.548   1.183   1.488  0.2311  1.8824  1.0286
 1502SOL    HW215966   3.634   1.111   1.392 -2.2331  0.5893  0.2105
 1503SOL     OW15967   0.944   3.510   1.598 -0.0628  0.2316 -1.0850
 1503SOL    HW115968   0.994   3.478   1.674 -1.7477 -0.0547 -0.0887
 1503SOL    HW215969   0.882   3.569   1.639  0.3817 -0.3349  0.4131
 1504SOL     OW15970   4.634   4.500  14.961 -0.0618 -0.6285  0.5758
 1504SOL    HW115971   4.654   4.427  15.020 -0.6623 -0.3179  1.1643
 1504SOL    HW215972   0.002   4.518  14.935 -0.2881  0.4826  0.5456
 1505SOL     OW15973   3.645   4.538   4.000  0.0813 -0.1493 -0.3116
 1505SOL    HW115974   3.626   4.458   3.951  2.1942 -2.6384  2.9296
 1505SOL    HW215975   3.725   4.513   4.047  0.1522  1.4612  0.4044
 1506SOL     OW15976   1.437   4.670   2.065 -0.2071 -0.2822  0.3809
 1506SOL    HW115977   1.532   4.656   2.063  0.3520  3.2668  1.4781
 1506SOL    HW215978   1.446   0.034   2.026  2.3869 -1.2953 -1.2436
 1507SOL     OW15979   0.577   4.411   2.511  0.2609 -0.5030  0.1741
 1507SOL    HW115980   0.649   4.365   2.468 -1.5496 -1.9192 -1.3674
 1507SOL    HW215981   0.503   4.359   2.480 -0.5679  0.3789  0.6564
 1508SOL     OW15982   3.784   2.377   6.322 -0.6073 -0.8076 -0.5145
 1508SOL    HW115983   3.698   2.418   6.334 -1.2377 -2.0488 -0.7869
 1508SOL    HW215984   3.807   2.435   6.249 -0.1349  1.6582  1.5706
 1509SOL     OW15985   3.587   3.444  15.489 -0.4012  0.2813  0.0565
 1509SOL    HW115986   3.566   3.437  15.582 -2.3605 -0.2401 -0.4182
 1509SOL    HW215987   3.538   3.525  15.474 -0.8743 -0.4023 -2.0665
 1510SOL     OW15988   2.590   2.806   0.905 -0.0260  0.2524 -0.2909
 1510SOL    HW115989   2.545   2.874   0.954 -2.3006 -0.5431 -1.2997
 1510SOL    HW215990   2.535   2.795   0.828 -0.7572  1.4021  0.0618
 1511SOL     OW15991   4.083   3.628   1.458  0.4873  0.2664 -0.5314
 1511SOL    HW115992   4.051   3.715   1.484  0.6004  0.3008 -0.5055
 1511SOL    HW215993   4.176   3.636   1.436 -0.1636  1.5025 -2.8259
 1512SOL     OW15994   1.202   0.228   7.722 -0.3641 -0.3483 -0.9294
 1512SOL    HW115995   1.279   0.174   7.702  0.0929 -0.2858  0.6389
 1512SOL    HW215996   1.182   0.258   7.634 -0.8376  1.1128 -0.3350
 1513SOL     OW15997   2.566   3.107   4.022 -0.5814 -0.0769 -0.0792
 1513SOL    HW115998   2.572   3.088   3.929  0.0832  0.4552 -0.1464
 1513SOL    HW215999   2.490   3.061   4.059  0.0314 -2.3601 -1.6545
 1514SOL     OW16000   1.592   1.243   3.344 -0.2786 -0.4164  0.7103
 1514SOL    HW116001   1.628   1.324   3.379 -1.0030 -0.6806  2.0779
 1514SOL    HW216002   1.601   1.256   3.250 -1.3904 -1.1781  0.4946
 1515SOL     OW16003   3.445   4.561  16.146 -0.1429  0.2477  0.4388
 1515SOL    HW116004   3.441   4.590  16.055  1.9091 -2.9254 -0.6257
 1515SOL    HW216005   3.427   4.468  16.139  0.5234  0.1534  0.0609
 1516SOL     OW16006   1.910   4.153  13.085 -1.2449 -0.2921  0.4764
 1516SOL    HW116007   1.895   4.246  13.102  2.0183  0.2249  0.4459
 1516SOL    HW216008   1.852   4.109  13.147 -0.8259 -0.9555  0.3960
 1517SOL     OW16009   2.160   1.517   4.075 -0.3823  0.5370  0.4472
 1517SOL    HW116010   2.069   1.487   4.077  0.1651 -1.0935  0.6564
 1517SOL    HW216011   2.204   1.446   4.028 -0.3256  1.3260 -0.6974
 1518SOL     OW16012   0.329   0.769  14.473  0.3927 -0.1923  0.4167
 1518SOL    HW116013   0.332   0.692  14.417  1.1329 -0.5738  0.9875
 1518SOL    HW216014   0.235   0.787  14.484  0.4424  0.1801  0.2489
 1519SOL     OW16015   3.403   2.322   1.362  0.5587  0.0934 -0.3770
 1519SOL    HW116016   3.410   2.417   1.370  0.6748 -0.0325  0.9651
 1519SOL    HW216017   3.420   2.299   1.453  0.0203  1.1611 -0.0168
 1520SOL     OW16018   3.474   1.220  14.270 -0.1601  0.1622  0.0598
 1520SOL    HW116019   3.446   1.234  14.180 -1.8642 -1.9299  0.2384
 1520SOL    HW216020   3.548   1.161  14.254 -0.3452  0.1709 -0.8071
 1521SOL     OW16021   1.772   3.788   2.968  0.3103 -0.0109 -0.0159
 1521SOL    HW116022   1.834   3.716   2.968  0.6285  0.2654 -0.3821
 1521SOL    HW216023   1.771   3.816   2.877 -0.6290 -2.2650 -0.6888
 1522SOL     OW16024   0.037   2.081  11.555  0.1515 -0.0879  0.3717
 1522SOL    HW116025   0.003   1.993  11.539 -1.2195  0.9507 -2.4190
 1522SOL    HW216026   0.043   2.123  11.469  1.8387  0.8758  0.9541
 1523SOL     OW16027   0.901   2.318  11.324 -0.1406  0.3536 -0.0391
 1523SOL    HW116028   0.898   2.229  11.290 -2.4928 -0.2670  1.7940
 1523SOL    HW216029   0.922   2.301  11.416 -2.0031 -1.2523  0.0865
 1524SOL     OW16030   1.086   3.433   6.855 -0.0686 -0.1523  0.2282
 1524SOL    HW116031   1.100   3.338   6.851  0.2361 -0.1243  0.6390
 1524SOL    HW216032   0.996   3.434   6.887 -0.0095  0.6341  0.3675
 1525SOL     OW16033   2.051   4.619   4.369 -0.9363  0.8121 -0.6573
 1525SOL    HW116034   2.034   4.700   4.322 -1.5244  1.7668  1.1683
 1525SOL    HW216035   2.141   4.605   4.343 -0.6831 -0.7015  1.0534
 1526SOL     OW16036   0.805   0.136  10.371  0.9371  0.0608  0.4587
 1526SOL    HW116037   0.732   0.089  10.332  0.4871  1.6711 -0.6546
 1526SOL    HW216038   0.881   0.078  10.365  0.2401 -0.7456 -0.5591
 1527SOL     OW16039   1.774   2.802   0.212  0.3512 -0.0640 -0.1071
 1527SOL    HW116040   1.863   2.836   0.212  0.1378  0.4974 -0.2941
 1527SOL    HW216041   1.786   2.714   0.175  0.1381 -1.2463  2.6038
 1528SOL     OW16042   0.227   3.734   6.203 -1.1210 -0.4653  0.3134
 1528SOL    HW116043   0.144   3.733   6.251 -0.0436 -1.4950  2.1326
 1528SOL    HW216044   0.285   3.687   6.262  0.5591 -0.0014 -0.9474
 1529SOL     OW16045   1.173   1.414  16.336  0.3385 -0.0555 -0.4776
 1529SOL    HW116046   1.142   1.363  16.411  2.8037  3.7613  3.1916
 1529SOL    HW216047   1.093   1.451  16.300  0.4278  0.5123 -0.0886
 1530SOL     OW16048   0.345   1.601  16.879  0.6927 -0.6413 -0.3916
 1530SOL    HW116049   0.397   1.571  16.954  2.2002  2.4491 -0.1851
 1530SOL    HW216050   0.307   1.518  16.850  2.3428 -0.9466 -1.7296
 1531SOL     OW16051   2.713   2.053  15.542 -0.0107 -0.0367 -0.0278
 1531SOL    HW116052   2.726   2.037  15.636 -1.3249  0.8978  0.3080
 1531SOL    HW216053   2.795   2.098  15.518 -0.4176  0.4221 -0.5508
 1532SOL     OW16054   2.925   1.677   2.809  0.7234 -0.0358 -0.1355
 1532SOL    HW116055   2.934   1.615   2.736 -0.5940  0.3303 -0.5987
 1532SOL    HW216056   2.831   1.694   2.807  0.7039  0.1791  2.7547
 1533SOL     OW16057   2.833   3.106   3.942 -0.5509  0.0304  0.4167
 1533SOL    HW116058   2.741   3.119   3.966 -0.7178  1.8338 -1.2577
 1533SOL    HW216059   2.863   3.175   4.001 -0.2174  1.0685 -0.9800
 1534SOL     OW16060   1.359   1.138   4.795 -0.2910 -0.0584  0.4570
 1534SOL    HW116061   1.332   1.182   4.876 -0.2516 -1.6420  1.3282
 1534SOL    HW216062   1.338   1.204   4.728 -0.3155  0.1570  0.6761
 1535SOL     OW16063   0.364   1.688   6.493 -0.7864  0.0214  0.5373
 1535SOL    HW116064   0.294   1.650   6.439  1.0784 -1.0711 -1.1006
 1535SOL    HW216065   0.337   1.779   6.486 -1.4550  0.0283  3.3208
 1536SOL     OW16066   2.778   0.523   1.271 -0.5838  1.0144  0.2051
 1536SOL    HW116067   2.834   0.475   1.211  0.7501 -0.8422  2.9141
 1536SOL    HW216068   2.713   0.453   1.281 -1.8355  1.9597 -1.1984
 1537SOL     OW16069   2.285   0.097   1.343 -0.2147  0.4361  0.3499
 1537SOL    HW116070   2.366   0.098   1.291 -0.1236 -2.3338  0.4381
 1537SOL    HW216071   2.228   0.141   1.280 -0.4258  0.1793  0.3655
 1538SOL     OW16072   3.512   1.687   5.246  0.0946  0.2841 -0.2211
 1538SOL    HW116073   3.597   1.665   5.286  0.3621 -0.8993 -1.4093
 1538SOL    HW216074   3.535   1.693   5.153  2.0582  1.2660  0.3110
 1539SOL     OW16075   1.362   3.970   8.229  0.2666 -0.2046  0.2700
 1539SOL    HW116076   1.367   4.065   8.227 -2.1707 -0.0810  0.4566
 1539SOL    HW216077   1.392   3.937   8.144 -0.2789  1.5936 -0.6074
 1540SOL     OW16078   0.836   1.479  12.603  0.2052 -0.4543  0.4869
 1540SOL    HW116079   0.891   1.553  12.575 -0.2999  0.5513  2.1741
 1540SOL    HW216080   0.749   1.515  12.617 -0.2237 -0.7488 -1.4292
 1541SOL     OW16081   3.860   0.804   9.343 -0.0797 -0.5112 -0.1875
 1541SOL    HW116082   3.953   0.785   9.361  1.1059  3.9881 -1.6210
 1541SOL    HW216083   3.829   0.726   9.297 -0.8139 -0.6701  0.5859
 1542SOL     OW16084   1.255   0.893   3.764  0.1225  0.1199  0.2791
 1542SOL    HW116085   1.190   0.913   3.696 -2.9157 -2.1206  2.4784
 1542SOL    HW216086   1.325   0.897   3.699  0.2814  0.3076  0.4631
 1543SOL     OW16087   3.397   0.022   6.919  0.5364 -0.1987 -0.6374
 1543SOL    HW116088   3.358   0.094   6.870  0.6944  1.1499  1.2173
 1543SOL    HW216089   3.332   0.011   6.988 -2.4721  2.8365 -2.9849
 1544SOL     OW16090   4.105   4.497   2.056  0.2905  0.2590 -0.1846
 1544SOL    HW116091   4.159   4.576   2.056  0.6450  0.0185 -0.3585
 1544SOL    HW216092   4.072   4.489   1.967  0.5274  0.3651 -0.2832
 1545SOL     OW16093   2.900   3.486   1.527 -0.3034  0.5847 -0.3497
 1545SOL    HW116094   2.848   3.441   1.594  0.7015  0.8753  0.6262
 1545SOL    HW216095   2.970   3.529   1.576 -0.6592  0.5783  0.1584
 1546SOL     OW16096   4.258   3.423   6.555 -0.0650 -0.4013 -0.5877
 1546SOL    HW116097   4.247   3.452   6.464  1.3546  2.9889  0.2923
 1546SOL    HW216098   4.174   3.380   6.568 -1.0863  2.2988  1.5397
 1547SOL     OW16099   1.150   4.019  17.329 -0.3271  0.4424 -0.0877
 1547SOL    HW116100   1.096   4.098  17.330  1.4752  1.6830 -1.1274
 1547SOL    HW216101   1.222   4.037  17.390  0.4407 -0.6282 -0.6620
 1548SOL     OW16102   4.324   3.861   3.503 -0.4205  0.4782  0.0513
 1548SOL    HW116103   4.234   3.854   3.534 -0.5101 -1.0750 -0.5054
 1548SOL    HW216104   4.321   3.821   3.416 -1.6951  1.4434 -0.3368
 1549SOL     OW16105   3.118   3.684   9.279  0.3022 -0.7842 -0.1998
 1549SOL    HW116106   3.138   3.591   9.273  1.4042 -0.6859  1.6874
 1549SOL    HW216107   3.023   3.680   9.291  0.5694 -0.1156  2.1666
 1550SOL     OW16108   0.476   4.342   4.725 -0.3959 -0.1293 -0.2491
 1550SOL    HW116109   0.381   4.336   4.742 -0.6824  2.0874 -1.1429
 1550SOL    HW216110   0.503   4.252   4.742 -0.5071  0.3092  2.2382
 1551SOL     OW16111   3.037   4.015   2.650  0.1530  0.2097 -0.2111
 1551SOL    HW116112   3.126   4.011   2.613  0.0342 -2.7130 -0.1487
 1551SOL    HW216113   2.995   4.085   2.600 -0.0725  0.5647  0.4753
 1552SOL     OW16114   1.670   3.546   7.806  0.7622 -0.2584  0.2478
 1552SOL    HW116115   1.708   3.621   7.852  0.4817 -0.5215  0.9214
 1552SOL    HW216116   1.719   3.473   7.844  1.5818  0.5926  0.8169
 1553SOL     OW16117   0.292   4.712   7.178  0.1975  0.1909 -0.0939
 1553SOL    HW116118   0.311   4.698   7.271  0.5367 -0.8128 -0.3150
 1553SOL    HW216119   0.209   4.664   7.171  1.0868 -1.5078  1.1480
 1554SOL     OW16120   1.001   1.701  11.719  0.3825 -0.5829  0.3789
 1554SOL    HW116121   0.930   1.673  11.660  0.6702  0.2730 -0.3658
 1554SOL    HW216122   1.070   1.719  11.655  1.0650 -0.3866  1.1787
 1555SOL     OW16123   4.267   2.245  16.415  0.5419  0.2750  0.4174
 1555SOL    HW116124   4.192   2.304  16.419 -0.2614 -0.7450  0.5515
 1555SOL    HW216125   4.251   2.209  16.328  0.0478  0.9871  0.2197
 1556SOL     OW16126   0.484   2.966  13.823  0.1119 -0.1619  0.3024
 1556SOL    HW116127   0.542   2.925  13.886  0.4968  2.1364  1.4491
 1556SOL    HW216128   0.509   2.921  13.742  2.0734 -0.0552  0.8518
 1557SOL     OW16129   1.517   1.105   8.718  0.2883 -0.2875 -0.0678
 1557SOL    HW116130   1.452   1.062   8.662  0.4147 -1.4704  0.6947
 1557SOL    HW216131   1.467   1.125   8.797  2.0561  0.8343  0.7360
 1558SOL     OW16132   3.559   2.007   6.781 -0.0005 -0.0483  0.1218
 1558SOL    HW116133   3.638   1.970   6.820  1.5321  0.3353 -2.6373
 1558SOL    HW216134   3.525   2.059   6.854 -2.5326 -1.1211 -0.3194
 1559SOL     OW16135   0.632   2.642   8.023  0.1365  0.1402  0.2956
 1559SOL    HW116136   0.687   2.653   8.101 -1.2989 -0.0514  1.3435
 1559SOL    HW216137   0.554   2.595   8.055 -0.2702  2.0763  2.1525
 1560SOL     OW16138   3.825   1.970   4.200  0.1377 -0.0547  0.0745
 1560SOL    HW116139   3.896   2.025   4.166  0.1913 -0.2511 -0.1304
 1560SOL    HW216140   3.834   1.888   4.153 -1.0030 -0.3764  0.3998
 1561SOL     OW16141   1.209   0.027   6.251 -0.1843  0.2991  0.0518
 1561SOL    HW116142   1.193   0.121   6.247  0.4215  0.3669 -0.7718
 1561SOL    HW216143   1.220   0.000   6.159  0.3474 -0.3572  0.3058
 1562SOL     OW16144   3.865   1.810  15.686 -0.4721  0.3951 -0.1664
 1562SOL    HW116145   3.896   1.754  15.757 -1.7287 -0.0794  0.0218
 1562SOL    HW216146   3.795   1.753  15.652 -0.3850 -0.1088  0.5019
 1563SOL     OW16147   4.318   1.071   3.574 -0.2228 -0.0930 -0.1372
 1563SOL    HW116148   4.338   1.036   3.660 -2.7445 -2.8773 -0.6904
 1563SOL    HW216149   4.315   0.987   3.528  2.1726  0.7148 -1.8435
 1564SOL     OW16150   4.265   2.130   3.369  0.1280 -0.5474  0.1202
 1564SOL    HW116151   4.248   2.048   3.325  3.6685 -0.6417 -1.1034
 1564SOL    HW216152   4.233   2.192   3.303  1.7677 -0.1084 -0.2853
 1565SOL     OW16153   1.257   0.010  12.078 -0.2007  0.8788  0.3195
 1565SOL    HW116154   1.201   0.004  12.000  1.8109  1.9458 -1.1953
 1565SOL    HW216155   1.339   0.050  12.052 -1.5902  2.9292 -0.8522
 1566SOL     OW16156   1.868   2.050   3.002 -0.2669  0.1290  0.3453
 1566SOL    HW116157   1.839   2.054   2.911  0.7912  1.9814  0.0775
 1566SOL    HW216158   1.963   2.041   2.992 -0.3890 -0.4394 -0.2596
 1567SOL     OW16159   1.478   1.112   6.422 -0.1139 -0.0160 -0.2927
 1567SOL    HW116160   1.494   1.150   6.508  1.0818  1.1550 -1.0307
 1567SOL    HW216161   1.469   1.017   6.431 -0.0381 -0.0038 -0.0859
 1568SOL     OW16162   3.176   3.300   2.788  0.4388 -0.1300  0.4709
 1568SOL    HW116163   3.238   3.340   2.728  0.6808  0.2939  1.0028
 1568SOL    HW216164   3.211   3.337   2.869  0.9294 -2.8598  1.5085
 1569SOL     OW16165   4.684   3.951   3.824 -0.4271 -0.1180 -0.1762
 1569SOL    HW116166   4.610   3.912   3.779  0.1445  0.1140 -1.3066
 1569SOL    HW216167   4.715   3.887   3.888  0.5047 -0.0695 -0.5691
 1570SOL     OW16168   4.613   2.370   6.091 -0.2998  0.0961  0.2496
 1570SOL    HW116169   4.623   2.447   6.035  3.5704  0.5686  1.6516
 1570SOL    HW216170   4.677   2.302   6.069  0.4354  0.9230 -0.1639
 1571SOL     OW16171   4.617   2.428   4.957 -0.1382 -0.4118  0.0460
 1571SOL    HW116172   4.619   2.408   4.863  0.7496  1.3295 -0.3146
 1571SOL    HW216173   4.547   2.368   4.982 -0.1489  0.1868  1.4337
 1572SOL     OW16174   3.503   3.699   6.030 -0.4733 -0.1832 -0.0273
 1572SOL    HW116175   3.539   3.739   5.951 -0.7192 -0.3236 -0.2123
 1572SOL    HW216176   3.454   3.773   6.066 -0.5898 -1.2642  2.0809
 1573SOL     OW16177   1.651   1.493   3.783 -0.1968 -0.3534  0.2700
 1573SOL    HW116178   1.714   1.459   3.719  1.0531 -1.2851  2.0107
 1573SOL    HW216179   1.622   1.571   3.736  0.0200  0.4139  1.4148
 1574SOL     OW16180   3.030   0.813   2.661 -0.3538  0.2605 -0.4759
 1574SOL    HW116181   3.085   0.772   2.728 -0.3548 -0.1706 -0.7401
 1574SOL    HW216182   3.096   0.844   2.600 -0.0642  0.4189 -0.0862
 1575SOL     OW16183   4.714   3.083   3.962  0.1469 -0.2028 -0.2106
 1575SOL    HW116184   0.081   3.057   3.940  0.8904  1.8500  0.4291
 1575SOL    HW216185   4.677   3.080   3.874  1.3466 -0.9207 -0.6836
 1576SOL     OW16186   3.957   4.003   8.743 -0.7581 -1.2241  0.2014
 1576SOL    HW116187   3.962   4.045   8.657 -1.2088  0.7344  1.1293
 1576SOL    HW216188   4.007   4.060   8.801 -0.2741 -1.4083 -0.0312
 1577SOL     OW16189   3.740   1.604   4.458  0.4312 -0.0587 -0.0565
 1577SOL    HW116190   3.769   1.541   4.393 -1.6013  1.9785 -2.9461
 1577SOL    HW216191   3.661   1.646   4.423  1.3943  1.3862 -0.5142
 1578SOL     OW16192   1.417   3.516   7.961 -0.5970  0.0158  0.5829
 1578SOL    HW116193   1.480   3.572   7.916  0.3357 -1.8723 -0.4817
 1578SOL    HW216194   1.471   3.454   8.009 -0.4442  1.8084  2.6938
 1579SOL     OW16195   3.297   4.511   7.569 -0.1537 -0.0539 -0.2945
 1579SOL    HW116196   3.285   4.507   7.664  1.1800 -1.1277 -0.1625
 1579SOL    HW216197   3.329   4.421   7.557 -0.7010 -0.0882 -1.4224
 1580SOL     OW16198   2.493   1.329  10.705 -0.5290 -0.3649 -0.1955
 1580SOL    HW116199   2.447   1.245  10.712  2.1105 -1.9413 -1.9351
 1580SOL    HW216200   2.580   1.302  10.732  0.0525 -0.5011 -2.2089
 1581SOL     OW16201   2.810   4.668  14.049 -0.0100 -0.0479  0.3417
 1581SOL    HW116202   2.786   4.611  14.123 -1.3816  0.0374 -0.0502
 1581SOL    HW216203   2.730   4.720  14.047  0.4930  0.6497 -1.7753
 1582SOL     OW16204   2.787   4.058   9.300 -0.7400  0.0720 -0.0459
 1582SOL    HW116205   2.719   4.120   9.272 -0.3180 -0.1838 -1.6532
 1582SOL    HW216206   2.849   4.126   9.325 -0.0355 -0.3046 -0.7541
 1583SOL     OW16207   2.361   1.767   5.617  0.5849 -0.0687  0.4994
 1583SOL    HW116208   2.441   1.811   5.647 -0.1867  0.9120  1.1208
 1583SOL    HW216209   2.393   1.715   5.544  1.3977 -0.4993  1.1653
 1584SOL     OW16210   4.427   1.736   8.327 -0.0213  0.3503 -0.0577
 1584SOL    HW116211   4.335   1.754   8.308 -0.3560 -0.9490  0.2973
 1584SOL    HW216212   4.417   1.734   8.422  2.2882  0.2675  0.1766
 1585SOL     OW16213   0.088   0.363   9.272  0.4056 -0.2309  0.0261
 1585SOL    HW116214   0.089   0.366   9.368 -1.8772 -1.1331  0.1056
 1585SOL    HW216215   0.163   0.418   9.252 -0.1162  0.2844 -0.5365
 1586SOL     OW16216   1.649   0.520  13.226 -0.0325  0.1273  0.3488
 1586SOL    HW116217   1.651   0.510  13.321  0.1202 -1.0594  0.2235
 1586SOL    HW216218   1.732   0.565  13.210  0.2155 -0.4696 -0.0262
 1587SOL     OW16219   0.415   1.711   3.020  0.4688  0.4591  0.5656
 1587SOL    HW116220   0.387   1.656   3.093 -0.1128 -1.7923 -1.3521
 1587SOL    HW216221   0.341   1.770   3.006  1.6971  1.5567 -1.1861
 1588SOL     OW16222   2.465   1.125   0.630 -0.1505 -0.1163  1.1415
 1588SOL    HW116223   2.503   1.212   0.621 -0.3042 -0.2091 -0.3892
 1588SOL    HW216224   2.377   1.157   0.611  0.3342 -0.1429 -1.1896
 1589SOL     OW16225   2.360   1.293   3.634  0.4546  0.0053  0.0950
 1589SOL    HW116226   2.366   1.356   3.563  0.5267 -1.6226 -1.3430
 1589SOL    HW216227   2.445   1.249   3.635 -0.0858 -1.0598 -1.7410
 1590SOL     OW16228   1.185   1.125   8.102 -0.0209  0.0740  0.1248
 1590SOL    HW116229   1.105   1.145   8.149 -1.2763 -2.8524 -0.7828
 1590SOL    HW216230   1.155   1.162   8.019 -0.2388 -1.9779 -0.7140
 1591SOL     OW16231   4.247   2.162  12.769 -0.3992 -0.0933  0.3923
 1591SOL    HW116232   4.195   2.179  12.847  0.3105  1.2588  0.5751
 1591SOL    HW216233   4.213   2.078  12.739  1.4721 -0.5777 -0.3809
 1592SOL     OW16234   0.299   0.551   2.463  0.4874 -0.2134 -0.6422
 1592SOL    HW116235   0.261   0.619   2.408  0.7512 -1.2633 -2.1250
 1592SOL    HW216236   0.338   0.493   2.397 -0.6288 -1.5524 -0.1307
 1593SOL     OW16237   2.371   4.248   1.921 -0.0322  0.0019 -0.0741
 1593SOL    HW116238   2.369   4.154   1.940 -1.1421  0.3349  1.4818
 1593SOL    HW216239   2.310   4.292   1.981  1.9782  0.6591  1.4911
 1594SOL     OW16240   0.342   0.405   5.579  0.0786  0.1837  0.2514
 1594SOL    HW116241   0.420   0.431   5.627  0.4395 -0.1483 -0.1482
 1594SOL    HW216242   0.295   0.483   5.608  0.1630  0.0160  0.8346
 1595SOL     OW16243   4.095   3.011  12.960 -0.5090  0.2035  0.2985
 1595SOL    HW116244   4.067   2.932  13.007 -0.7806  0.2105  0.1476
 1595SOL    HW216245   4.154   3.057  13.019 -0.3953  0.6524 -0.1589
 1596SOL     OW16246   1.435   4.141   8.604 -0.5179  0.2738  0.7777
 1596SOL    HW116247   1.478   4.172   8.683 -0.0877 -0.8803  1.0013
 1596SOL    HW216248   1.345   4.171   8.616 -1.0105  0.0859 -2.3315
 1597SOL     OW16249   2.111   1.696   1.155  0.6121  0.2370  0.4977
 1597SOL    HW116250   2.189   1.745   1.182  1.0809 -0.8186  1.0639
 1597SOL    HW216251   2.130   1.611   1.195 -3.2281  0.4724  2.7849
 1598SOL     OW16252   3.752   2.092  13.435 -0.1564  0.2676  0.1632
 1598SOL    HW116253   3.687   2.063  13.498 -1.0753 -2.6737 -2.0851
 1598SOL    HW216254   3.769   2.007  13.393 -0.0277  0.1358  0.4844
 1599SOL     OW16255   3.562   4.374   8.134 -0.3607 -1.3653  0.1267
 1599SOL    HW116256   3.529   4.353   8.221  1.0965 -2.4678  0.4344
 1599SOL    HW216257   3.512   4.324   8.069 -2.7448  0.0524  0.8867
 1600SOL     OW16258   3.382   3.500   4.425  0.0843 -0.1277 -0.0436
 1600SOL    HW116259   3.414   3.479   4.513 -0.5174 -2.4282 -0.3658
 1600SOL    HW216260   3.336   3.418   4.404  1.0390 -1.0589  1.4384
 1601SOL     OW16261   4.190   2.946   8.120  0.2219 -0.1361  0.2782
 1601SOL    HW116262   4.196   2.864   8.072 -0.1728  0.0871 -0.1557
 1601SOL    HW216263   4.095   2.957   8.121  0.5864  3.1076  2.0100
 1602SOL     OW16264   3.927   4.148   9.032 -0.7933 -0.1511 -0.3177
 1602SOL    HW116265   3.917   4.153   9.127 -0.5867  0.2132 -0.3133
 1602SOL    HW216266   3.859   4.207   9.000 -1.6300 -0.0198  1.6884
 1603SOL     OW16267   4.421   1.697   8.033 -0.1055  0.1900 -0.0122
 1603SOL    HW116268   4.473   1.746   7.969 -0.1317  0.9627  0.5642
 1603SOL    HW216269   4.445   1.748   8.110  0.6365  0.2725 -0.2963
 1604SOL     OW16270   4.052   4.212  12.146 -0.3608 -0.5173 -0.5396
 1604SOL    HW116271   3.976   4.161  12.174 -0.2506  0.1208  0.9136
 1604SOL    HW216272   4.060   4.271  12.221  1.2385  0.1504 -1.2350
 1605SOL     OW16273   0.047   0.102  14.798  0.0789 -0.3593 -0.4005
 1605SOL    HW116274   4.708   0.174  14.784 -0.2633 -0.8814 -1.5591
 1605SOL    HW216275   0.128   0.142  14.767  1.1909 -1.3610  1.2029
 1606SOL     OW16276   4.635   3.655   7.109 -0.2136  0.0973  0.4816
 1606SOL    HW116277   4.659   3.679   7.199 -2.5991  0.2138  1.0858
 1606SOL    HW216278   4.722   3.616   7.100 -1.0312 -2.0024  1.7961
 1607SOL     OW16279   4.333   1.145   8.458  0.5197  0.4168 -0.5845
 1607SOL    HW116280   4.337   1.078   8.390  0.7525 -1.6806  1.5148
 1607SOL    HW216281   4.288   1.093   8.525  1.0929  1.2790  0.4670
 1608SOL     OW16282   3.361   1.725  11.281  0.0786 -0.2912 -0.4082
 1608SOL    HW116283   3.417   1.724  11.359  0.7275  0.9433 -0.8580
 1608SOL    HW216284   3.347   1.633  11.259 -1.4374  0.2747 -1.7918
 1609SOL     OW16285   3.718   4.158   3.567 -0.0806 -0.5152  0.4439
 1609SOL    HW116286   3.804   4.191   3.591 -0.0971 -0.4692  0.4409
 1609SOL    HW216287   3.733   4.065   3.585  2.0701 -0.4531 -1.1046
 1610SOL     OW16288   0.820   1.689   0.376  0.1451  0.2437  0.0445
 1610SOL    HW116289   0.768   1.633   0.434 -0.5061  0.7723 -0.0301
 1610SOL    HW216290   0.752   1.751   0.352 -1.3608 -1.6977 -0.7505
 1611SOL     OW16291   3.108   3.169   7.261  0.6235  0.4884  0.0737
 1611SOL    HW116292   3.014   3.161   7.244  0.4401  1.0003  0.8423
 1611SOL    HW216293   3.105   3.235   7.331  1.0104  0.7868 -0.1845
 1612SOL     OW16294   3.265   2.769  16.001  0.4129  0.4968  0.3006
 1612SOL    HW116295   3.290   2.709  16.071  0.8662 -1.0481 -1.1775
 1612SOL    HW216296   3.295   2.722  15.923  0.2745  3.2976 -1.4505
 1613SOL     OW16297   2.162   3.879  14.042 -0.7009 -0.2334 -0.1772
 1613SOL    HW116298   2.178   3.973  14.040  0.0452 -0.3633 -0.2917
 1613SOL    HW216299   2.249   3.841  14.031 -0.9076 -0.6934 -0.2194
 1614SOL     OW16300   0.795   3.660   8.652  0.8604  0.4849  0.1313
 1614SOL    HW116301   0.734   3.616   8.593 -0.7145  0.0386  2.0748
 1614SOL    HW216302   0.818   3.740   8.606 -0.5797  0.3527 -0.8050
 1615SOL     OW16303   0.017   2.856   6.403 -0.1360 -0.2691 -0.1632
 1615SOL    HW116304   0.039   2.767   6.377 -1.9831 -0.6291 -0.4688
 1615SOL    HW216305   0.047   2.898   6.322 -3.7007  1.0844 -0.7603
 1616SOL     OW16306   2.906   4.082   1.221 -0.1094 -0.2506  0.1289
 1616SOL    HW116307   2.814   4.059   1.207  0.2214  0.0774 -2.6642
 1616SOL    HW216308   2.935   3.997   1.255 -0.3633 -1.0764 -1.7089
 1617SOL     OW16309   4.344   3.771  11.875 -0.2225  0.3257 -0.0166
 1617SOL    HW116310   4.307   3.832  11.811 -2.4351 -1.1580 -0.1407
 1617SOL    HW216311   4.294   3.793  11.954  2.2154 -1.0312  1.8937
 1618SOL     OW16312   0.327   2.177  11.392 -0.0563 -0.4401 -0.0865
 1618SOL    HW116313   0.349   2.112  11.459  0.4238 -0.0660  0.1286
 1618SOL    HW216314   0.384   2.248  11.424  0.7060 -1.2017  0.2382
 1619SOL     OW16315   0.315   4.094   9.035  0.9699  0.4797 -0.1545
 1619SOL    HW116316   0.254   4.097   8.961  1.8114 -0.9645 -0.8984
 1619SOL    HW216317   0.373   4.168   9.014  1.7164  0.4857  1.9077
 1620SOL     OW16318   4.295   1.508  11.279  0.1239  0.0114  0.7387
 1620SOL    HW116319   4.279   1.438  11.343  1.6073  0.1432  1.2544
 1620SOL    HW216320   4.292   1.460  11.196 -1.3695  0.9894  0.2186
 1621SOL     OW16321   0.694   3.390   7.625  0.4384 -0.4071  0.0775
 1621SOL    HW116322   0.721   3.364   7.713  0.2497  0.6383  0.4445
 1621SOL    HW216323   0.774   3.386   7.573  0.9077 -1.5459  0.8826
 1622SOL     OW16324   4.375   4.091  10.225 -0.3303 -0.8007 -0.1329
 1622SOL    HW116325   4.336   4.177  10.208  2.0232  0.1993 -0.4032
 1622SOL    HW216326   4.444   4.077  10.160 -1.0954 -0.8909 -0.9226
 1623SOL     OW16327   1.664   3.524   2.516 -0.2970  0.5917 -0.1227
 1623SOL    HW116328   1.694   3.508   2.427  1.5966  0.0670  0.6109
 1623SOL    HW216329   1.657   3.619   2.516  0.7268  0.6725 -1.9731
 1624SOL     OW16330   0.868   4.594   3.145 -0.2262 -0.5034  0.2137
 1624SOL    HW116331   0.879   4.682   3.179 -0.7072 -0.8299  1.2182
 1624SOL    HW216332   0.955   4.560   3.168 -0.6780 -0.8382  1.4240
 1625SOL     OW16333   1.432   3.667   1.994  0.6848 -0.0868  0.4697
 1625SOL    HW116334   1.476   3.672   1.910  2.2108 -0.1171  1.2747
 1625SOL    HW216335   1.349   3.711   1.976 -0.3363 -1.0254  2.8110
 1626SOL     OW16336   3.563   4.203   8.983 -0.3600  1.1204  0.1176
 1626SOL    HW116337   3.651   4.225   8.955 -0.7912  1.7462 -0.7622
 1626SOL    HW216338   3.589   4.137   9.048  1.4305  1.4051 -0.3220
 1627SOL     OW16339   2.180   1.121   0.528  0.1749  0.1351  0.5068
 1627SOL    HW116340   2.127   1.088   0.601 -0.2228  3.0413  1.5334
 1627SOL    HW216341   2.217   1.040   0.495  0.5842  0.2748  0.6194
 1628SOL     OW16342   2.404   1.699   2.447  0.7993  0.3812  0.4780
 1628SOL    HW116343   2.473   1.648   2.403  0.6715  0.4591  0.1894
 1628SOL    HW216344   2.392   1.750   2.368  1.7940 -0.6358 -0.3329
 1629SOL     OW16345   3.347   1.398   3.790  0.0516  0.2611 -0.1659
 1629SOL    HW116346   3.322   1.491   3.785  1.2176  0.5961  0.1070
 1629SOL    HW216347   3.296   1.359   3.719  1.7684 -1.3218 -0.5302
 1630SOL     OW16348   4.565   0.213  11.121 -0.2858  0.8221  0.2754
 1630SOL    HW116349   4.545   0.141  11.060  2.6588  0.2821 -0.0664
 1630SOL    HW216350   4.510   0.169  11.186 -0.7092  0.0676 -0.5774
 1631SOL     OW16351   2.029   2.472   8.754 -0.0606 -0.0422 -0.1514
 1631SOL    HW116352   1.941   2.445   8.728 -1.0511  2.4419  0.6252
 1631SOL    HW216353   2.054   2.523   8.677  1.8439  0.0730  0.5295
 1632SOL     OW16354   1.024   2.432   4.201  0.1095 -0.2099  0.3037
 1632SOL    HW116355   1.077   2.368   4.153  0.1099 -0.4437  0.6152
 1632SOL    HW216356   1.081   2.506   4.222  0.6621 -0.1889 -1.2750
 1633SOL     OW16357   4.436   4.340  14.852  0.6347 -0.1790 -0.8314
 1633SOL    HW116358   4.500   4.407  14.875 -0.4032  0.1910  0.9867
 1633SOL    HW216359   4.486   4.270  14.810  0.9394 -0.7160  0.4239
 1634SOL     OW16360   1.859   3.370   3.190  0.0266 -0.3145  0.1848
 1634SOL    HW116361   1.942   3.387   3.145  1.7185 -1.9712  2.7158
 1634SOL    HW216362   1.805   3.335   3.119 -1.7760 -1.3616  2.0824
 1635SOL     OW16363   2.115   1.981   9.103  0.8215  0.5221 -0.5288
 1635SOL    HW116364   2.096   1.920   9.032 -1.3825 -0.1308  0.6248
 1635SOL    HW216365   2.029   2.017   9.121  0.1067 -1.0015 -0.8640
 1636SOL     OW16366   0.304   1.471  15.910 -0.8835  0.3145 -0.2433
 1636SOL    HW116367   0.322   1.524  15.988  2.3488 -1.5208  0.2601
 1636SOL    HW216368   0.226   1.515  15.877 -1.1490 -1.3140 -1.8062
 1637SOL     OW16369   3.279   1.585   2.824  0.0325 -0.1414 -0.0752
 1637SOL    HW116370   3.240   1.534   2.895  0.7073 -0.7665 -0.1540
 1637SOL    HW216371   3.372   1.573   2.841  0.0808 -0.3128 -0.4672
 1638SOL     OW16372   1.211   1.277   7.286  0.3297  0.0881  0.4436
 1638SOL    HW116373   1.214   1.201   7.344 -2.1946  0.5470  1.1688
 1638SOL    HW216374   1.275   1.331   7.334  0.9802  1.0742 -1.5230
 1639SOL     OW16375   4.133   0.855  11.370  0.0583 -0.0014 -0.1406
 1639SOL    HW116376   4.155   0.778  11.423 -0.7814  0.1267  0.4065
 1639SOL    HW216377   4.211   0.909  11.390 -0.2102  0.0469  0.7900
 1640SOL     OW16378   1.067   3.930   3.507 -0.0962  0.4762 -0.5723
 1640SOL    HW116379   1.037   3.879   3.432  2.8216  1.0350 -2.1275
 1640SOL    HW216380   1.122   3.995   3.463  2.5580  0.3806  2.6890
 1641SOL     OW16381   2.816   3.589   5.431  0.7125  0.0292 -0.3117
 1641SOL    HW116382   2.875   3.515   5.418  3.1338  1.7618  0.8586
 1641SOL    HW216383   2.730   3.545   5.435  0.9120 -0.2870  0.6147
 1642SOL     OW16384   3.025   4.137   7.908 -0.1231 -0.1611 -0.2029
 1642SOL    HW116385   3.017   4.119   7.814  5.3031 -0.5947 -0.5791
 1642SOL    HW216386   2.959   4.074   7.938  0.5960 -0.6091  0.4415
 1643SOL     OW16387   3.344   2.353   5.532 -0.3194 -0.0618 -0.2217
 1643SOL    HW116388   3.373   2.441   5.506  1.0173 -0.0199  1.4082
 1643SOL    HW216389   3.259   2.373   5.572  0.8319  0.9241  1.7558
 1644SOL     OW16390   4.286   3.833   3.915  0.6042  0.1975 -0.3620
 1644SOL    HW116391   4.314   3.820   4.006 -0.8583  2.8566  0.4621
 1644SOL    HW216392   4.225   3.905   3.928  1.5689  0.7745  0.8921
 1645SOL     OW16393   2.486   3.263   7.206  0.0972  0.4994 -0.4266
 1645SOL    HW116394   2.529   3.192   7.254  1.0031 -0.1804 -2.2061
 1645SOL    HW216395   2.407   3.268   7.260  1.4081 -0.0571  1.5437
 1646SOL     OW16396   0.825   3.684   9.094 -0.8516 -0.1235 -0.4942
 1646SOL    HW116397   0.740   3.700   9.136 -0.9132 -0.7650 -0.3667
 1646SOL    HW216398   0.876   3.702   9.173 -1.9387  1.8307 -0.2358
 1647SOL     OW16399   2.159   0.892  16.543 -0.5640 -0.3652  0.2239
 1647SOL    HW116400   2.136   0.852  16.627 -1.7113  1.8914  0.9694
 1647SOL    HW216401   2.221   0.830  16.504  1.9692  3.0893 -1.2010
 1648SOL     OW16402   0.107   0.953  11.384  0.4649  0.1720 -0.1689
 1648SOL    HW116403   0.161   0.992  11.453  0.4763 -2.3638  1.2742
 1648SOL    HW216404   0.020   0.929  11.417  0.0086  2.9067  0.6286
 1649SOL     OW16405   3.007   3.386   5.393  0.1763  0.3115  0.4538
 1649SOL    HW116406   3.039   3.335   5.319 -0.8831 -0.7984  0.7673
 1649SOL    HW216407   3.068   3.358   5.461  2.5641  3.3923 -0.4177
 1650SOL     OW16408   3.835   1.473   0.158 -0.3170 -0.0744  0.2862
 1650SOL    HW116409   3.928   1.489   0.144 -0.1191 -0.9411  0.6119
 1650SOL    HW216410   3.802   1.559   0.183  0.3031  0.1023  0.5074
 1651SOL     OW16411   3.798   4.351   3.826 -0.1390 -0.6002  0.4349
 1651SOL    HW116412   3.811   4.308   3.910  1.2243 -2.6183 -0.8296
 1651SOL    HW216413   3.840   4.287   3.769 -2.1623 -0.5019 -1.1788
 1652SOL     OW16414   1.646   0.772  16.473  0.0563  0.0270  0.0629
 1652SOL    HW116415   1.675   0.848  16.524  2.4968 -0.1584 -1.0528
 1652SOL    HW216416   1.564   0.807  16.439  0.8784  1.8259 -0.1036
 1653SOL     OW16417   0.294   1.108  11.842  0.3306  0.0330  0.1918
 1653SOL    HW116418   0.289   1.203  11.832 -1.6563  0.0106  0.9611
 1653SOL    HW216419   0.201   1.102  11.865  0.2678 -0.6209 -0.2311
 1654SOL     OW16420   0.558   4.579   4.278 -0.1551 -0.4045  0.5133
 1654SOL    HW116421   0.552   4.506   4.339  0.5327 -0.0834  0.9544
 1654SOL    HW216422   0.648   4.569   4.248  0.5820  1.5197  2.1302
 1655SOL     OW16423   2.829   2.228   4.688 -0.2465 -0.2340  0.7494
 1655SOL    HW116424   2.792   2.306   4.646  0.9235  0.5818  1.2441
 1655SOL    HW216425   2.872   2.272   4.761 -1.3421 -1.8287  2.3567
 1656SOL     OW16426   4.405   0.972   1.059 -0.2226 -0.3032 -0.4309
 1656SOL    HW116427   4.404   0.876   1.058  0.7072 -0.3096 -0.5196
 1656SOL    HW216428   4.399   0.987   0.964 -1.3157  0.7520 -0.1964
 1657SOL     OW16429   2.909   0.158   1.045 -0.2553  0.2143 -0.2148
 1657SOL    HW116430   2.914   0.144   0.951  1.0086  1.2458 -0.3041
 1657SOL    HW216431   2.930   0.069   1.074 -0.6405  0.4839  0.9120
 1658SOL     OW16432   4.515   0.547  14.856 -0.4299 -0.5280 -0.6874
 1658SOL    HW116433   4.579   0.592  14.911 -0.3782 -1.8058  0.2857
 1658SOL    HW216434   4.450   0.614  14.834  1.9548  1.7128 -1.0538
 1659SOL     OW16435   1.108   0.314   7.198 -0.1155 -0.7640  0.2717
 1659SOL    HW116436   1.202   0.314   7.216 -0.2488 -4.3138  1.0622
 1659SOL    HW216437   1.063   0.279   7.275  0.4821 -0.6344  0.6771
 1660SOL     OW16438   4.361   2.264   1.271 -0.3731  0.5474  0.3246
 1660SOL    HW116439   4.316   2.220   1.199  1.1665  1.2076 -1.0376
 1660SOL    HW216440   4.450   2.287   1.246 -0.5226  0.8887  0.1092
 1661SOL     OW16441   2.681   2.614  12.589 -0.1261  0.3406  0.3616
 1661SOL    HW116442   2.596   2.617  12.633 -1.5345 -2.7283 -2.1653
 1661SOL    HW216443   2.650   2.614  12.499  2.9577  0.0404 -0.6965
 1662SOL     OW16444   0.833   4.464   6.807  0.1845  0.0446  0.1090
 1662SOL    HW116445   0.922   4.497   6.809 -0.1405  1.0011 -1.3738
 1662SOL    HW216446   0.775   4.538   6.823 -0.3150 -0.7021  1.7955
 1663SOL     OW16447   1.868   0.802   4.225  0.1029 -0.2188  0.0478
 1663SOL    HW116448   1.795   0.787   4.284  0.1516 -0.1762  0.1192
 1663SOL    HW216449   1.866   0.897   4.219 -0.3374 -0.2171  0.2373
 1664SOL     OW16450   3.306   0.513   0.212  0.4498  0.3912  0.2383
 1664SOL    HW116451   3.387   0.515   0.263  0.5695  0.3470  0.0477
 1664SOL    HW216452   3.335   0.481   0.127  2.3703 -2.4782  1.9692
 1665SOL     OW16453   0.685   1.382   2.096 -0.3408  0.2015 -0.2148
 1665SOL    HW116454   0.635   1.305   2.124  0.4341  0.2599  1.3368
 1665SOL    HW216455   0.670   1.368   2.003 -1.9489  1.1081 -0.0997
 1666SOL     OW16456   3.922   4.629  16.757 -0.3935 -0.1991  0.0793
 1666SOL    HW116457   3.975   4.556  16.789  2.2772  0.3711 -2.9647
 1666SOL    HW216458   3.874   4.589  16.685 -0.0518 -0.0066 -0.2579
 1667SOL     OW16459   1.998   3.285   0.219  0.6222 -0.5367  0.3964
 1667SOL    HW116460   2.060   3.351   0.250 -0.6505 -0.1123  2.0232
 1667SOL    HW216461   1.941   3.339   0.165 -0.1526 -1.0895  0.6569
 1668SOL     OW16462   2.436   0.695  16.808 -0.0904 -0.7716  0.6591
 1668SOL    HW116463   2.379   0.652  16.744 -0.7244 -0.0912  0.7634
 1668SOL    HW216464   2.414   0.646  16.887  2.2035 -1.1664  1.0456
 1669SOL     OW16465   1.968   0.453   6.857 -0.5005  0.2481 -0.2917
 1669SOL    HW116466   2.062   0.455   6.877 -0.8616 -0.7954  1.5406
 1669SOL    HW216467   1.948   0.546   6.852 -1.8768 -0.0646 -0.4010
 1670SOL     OW16468   0.164   3.290   7.840 -0.4055  0.2326  0.7795
 1670SOL    HW116469   0.174   3.364   7.780  3.2655  0.2528  1.4089
 1670SOL    HW216470   0.073   3.270   7.818 -0.1134 -1.3216  0.9541
 1671SOL     OW16471   0.834   4.418   7.114 -0.6276 -0.1086  0.2887
 1671SOL    HW116472   0.784   4.337   7.103 -1.0676  0.4686 -1.8193
 1671SOL    HW216473   0.766   4.484   7.128  0.2567  0.2622  2.8062
 1672SOL     OW16474   1.180   1.753   7.797 -0.3672 -0.2324 -0.4281
 1672SOL    HW116475   1.181   1.775   7.890 -4.7881 -1.4237 -0.1119
 1672SOL    HW216476   1.149   1.834   7.758 -0.2598 -0.1058 -0.2515
 1673SOL     OW16477   0.431   3.524  16.002  0.5817  0.4349  0.0895
 1673SOL    HW116478   0.506   3.503  16.056 -2.1699 -3.5607  2.3212
 1673SOL    HW216479   0.436   3.619  16.013  1.8951  0.6978 -2.8852
 1674SOL     OW16480   3.715   1.771   0.084  0.1797 -0.1036 -0.1283
 1674SOL    HW116481   3.768   1.748   0.008  2.1262  1.5793  0.6827
 1674SOL    HW216482   3.642   1.713   0.065 -0.3595  1.1545 -1.8259
 1675SOL     OW16483   2.825   0.326   3.807 -0.8472  0.9509  0.3062
 1675SOL    HW116484   2.856   0.338   3.897  3.0683 -0.1256 -0.8812
 1675SOL    HW216485   2.826   0.231   3.798 -0.0452  0.9498  0.4045
 1676SOL     OW16486   2.812   2.620   1.821  0.5994  0.1934  0.3052
 1676SOL    HW116487   2.868   2.614   1.744 -0.5987  1.6458 -0.6650
 1676SOL    HW216488   2.743   2.676   1.787  0.0270 -0.9983 -0.4931
 1677SOL     OW16489   4.439   0.357   2.272 -0.1205 -0.4135  0.2877
 1677SOL    HW116490   4.432   0.263   2.258 -1.9222 -0.6562  2.8595
 1677SOL    HW216491   4.524   0.352   2.315  0.7577 -2.6361 -1.6734
 1678SOL     OW16492   2.496   1.768  17.145 -0.5904 -0.6409  0.0004
 1678SOL    HW116493   2.493   1.855  17.184 -0.3153 -0.1547 -1.0570
 1678SOL    HW216494   2.518   1.792  17.055 -0.4970 -2.4201 -0.4425
 1679SOL     OW16495   3.952   1.195   3.148 -0.0235 -0.3037  0.2584
 1679SOL    HW116496   4.003   1.241   3.215  1.0776 -3.3225  1.4711
 1679SOL    HW216497   3.901   1.128   3.192 -0.7616  1.1361  1.5917
 1680SOL     OW16498   2.925   1.779   2.237 -0.0233 -0.2901  0.1690
 1680SOL    HW116499   2.889   1.825   2.161  1.3417 -0.1678 -0.4054
 1680SOL    HW216500   2.888   1.695   2.211  1.7379 -1.0847  0.1914
 1681SOL     OW16501   1.416   4.569  16.299  0.4164  0.5329  0.1724
 1681SOL    HW116502   1.511   4.554  16.297  0.3492  0.0401  0.4294
 1681SOL    HW216503   1.418   4.631  16.372  1.8319  1.0893 -0.3447
 1682SOL     OW16504   0.573   0.710   7.063 -0.3947 -0.0006 -0.0371
 1682SOL    HW116505   0.622   0.743   6.988  0.3335 -1.0589 -0.0272
 1682SOL    HW216506   0.519   0.646   7.017  1.7872 -2.1291  0.3860
 1683SOL     OW16507   2.910   3.437   8.339 -0.3642  0.1522  0.1023
 1683SOL    HW116508   2.955   3.462   8.420 -0.6639 -0.7825  0.5578
 1683SOL    HW216509   2.819   3.411   8.355 -0.4765  0.9355  0.7058
 1684SOL     OW16510   3.414   4.367   8.706  0.6460  0.2620 -0.3198
 1684SOL    HW116511   3.467   4.410   8.773 -0.5664 -0.0062  0.8160
 1684SOL    HW216512   3.354   4.437   8.679 -0.6970 -1.3340 -1.4834
 1685SOL     OW16513   4.480   0.060   3.429 -0.0264  0.2151 -0.6365
 1685SOL    HW116514   4.575   0.062   3.436  0.0679 -0.4287 -1.7682
 1685SOL    HW216515   4.470   4.703   3.376 -1.1569  2.0550 -3.1624
 1686SOL     OW16516   1.773   3.387   2.714 -0.2671  0.3386  0.0092
 1686SOL    HW116517   1.704   3.425   2.660 -1.0442 -0.3093  0.5436
 1686SOL    HW216518   1.837   3.458   2.704 -0.1985  0.2430 -0.2246
 1687SOL     OW16519   1.459   2.116   8.520  0.5143  0.2613  0.3820
 1687SOL    HW116520   1.376   2.154   8.550 -0.3630 -0.5209 -1.0474
 1687SOL    HW216521   1.483   2.064   8.597  2.7201  0.1486 -0.3920
 1688SOL     OW16522   3.895   4.259   5.205 -0.2248  0.8066 -0.2789
 1688SOL    HW116523   3.841   4.335   5.185  1.8342  2.2385 -0.3418
 1688SOL    HW216524   3.825   4.196   5.189  0.6819 -0.9935  2.7924
 1689SOL     OW16525   4.271   2.510  11.190  0.3045  0.1871  0.5717
 1689SOL    HW116526   4.281   2.537  11.281 -2.4040  2.4489  0.1820
 1689SOL    HW216527   4.358   2.536  11.160  0.6344 -0.4451  0.9706
 1690SOL     OW16528   4.587   2.574   0.757  0.2657 -0.1065 -0.4025
 1690SOL    HW116529   4.578   2.547   0.665 -4.1635 -0.8724  0.2752
 1690SOL    HW216530   4.617   2.494   0.799  1.3965 -0.5784 -2.0775
 1691SOL     OW16531   0.731   4.711   6.798  0.0278 -0.2449 -0.4147
 1691SOL    HW116532   0.677   0.047   6.744 -0.9221 -0.3150  0.4581
 1691SOL    HW216533   0.749   0.049   6.870  0.9549 -1.0140 -0.0008
 1692SOL     OW16534   0.163   1.209  15.806 -0.1495  0.0532  1.0695
 1692SOL    HW116535   0.204   1.293  15.826  1.7677 -0.2423 -1.5883
 1692SOL    HW216536   0.164   1.156  15.886  2.2766  1.1914  1.7892
 1693SOL     OW16537   3.738   0.896   1.602  0.0382 -0.0764  0.8502
 1693SOL    HW116538   3.823   0.909   1.644  0.1687 -1.0459  0.9010
 1693SOL    HW216539   3.682   0.955   1.652  0.0042 -0.0890  0.8276
 1694SOL     OW16540   0.895   3.929   8.523  0.6711  0.0431 -0.3546
 1694SOL    HW116541   0.915   3.944   8.431  1.5916 -1.4658 -0.3875
 1694SOL    HW216542   0.969   3.874   8.547  0.7786  0.7475  0.9715
 1695SOL     OW16543   0.766   4.476   2.698 -0.4047  0.2739 -0.3415
 1695SOL    HW116544   0.696   4.491   2.634  0.2886 -1.9090 -1.6379
 1695SOL    HW216545   0.816   4.557   2.699  1.6424 -0.9750 -1.8882
 1696SOL     OW16546   1.466   1.216   6.184 -0.8399  0.3944 -0.0634
 1696SOL    HW116547   1.487   1.306   6.209  1.0601 -0.3264  0.8696
 1696SOL    HW216548   1.467   1.167   6.266 -1.0099 -0.0735 -0.3420
 1697SOL     OW16549   0.736   3.181   8.125 -0.1547 -0.0436 -0.4911
 1697SOL    HW116550   0.672   3.110   8.119 -1.7294  1.4994 -1.8684
 1697SOL    HW216551   0.748   3.205   8.033  1.7371  0.2159 -0.1885
 1698SOL     OW16552   0.606   3.892   4.430  0.1834  0.7353  0.6165
 1698SOL    HW116553   0.684   3.859   4.385 -1.1659 -0.9869 -0.4160
 1698SOL    HW216554   0.587   3.825   4.495 -2.2309  2.2597  1.4691
 1699SOL     OW16555   1.065   4.175   6.566 -0.4121  0.8269  0.1196
 1699SOL    HW116556   1.028   4.260   6.589  0.4659  0.6528  2.2082
 1699SOL    HW216557   0.991   4.115   6.561 -0.2504  0.5014  1.5751
 1700SOL     OW16558   0.884   2.909   6.899  0.3655 -0.1610 -0.1616
 1700SOL    HW116559   0.839   2.990   6.874 -0.1042  0.6476  3.3507
 1700SOL    HW216560   0.932   2.886   6.819 -0.5481  0.8706 -1.0066
 1701SOL     OW16561   3.074   4.649   4.383 -0.1620  0.7268  0.3854
 1701SOL    HW116562   3.165   4.659   4.412  0.6601 -1.2836 -1.4488
 1701SOL    HW216563   3.074   4.688   4.296  1.4797  1.5515  0.7426
 1702SOL     OW16564   0.660   3.292   6.316  0.1640  0.0954 -0.1632
 1702SOL    HW116565   0.742   3.339   6.302 -1.6195  3.1656 -0.3439
 1702SOL    HW216566   0.617   3.334   6.390 -0.7451  1.3936 -1.4306
 1703SOL     OW16567   0.269   3.046   4.176 -0.2216 -0.1369 -0.4139
 1703SOL    HW116568   0.270   3.137   4.206 -2.0226 -0.7161  1.3968
 1703SOL    HW216569   0.334   3.050   4.106  1.2233 -0.7135  0.8672
 1704SOL     OW16570   0.660   3.101   2.519 -0.3375  0.6200 -0.3848
 1704SOL    HW116571   0.610   3.126   2.441  1.1741  1.4888 -1.0693
 1704SOL    HW216572   0.742   3.148   2.502  0.7757 -0.8927  0.7692
 1705SOL     OW16573   2.933   2.714   9.432 -0.0528  0.3566  0.7418
 1705SOL    HW116574   2.994   2.653   9.390 -0.5626 -0.2900  0.9404
 1705SOL    HW216575   2.946   2.796   9.386  1.5279 -0.1418  0.2932
 1706SOL     OW16576   0.259   4.534   2.553 -0.7128 -0.0535  0.4405
 1706SOL    HW116577   0.309   4.524   2.472 -1.1131 -2.7744  0.5116
 1706SOL    HW216578   0.171   4.545   2.517 -0.1695  1.3205 -0.4687
 1707SOL     OW16579   1.309   4.033   0.362  0.0159  0.8383 -0.0248
 1707SOL    HW116580   1.214   4.046   0.359  0.0033  0.2112 -1.9344
 1707SOL    HW216581   1.319   3.976   0.438 -0.2265  0.8758  0.0359
 1708SOL     OW16582   3.162   0.720  15.663 -0.9452  0.2155 -0.0864
 1708SOL    HW116583   3.101   0.760  15.600 -1.9390 -2.6422 -0.9292
 1708SOL    HW216584   3.116   0.716  15.747  0.6505  2.1385  0.8989
 1709SOL     OW16585   1.802   2.487  14.449  0.2688  0.0717 -0.5423
 1709SOL    HW116586   1.847   2.457  14.371 -0.9277 -0.5573 -0.9876
 1709SOL    HW216587   1.764   2.567  14.412 -0.1911  0.3334  0.4801
 1710SOL     OW16588   1.181   3.966   7.325 -0.3023 -0.1732  0.2920
 1710SOL    HW116589   1.187   3.908   7.250 -0.0930 -0.3203  0.4222
 1710SOL    HW216590   1.145   4.045   7.285 -1.1113 -0.4494  0.4786
 1711SOL     OW16591   0.400   0.901   6.722  0.3844  0.6012  0.7289
 1711SOL    HW116592   0.417   0.987   6.685  1.1785  0.3067  0.4159
 1711SOL    HW216593   0.337   0.855   6.665  0.5287  0.0538  1.0088
 1712SOL     OW16594   2.692   2.636   7.939 -0.3778 -0.2320  0.0348
 1712SOL    HW116595   2.742   2.637   8.021 -0.1703  1.0128 -0.1146
 1712SOL    HW216596   2.694   2.541   7.924 -3.5274 -0.2893 -0.0262
 1713SOL     OW16597   1.705   4.233   7.085  0.2361  0.4508  0.2217
 1713SOL    HW116598   1.765   4.194   7.020  0.2119  0.3495  0.2591
 1713SOL    HW216599   1.723   4.179   7.162  2.4242  1.4607  0.4078
 1714SOL     OW16600   3.906   4.689   2.208 -0.3244 -0.2545  0.6904
 1714SOL    HW116601   3.913   4.675   2.114  2.3102  1.0408  0.6697
 1714SOL    HW216602   3.863   0.051   2.225  0.4390 -0.1052  1.8625
 1715SOL     OW16603   2.481   2.936   2.937  0.1311 -0.3661 -0.3410
 1715SOL    HW116604   2.485   2.904   3.027 -0.2019 -0.2420 -0.2805
 1715SOL    HW216605   2.576   2.946   2.928 -0.1030  2.7048  0.4736
 1716SOL     OW16606   3.564   0.026   1.669 -0.2739  0.5140 -0.0874
 1716SOL    HW116607   3.646   0.039   1.620  0.1765 -0.2570  0.4625
 1716SOL    HW216608   3.565   0.097   1.732 -5.2893  1.3510 -0.9602
 1717SOL     OW16609   3.826   0.132  13.071 -0.6875  0.4645  0.6047
 1717SOL    HW116610   3.827   0.061  13.007 -0.3256  0.7011  0.3479
 1717SOL    HW216611   3.770   0.193  13.025 -0.0359  1.6523  1.3964
 1718SOL     OW16612   3.698   1.357   7.197 -0.3177  0.3384  0.3188
 1718SOL    HW116613   3.679   1.450   7.181 -0.1933 -0.0115 -1.8022
 1718SOL    HW216614   3.630   1.312   7.148 -0.1321 -3.1685  3.3183
 1719SOL     OW16615   0.882   2.127   8.891 -0.1348  0.2996 -0.1376
 1719SOL    HW116616   0.868   2.222   8.894 -1.4476  0.1210 -0.2417
 1719SOL    HW216617   0.801   2.100   8.935  1.7507 -2.8711  1.3248
 1720SOL     OW16618   3.374   2.162   7.404  0.2508  0.3448 -0.6975
 1720SOL    HW116619   3.346   2.161   7.312  2.4214 -3.0352 -1.2903
 1720SOL    HW216620   3.437   2.090   7.410 -0.5973 -0.2711  0.6290
 1721SOL     OW16621   2.686   4.393  10.535  0.5007 -0.0583  0.2128
 1721SOL    HW116622   2.659   4.471  10.486  1.5264  0.4038  0.3934
 1721SOL    HW216623   2.609   4.337  10.538  1.9888 -2.1576 -1.1109
 1722SOL     OW16624   1.273   3.089  14.702 -0.1322 -0.1014 -0.0895
 1722SOL    HW116625   1.242   3.169  14.744 -1.4034 -0.7921  0.2813
 1722SOL    HW216626   1.348   3.129  14.657 -0.0867 -2.2583 -1.9525
 1723SOL     OW16627   1.642   4.377  14.447  0.2391 -0.0865 -0.4017
 1723SOL    HW116628   1.552   4.392  14.474  0.5281 -0.3100  0.6942
 1723SOL    HW216629   1.688   4.434  14.510  1.5078  0.3124 -1.6851
 1724SOL     OW16630   1.239   3.355   3.887 -0.4189 -0.1176  0.2343
 1724SOL    HW116631   1.290   3.420   3.838 -2.6926  2.0373  0.7108
 1724SOL    HW216632   1.279   3.351   3.974 -0.5013 -2.5866  0.1543
 1725SOL     OW16633   2.393   0.145   6.791  0.0485  0.1957  0.0837
 1725SOL    HW116634   2.388   0.207   6.864  1.4601  1.0703 -0.5507
 1725SOL    HW216635   2.340   0.189   6.724  1.4826  1.1203 -0.4483
 1726SOL     OW16636   0.505   2.699  10.731 -0.0766 -0.3217 -0.4515
 1726SOL    HW116637   0.483   2.714  10.639 -3.3033  0.0278  0.3562
 1726SOL    HW216638   0.565   2.770  10.750  1.4379 -2.2286  1.8920
 1727SOL     OW16639   4.314   3.535   2.684  0.1419 -0.2892  0.0044
 1727SOL    HW116640   4.247   3.603   2.680 -1.7673 -2.0496  2.4993
 1727SOL    HW216641   4.360   3.542   2.767 -0.7141  1.0824  0.3481
 1728SOL     OW16642   4.470   2.457   3.090 -0.4436  0.0468  0.7359
 1728SOL    HW116643   4.554   2.489   3.123 -0.5860  0.2719  0.8861
 1728SOL    HW216644   4.413   2.534   3.098 -2.8927 -1.5961 -0.7068
 1729SOL     OW16645   3.892   0.922   5.704  0.7598  0.3527  0.1244
 1729SOL    HW116646   3.830   0.884   5.641  1.8078  1.0026 -1.3111
 1729SOL    HW216647   3.881   0.858   5.774  0.1880  1.6217  1.1866
 1730SOL     OW16648   4.630   0.016   5.720  0.7521 -0.5018  0.5064
 1730SOL    HW116649   4.632   4.653   5.763  0.3518 -0.3076  0.9049
 1730SOL    HW216650   4.561   0.067   5.762 -0.1874 -1.5085  0.1724
 1731SOL     OW16651   3.778   2.722   1.091 -0.1323 -0.1540  0.2759
 1731SOL    HW116652   3.857   2.759   1.129 -0.5493  4.9791 -3.8638
 1731SOL    HW216653   3.718   2.749   1.161  0.9516  1.7522  0.4739
 1732SOL     OW16654   2.650   0.724   5.305 -0.1848  0.1488  0.2946
 1732SOL    HW116655   2.669   0.720   5.399  3.5660 -1.5959 -0.5288
 1732SOL    HW216656   2.628   0.817   5.299 -0.0329  0.1234 -0.6140
 1733SOL     OW16657   4.563   2.743  12.773  0.5629  0.5196 -0.4640
 1733SOL    HW116658   4.562   2.651  12.800 -0.8940  1.4096  2.4828
 1733SOL    HW216659   4.472   2.762  12.748  0.9017  2.3111 -0.3658
 1734SOL     OW16660   3.278   1.964   1.059 -0.3529  0.5385 -0.4125
 1734SOL    HW116661   3.313   1.923   0.980  0.3184 -3.8597  2.1513
 1734SOL    HW216662   3.194   1.919   1.066  0.9091 -1.4893  1.8887
 1735SOL     OW16663   3.841   3.664   4.954  0.1684 -0.2755 -0.1243
 1735SOL    HW116664   3.837   3.568   4.954 -1.1438 -0.2296 -1.7516
 1735SOL    HW216665   3.769   3.683   5.014  1.4656 -1.8637  1.9350
 1736SOL     OW16666   3.051   3.685  14.394 -0.7422  0.0957  0.1391
 1736SOL    HW116667   2.965   3.644  14.391 -0.2598 -0.9239  0.2839
 1736SOL    HW216668   3.074   3.680  14.301 -2.2666  0.6381 -0.2738
 1737SOL     OW16669   3.072   4.390   8.597  0.3694  0.0652  0.6004
 1737SOL    HW116670   3.072   4.343   8.680 -0.7353 -2.8032 -1.0445
 1737SOL    HW216671   3.152   4.442   8.605 -0.0100  0.6556  0.6174
 1738SOL     OW16672   4.141   4.412  14.171  0.1578 -0.1453  0.0760
 1738SOL    HW116673   4.218   4.455  14.208  1.4763 -2.6193  0.2207
 1738SOL    HW216674   4.176   4.364  14.096 -0.2586  1.7140 -1.2890
 1739SOL     OW16675   2.193   0.136  12.612 -0.3983 -0.7069 -0.4378
 1739SOL    HW116676   2.235   0.051  12.599  1.2675 -0.0207  0.4659
 1739SOL    HW216677   2.235   0.187  12.543 -1.3315  0.6202 -0.0127
 1740SOL     OW16678   3.082   1.465   2.333 -0.2423  0.1006 -0.5920
 1740SOL    HW116679   3.012   1.415   2.289  0.9409 -2.3810  0.3623
 1740SOL    HW216680   3.160   1.449   2.280  1.0981  1.7699  0.9075
 1741SOL     OW16681   3.121   1.127   7.385  0.0240  0.3408  0.0853
 1741SOL    HW116682   3.208   1.150   7.419 -0.4976 -1.3559  2.5821
 1741SOL    HW216683   3.138   1.070   7.310 -0.6846 -0.6786  0.6966
 1742SOL     OW16684   2.372   2.448   6.721  0.7505  0.3004 -0.0788
 1742SOL    HW116685   2.384   2.405   6.636 -0.9365 -0.8380  0.2611
 1742SOL    HW216686   2.438   2.400   6.770  0.1173  1.4499  1.8750
 1743SOL     OW16687   2.467   4.104  11.464  0.6019 -0.6049  0.5940
 1743SOL    HW116688   2.450   4.162  11.538 -2.9241  1.0094 -1.4381
 1743SOL    HW216689   2.448   4.153  11.384  0.3604  0.1921  1.1366
 1744SOL     OW16690   3.823   0.837  10.959  0.2250 -0.4283 -0.3842
 1744SOL    HW116691   3.855   0.817  11.046  1.2919 -1.2891 -0.9726
 1744SOL    HW216692   3.844   0.753  10.918  0.4619 -0.5626  0.0144
 1745SOL     OW16693   3.972   4.118   8.191  0.2038  0.1527  0.8010
 1745SOL    HW116694   3.892   4.119   8.243 -0.4590 -0.8793 -0.1898
 1745SOL    HW216695   3.963   4.208   8.161  0.9984 -0.1246 -0.2844
 1746SOL     OW16696   3.418   2.041  12.451 -0.2823  0.3073  0.3992
 1746SOL    HW116697   3.489   2.063  12.511 -0.2656 -1.6694  1.1181
 1746SOL    HW216698   3.349   2.049  12.517 -0.7308  1.1941 -0.1824
 1747SOL     OW16699   2.339   0.727   0.906 -0.1311  0.1663 -0.0710
 1747SOL    HW116700   2.258   0.776   0.925 -1.3282 -1.5010 -0.8688
 1747SOL    HW216701   2.356   0.751   0.815 -0.4810 -1.1433 -0.4708
 1748SOL     OW16702   0.092   0.121   3.445 -0.3952  0.2166  0.1791
 1748SOL    HW116703   0.161   0.143   3.508 -0.2476  0.0579  0.0755
 1748SOL    HW216704   0.135   0.169   3.375  0.0769  1.0014  1.0063
 1749SOL     OW16705   0.329   1.145  10.882 -0.0243  0.7516 -0.1239
 1749SOL    HW116706   0.421   1.138  10.907 -0.4691  2.7788  2.0132
 1749SOL    HW216707   0.309   1.054  10.862 -0.0824  0.8700 -0.6237
 1750SOL     OW16708   4.328   0.840   4.917  0.0494 -0.0668  0.5751
 1750SOL    HW116709   4.419   0.871   4.920 -0.4313  1.5457 -1.0610
 1750SOL    HW216710   4.346   0.759   4.964 -1.3696  0.2252  1.6085
 1751SOL     OW16711   1.705   4.707   2.122  0.0092 -0.5311  0.5807
 1751SOL    HW116712   1.774   0.051   2.121 -1.1761  0.6815  1.1376
 1751SOL    HW216713   1.754   4.625   2.117 -1.0352 -1.1645  0.7322
 1752SOL     OW16714   1.223   1.014   0.869 -0.2871  0.4178  0.2142
 1752SOL    HW116715   1.284   1.070   0.820 -0.9042  0.7033 -0.2203
 1752SOL    HW216716   1.278   0.985   0.942  1.3520  2.8657 -0.0591
 1753SOL     OW16717   1.988   4.422   1.164  0.0591  0.1014 -0.7830
 1753SOL    HW116718   1.975   4.516   1.151 -1.2090  0.3674  2.3056
 1753SOL    HW216719   1.923   4.403   1.232 -0.2610  0.8401 -0.8839
 1754SOL     OW16720   4.255   3.896  15.218  0.0577  0.7032 -0.5174
 1754SOL    HW116721   4.328   3.834  15.221  0.2175  0.9388  0.7534
 1754SOL    HW216722   4.264   3.927  15.308  0.5174  0.0049 -0.3195
 1755SOL     OW16723   4.108   1.877   2.197 -0.4987 -0.4059  0.8664
 1755SOL    HW116724   4.095   1.949   2.258  1.6055  0.1710  0.6687
 1755SOL    HW216725   4.035   1.889   2.137  1.6093  1.1682 -1.4096
 1756SOL     OW16726   1.574   4.204   8.823 -0.4295  0.0752  0.2387
 1756SOL    HW116727   1.534   4.247   8.899  2.6347  2.9131  0.2465
 1756SOL    HW216728   1.587   4.114   8.854  0.7302  0.0108 -0.4306
 1757SOL     OW16729   3.766   2.654   7.839  0.9676 -0.3638  0.0969
 1757SOL    HW116730   3.854   2.684   7.819  0.7111 -0.9211 -1.8848
 1757SOL    HW216731   3.780   2.600   7.917  0.0892 -2.4587 -1.2059
 1758SOL     OW16732   4.367   3.511   8.609  0.1359 -0.0194 -0.1131
 1758SOL    HW116733   4.353   3.603   8.630 -0.6370 -0.4687  1.3062
 1758SOL    HW216734   4.336   3.472   8.690  0.1560  1.6988  0.7226
 1759SOL     OW16735   0.277   1.906  15.062  0.3876  0.1057  0.1938
 1759SOL    HW116736   0.198   1.900  15.008  0.9262 -0.0296 -0.5897
 1759SOL    HW216737   0.324   1.977  15.017  1.3806  0.2802  1.5018
 1760SOL     OW16738   2.020   2.759  14.560 -0.1809  0.3398 -0.0129
 1760SOL    HW116739   1.933   2.755  14.521 -0.7692 -0.0892  1.3399
 1760SOL    HW216740   2.062   2.695  14.502 -1.3606  1.2634 -1.8904
 1761SOL     OW16741   4.651   2.998   5.798 -0.3243  0.0478 -0.5784
 1761SOL    HW116742   0.023   2.986   5.794 -0.3767  0.0001 -1.8314
 1761SOL    HW216743   4.616   2.969   5.882 -0.9295 -0.1138 -0.8864
 1762SOL     OW16744   4.101   4.618   7.173 -0.5102  0.3560  0.5015
 1762SOL    HW116745   4.089   4.623   7.268 -1.7944  0.1179  0.3490
 1762SOL    HW216746   4.015   4.616   7.132  1.0469 -1.4474 -2.6777
 1763SOL     OW16747   4.686   2.228   3.078 -0.1050 -0.4922 -0.1791
 1763SOL    HW116748   4.620   2.242   3.146 -1.2157  1.6139 -1.7085
 1763SOL    HW216749   0.043   2.205   3.127 -1.2498 -1.6459  1.1354
 1764SOL     OW16750   3.546   1.854  12.309 -0.3048  0.0862  0.2183
 1764SOL    HW116751   3.496   1.928  12.342  1.9232  1.7380 -0.1295
 1764SOL    HW216752   3.534   1.790  12.379  1.8046 -1.3619 -0.7198
 1765SOL     OW16753   4.249   3.056   6.449  0.2196 -0.1104 -0.2334
 1765SOL    HW116754   4.189   2.982   6.436 -1.2956  1.2411 -0.9010
 1765SOL    HW216755   4.189   3.127   6.425  0.6475  0.3586  0.0808
 1766SOL     OW16756   1.770   4.608  14.815  0.3471 -0.1536  0.2848
 1766SOL    HW116757   1.720   4.614  14.896  0.7148  1.5152  0.3794
 1766SOL    HW216758   1.806   4.696  14.824  0.2878 -0.2561  1.5693
 1767SOL     OW16759   3.455   2.986  14.311  0.0164 -0.1021 -0.2405
 1767SOL    HW116760   3.416   2.949  14.390 -0.3688  0.0628 -0.3517
 1767SOL    HW216761   3.420   3.074  14.292 -1.2412 -0.4961  0.2549
 1768SOL     OW16762   4.251   1.400   7.102  0.3288  0.3464 -0.1982
 1768SOL    HW116763   4.180   1.348   7.066 -1.3555  2.6599 -0.2179
 1768SOL    HW216764   4.247   1.481   7.051  0.1921  1.3670  1.4294
 1769SOL     OW16765   2.608   2.958   8.760  0.4173  0.2973 -0.6575
 1769SOL    HW116766   2.601   2.991   8.850 -0.5244  0.3276 -0.7435
 1769SOL    HW216767   2.692   2.996   8.734  0.8416 -0.8617 -0.9664
 1770SOL     OW16768   3.439   3.690  15.461  0.6278  0.1939  0.6193
 1770SOL    HW116769   3.457   3.763  15.402 -2.5392  0.0664 -0.4685
 1770SOL    HW216770   3.458   3.739  15.541  1.2954 -0.9613  1.1680
 1771SOL     OW16771   0.062   1.268  13.414 -0.3069 -0.0267  0.3359
 1771SOL    HW116772   0.012   1.199  13.371  0.8819  0.0197 -1.1036
 1771SOL    HW216773   0.039   1.343  13.360 -0.0773  0.0955  0.4073
 1772SOL     OW16774   4.396   3.154   3.529  0.1283  0.4021 -0.2545
 1772SOL    HW116775   4.461   3.142   3.459 -0.5868 -1.3518 -0.6159
 1772SOL    HW216776   4.324   3.097   3.500 -0.0310  0.9248 -0.9042
 1773SOL     OW16777   1.577   4.135  13.789 -0.1314 -0.1807 -0.0160
 1773SOL    HW116778   1.603   4.187  13.865  2.7182 -1.2935 -0.2224
 1773SOL    HW216779   1.482   4.147  13.791  0.0743  1.1333  1.1321
 1774SOL     OW16780   3.245   1.287   3.549  0.2589 -0.4733 -0.0094
 1774SOL    HW116781   3.317   1.313   3.491 -0.0632  0.6458  0.0870
 1774SOL    HW216782   3.175   1.346   3.521  0.3137 -0.7987 -0.8120
 1775SOL     OW16783   2.963   1.694   4.971 -0.0356  0.0073  0.4804
 1775SOL    HW116784   3.043   1.651   4.942  0.0382 -0.3962  1.3038
 1775SOL    HW216785   2.970   1.769   4.911 -1.5725 -0.2947 -0.0823
 1776SOL     OW16786   1.010   0.869   5.984 -0.3705 -1.2931  0.2805
 1776SOL    HW116787   0.992   0.940   6.046  2.4853  0.6902 -1.1409
 1776SOL    HW216788   0.920   0.849   5.959 -0.3641  1.2651 -1.7642
 1777SOL     OW16789   2.061   3.860   3.988 -0.0513 -0.6886  0.6191
 1777SOL    HW116790   2.124   3.813   4.043  0.6674  1.7047  1.8614
 1777SOL    HW216791   2.087   3.828   3.902  1.1535 -0.6558  0.9634
 1778SOL     OW16792   3.407   0.725  15.754 -0.2228  0.1665 -0.0313
 1778SOL    HW116793   3.434   0.657  15.816  1.0302  0.4416 -0.2722
 1778SOL    HW216794   3.314   0.707  15.742  0.0960 -1.9256  0.6552
 1779SOL     OW16795   3.336   1.252   1.859 -0.6903  0.7013 -0.1507
 1779SOL    HW116796   3.261   1.302   1.825 -2.8321 -3.9736 -2.2657
 1779SOL    HW216797   3.311   1.164   1.831 -1.4634  0.8804 -0.0199
 1780SOL     OW16798   3.966   3.624   2.886 -0.0869 -0.2492 -0.2231
 1780SOL    HW116799   4.003   3.582   2.809  2.1277  0.6757  0.3240
 1780SOL    HW216800   3.927   3.702   2.846  1.7586  1.2201  0.8435
 1781SOL     OW16801   1.191   2.931  13.082  0.1290  0.4345  0.3349
 1781SOL    HW116802   1.190   2.977  12.998 -1.1140  1.1313  0.7217
 1781SOL    HW216803   1.257   2.865  13.061  0.7120  0.5684  1.7446
 1782SOL     OW16804   4.168   2.034  15.360 -0.2895  0.5456  0.6621
 1782SOL    HW116805   4.257   2.028  15.324 -0.8418 -3.1647 -0.1178
 1782SOL    HW216806   4.128   1.956  15.320  1.2166  0.4713 -0.7277
 1783SOL     OW16807   2.319   2.745   5.971 -0.7133 -0.0178 -0.3768
 1783SOL    HW116808   2.289   2.674   5.916 -0.0925 -0.2646 -0.3964
 1783SOL    HW216809   2.295   2.830   5.934 -0.7781 -0.3424 -1.0767
 1784SOL     OW16810   3.066   3.151   3.485  0.3119  0.8560 -0.2628
 1784SOL    HW116811   2.990   3.093   3.481 -0.3054  1.7184 -0.8409
 1784SOL    HW216812   3.051   3.165   3.579 -4.3697 -0.3723 -0.8451
 1785SOL     OW16813   1.546   3.709   0.691  0.0963 -0.3901  0.1132
 1785SOL    HW116814   1.473   3.647   0.685  0.1763 -0.5898  1.3152
 1785SOL    HW216815   1.563   3.690   0.783 -1.0384  0.3817  0.4807
 1786SOL     OW16816   3.324   0.521  13.610 -0.3443 -0.0220 -0.2475
 1786SOL    HW116817   3.419   0.531  13.615 -0.1369 -1.6747 -0.9827
 1786SOL    HW216818   3.324   0.428  13.589  0.1787 -0.4938  1.8176
 1787SOL     OW16819   1.106   0.833  17.638 -0.5031 -0.4027  0.1862
 1787SOL    HW116820   1.055   0.894  17.691 -0.3301  2.7898 -3.3529
 1787SOL    HW216821   1.130   0.774   0.018  1.7413 -0.6345 -0.7595
 1788SOL     OW16822   3.194   4.130   1.001  0.2323  0.0369 -0.0359
 1788SOL    HW116823   3.281   4.123   1.042 -0.3631  2.1199  1.5770
 1788SOL    HW216824   3.162   4.041   1.015  0.6043 -0.3515 -1.6347
 1789SOL     OW16825   3.539   1.171   2.966 -0.3316  0.0628 -0.2325
 1789SOL    HW116826   3.491   1.183   3.048 -0.4235 -1.0371 -0.1246
 1789SOL    HW216827   3.472   1.194   2.901  1.7844  0.0710 -2.3862
 1790SOL     OW16828   1.558   4.467   2.986 -0.0060  0.1386 -0.4320
 1790SOL    HW116829   1.613   4.466   2.908  0.6337  0.6764  0.0130
 1790SOL    HW216830   1.603   4.400   3.035  0.4427 -0.0553 -1.1132
 1791SOL     OW16831   2.069   2.307   8.969 -0.1325  0.1745  0.4413
 1791SOL    HW116832   2.026   2.227   8.941  0.3814  1.2260 -3.3899
 1791SOL    HW216833   2.068   2.366   8.893  0.9972  0.5313  0.6906
 1792SOL     OW16834   2.628   1.791   4.944  0.0944 -0.2541  0.2686
 1792SOL    HW116835   2.555   1.803   4.884  1.0118  0.7648 -0.6367
 1792SOL    HW216836   2.682   1.866   4.920  0.5381 -0.9159 -0.7888
 1793SOL     OW16837   3.285   4.189   8.025 -0.0687 -0.7103 -0.3793
 1793SOL    HW116838   3.201   4.170   7.984 -1.9377  1.2694  2.4738
 1793SOL    HW216839   3.334   4.199   7.943  0.3512 -0.0291 -0.0502
 1794SOL     OW16840   4.551   0.061   9.716  0.4779 -0.2455 -0.3007
 1794SOL    HW116841   4.477   0.121   9.705 -0.7770 -1.9520 -1.3004
 1794SOL    HW216842   4.519   4.718   9.778 -0.0711  0.8175  0.5442
 1795SOL     OW16843   4.113   1.674   7.353  0.0606 -0.0133 -0.5468
 1795SOL    HW116844   4.080   1.653   7.441  1.1892  1.0372  0.1329
 1795SOL    HW216845   4.032   1.677   7.303 -0.3815 -3.2557 -0.0053
 1796SOL     OW16846   4.323   2.196   6.648  0.0518 -0.3672  0.4103
 1796SOL    HW116847   4.409   2.160   6.667  0.5219  1.8358  2.4700
 1796SOL    HW216848   4.310   2.201   6.553  1.9378  1.0772  0.2210
 1797SOL     OW16849   2.485   3.662   5.019 -0.2807  0.3365 -0.1645
 1797SOL    HW116850   2.479   3.651   4.924  3.7518 -1.8956 -0.1833
 1797SOL    HW216851   2.394   3.691   5.031  0.1449  1.0194  1.4173
 1798SOL     OW16852   2.133   2.505   5.660  0.2006  0.5956 -0.2127
 1798SOL    HW116853   2.116   2.530   5.569 -2.0699 -0.2928 -0.0286
 1798SOL    HW216854   2.063   2.545   5.711 -0.4022 -0.0693 -0.5165
 1799SOL     OW16855   2.707   2.569   8.829 -0.1951  0.4929  0.0161
 1799SOL    HW116856   2.788   2.572   8.780 -0.2318 -1.7743 -0.1656
 1799SOL    HW216857   2.747   2.567   8.916  0.9882 -1.0655 -0.5692
 1800SOL     OW16858   1.839   3.575   2.276  0.0270 -0.1782 -0.9523
 1800SOL    HW116859   1.852   3.669   2.287 -1.9513  0.0095 -0.2071
 1800SOL    HW216860   1.803   3.575   2.187 -0.3602 -2.0890 -0.7955
 1801SOL     OW16861   4.424   0.348  15.588 -0.4631 -0.9692  0.0277
 1801SOL    HW116862   4.419   0.306  15.503 -1.0233 -1.0169  0.0791
 1801SOL    HW216863   4.385   0.275  15.637  0.0136 -1.3090 -0.1048
 1802SOL     OW16864   1.790   0.715  17.139  0.3171 -0.6156 -0.1859
 1802SOL    HW116865   1.842   0.732  17.218 -0.6474  1.1384  0.0601
 1802SOL    HW216866   1.825   0.637  17.097  0.4164  0.4000 -1.9859
 1803SOL     OW16867   1.454   0.200   6.365 -0.3368 -0.4907 -0.2342
 1803SOL    HW116868   1.481   0.176   6.454  0.6523  0.4342 -0.2868
 1803SOL    HW216869   1.491   0.127   6.316 -0.0245 -0.1120 -0.5606
 1804SOL     OW16870   1.870   3.889  17.454  0.2278  0.0060  0.3142
 1804SOL    HW116871   1.788   3.880  17.503  0.7059 -3.2771  0.5394
 1804SOL    HW216872   1.890   3.979  17.478  0.3237 -0.0845  0.5805
 1805SOL     OW16873   2.366   1.984   7.024  0.1326 -0.4161  0.4519
 1805SOL    HW116874   2.324   2.061   6.985  0.9701  0.1620  0.6987
 1805SOL    HW216875   2.448   2.030   7.039  0.1044 -0.5462  0.9934
 1806SOL     OW16876   3.467   1.918  16.733 -0.5511 -0.0711  0.2594
 1806SOL    HW116877   3.383   1.927  16.778 -0.2268 -0.2761  0.8994
 1806SOL    HW216878   3.467   1.823  16.721  1.7992 -0.5231  3.8056
 1807SOL     OW16879   3.555   2.071   5.644 -0.1429  0.3642 -0.0304
 1807SOL    HW116880   3.552   2.004   5.711 -1.5597  0.9446  0.4871
 1807SOL    HW216881   3.639   2.110   5.670 -0.8964  0.7593  1.7462
 1808SOL     OW16882   3.278   4.569   3.626  0.1146  0.5885  0.1590
 1808SOL    HW116883   3.369   4.581   3.655  0.6217  1.0042 -1.6103
 1808SOL    HW216884   3.290   4.580   3.532 -2.4308 -0.2040 -0.2537
 1809SOL     OW16885   1.864   3.803  13.337  0.2311  0.1317 -0.4875
 1809SOL    HW116886   1.829   3.891  13.327  0.3699  0.3654  1.1025
 1809SOL    HW216887   1.957   3.817  13.353  0.2947 -0.5093 -0.2957
 1810SOL     OW16888   4.586   2.813   8.085  0.3701  0.1397 -0.4722
 1810SOL    HW116889   4.609   2.776   8.170  1.7694 -0.3977 -1.0920
 1810SOL    HW216890   4.530   2.748   8.044 -0.5579 -0.0366  1.0898
 1811SOL     OW16891   3.378   3.377  15.323 -0.3996 -0.3504 -0.0681
 1811SOL    HW116892   3.458   3.355  15.370  1.2017  2.6159 -1.4022
 1811SOL    HW216893   3.404   3.450  15.266  2.2769 -0.3936  1.1005
 1812SOL     OW16894   4.596   2.108   1.447 -0.3863 -0.2242 -0.4565
 1812SOL    HW116895   4.680   2.148   1.427 -1.5029  2.7896  0.8766
 1812SOL    HW216896   4.546   2.180   1.488  0.8651 -0.0020  0.6737
 1813SOL     OW16897   0.324   4.274   6.448 -0.0863  0.3837  0.2158
 1813SOL    HW116898   0.287   4.240   6.367  3.5736  0.3646 -1.4259
 1813SOL    HW216899   0.405   4.230   6.473 -0.3879 -0.4163 -0.2285
 1814SOL     OW16900   0.497   3.317   2.045  0.3908  0.7548  0.2431
 1814SOL    HW116901   0.580   3.364   2.042 -0.3860  2.0791 -0.9570
 1814SOL    HW216902   0.433   3.387   2.028 -0.7023 -0.2496  0.1708
 1815SOL     OW16903   1.086   1.947   6.054  0.2732  0.8861 -0.0714
 1815SOL    HW116904   1.066   1.978   5.965  0.1820  2.4353  0.4863
 1815SOL    HW216905   1.101   1.853   6.039 -0.9917  1.1211 -2.8272
 1816SOL     OW16906   2.113   0.652   3.137 -0.3520 -0.0861 -0.0446
 1816SOL    HW116907   2.080   0.698   3.060  1.8758 -0.8387 -1.4504
 1816SOL    HW216908   2.118   0.560   3.108  1.3597 -0.3592  1.1195
 1817SOL     OW16909   0.152   0.172   2.755  0.3451  0.7991 -0.2524
 1817SOL    HW116910   0.216   0.156   2.686 -3.2979 -0.0531 -3.4180
 1817SOL    HW216911   0.072   0.190   2.707 -2.3971 -1.0233  3.6124
 1818SOL     OW16912   0.615   2.533   3.597  0.0652 -0.0897  0.2945
 1818SOL    HW116913   0.697   2.576   3.621  0.4186 -1.3395  1.2935
 1818SOL    HW216914   0.564   2.543   3.677  0.3561 -2.5269  0.7602
 1819SOL     OW16915   3.402   2.754   2.123 -0.1135 -0.0765 -0.5117
 1819SOL    HW116916   3.414   2.813   2.198 -0.3095 -1.5790  0.7066
 1819SOL    HW216917   3.323   2.704   2.142 -0.0645  0.3450  0.8102
 1820SOL     OW16918   0.555   0.242   2.430  0.0599 -0.7479  0.2843
 1820SOL    HW116919   0.645   0.264   2.404  0.2905  0.4893  2.1446
 1820SOL    HW216920   0.568   0.181   2.502 -0.8021 -0.8856  0.3190
 1821SOL     OW16921   2.764   1.214  10.211 -0.2751 -0.4341  0.5039
 1821SOL    HW116922   2.722   1.144  10.161  0.5169 -1.7606  1.6853
 1821SOL    HW216923   2.760   1.181  10.301 -2.9582 -0.7952  0.2340
 1822SOL     OW16924   3.840   4.053   2.146 -0.2089  0.0240  0.3368
 1822SOL    HW116925   3.763   4.014   2.188  0.6539 -0.2673  1.6470
 1822SOL    HW216926   3.849   4.132   2.200  1.1627 -1.3259  2.0449
 1823SOL     OW16927   2.414   2.252   9.845 -0.1190  0.0431 -0.1619
 1823SOL    HW116928   2.367   2.257   9.762  0.4740 -0.8036 -0.5510
 1823SOL    HW216929   2.346   2.215   9.901 -0.3382  1.1837  0.3315
 1824SOL     OW16930   2.407   3.297   9.347 -0.3573  0.2045 -0.1273
 1824SOL    HW116931   2.405   3.389   9.320 -0.1396  0.1641 -0.2744
 1824SOL    HW216932   2.433   3.316   9.437 -1.6513  1.0360  0.0836
 1825SOL     OW16933   2.182   4.076  13.118  0.0609 -0.0280 -0.1072
 1825SOL    HW116934   2.089   4.097  13.112  0.1264 -0.2844 -1.9489
 1825SOL    HW216935   2.229   4.157  13.135 -1.3403  1.0167 -1.2183
 1826SOL     OW16936   1.329   1.651   4.058  0.5456 -0.1038  0.1072
 1826SOL    HW116937   1.238   1.622   4.051  1.5065 -2.7798 -1.4803
 1826SOL    HW216938   1.377   1.580   4.014 -0.4858 -0.9124  0.2958
 1827SOL     OW16939   0.781   3.081   7.133  0.0542  0.3339  0.1474
 1827SOL    HW116940   0.813   2.995   7.160  0.2835 -0.2212 -1.8965
 1827SOL    HW216941   0.716   3.052   7.070  0.3841 -2.5224  1.1446
 1828SOL     OW16942   2.880   1.153   7.228 -0.6187  0.0376 -0.2985
 1828SOL    HW116943   2.935   1.181   7.301 -0.3938 -1.3278  0.0528
 1828SOL    HW216944   2.935   1.086   7.188 -0.4207  0.9294 -1.4922
 1829SOL     OW16945   2.568   1.554  10.450  0.7330 -0.6220  0.0793
 1829SOL    HW116946   2.530   1.472  10.421  0.2156 -0.0103 -1.0039
 1829SOL    HW216947   2.645   1.559  10.393  0.6729  0.5061  0.0872
 1830SOL     OW16948   4.132   4.296   4.015 -0.9433  0.0026  0.0927
 1830SOL    HW116949   4.130   4.323   4.107  3.2802 -1.0978  0.4681
 1830SOL    HW216950   4.133   4.387   3.984  1.3619 -0.1227 -0.1408
 1831SOL     OW16951   2.123   2.749   5.354 -0.1820 -0.1662 -0.3200
 1831SOL    HW116952   2.199   2.692   5.364 -2.4990 -3.1109  0.2656
 1831SOL    HW216953   2.142   2.791   5.270  0.9534 -0.7596 -0.3496
 1832SOL     OW16954   0.859   4.209   3.841  0.2173  0.0022  0.0767
 1832SOL    HW116955   0.811   4.140   3.796 -0.2602 -1.6028  3.0634
 1832SOL    HW216956   0.915   4.236   3.767  0.2369  1.3237  0.5724
 1833SOL     OW16957   0.281   0.554   9.301 -0.4580  0.1342 -0.6446
 1833SOL    HW116958   0.277   0.646   9.327  2.1650 -0.0504  0.4359
 1833SOL    HW216959   0.351   0.521   9.357  0.1547  1.8041 -0.4343
 1834SOL     OW16960   0.574   1.720   3.739  0.3559 -0.0904 -0.0065
 1834SOL    HW116961   0.644   1.655   3.731 -0.5160 -1.0925  0.4965
 1834SOL    HW216962   0.525   1.691   3.816  0.9625 -0.8004  0.1156
 1835SOL     OW16963   2.110   0.370  16.047  0.8105  0.1298  0.1921
 1835SOL    HW116964   2.130   0.347  16.138  1.6473  1.3747  0.3272
 1835SOL    HW216965   2.197   0.361  16.010  0.5722 -1.1807 -0.0337
 1836SOL     OW16966   1.827   3.860   4.133 -0.2915 -0.1774 -0.3067
 1836SOL    HW116967   1.795   3.783   4.086 -2.2223  0.2751  0.2518
 1836SOL    HW216968   1.913   3.869   4.094 -1.1425  1.4159 -1.8376
 1837SOL     OW16969   3.436   0.871   7.499 -0.0494  1.1766  0.1985
 1837SOL    HW116970   3.445   0.961   7.531  0.0945  0.8931  0.9549
 1837SOL    HW216971   3.486   0.829   7.569 -0.4880 -2.0571 -1.4659
 1838SOL     OW16972   1.790   3.441   5.097  0.2261 -0.1566  0.1610
 1838SOL    HW116973   1.783   3.363   5.043 -2.7213  0.0970  0.2091
 1838SOL    HW216974   1.727   3.427   5.168 -1.2951 -1.2489 -1.4289
 1839SOL     OW16975   4.183   4.681  10.785 -0.5068 -0.2425 -0.4545
 1839SOL    HW116976   4.128   4.722  10.852  0.8036 -0.6641  0.8750
 1839SOL    HW216977   4.252   0.024  10.777 -1.0557  0.6848  2.1294
 1840SOL     OW16978   3.095   2.013  12.389  0.4909 -0.2346  0.4220
 1840SOL    HW116979   3.066   1.933  12.434  0.0567 -0.3781 -0.1170
 1840SOL    HW216980   3.044   2.011  12.308  0.2700 -0.7989  0.5739
 1841SOL     OW16981   4.444   4.440   2.615 -0.1646 -0.3526 -0.1475
 1841SOL    HW116982   4.485   4.456   2.700 -2.8555  0.7759  0.9134
 1841SOL    HW216983   4.361   4.403   2.644  1.5527 -2.9676  1.4675
 1842SOL     OW16984   2.734   3.461   6.450 -0.5079  0.0208  0.1407
 1842SOL    HW116985   2.663   3.522   6.432 -1.2897 -0.5385  1.2691
 1842SOL    HW216986   2.708   3.388   6.395  0.6440 -0.5854  0.4035
 1843SOL     OW16987   2.925   2.527  12.685 -0.5309 -0.4087  0.1216
 1843SOL    HW116988   2.964   2.612  12.707  0.4870 -0.5672 -1.0813
 1843SOL    HW216989   2.853   2.567  12.636  0.8758  0.5440 -1.2021
 1844SOL     OW16990   1.353   1.537   9.189  0.3605  0.0435 -0.5121
 1844SOL    HW116991   1.305   1.579   9.118 -0.4367  2.1340  1.2573
 1844SOL    HW216992   1.291   1.465   9.204  0.1850  0.6101  1.5001
 1845SOL     OW16993   2.052   2.320   7.374 -0.0531 -0.2437  0.0518
 1845SOL    HW116994   2.000   2.257   7.424 -2.1532  1.0565 -0.5447
 1845SOL    HW216995   2.034   2.398   7.426  1.3046 -1.9870  3.1280
 1846SOL     OW16996   2.514   1.754   2.018  0.5494  0.5753 -0.5917
 1846SOL    HW116997   2.532   1.660   2.013  0.0802  0.4724 -0.3695
 1846SOL    HW216998   2.604   1.785   2.031  1.1710 -1.4000 -0.1150
 1847SOL     OW16999   3.362   2.510  11.786 -0.6666 -0.3122 -0.3212
 1847SOL    HW117000   3.387   2.430  11.832 -0.1188  0.3721  0.5664
 1847SOL    HW217001   3.341   2.476  11.699  0.7299 -0.4385 -0.6055
 1848SOL     OW17002   3.182   0.386   1.634  0.1493  0.3505 -0.1123
 1848SOL    HW117003   3.138   0.371   1.550 -0.0574 -0.8002  0.2112
 1848SOL    HW217004   3.135   0.469   1.648 -0.7983 -0.1275 -0.4691
 1849SOL     OW17005   1.486   1.712  14.843  0.8784 -0.0152  0.2174
 1849SOL    HW117006   1.448   1.750  14.763  1.6044  0.2948  0.0239
 1849SOL    HW217007   1.467   1.790  14.895 -1.1197  0.5987 -1.4095
 1850SOL     OW17008   0.748   0.313   3.074  0.0892  0.3077  0.6736
 1850SOL    HW117009   0.673   0.290   3.129  1.6900 -3.5559  1.2904
 1850SOL    HW217010   0.812   0.354   3.132 -0.0096  0.9710  0.3116
 1851SOL     OW17011   2.295   1.602   5.346 -0.1645  0.3215 -0.0693
 1851SOL    HW117012   2.288   1.540   5.273  1.8313  2.4571 -2.0820
 1851SOL    HW217013   2.359   1.663   5.312  0.1376  0.4256  0.6876
 1852SOL     OW17014   1.117   0.536   5.786 -0.0316  0.1367  0.4779
 1852SOL    HW117015   1.045   0.588   5.749 -1.3196 -1.4334  0.7795
 1852SOL    HW217016   1.148   0.595   5.855  1.6793  1.0879 -1.1115
 1853SOL     OW17017   4.027   1.553  16.156  0.6590  0.6921 -0.2008
 1853SOL    HW117018   4.096   1.490  16.175 -1.5606 -2.1675 -1.5024
 1853SOL    HW217019   4.077   1.634  16.164  1.0569  0.4735 -0.4700
 1854SOL     OW17020   3.804   2.758   7.389 -0.5707 -0.1403  0.0577
 1854SOL    HW117021   3.717   2.727   7.363  0.4072 -1.6416 -1.4592
 1854SOL    HW217022   3.795   2.789   7.479 -2.9128 -0.4200 -0.0875
 1855SOL     OW17023   3.349   0.740   1.105 -0.1359 -0.1332  0.3205
 1855SOL    HW117024   3.261   0.710   1.082  0.2530 -0.8956 -0.1762
 1855SOL    HW217025   3.403   0.694   1.041  2.2708  3.3490 -0.1785
 1856SOL     OW17026   3.824   2.274  15.713  0.5280 -0.3811  0.0189
 1856SOL    HW117027   3.778   2.304  15.635  0.4108  2.1521  1.0603
 1856SOL    HW217028   3.858   2.194  15.674 -1.0865 -0.6888 -0.7276
 1857SOL     OW17029   0.742   1.252   6.564 -0.8793 -0.4206 -0.1036
 1857SOL    HW117030   0.692   1.316   6.615 -0.6296 -0.0142 -0.3691
 1857SOL    HW217031   0.708   1.260   6.475  1.3953  0.3188 -0.9057
 1858SOL     OW17032   0.792   3.527   3.328 -0.3236  0.2066 -0.2146
 1858SOL    HW117033   0.717   3.584   3.345 -1.2816 -1.5023  1.2598
 1858SOL    HW217034   0.786   3.529   3.232 -1.7159 -0.1896 -0.1319
 1859SOL     OW17035   2.691   4.068  16.230  0.2431  0.3303  0.1393
 1859SOL    HW117036   2.682   4.097  16.139  0.7261 -1.3483 -0.4517
 1859SOL    HW217037   2.609   4.090  16.273 -0.4539  0.4586 -1.2510
 1860SOL     OW17038   2.625   4.490   7.386 -0.9570  0.2208  0.0084
 1860SOL    HW117039   2.583   4.500   7.471  0.9877  1.4877  0.8265
 1860SOL    HW217040   2.670   4.407   7.400  0.6081  1.1578  0.6404
 1861SOL     OW17041   4.613   4.475   6.197  0.3294  0.1231 -0.2599
 1861SOL    HW117042   4.572   4.495   6.281 -3.2796  3.3275 -2.8322
 1861SOL    HW217043   4.660   4.394   6.219  0.2782 -0.2704 -1.6203
 1862SOL     OW17044   2.672   1.102   2.750 -0.2337  0.1637 -0.9475
 1862SOL    HW117045   2.611   1.136   2.684 -0.8971  2.4480  0.8235
 1862SOL    HW217046   2.751   1.104   2.697  0.8817 -0.6444  0.7085
 1863SOL     OW17047   3.513   3.535   2.259  0.2044  0.3430  0.1267
 1863SOL    HW117048   3.554   3.608   2.213  0.2609  0.8160  0.9136
 1863SOL    HW217049   3.587   3.481   2.286  1.4936  0.4660 -3.2595
 1864SOL     OW17050   0.029   4.611   7.188 -0.1379 -0.2281 -0.2900
 1864SOL    HW117051   4.697   4.689   7.178  1.4364  0.7726 -1.1329
 1864SOL    HW217052   4.687   4.554   7.231 -0.3207  0.1234 -0.1051
 1865SOL     OW17053   3.037   0.177   3.106 -0.2292 -0.5675  0.2744
 1865SOL    HW117054   2.942   0.167   3.105 -0.1845 -0.9984  0.2641
 1865SOL    HW217055   3.046   0.200   3.198  1.5605  1.6795 -0.4600
 1866SOL     OW17056   0.593   0.771   1.930  0.3389 -0.7036 -0.3844
 1866SOL    HW117057   0.576   0.800   1.840  1.6824  0.1751 -0.3604
 1866SOL    HW217058   0.646   0.848   1.951 -0.8444  0.5775 -2.0505
 1867SOL     OW17059   1.086   3.893   6.282  0.0901  0.5855  0.8145
 1867SOL    HW117060   1.127   3.864   6.363  1.3440 -0.7593 -0.2949
 1867SOL    HW217061   1.151   3.951   6.242 -0.6440  0.2219 -0.9352
 1868SOL     OW17062   0.329   2.803  10.058 -0.1591 -0.5025  0.3968
 1868SOL    HW117063   0.323   2.721  10.106 -3.1960 -0.1592  0.6369
 1868SOL    HW217064   0.417   2.789  10.024  0.1723  1.1765  0.5804
 1869SOL     OW17065   3.235   4.629  11.950  0.3257  0.0005 -0.1553
 1869SOL    HW117066   3.183   4.552  11.971  0.4926 -0.3872 -1.1869
 1869SOL    HW217067   3.319   4.610  11.993  0.4809 -0.6386 -0.7445
 1870SOL     OW17068   4.611   4.022  15.132 -0.0558 -0.0181  0.3663
 1870SOL    HW117069   4.546   3.965  15.092  1.4451  0.0741 -2.2026
 1870SOL    HW217070   4.673   3.953  15.154  0.6123  0.9451  1.4771
 1871SOL     OW17071   0.728   4.558  15.014 -0.1434 -0.1560  0.0648
 1871SOL    HW117072   0.703   4.583  15.103  0.8981 -0.2563  0.3820
 1871SOL    HW217073   0.819   4.535  15.029  0.3878  1.2547 -1.0499
 1872SOL     OW17074   0.994   1.567  10.501  0.2116 -0.1783 -0.3484
 1872SOL    HW117075   1.042   1.520  10.432 -0.1888  0.2881 -0.9450
 1872SOL    HW217076   1.059   1.561  10.571 -0.8253 -0.1378  0.6041
 1873SOL     OW17077   0.610   3.231  17.312 -0.4951 -0.0854 -0.1848
 1873SOL    HW117078   0.661   3.265  17.386  1.8568 -1.8112 -1.0087
 1873SOL    HW217079   0.678   3.232  17.245  1.4108 -0.1620  1.7441
 1874SOL     OW17080   0.012   2.981  17.076  0.3344 -0.1247 -0.5332
 1874SOL    HW117081   0.108   2.979  17.071  0.4855  2.7803  1.6214
 1874SOL    HW217082   4.720   3.053  17.016 -4.7304  0.1495  1.0796
 1875SOL     OW17083   2.253   2.861   8.519 -0.1158 -0.3507 -0.4469
 1875SOL    HW117084   2.223   2.868   8.428 -0.0869 -0.1557 -0.4401
 1875SOL    HW217085   2.202   2.786   8.548  0.6498  0.3861  2.7533
 1876SOL     OW17086   4.307   3.850   6.947  0.1210  0.0695  0.0130
 1876SOL    HW117087   4.218   3.867   6.979  0.1459 -0.7078  0.5145
 1876SOL    HW217088   4.350   3.908   7.010 -1.8090  0.3432  1.0952
 1877SOL     OW17089   3.606   1.324   7.798  0.5918 -0.0481  0.2746
 1877SOL    HW117090   3.526   1.366   7.769 -0.8641 -2.4244  0.8781
 1877SOL    HW217091   3.576   1.240   7.833 -2.0085  0.2111 -1.3445
 1878SOL     OW17092   1.781   4.001   4.723  0.4494  0.0711  0.7186
 1878SOL    HW117093   1.764   4.009   4.817 -0.8044 -0.6850  0.5495
 1878SOL    HW217094   1.785   3.906   4.714  5.1187  0.1105  2.5766
 1879SOL     OW17095   0.001   1.871   1.398  0.3281  0.1982 -0.5760
 1879SOL    HW117096   4.683   1.863   1.312  0.4279  0.4688 -0.6495
 1879SOL    HW217097   4.702   1.960   1.427 -0.7306 -0.3067  0.2220
 1880SOL     OW17098   1.347   1.415   7.494  0.2653 -0.3700 -0.7999
 1880SOL    HW117099   1.299   1.410   7.577  2.0781  0.4156  0.2964
 1880SOL    HW217100   1.399   1.495   7.503 -1.6496  0.7191  0.6360
 1881SOL     OW17101   1.599   1.697   4.525 -0.0043  0.0997 -0.3987
 1881SOL    HW117102   1.584   1.790   4.511 -0.8262  0.0972  0.4692
 1881SOL    HW217103   1.580   1.665   4.436  0.7321  0.9201 -0.8521
 1882SOL     OW17104   2.118   4.709   2.148  0.4006  0.1336  0.4913
 1882SOL    HW117105   2.181   0.057   2.133 -1.3773  1.6159  0.0165
 1882SOL    HW217106   2.097   4.673   2.063 -0.5518  1.6088  0.0938
 1883SOL     OW17107   2.598   1.741  12.964 -0.1567  0.1545 -0.2083
 1883SOL    HW117108   2.648   1.760  12.885  0.9387  1.6641  0.8478
 1883SOL    HW217109   2.642   1.661  12.993  1.7373  0.1201 -3.1432
 1884SOL     OW17110   3.944   4.025   9.747 -0.4678 -0.1728  0.0122
 1884SOL    HW117111   4.036   4.019   9.774 -0.3013  0.2933 -0.4428
 1884SOL    HW217112   3.957   4.080   9.670 -0.6135 -1.8942 -1.2593
 1885SOL     OW17113   4.520   0.469   5.495  0.1269  0.6929  0.5747
 1885SOL    HW117114   4.588   0.405   5.513  0.9496  1.0022 -1.3989
 1885SOL    HW217115   4.444   0.418   5.523  0.3661 -1.8402 -3.3597
 1886SOL     OW17116   1.572   0.451   4.808  1.1948 -0.3098  0.4445
 1886SOL    HW117117   1.530   0.372   4.774 -1.5762  0.4554  2.0400
 1886SOL    HW217118   1.529   0.525   4.766 -0.5037 -2.2537 -1.2486
 1887SOL     OW17119   4.231   4.161   3.149 -0.8961 -0.6341  0.0854
 1887SOL    HW117120   4.185   4.166   3.233  0.5904  1.8504  0.7706
 1887SOL    HW217121   4.311   4.212   3.163 -0.4404 -1.4749  0.5309
 1888SOL     OW17122   2.408   1.136   2.314  0.0887  0.1412  0.4394
 1888SOL    HW117123   2.499   1.115   2.294  0.2604  0.5143  0.8448
 1888SOL    HW217124   2.372   1.052   2.343  1.8428 -0.6541  0.2961
 1889SOL     OW17125   3.628   3.816   3.935 -0.5745 -0.1258  0.0444
 1889SOL    HW117126   3.719   3.797   3.912 -0.7538 -0.5901 -0.2800
 1889SOL    HW217127   3.637   3.911   3.930  0.5040 -0.2550 -0.4404
 1890SOL     OW17128   3.410   4.275   7.514 -0.0794 -0.3764 -0.3542
 1890SOL    HW117129   3.334   4.219   7.498 -0.3985 -0.1934  0.5448
 1890SOL    HW217130   3.448   4.289   7.427  3.3918 -0.8893  1.1037
 1891SOL     OW17131   1.979   3.489   4.211  0.3133  0.2070  0.3782
 1891SOL    HW117132   1.948   3.515   4.124 -1.6449 -0.1459  0.9718
 1891SOL    HW217133   2.028   3.409   4.193 -2.5748 -1.9775  2.3120
 1892SOL     OW17134   4.368   2.661   8.295  0.1863  0.7554 -0.1207
 1892SOL    HW117135   4.458   2.629   8.292 -0.8573 -2.0789 -0.8354
 1892SOL    HW217136   4.318   2.585   8.265  2.5966 -0.7688 -0.2693
 1893SOL     OW17137   2.383   1.022   7.750 -0.1574  0.8218  0.8181
 1893SOL    HW117138   2.307   0.999   7.803  1.1358 -0.3472  2.1750
 1893SOL    HW217139   2.424   0.937   7.732 -0.6367  0.5036  1.2167
 1894SOL     OW17140   1.855   1.874   5.826  0.0574 -0.5983  0.4266
 1894SOL    HW117141   1.897   1.811   5.886  0.4110  0.3238  1.1458
 1894SOL    HW217142   1.841   1.816   5.751 -0.5554 -0.3614  0.3636
 1895SOL     OW17143   0.477   1.185   8.309  0.1454 -0.0085  0.3260
 1895SOL    HW117144   0.495   1.144   8.225 -0.3614  2.0161 -0.7720
 1895SOL    HW217145   0.565   1.213   8.334 -0.1485  2.4422 -1.4145
 1896SOL     OW17146   2.784   3.250   9.961  0.2372  0.2764 -0.1477
 1896SOL    HW117147   2.722   3.320   9.982 -1.5016 -1.7763  1.6189
 1896SOL    HW217148   2.739   3.166   9.974 -0.0308  0.3966 -0.3010
 1897SOL     OW17149   3.595   4.616   9.439  0.2263 -0.0250  0.1657
 1897SOL    HW117150   3.637   4.530   9.435  0.6487  0.3618 -3.5195
 1897SOL    HW217151   3.643   4.654   9.366 -2.0194  0.5023 -1.0330
 1898SOL     OW17152   3.465   2.419   0.075 -0.1397  0.4186 -0.3971
 1898SOL    HW117153   3.374   2.429   0.049 -0.5061  0.1411  0.7444
 1898SOL    HW217154   3.468   2.326   0.100  1.9434  0.7894  0.8061
 1899SOL     OW17155   4.117   0.764   6.295  0.7778  0.1117  0.0266
 1899SOL    HW117156   4.196   0.766   6.240  1.4379  1.2604  1.0153
 1899SOL    HW217157   4.154   0.788   6.379  1.1263  0.5014 -0.2384
 1900SOL     OW17158   2.755   3.914  14.617  0.1938  0.2451  0.1469
 1900SOL    HW117159   2.718   4.001  14.602  1.6198  0.8588  0.2016
 1900SOL    HW217160   2.681   3.855  14.601  1.3575 -0.6294 -2.1469
 1901SOL     OW17161   1.411   1.023   7.645 -0.0128  0.6611 -0.2171
 1901SOL    HW117162   1.473   0.984   7.583 -0.0494  1.6226 -0.8566
 1901SOL    HW217163   1.446   1.111   7.653 -0.5597  1.0588 -2.1446
 1902SOL     OW17164   4.687   0.130   4.221 -0.7848 -0.1877 -0.4062
 1902SOL    HW117165   4.608   0.076   4.214 -2.2965  1.7906  1.2935
 1902SOL    HW217166   0.001   0.119   4.133 -1.0084  0.3387 -0.5684
 1903SOL     OW17167   1.799   4.276   4.008  0.5043 -0.0558 -0.1745
 1903SOL    HW117168   1.886   4.245   3.984  0.3321 -0.4205 -0.3224
 1903SOL    HW217169   1.821   4.320   4.091  2.3665  0.8985 -1.1848
 1904SOL     OW17170   0.883   1.578   2.141  0.5837  0.3335  0.7792
 1904SOL    HW117171   0.819   1.616   2.201  0.8795 -0.7998  1.7971
 1904SOL    HW217172   0.834   1.500   2.114 -1.1317  0.6541  3.0087
 1905SOL     OW17173   0.525   2.854   3.798 -0.3959  0.1486 -0.2026
 1905SOL    HW117174   0.616   2.878   3.816 -0.6003 -0.8702  2.1122
 1905SOL    HW217175   0.534   2.835   3.704 -1.6758 -3.9239  0.5033
 1906SOL     OW17176   1.580   0.273   9.446 -0.1556  0.0457 -0.0871
 1906SOL    HW117177   1.519   0.341   9.416 -0.2339 -0.1321 -0.3345
 1906SOL    HW217178   1.568   0.201   9.384 -0.8689 -0.3120  0.4737
 1907SOL     OW17179   0.748   1.402  16.950  0.7216  0.2373 -0.0112
 1907SOL    HW117180   0.717   1.437  16.867 -0.1487  0.2926  0.3416
 1907SOL    HW217181   0.804   1.331  16.920  0.2670  0.0702 -0.4444
 1908SOL     OW17182   0.327   0.518   7.417  0.0998 -0.3404 -0.9518
 1908SOL    HW117183   0.289   0.601   7.447 -1.8384 -1.4930 -0.2600
 1908SOL    HW217184   0.260   0.456   7.444 -1.7488  1.5498 -1.2436
 1909SOL     OW17185   0.129   3.295   6.991  0.0703  0.4292  0.1923
 1909SOL    HW117186   0.149   3.217   6.939  0.4671  0.2887  0.5602
 1909SOL    HW217187   0.157   3.366   6.932 -0.9777  0.1670 -0.6231
 1910SOL     OW17188   0.710   3.010   1.101 -0.2222  0.4348 -0.4541
 1910SOL    HW117189   0.668   3.049   1.024 -1.7159 -2.5971 -1.1592
 1910SOL    HW217190   0.691   3.074   1.169 -0.6961  0.4239 -0.5720
 1911SOL     OW17191   4.104   3.548   2.358 -1.0433  0.1389 -0.4182
 1911SOL    HW117192   4.138   3.599   2.285  1.0625 -2.0018 -0.9039
 1911SOL    HW217193   4.010   3.549   2.340 -1.0277  0.5954 -0.4580
 1912SOL     OW17194   1.525   4.189   5.422  0.3383 -0.1748 -0.2417
 1912SOL    HW117195   1.433   4.193   5.396  1.1374  0.9875 -2.8476
 1912SOL    HW217196   1.566   4.196   5.336  2.5082  2.4278  1.0047
 1913SOL     OW17197   1.908   3.675   4.510  0.5840  0.2966 -0.3952
 1913SOL    HW117198   1.839   3.617   4.478  0.4913  0.6783 -0.8788
 1913SOL    HW217199   1.906   3.763   4.472 -2.2308  1.0766  1.5476
 1914SOL     OW17200   0.231   3.603  12.906 -0.0611 -0.0055 -0.0731
 1914SOL    HW117201   0.240   3.591  13.001 -1.1371 -0.0321  0.0308
 1914SOL    HW217202   0.267   3.691  12.898  0.9167 -0.3696  0.3500
 1915SOL     OW17203   1.634   3.972   2.310 -0.5858 -0.4245 -0.3171
 1915SOL    HW117204   1.654   3.987   2.218  0.8466  2.6089  0.5121
 1915SOL    HW217205   1.581   4.049   2.332  1.0305  0.8444 -0.8925
 1916SOL     OW17206   0.273   3.279  12.916 -0.1091 -0.1553 -0.0268
 1916SOL    HW117207   0.291   3.232  12.835 -2.2211  1.8080 -1.6393
 1916SOL    HW217208   0.274   3.372  12.890 -1.4192 -0.1601 -0.0849
 1917SOL     OW17209   0.670   3.073   1.954  0.1549  1.0845  0.1181
 1917SOL    HW117210   0.660   3.167   1.944  0.4665  0.9183 -1.7848
 1917SOL    HW217211   0.587   3.045   1.915  0.5722  0.2188 -0.1675
 1918SOL     OW17212   2.859   2.101   5.023 -0.3644  0.0459  0.0602
 1918SOL    HW117213   2.947   2.070   5.044 -0.8739 -1.9249 -0.7737
 1918SOL    HW217214   2.823   2.108   5.112  0.2859  1.4385  0.2087
 1919SOL     OW17215   2.086   0.214   8.556  0.2483  0.2975 -0.1534
 1919SOL    HW117216   2.121   0.253   8.476  0.3041 -2.2072 -1.3360
 1919SOL    HW217217   2.119   0.125   8.545 -0.7715 -0.1800  0.6704
 1920SOL     OW17218   0.586   0.872   3.271  0.0922 -0.4845 -0.4699
 1920SOL    HW117219   0.666   0.877   3.322  0.9683  0.0989 -1.8992
 1920SOL    HW217220   0.612   0.892   3.181  0.9432  1.6626  0.2437
 1921SOL     OW17221   2.222   3.507  10.893 -0.0805  0.5503 -0.0891
 1921SOL    HW117222   2.246   3.424  10.935 -0.0114  1.3101  1.3664
 1921SOL    HW217223   2.222   3.572  10.963 -1.3842  1.7604 -1.2118
 1922SOL     OW17224   3.356   1.884   6.272  0.3848  0.1290 -0.0891
 1922SOL    HW117225   3.313   1.800   6.255  0.4732  0.1959 -0.6505
 1922SOL    HW217226   3.393   1.879   6.360  1.9428  3.2506 -0.5655
 1923SOL     OW17227   0.958   0.449   3.231  0.3869  0.2410  0.4873
 1923SOL    HW117228   0.888   0.499   3.190 -1.4051 -3.0021 -0.4310
 1923SOL    HW217229   0.994   0.504   3.300 -0.4632 -0.1289  1.2267
 1924SOL     OW17230   3.162   0.785   6.502 -0.2911 -0.3687 -0.3788
 1924SOL    HW117231   3.099   0.732   6.550  1.8139 -1.4829  1.1520
 1924SOL    HW217232   3.133   0.875   6.520 -1.7081 -0.8261 -0.4277
 1925SOL     OW17233   3.136   0.288   5.816 -0.4726  0.3739  0.0787
 1925SOL    HW117234   3.119   0.364   5.873 -1.3051  1.1722 -1.2223
 1925SOL    HW217235   3.180   0.223   5.870 -1.4801 -1.8998 -1.8582
 1926SOL     OW17236   4.111   3.746  14.633  0.0797 -0.0815 -0.2576
 1926SOL    HW117237   4.137   3.801  14.706  0.1905 -1.4180  0.6999
 1926SOL    HW217238   4.195   3.699  14.627 -1.0065 -2.1903  1.2682
 1927SOL     OW17239   2.853   4.005   2.870 -0.4016 -0.4679 -0.4232
 1927SOL    HW117240   2.927   4.007   2.809 -1.1205  1.2080 -1.2282
 1927SOL    HW217241   2.894   3.995   2.956  1.5711  0.0438 -1.3103
 1928SOL     OW17242   3.698   2.754   6.547  0.1351  0.7958  0.0598
 1928SOL    HW117243   3.632   2.687   6.527  0.7137  0.6328 -1.2969
 1928SOL    HW217244   3.750   2.712   6.615  0.1995  1.9375  0.7230
 1929SOL     OW17245   3.610   2.109   8.533 -0.4339  0.4760 -0.2305
 1929SOL    HW117246   3.632   2.184   8.478 -0.6545  1.7100  1.3519
 1929SOL    HW217247   3.634   2.136   8.622  0.3901 -0.3566 -0.1989
 1930SOL     OW17248   3.523   1.012   5.043 -0.3592 -0.3904 -0.8653
 1930SOL    HW117249   3.478   0.934   5.075 -0.6642 -0.4683 -1.4814
 1930SOL    HW217250   3.457   1.076   5.016 -1.4207 -0.6037  1.2750
 1931SOL     OW17251   0.214   2.869  10.364  0.0221  0.6857  0.3303
 1931SOL    HW117252   0.293   2.825  10.395  1.8316  2.4851 -1.7183
 1931SOL    HW217253   0.144   2.824  10.411  0.5206 -2.3187 -1.8289
 1932SOL     OW17254   2.410   4.507  14.518 -0.2446  0.4532 -0.1487
 1932SOL    HW117255   2.326   4.466  14.500  0.2532 -0.3283 -0.6973
 1932SOL    HW217256   2.406   4.575  14.451 -1.3239  0.5808  0.0511
 1933SOL     OW17257   1.148   1.560   9.020  0.1037  0.3063  0.8723
 1933SOL    HW117258   1.087   1.599   8.958 -1.9299 -0.5917  2.3259
 1933SOL    HW217259   1.163   1.476   8.976  2.1571  0.0353  2.1010
 1934SOL     OW17260   0.390   0.377   8.776  0.0907  1.0640 -0.0486
 1934SOL    HW117261   0.388   0.374   8.871  4.1283 -2.8836 -0.0799
 1934SOL    HW217262   0.431   0.461   8.757 -1.2930  1.7840  0.2302
 1935SOL     OW17263   0.293   3.560   9.931 -0.5582 -0.0160  0.2131
 1935SOL    HW117264   0.292   3.477   9.884 -0.6780  0.3314 -0.3933
 1935SOL    HW217265   0.244   3.617   9.872  0.4147 -0.5214 -1.0691
 1936SOL     OW17266   0.536   2.481   4.758  0.6006  0.1616  0.0251
 1936SOL    HW117267   0.585   2.438   4.687  0.8564  1.7111 -0.7465
 1936SOL    HW217268   0.598   2.507   4.826  0.5405  1.5370 -0.4331
 1937SOL     OW17269   3.982   2.759   1.712 -0.4217  0.2482 -0.1453
 1937SOL    HW117270   3.987   2.751   1.807 -0.1240 -1.7319 -0.3190
 1937SOL    HW217271   3.970   2.853   1.712 -1.4362  0.1156 -0.5948
 1938SOL     OW17272   3.287   0.302   9.935 -0.2185 -0.2780  0.6768
 1938SOL    HW117273   3.278   0.397   9.937 -0.4110 -0.3168  1.6120
 1938SOL    HW217274   3.195   0.276   9.935 -0.2004 -0.3544  1.5516
 1939SOL     OW17275   1.473   0.792   2.301  0.1181 -0.1956 -0.7759
 1939SOL    HW117276   1.470   0.741   2.382 -0.1358  0.1803 -0.5417
 1939SOL    HW217277   1.485   0.726   2.234 -1.3616 -1.6214  0.3768
 1940SOL     OW17278   2.731   2.232  14.700 -0.1912  0.2244  0.3016
 1940SOL    HW117279   2.702   2.224  14.609  0.0599  2.6302  0.0255
 1940SOL    HW217280   2.801   2.167  14.692 -0.4593 -0.0317  0.0078
 1941SOL     OW17281   2.567   3.596   1.580 -0.3242  0.1442  0.7678
 1941SOL    HW117282   2.621   3.585   1.502 -1.0603  1.1516  0.1155
 1941SOL    HW217283   2.621   3.554   1.647 -1.8779 -1.4212  1.0259
 1942SOL     OW17284   2.075   4.498   3.553 -0.2679 -0.4004  0.1003
 1942SOL    HW117285   2.082   4.446   3.633  1.7634 -0.1206  0.1124
 1942SOL    HW217286   2.105   4.587   3.570  0.8629 -0.6772 -0.4533
 1943SOL     OW17287   1.954   1.750   8.352  0.1107  0.5028  0.0188
 1943SOL    HW117288   1.859   1.738   8.349  0.5190 -3.0288  1.3734
 1943SOL    HW217289   1.956   1.846   8.341  1.6389  0.3081 -1.5084
 1944SOL     OW17290   1.711   1.283   8.679 -0.4338 -0.2461  0.2198
 1944SOL    HW117291   1.784   1.236   8.719 -1.6929 -0.9230  1.7376
 1944SOL    HW217292   1.640   1.220   8.693 -0.1226 -0.7765 -0.5885
 1945SOL     OW17293   3.377   0.721   3.385  0.3446  0.1765  0.2525
 1945SOL    HW117294   3.373   0.625   3.386  0.1726  0.1876  0.7063
 1945SOL    HW217295   3.298   0.747   3.432  1.9293 -1.4410  3.8339
 1946SOL     OW17296   0.724   0.950  14.974  0.3198  0.3371 -0.5687
 1946SOL    HW117297   0.644   0.998  14.953  0.3277  0.8469  0.5376
 1946SOL    HW217298   0.721   0.959  15.070 -0.3101 -2.0645 -0.3681
 1947SOL     OW17299   2.686   3.464  13.418 -0.5738 -0.0870 -0.5726
 1947SOL    HW117300   2.596   3.437  13.435 -1.0151  0.9618 -1.2394
 1947SOL    HW217301   2.685   3.557  13.442 -1.8997  0.1723 -1.6551
 1948SOL     OW17302   2.866   0.311   4.721  0.1670 -1.0082 -0.9508
 1948SOL    HW117303   2.883   0.265   4.639 -2.5725  0.0493 -2.1221
 1948SOL    HW217304   2.870   0.401   4.688 -0.6171 -0.0558  1.5796
 1949SOL     OW17305   2.097   1.836   3.620 -0.5970  0.0406 -0.1348
 1949SOL    HW117306   2.126   1.780   3.692 -3.1537 -1.4580 -0.2779
 1949SOL    HW217307   2.046   1.778   3.563 -0.0413 -1.7382  1.1813
 1950SOL     OW17308   2.997   2.834   2.394  0.3274 -0.2438  0.4124
 1950SOL    HW117309   2.904   2.820   2.407  0.0495  0.8299 -0.3394
 1950SOL    HW217310   3.001   2.909   2.333  0.0644 -1.0649 -0.6161
 1951SOL     OW17311   0.308   3.002  13.080 -0.2737  0.0699 -0.1135
 1951SOL    HW117312   0.302   3.072  13.014 -1.4268  0.2006  0.1402
 1951SOL    HW217313   0.241   3.042  13.136 -0.6078  0.0445 -0.4938
 1952SOL     OW17314   3.814   4.565   6.686 -0.3891 -0.2307  0.1370
 1952SOL    HW117315   3.890   4.529   6.639 -1.3202 -3.1586  0.8463
 1952SOL    HW217316   3.843   4.648   6.722 -0.8844 -0.5016  1.1537
 1953SOL     OW17317   1.542   2.330   5.459  0.4559 -0.2772  0.8333
 1953SOL    HW117318   1.539   2.240   5.427  2.9236 -0.9360  2.4657
 1953SOL    HW217319   1.490   2.306   5.536 -0.3473 -2.2195 -0.2997
 1954SOL     OW17320   1.398   1.637   5.075  0.5000 -0.2425  0.2088
 1954SOL    HW117321   1.461   1.585   5.025 -0.2949  0.3605 -1.4086
 1954SOL    HW217322   1.323   1.631   5.017  1.7723 -0.5991 -1.3859
 1955SOL     OW17323   1.047   0.580   2.913  0.0092  0.0788 -0.1157
 1955SOL    HW117324   1.044   0.498   2.864 -0.2509  0.5007 -0.8194
 1955SOL    HW217325   0.993   0.647   2.869  1.2479  0.8955 -0.4059
 1956SOL     OW17326   3.080   0.055   8.471 -0.0645 -0.1516 -0.3762
 1956SOL    HW117327   3.088   0.135   8.523 -0.7956  0.6282 -1.4533
 1956SOL    HW217328   2.998   0.061   8.423  0.9766  4.3317 -1.6082
 1957SOL     OW17329   2.568   1.586   3.055 -0.3270 -0.1314  0.3246
 1957SOL    HW117330   2.600   1.611   3.142 -1.6583 -1.7740  1.2955
 1957SOL    HW217331   2.483   1.546   3.075 -1.0744  1.4208  0.3047
 1958SOL     OW17332   3.808   3.865   3.372  0.6775 -0.0017  0.4835
 1958SOL    HW117333   3.818   3.851   3.278 -0.3955  1.9941  0.0785
 1958SOL    HW217334   3.823   3.774   3.398 -2.4912 -1.0124 -1.2615
 1959SOL     OW17335   3.195   3.284   0.748 -0.5444 -0.0606  0.3754
 1959SOL    HW117336   3.267   3.342   0.772 -0.2660 -1.0690  1.9650
 1959SOL    HW217337   3.145   3.299   0.828  0.4720 -0.4731  1.0733
 1960SOL     OW17338   1.929   3.798   5.718  0.2701 -0.0589  0.1082
 1960SOL    HW117339   1.880   3.870   5.677 -2.0191 -1.7191 -0.0526
 1960SOL    HW217340   1.864   3.738   5.754 -1.1127  0.4656 -1.4875
 1961SOL     OW17341   1.732   4.044   9.175 -0.2379  0.2230 -0.3837
 1961SOL    HW117342   1.751   3.992   9.097  0.7833 -3.2596  2.1573
 1961SOL    HW217343   1.677   3.980   9.222  0.7269 -1.2993 -1.3459
 1962SOL     OW17344   2.316   1.028   6.166 -0.0993 -0.2003  0.1967
 1962SOL    HW117345   2.225   1.003   6.183 -0.3142 -0.2699 -1.0196
 1962SOL    HW217346   2.348   1.010   6.254  3.2972  1.2929 -0.7511
 1963SOL     OW17347   3.222   2.140  12.635  0.2533  0.1650 -0.3469
 1963SOL    HW117348   3.227   2.078  12.707  2.7141  0.0224 -0.6189
 1963SOL    HW217349   3.138   2.112  12.600 -1.2406  2.2788  1.5726
 1964SOL     OW17350   2.456   3.904   4.488  0.8545  0.9508  0.3362
 1964SOL    HW117351   2.472   3.965   4.560  0.1722 -1.0786  2.1954
 1964SOL    HW217352   2.488   3.958   4.415  0.0881  0.0149 -0.6786
 1965SOL     OW17353   0.858   1.458   6.266  0.7362 -0.2507 -0.2154
 1965SOL    HW117354   0.812   1.498   6.192 -0.9747 -1.9718 -0.0987
 1965SOL    HW217355   0.898   1.533   6.310 -0.5038  0.4914 -0.3492
 1966SOL     OW17356   1.382   0.495  12.730  0.4953  0.2353  0.4180
 1966SOL    HW117357   1.454   0.472  12.789  0.0783 -0.9041  0.4791
 1966SOL    HW217358   1.428   0.523  12.651 -0.8128 -1.3933 -0.9011
 1967SOL     OW17359   1.046   3.661   4.158  0.2119 -0.3859  0.4366
 1967SOL    HW117360   0.990   3.637   4.084 -0.0071 -0.2837  0.5713
 1967SOL    HW217361   1.124   3.686   4.108 -0.2205  1.0370  0.4894
 1968SOL     OW17362   2.576   3.787   6.264  0.4046  0.4832 -0.0511
 1968SOL    HW117363   2.610   3.795   6.353 -3.2012  1.0629  1.2835
 1968SOL    HW217364   2.513   3.859   6.272 -0.7234 -0.4093 -0.8258
 1969SOL     OW17365   2.712   1.423   0.324  0.0690 -0.4275 -0.4262
 1969SOL    HW117366   2.703   1.514   0.298  0.1976  0.3918  2.3871
 1969SOL    HW217367   2.733   1.377   0.243  0.7069  0.2738 -0.6496
 1970SOL     OW17368   2.624   0.942   6.255 -0.8722 -0.0928  0.2909
 1970SOL    HW117369   2.667   0.987   6.183 -3.2626  1.4040 -0.1973
 1970SOL    HW217370   2.591   1.017   6.305 -2.0330  0.5058 -1.3959
 1971SOL     OW17371   1.050   4.592   8.824 -0.7902  0.2802  0.1627
 1971SOL    HW117372   0.977   4.652   8.841  0.8837  2.0117  1.2845
 1971SOL    HW217373   1.099   4.575   8.905  0.2250  2.1993 -0.0476
 1972SOL     OW17374   1.881   3.163   0.452  1.3520 -0.4776  0.3085
 1972SOL    HW117375   1.833   3.083   0.430 -1.6092  1.0214  1.3215
 1972SOL    HW217376   1.925   3.190   0.372  0.4021  1.7448  0.5504
 1973SOL     OW17377   2.169   0.693   0.203  0.3744 -0.0499 -0.2996
 1973SOL    HW117378   2.183   0.758   0.134  0.3990 -0.3727 -0.5972
 1973SOL    HW217379   2.094   0.651   0.161  2.7563 -0.1220 -4.5357
 1974SOL     OW17380   3.347   1.256   3.151 -0.0246  0.2571  0.0224
 1974SOL    HW117381   3.351   1.293   3.239 -1.7186 -1.2478  0.7351
 1974SOL    HW217382   3.309   1.173   3.181  4.4885 -2.3597 -1.5013
 1975SOL     OW17383   4.279   4.532  11.602  1.1921  0.2043  0.0129
 1975SOL    HW117384   4.208   4.550  11.541  0.6868 -1.1269  0.2103
 1975SOL    HW217385   4.326   4.468  11.549  1.2847  0.6904 -0.4908
 1976SOL     OW17386   3.597   0.491  10.846  0.2313 -0.7648 -0.0239
 1976SOL    HW117387   3.569   0.459  10.932 -1.7713 -1.9367 -1.1352
 1976SOL    HW217388   3.663   0.426  10.822  1.2524  0.1806  0.1821
 1977SOL     OW17389   3.989   3.880   4.278 -0.0416 -0.3872  0.3852
 1977SOL    HW117390   4.063   3.885   4.218 -2.7304  0.1830 -2.8354
 1977SOL    HW217391   4.000   3.954   4.338 -1.2370  1.1961 -1.3569
 1978SOL     OW17392   2.202   0.374   3.361  0.2492 -0.1379 -0.2610
 1978SOL    HW117393   2.162   0.394   3.446  1.5557  2.5428 -0.2987
 1978SOL    HW217394   2.296   0.380   3.375  0.3381 -0.1308 -0.8590
 1979SOL     OW17395   0.730   2.860  11.946  0.1299  0.0139 -0.0536
 1979SOL    HW117396   0.785   2.868  12.023  0.6287  0.4950 -0.4618
 1979SOL    HW217397   0.760   2.945  11.913  1.7721 -0.8515 -0.7564
 1980SOL     OW17398   3.054   2.590   3.846 -0.6843  0.1276  0.1402
 1980SOL    HW117399   3.139   2.551   3.827  0.8101  2.4699  1.9025
 1980SOL    HW217400   3.083   2.657   3.908  0.3683 -0.5009  0.3214
 1981SOL     OW17401   4.355   2.751  14.354  0.8934  0.0067 -0.0590
 1981SOL    HW117402   4.391   2.797  14.278 -1.3605  1.5526 -0.1937
 1981SOL    HW217403   4.357   2.660  14.324 -1.1738 -0.7188  1.9843
 1982SOL     OW17404   3.358   0.343   0.646  0.1544 -0.3066  0.3507
 1982SOL    HW117405   3.284   0.343   0.707 -0.6158 -1.6896 -0.5699
 1982SOL    HW217406   3.312   0.344   0.562  3.2345 -0.7310 -1.3338
 1983SOL     OW17407   3.428   2.028   1.939  0.4958 -0.0512  0.1828
 1983SOL    HW117408   3.358   2.084   1.906  0.8918  0.7555  0.7089
 1983SOL    HW217409   3.503   2.088   1.932 -0.1591  0.5652 -1.6458
 1984SOL     OW17410   0.013   4.377  14.167  0.8654 -0.1142  0.3192
 1984SOL    HW117411   0.068   4.356  14.243  1.1637 -2.2339 -0.4818
 1984SOL    HW217412   4.664   4.422  14.212  0.6773  0.3397 -0.4236
 1985SOL     OW17413   2.656   0.704   7.996 -0.6316  0.0146  0.0645
 1985SOL    HW117414   2.696   0.639   8.054  0.2543 -0.2362 -0.8133
 1985SOL    HW217415   2.715   0.713   7.921  0.2197 -1.0195  0.6129
 1986SOL     OW17416   3.499   1.282   6.562 -0.1314 -0.0054 -0.0834
 1986SOL    HW117417   3.590   1.270   6.537 -0.6272 -1.7665 -1.0698
 1986SOL    HW217418   3.464   1.244   6.481  0.6072  1.1222 -0.9326
 1987SOL     OW17419   4.460   0.598   0.479  0.1751  0.0133  0.0115
 1987SOL    HW117420   4.366   0.594   0.463  0.8887 -0.6821 -3.8482
 1987SOL    HW217421   4.498   0.561   0.400 -0.9576  2.4035 -1.6395
 1988SOL     OW17422   3.883   3.089  11.268 -0.7174  0.5235  0.1745
 1988SOL    HW117423   3.888   3.045  11.353 -2.0534 -0.5924 -0.3283
 1988SOL    HW217424   3.862   3.010  11.218 -2.1637 -0.1701  1.8497
 1989SOL     OW17425   1.125   0.466   7.597 -0.1539 -0.1210 -0.3204
 1989SOL    HW117426   1.071   0.544   7.584  0.3839  0.4264  0.7387
 1989SOL    HW217427   1.081   0.411   7.532 -0.7981  0.5770 -0.4806
 1990SOL     OW17428   0.036   4.576  13.993 -0.4849  0.2874  0.5589
 1990SOL    HW117429   0.036   4.493  14.041  2.0902 -1.6866 -2.8169
 1990SOL    HW217430   0.019   4.636  14.066 -0.0167  0.0491  0.8611
 1991SOL     OW17431   1.863   1.362   4.294  0.0467  0.5085  0.0466
 1991SOL    HW117432   1.887   1.453   4.315 -0.4264  0.6870 -0.1878
 1991SOL    HW217433   1.835   1.379   4.204 -1.1474 -0.1648  0.2890
 1992SOL     OW17434   1.494   0.081   4.446 -0.2161  0.5835  0.5778
 1992SOL    HW117435   1.420   0.021   4.443 -0.1433  0.5458 -0.2859
 1992SOL    HW217436   1.563   0.028   4.406 -1.9465 -1.9004  0.9061
 1993SOL     OW17437   2.153   4.685  15.209  0.2083  0.0441 -0.3318
 1993SOL    HW117438   2.141   0.042  15.262  0.0003  0.4275 -0.9554
 1993SOL    HW217439   2.198   4.709  15.128 -1.6970 -1.4309 -1.7989
 1994SOL     OW17440   3.560   0.601   4.853 -0.6161  0.4597  0.0068
 1994SOL    HW117441   3.532   0.659   4.784 -0.3621 -0.1511 -0.6123
 1994SOL    HW217442   3.475   0.578   4.891 -0.3026 -0.4703  0.1536
 1995SOL     OW17443   2.591   1.310  17.329 -0.9643  0.4573  0.4649
 1995SOL    HW117444   2.620   1.309  17.420 -0.1168 -0.9352  0.1731
 1995SOL    HW217445   2.607   1.402  17.309 -0.5721  0.1091 -0.7949
 1996SOL     OW17446   3.462   0.055   8.640  0.3636  0.5068 -0.0966
 1996SOL    HW117447   3.513   0.134   8.656  0.2522  0.4322  0.6222
 1996SOL    HW217448   3.530   0.000   8.679  0.1523  0.3048 -0.0098
 1997SOL     OW17449   1.935   3.637   7.991 -0.3321  0.1561 -0.2085
 1997SOL    HW117450   1.971   3.582   8.060 -1.4163  1.9728  1.7957
 1997SOL    HW217451   1.961   3.589   7.912 -3.0660  0.7725 -1.4868
 1998SOL     OW17452   3.009   3.757   2.760 -0.1801 -0.1078 -0.2354
 1998SOL    HW117453   3.016   3.835   2.706 -0.1757  1.2622  1.7791
 1998SOL    HW217454   3.097   3.720   2.775  1.3617  2.7968 -2.0735
 1999SOL     OW17455   3.403   1.749  12.844 -0.3905 -0.2275  0.4277
 1999SOL    HW117456   3.468   1.692  12.804  0.1138  0.0932  0.7960
 1999SOL    HW217457   3.423   1.837  12.812  1.6175 -1.6320 -2.1745
 2000SOL     OW17458   1.009   0.277  15.402  0.2226  0.1501  0.4287
 2000SOL    HW117459   0.941   0.229  15.356  0.1905  2.1512 -1.6518
 2000SOL    HW217460   0.970   0.277  15.489  0.7793  2.1037  0.6853
 2001SOL     OW17461   0.204   0.712   5.432  0.2025  0.1689 -0.5869
 2001SOL    HW117462   0.187   0.642   5.370  1.0615 -0.7760  0.2514
 2001SOL    HW217463   0.127   0.766   5.413 -0.7415 -1.1867 -0.5538
 2002SOL     OW17464   0.033   3.909   2.665 -0.1283 -0.8686  0.4499
 2002SOL    HW117465   4.684   3.870   2.716 -0.0883 -2.0530 -0.3961
 2002SOL    HW217466   0.023   3.996   2.703  0.8242 -0.8157  0.5611
 2003SOL     OW17467   2.172   2.042   2.408 -0.1671  0.3326  0.0564
 2003SOL    HW117468   2.239   1.993   2.359 -1.9428  1.6270 -3.6538
 2003SOL    HW217469   2.209   2.128   2.387  1.7955 -0.0787  1.8034
 2004SOL     OW17470   1.705   0.880  12.688 -0.3459 -0.0214 -0.1973
 2004SOL    HW117471   1.674   0.800  12.731 -3.0572  0.1653 -1.7747
 2004SOL    HW217472   1.694   0.862  12.594  1.2084 -2.9756  0.1973
 2005SOL     OW17473   1.358   4.482   2.565 -0.4616 -0.4996 -0.3520
 2005SOL    HW117474   1.395   4.400   2.598  0.8765  0.2913  0.0958
 2005SOL    HW217475   1.413   4.544   2.614  0.4375 -1.8631  0.3678
 2006SOL     OW17476   1.183   1.329   5.699 -0.0858  0.1409  0.5544
 2006SOL    HW117477   1.232   1.256   5.660 -1.1470  0.2342 -0.9598
 2006SOL    HW217478   1.094   1.298   5.681 -0.1146  0.1581  0.6695
 2007SOL     OW17479   2.206   3.100   9.625  0.2229  0.1153  0.3015
 2007SOL    HW117480   2.142   3.066   9.687 -0.7414  1.2947 -0.0580
 2007SOL    HW217481   2.157   3.098   9.542  2.8339 -0.4786 -1.2411
 2008SOL     OW17482   3.024   4.666   9.677 -0.2702 -0.1379 -0.3098
 2008SOL    HW117483   3.023   4.711   9.762 -1.1663 -0.2009 -0.2930
 2008SOL    HW217484   3.067   4.584   9.703 -0.7195 -0.0303  0.7870
 2009SOL     OW17485   2.644   3.180  11.125 -0.3966 -0.8194  0.1355
 2009SOL    HW117486   2.577   3.144  11.183 -0.5013 -0.8294  0.0079
 2009SOL    HW217487   2.620   3.273  11.129  0.0137 -0.7447  0.8961
 2010SOL     OW17488   3.076   1.697   3.027  0.7706  0.1099  0.2551
 2010SOL    HW117489   3.133   1.620   3.036 -0.7618 -1.0796 -0.2696
 2010SOL    HW217490   3.026   1.691   2.946  0.9799  1.7217 -0.0035
 2011SOL     OW17491   3.837   3.875   3.076 -0.4942  0.2171 -0.4749
 2011SOL    HW117492   3.897   3.949   3.072 -0.0016 -0.2347 -1.6643
 2011SOL    HW217493   3.817   3.861   2.983 -1.4178  0.8204 -0.3671
 2012SOL     OW17494   4.699   4.520   3.631 -0.2277  0.5461 -0.0946
 2012SOL    HW117495   4.679   4.459   3.701  1.9559 -1.8059 -1.5329
 2012SOL    HW217496   4.674   4.470   3.554  1.4716  2.4439 -1.8827
 2013SOL     OW17497   3.805   4.394   9.507 -0.1495  1.1519  0.2381
 2013SOL    HW117498   3.808   4.419   9.600 -0.6416  0.5034  0.4278
 2013SOL    HW217499   3.900   4.398   9.503  0.0751 -0.7773  3.3260
 2014SOL     OW17500   2.541   0.544  14.821  0.6726 -0.2474 -0.0075
 2014SOL    HW117501   2.592   0.625  14.819 -1.1683  0.8884 -0.8439
 2014SOL    HW217502   2.580   0.492  14.891 -0.0662  1.0501  1.3339
 2015SOL     OW17503   4.066   3.272   9.972 -0.1525  0.3058  0.3103
 2015SOL    HW117504   4.022   3.351   9.940 -1.2720 -0.5904 -0.3617
 2015SOL    HW217505   4.083   3.300  10.062 -0.0808 -0.3623  0.5034
 2016SOL     OW17506   0.686   3.737   5.039  0.2607  0.1338 -0.3089
 2016SOL    HW117507   0.709   3.707   5.127 -0.8578 -0.4268 -0.2023
 2016SOL    HW217508   0.633   3.661   5.014 -1.0687  0.8145  0.3931
 2017SOL     OW17509   0.358   0.928   0.228 -0.2438 -0.4918  0.6145
 2017SOL    HW117510   0.382   0.866   0.296  1.2166 -0.5172  0.0671
 2017SOL    HW217511   0.443   0.971   0.226 -0.1692 -0.6124  1.1978
 2018SOL     OW17512   1.862   0.471  15.131 -0.0349 -0.0358  0.6257
 2018SOL    HW117513   1.842   0.379  15.147 -0.4830 -0.1562 -0.5751
 2018SOL    HW217514   1.875   0.499  15.221 -1.2538  0.6096  0.6027
 2019SOL     OW17515   3.422   2.723  17.584 -0.7905  0.2116 -0.0128
 2019SOL    HW117516   3.376   2.641  17.602  1.0740 -1.0111 -0.8879
 2019SOL    HW217517   3.493   2.693  17.528 -1.9264  0.2240 -1.4823
 2020SOL     OW17518   2.064   1.954   2.632 -0.4787  0.5035  0.0917
 2020SOL    HW117519   2.107   1.868   2.632  0.8318  1.1593 -0.1565
 2020SOL    HW217520   2.113   1.992   2.559  1.0803 -0.8262  0.4277
 2021SOL     OW17521   0.890   3.430   5.697  0.2739 -0.7817  0.2291
 2021SOL    HW117522   0.872   3.511   5.649  0.3535 -0.4529  0.7598
 2021SOL    HW217523   0.901   3.465   5.786 -1.9081 -1.0837  0.6324
 2022SOL     OW17524   0.788   0.410   5.026  0.1494 -0.2072  0.0086
 2022SOL    HW117525   0.864   0.367   5.066  0.0306 -0.5645 -0.1453
 2022SOL    HW217526   0.829   0.483   4.980 -0.3099 -0.0535 -0.1575
 2023SOL     OW17527   2.121   4.249   9.039 -0.2028  0.5215  0.3407
 2023SOL    HW117528   2.103   4.253   8.945  2.5744 -1.4026 -0.2855
 2023SOL    HW217529   2.141   4.340   9.062  2.0406 -0.6515  3.0448
 2024SOL     OW17530   0.845   1.856  10.031 -0.2757  1.1759  0.0019
 2024SOL    HW117531   0.797   1.895   9.958  1.4450  1.8005 -0.7898
 2024SOL    HW217532   0.936   1.871  10.006 -0.4912 -0.8993 -1.9775
 2025SOL     OW17533   0.032   2.338  12.615  0.3436  0.3775  0.1401
 2025SOL    HW117534   0.056   2.345  12.708 -0.5578  1.1477  0.3130
 2025SOL    HW217535   0.082   2.258  12.597 -0.4741 -0.7719  3.0016
 2026SOL     OW17536   1.185   1.561  10.701  0.3269  0.5878 -0.1569
 2026SOL    HW117537   1.138   1.628  10.752  0.8133  0.2582  0.7258
 2026SOL    HW217538   1.211   1.501  10.771 -0.2889  2.8241  1.9832
 2027SOL     OW17539   3.598   4.462   9.878  0.3022 -0.4739 -0.0291
 2027SOL    HW117540   3.607   4.390   9.940  0.4005  0.6695  1.2803
 2027SOL    HW217541   3.504   4.481   9.881  0.6727  1.6666 -2.1396
 2028SOL     OW17542   1.802   2.540   2.307  0.3091  0.2204  0.1477
 2028SOL    HW117543   1.806   2.501   2.220 -0.2944  0.0863  0.1743
 2028SOL    HW217544   1.753   2.619   2.284  1.1789  1.3316  2.0902
 2029SOL     OW17545   4.561   3.248   6.387  0.1974  0.1021 -0.5017
 2029SOL    HW117546   4.578   3.315   6.454 -2.0636  1.8859 -1.7160
 2029SOL    HW217547   4.608   3.288   6.313  1.8064  0.2574  0.5979
 2030SOL     OW17548   2.637   2.484   3.923 -0.6573  0.1686 -0.0943
 2030SOL    HW117549   2.561   2.449   3.969  0.2581 -3.6728 -1.5168
 2030SOL    HW217550   2.601   2.545   3.858  1.5274  0.9742 -0.5380
 2031SOL     OW17551   4.005   1.753   1.396 -0.8341  0.0417 -0.1851
 2031SOL    HW117552   3.918   1.716   1.382 -0.2323 -1.5132  0.0746
 2031SOL    HW217553   3.987   1.833   1.445  1.6161 -0.4868  1.5988
 2032SOL     OW17554   0.757   2.101  10.767 -0.5232  0.0713  0.0304
 2032SOL    HW117555   0.668   2.128  10.746 -0.2614  0.2716 -0.8194
 2032SOL    HW217556   0.812   2.166  10.723 -1.6727  0.5544 -0.7193
 2033SOL     OW17557   0.688   4.672   5.458  0.1665 -0.2224 -0.5301
 2033SOL    HW117558   0.667   4.695   5.548  1.0012  0.1188 -0.4197
 2033SOL    HW217559   0.657   0.028   5.414  0.8111 -0.3905 -1.2868
 2034SOL     OW17560   3.496   4.615   5.698 -0.8169 -0.2676  0.0136
 2034SOL    HW117561   3.458   4.661   5.623  2.4413  0.3667 -1.2722
 2034SOL    HW217562   3.571   4.571   5.658 -0.4737  0.3848 -0.0735
 2035SOL     OW17563   0.324   4.247   3.692  0.4499 -0.2720 -0.2814
 2035SOL    HW117564   0.271   4.172   3.721 -1.0011 -0.1599 -2.6494
 2035SOL    HW217565   0.408   4.206   3.674  0.4325 -0.7709  0.7726
 2036SOL     OW17566   0.999   2.566  15.100  0.3784 -0.5552 -0.2383
 2036SOL    HW117567   1.083   2.535  15.133 -0.4952 -2.3929  0.2027
 2036SOL    HW217568   1.027   2.591  15.012  1.3646  1.4838  0.6475
 2037SOL     OW17569   0.568   2.441   9.895  0.0311  0.0117 -0.2003
 2037SOL    HW117570   0.595   2.527   9.861  0.0468  0.5976  1.3100
 2037SOL    HW217571   0.590   2.451   9.987 -1.2467 -0.4210  0.1538
 2038SOL     OW17572   0.526   4.489   7.753 -0.4198 -0.3864 -1.0776
 2038SOL    HW117573   0.453   4.479   7.692 -0.3834  1.0844 -1.3708
 2038SOL    HW217574   0.489   4.444   7.829 -0.3591  0.5012 -0.5079
 2039SOL     OW17575   4.674   0.508  15.636  0.6710  0.2952 -0.2973
 2039SOL    HW117576   4.653   0.574  15.570  0.8316 -0.3880 -1.0402
 2039SOL    HW217577   4.589   0.464  15.627  0.7352  0.2018 -0.4582
 2040SOL     OW17578   2.292   2.050  12.351 -0.2959 -0.6676  0.4726
 2040SOL    HW117579   2.213   2.078  12.397 -0.8279  0.2332 -0.9945
 2040SOL    HW217580   2.360   2.084  12.410 -0.3605 -1.0315  0.7564
 2041SOL     OW17581   4.222   2.722   2.638 -0.4639 -0.4541 -0.3658
 2041SOL    HW117582   4.140   2.711   2.589 -0.1216 -1.7546 -0.6607
 2041SOL    HW217583   4.198   2.763   2.721  0.4259  2.8235 -1.7296
 2042SOL     OW17584   0.789   0.147   7.604 -0.1241 -0.6155 -0.2211
 2042SOL    HW117585   0.705   0.189   7.587  0.4208  0.2499 -0.8243
 2042SOL    HW217586   0.782   0.059   7.568  2.8772 -1.0482  0.2128
 2043SOL     OW17587   0.420   3.864   4.730 -0.3548  0.0124  1.1188
 2043SOL    HW117588   0.450   3.774   4.718 -1.3796 -0.0973 -0.6994
 2043SOL    HW217589   0.347   3.853   4.790  0.0531  1.1658  1.8219
 2044SOL     OW17590   1.627   3.310  13.021 -0.0177  0.4935 -0.0555
 2044SOL    HW117591   1.582   3.230  13.047 -1.0357  1.6556  1.7764
 2044SOL    HW217592   1.672   3.273  12.945  0.6224 -2.0268  1.5508
 2045SOL     OW17593   3.513   2.030   1.311  0.3679  0.3007 -0.0629
 2045SOL    HW117594   3.506   2.103   1.373  0.4572 -0.1200  0.4381
 2045SOL    HW217595   3.607   2.029   1.295  0.0677 -0.3368 -1.8655
 2046SOL     OW17596   3.811   2.239   8.104  0.3540  0.3409  0.3666
 2046SOL    HW117597   3.861   2.184   8.044 -1.7881  0.1547 -1.2610
 2046SOL    HW217598   3.808   2.186   8.184  2.3980 -1.0085 -0.4591
 2047SOL     OW17599   0.177   0.229   0.249 -0.2475 -0.0207 -0.2486
 2047SOL    HW117600   0.273   0.236   0.244 -0.4018  0.7202 -2.2866
 2047SOL    HW217601   0.159   0.137   0.230  1.2755 -0.1817 -0.9100
 2048SOL     OW17602   1.196   2.955  14.426  0.5286 -0.4967  0.5304
 2048SOL    HW117603   1.108   2.982  14.400  0.5764 -1.2101 -0.4027
 2048SOL    HW217604   1.202   2.998  14.511  0.6936 -0.0879  0.3113
 2049SOL     OW17605   0.324   1.929   3.452  0.2784  0.2357  0.3357
 2049SOL    HW117606   0.284   1.919   3.366  0.6465  1.5809  0.0146
 2049SOL    HW217607   0.407   1.958   3.415  0.4675 -0.3007  0.3423
 2050SOL     OW17608   3.690   0.785   3.425  0.0198 -0.1167  0.5824
 2050SOL    HW117609   3.610   0.754   3.382  0.2587  2.0521 -1.4654
 2050SOL    HW217610   3.676   0.764   3.517  0.7359  2.6626  1.3128
 2051SOL     OW17611   3.467   1.745   4.125  0.5751 -0.2823 -0.3827
 2051SOL    HW117612   3.472   1.764   4.031  0.1196  0.5435 -0.2401
 2051SOL    HW217613   3.442   1.830   4.161  0.0817 -0.8900  0.7140
 2052SOL     OW17614   0.243   4.496   3.732 -0.0633 -0.2301  0.2646
 2052SOL    HW117615   0.270   4.408   3.707 -1.4727 -0.1709 -1.4651
 2052SOL    HW217616   0.154   4.488   3.698 -0.3537  2.1259  0.4810
 2053SOL     OW17617   0.645   1.761   5.062 -0.9894 -0.3497  0.1086
 2053SOL    HW117618   0.683   1.848   5.048 -1.0329 -0.5383 -1.2077
 2053SOL    HW217619   0.672   1.749   5.152 -0.9553  0.9961  0.2795
 2054SOL     OW17620   3.065   1.486   3.454 -0.3089  0.5028  0.2796
 2054SOL    HW117621   3.022   1.505   3.370  0.6882  1.4164 -0.0269
 2054SOL    HW217622   3.096   1.574   3.475  1.6826  0.5001 -2.6029
 2055SOL     OW17623   2.886   2.659  14.782 -0.3076  0.2220 -0.4044
 2055SOL    HW117624   2.844   2.617  14.857  0.2479 -0.3607 -0.4272
 2055SOL    HW217625   2.928   2.728  14.834  2.0708  1.0736 -3.5142
 2056SOL     OW17626   0.251   1.815   7.212  0.5235  0.4371 -0.8960
 2056SOL    HW117627   0.193   1.883   7.245  2.3278  1.1629  0.8034
 2056SOL    HW217628   0.313   1.865   7.159  1.1369 -0.3257 -0.8995
 2057SOL     OW17629   3.876   0.139  15.554 -0.3879 -0.4626 -0.4628
 2057SOL    HW117630   3.963   0.168  15.525  0.5073 -1.0031  1.6490
 2057SOL    HW217631   3.884   0.043  15.557  0.7458 -0.3719 -0.5567
 2058SOL     OW17632   3.441   4.154   1.096 -0.3903 -0.5339 -0.7180
 2058SOL    HW117633   3.454   4.186   1.186  0.6171 -1.3623 -0.5610
 2058SOL    HW217634   3.518   4.097   1.098  1.2733  1.6606 -3.6990
 2059SOL     OW17635   3.463   1.417   1.680 -0.2975  0.0365  0.2872
 2059SOL    HW117636   3.451   1.510   1.702  1.2590  0.4817 -0.7339
 2059SOL    HW217637   3.446   1.377   1.765  0.9484 -0.5284  0.2791
 2060SOL     OW17638   4.402   2.775   1.105  0.8471 -0.3107 -0.0205
 2060SOL    HW117639   4.379   2.684   1.126 -0.8190  0.1710  0.2687
 2060SOL    HW217640   4.367   2.774   1.016 -0.1717  2.8396  0.3357
 2061SOL     OW17641   2.232   2.327   1.324  0.0234 -0.3013  0.0080
 2061SOL    HW117642   2.228   2.312   1.229  0.4505 -1.5311  0.1870
 2061SOL    HW217643   2.266   2.242   1.352  0.6073  0.6345  2.0892
 2062SOL     OW17644   4.170   2.973   8.655  0.1404  0.5827  0.0556
 2062SOL    HW117645   4.077   2.963   8.673  0.3214  1.5495  1.5038
 2062SOL    HW217646   4.176   2.947   8.563  2.0525 -0.6446  0.5185
 2063SOL     OW17647   2.959   3.821  14.792  0.7889 -0.1802  0.0260
 2063SOL    HW117648   2.913   3.834  14.875  3.4458 -1.8331  1.7380
 2063SOL    HW217649   2.899   3.875  14.740  0.4778  0.3585  0.9600
 2064SOL     OW17650   2.278   3.395   6.223 -0.1504 -0.0726 -0.4387
 2064SOL    HW117651   2.341   3.453   6.180 -0.9370  0.3234 -1.0452
 2064SOL    HW217652   2.210   3.455   6.253 -1.5748 -1.0577 -1.7050
 2065SOL     OW17653   3.824   2.969   5.518 -0.2637  0.0272  0.2095
 2065SOL    HW117654   3.917   2.981   5.539 -0.1994 -1.0095  0.4755
 2065SOL    HW217655   3.778   2.981   5.601 -1.5156 -0.1497 -0.4664
 2066SOL     OW17656   1.100   4.084  17.000  0.5985 -0.6367 -0.2395
 2066SOL    HW117657   1.129   4.048  17.084  0.5433 -0.9116 -0.3387
 2066SOL    HW217658   1.158   4.035  16.941  0.4091 -0.8269 -0.2645
 2067SOL     OW17659   0.382   0.624   5.081  0.0151 -0.4509 -0.1315
 2067SOL    HW117660   0.417   0.697   5.031 -3.8675 -0.4847 -2.8141
 2067SOL    HW217661   0.441   0.556   5.048  2.1823 -0.1489  3.0730
 2068SOL     OW17662   1.328   2.370   6.398  0.1711  0.2039 -0.0528
 2068SOL    HW117663   1.315   2.424   6.320  1.6975  1.4044  0.4998
 2068SOL    HW217664   1.398   2.312   6.367 -1.4393 -0.7115 -1.9818
 2069SOL     OW17665   0.889   2.393   2.890 -0.3505  0.1960 -0.1485
 2069SOL    HW117666   0.819   2.458   2.884 -0.0945  0.5614  0.6800
 2069SOL    HW217667   0.919   2.387   2.800  3.0234  0.5818  0.9362
 2070SOL     OW17668   3.743   4.099   9.531 -0.2040 -0.3612 -0.3677
 2070SOL    HW117669   3.729   4.092   9.625 -2.5219 -1.3307 -0.7767
 2070SOL    HW217670   3.682   4.030   9.505  1.2175 -1.0013 -2.0421
 2071SOL     OW17671   1.574   2.457   0.411 -0.3789 -0.3952 -0.5777
 2071SOL    HW117672   1.609   2.368   0.420 -2.7461 -1.0195  2.3073
 2071SOL    HW217673   1.482   2.434   0.398 -0.9813  1.2906  0.7331
 2072SOL     OW17674   3.402   2.913  12.267  0.2209 -0.4146 -0.4139
 2072SOL    HW117675   3.358   2.984  12.314 -0.9861 -1.1111 -0.4999
 2072SOL    HW217676   3.333   2.847  12.265  0.0743 -0.2660 -0.1995
 2073SOL     OW17677   1.489   3.709   1.707 -0.0886 -0.3435 -0.3444
 2073SOL    HW117678   1.402   3.690   1.673 -1.0512  0.7482  1.4931
 2073SOL    HW217679   1.533   3.644   1.652 -1.8344 -1.3082 -0.5994
 2074SOL     OW17680   0.045   2.914   4.194 -0.1241  0.1320  0.1974
 2074SOL    HW117681   4.708   2.989   4.202 -0.7943 -0.1345 -2.2963
 2074SOL    HW217682   0.127   2.961   4.178  0.5056 -0.1564  2.6195
 2075SOL     OW17683   3.334   3.465   7.454 -0.0939 -0.2142 -0.2686
 2075SOL    HW117684   3.371   3.429   7.534  1.9198  0.6890 -0.7952
 2075SOL    HW217685   3.396   3.426   7.393  0.1894 -0.3887  0.1356
 2076SOL     OW17686   2.808   1.373   4.758  0.5770 -0.0655 -0.3090
 2076SOL    HW117687   2.830   1.280   4.751 -1.1273 -0.3445 -1.9962
 2076SOL    HW217688   2.735   1.393   4.699  1.0809  0.7404 -0.6766
 2077SOL     OW17689   3.462   1.909  14.708 -0.3881 -0.4461  0.2589
 2077SOL    HW117690   3.483   1.870  14.793  0.5539 -0.6654 -0.0733
 2077SOL    HW217691   3.405   1.980  14.738 -0.9133 -0.7788  0.0438
 2078SOL     OW17692   3.391   1.024  12.058  0.8600 -0.3011  0.0309
 2078SOL    HW117693   3.385   1.065  11.972  2.3863 -0.7058 -0.2566
 2078SOL    HW217694   3.336   1.086  12.108  0.0589 -1.4870  0.6306
 2079SOL     OW17695   4.334   0.030   9.318 -0.1092 -0.6704 -0.5954
 2079SOL    HW117696   4.315   0.106   9.263  2.2281 -0.4912 -1.1494
 2079SOL    HW217697   4.424   0.044   9.346 -0.1291 -1.6094 -0.0617
 2080SOL     OW17698   1.537   3.638   7.147  0.0615  0.4903  0.0970
 2080SOL    HW117699   1.453   3.626   7.191  0.2579  0.8594  0.5776
 2080SOL    HW217700   1.576   3.552   7.156 -0.9064 -0.0896 -1.3580
 2081SOL     OW17701   0.835   3.157  14.018 -0.3060 -0.2580 -0.1611
 2081SOL    HW117702   0.917   3.169  14.065 -0.4398  0.0643 -0.0130
 2081SOL    HW217703   0.811   3.070  14.050 -1.0407  0.6982  1.8433
 2082SOL     OW17704   3.018   1.600  16.437  0.0560 -0.7267  0.1371
 2082SOL    HW117705   3.106   1.638  16.430 -0.3800  0.5018  1.4776
 2082SOL    HW217706   3.032   1.537  16.507  0.9385 -0.8662 -0.1599
 2083SOL     OW17707   1.908   2.847   2.350  0.3926  0.0995 -0.1447
 2083SOL    HW117708   1.867   2.779   2.404  0.0332 -1.4990 -2.4226
 2083SOL    HW217709   1.843   2.917   2.358 -0.4193 -0.4182 -2.3899
 2084SOL     OW17710   2.757   2.043   7.400 -0.2386 -0.5632 -0.0921
 2084SOL    HW117711   2.850   2.025   7.384  0.4888  1.9597  1.2113
 2084SOL    HW217712   2.726   1.992   7.326 -0.8124 -1.3543  0.6969
 2085SOL     OW17713   0.609   4.621  15.276 -0.0987 -0.7511 -0.4093
 2085SOL    HW117714   0.527   4.587  15.311 -0.6376  1.3765  0.3770
 2085SOL    HW217715   0.599   4.711  15.306 -0.6960 -0.7164 -0.7092
 2086SOL     OW17716   2.567   1.003  10.658 -0.2742  0.5759 -0.6149
 2086SOL    HW117717   2.554   0.941  10.730 -1.7466  1.2983 -0.2663
 2086SOL    HW217718   2.477   1.027  10.634  0.1602  0.3548 -2.4208
 2087SOL     OW17719   1.549   4.680   4.091 -0.0580 -0.3713 -0.8145
 2087SOL    HW117720   1.569   4.677   4.184 -0.0673  0.3148 -0.7923
 2087SOL    HW217721   1.614   0.022   4.063 -0.4105  0.7029  0.8498
 2088SOL     OW17722   1.209   1.638   0.258  0.3418 -0.5921  0.1919
 2088SOL    HW117723   1.287   1.693   0.251 -0.1400  0.1729  0.8771
 2088SOL    HW217724   1.177   1.647   0.347 -0.6938 -0.3240 -0.2134
 2089SOL     OW17725   0.896   1.821  15.016  0.1308  0.3121  0.4685
 2089SOL    HW117726   0.881   1.913  14.994 -0.2891  0.0043 -0.5465
 2089SOL    HW217727   0.932   1.799  14.930 -0.6616 -2.4848  0.8293
 2090SOL     OW17728   3.167   1.372   2.588  0.5702  1.0775 -0.2297
 2090SOL    HW117729   3.160   1.403   2.498 -0.2661 -1.8165 -1.1679
 2090SOL    HW217730   3.084   1.413   2.612  0.3342  1.2952 -1.4492
 2091SOL     OW17731   1.424   4.025   0.127 -0.2744  0.1035 -0.0744
 2091SOL    HW117732   1.468   3.944   0.153  1.0391  1.1409  0.9592
 2091SOL    HW217733   1.363   4.023   0.201  1.0457 -0.4430  0.9958
 2092SOL     OW17734   1.260   0.441  13.115 -0.1788 -0.0813  0.4127
 2092SOL    HW117735   1.176   0.459  13.158 -1.1172  0.0412 -1.4732
 2092SOL    HW217736   1.247   0.349  13.094  1.5966 -0.1996 -0.1966
 2093SOL     OW17737   0.074   1.005   3.070 -0.2496  0.1621  0.0538
 2093SOL    HW117738   0.028   1.014   2.987 -0.3138  0.2263  0.0968
 2093SOL    HW217739   0.005   1.027   3.133 -1.1505  0.3069 -0.9906
 2094SOL     OW17740   3.186   1.583   4.867  0.3005 -0.3222  0.0102
 2094SOL    HW117741   3.170   1.496   4.904 -1.0368  0.3325  0.9595
 2094SOL    HW217742   3.225   1.566   4.782 -1.7419 -3.2147 -0.3582
 2095SOL     OW17743   1.622   3.292   6.332  0.3296 -0.3166 -0.1754
 2095SOL    HW117744   1.699   3.255   6.287  0.8323 -0.6113  0.9213
 2095SOL    HW217745   1.561   3.301   6.259  1.3141  0.3102 -0.9214
 2096SOL     OW17746   0.785   3.452   3.013 -0.1699 -0.0252  0.5040
 2096SOL    HW117747   0.845   3.378   3.004 -0.4622 -0.2524  0.4259
 2096SOL    HW217748   0.793   3.486   2.923  2.7523 -2.4639 -0.1652
 2097SOL     OW17749   0.981   3.167   4.913 -0.9005  0.0281 -0.6380
 2097SOL    HW117750   1.026   3.083   4.900 -1.0397 -0.6555  3.3429
 2097SOL    HW217751   0.893   3.145   4.944 -0.8611 -2.3342 -2.1466
 2098SOL     OW17752   1.064   2.341   9.147  0.1420  0.4773 -0.0116
 2098SOL    HW117753   1.042   2.374   9.235  0.6555 -0.6677  0.5499
 2098SOL    HW217754   1.054   2.419   9.092 -0.7304  1.1953  1.1406
 2099SOL     OW17755   3.822   1.114   1.090  0.2547 -0.4128 -0.1980
 2099SOL    HW117756   3.744   1.133   1.038  0.8826  1.3990 -0.4927
 2099SOL    HW217757   3.877   1.083   1.019  0.1882 -0.1789 -0.3504
 2100SOL     OW17758   0.325   2.977   2.166 -0.4013 -0.5209 -0.4882
 2100SOL    HW117759   0.379   2.932   2.100 -1.0106 -0.2522 -1.1741
 2100SOL    HW217760   0.373   2.949   2.244 -1.0347  1.7564  0.6912
 2101SOL     OW17761   4.664   2.008   8.044  0.0276 -0.2542 -0.1154
 2101SOL    HW117762   4.693   2.097   8.064 -1.0048  0.0071  0.1764
 2101SOL    HW217763   4.579   2.008   8.087 -0.0295  2.9847 -0.2059
 2102SOL     OW17764   2.662   4.519   6.981  0.1253 -0.1667 -0.3960
 2102SOL    HW117765   2.641   4.452   7.046 -0.4408  0.8105  0.4249
 2102SOL    HW217766   2.577   4.563   6.982  0.5031  0.5296  1.3062
 2103SOL     OW17767   2.801   4.143  10.581  0.0296  0.3847 -0.7236
 2103SOL    HW117768   2.757   4.226  10.566 -0.1945  0.1606 -1.3236
 2103SOL    HW217769   2.880   4.179  10.620  0.2926  1.1659 -2.0031
 2104SOL     OW17770   1.670   3.274  15.643  0.1004 -0.3094 -0.5430
 2104SOL    HW117771   1.678   3.353  15.590  1.0642 -0.3829 -0.5106
 2104SOL    HW217772   1.728   3.289  15.718  1.6918 -0.8825 -1.6472
 2105SOL     OW17773   0.107   1.788   5.086 -0.0614 -0.3718 -0.6011
 2105SOL    HW117774   0.067   1.717   5.035 -0.3994  0.2200 -1.1561
 2105SOL    HW217775   0.168   1.736   5.139 -1.0086 -0.1674  0.6990
 2106SOL     OW17776   0.463   0.369   3.494 -0.4112  0.3409 -0.0544
 2106SOL    HW117777   0.436   0.326   3.412  1.7768 -1.1665  0.0310
 2106SOL    HW217778   0.384   0.388   3.545 -0.3284 -0.0557  0.2222
 2107SOL     OW17779   0.415   2.770   3.247 -0.1588  0.1176 -0.2067
 2107SOL    HW117780   0.391   2.862   3.260 -0.4789 -0.0257  0.2260
 2107SOL    HW217781   0.388   2.759   3.156 -0.0720 -0.7215 -0.1270
 2108SOL     OW17782   3.685   1.620   8.510 -0.1579 -0.1648 -0.1199
 2108SOL    HW117783   3.608   1.580   8.551  0.7232 -0.4422  1.2599
 2108SOL    HW217784   3.748   1.548   8.508  0.8145  0.7201 -1.4725
 2109SOL     OW17785   3.943   2.652   2.563 -0.3164  0.1458  0.3882
 2109SOL    HW117786   3.911   2.612   2.482 -1.1906 -2.2209  1.8912
 2109SOL    HW217787   3.998   2.579   2.592  0.8964  1.5761  1.7026
 2110SOL     OW17788   2.131   1.115  12.616 -0.1241  0.1549 -0.1186
 2110SOL    HW117789   2.062   1.101  12.551 -0.5330  0.7762  0.1835
 2110SOL    HW217790   2.184   1.183  12.574  2.1735 -1.0506  0.8691
 2111SOL     OW17791   0.264   3.903   6.629  0.2397 -0.3268 -0.2836
 2111SOL    HW117792   0.324   3.974   6.653  0.3125 -0.7829  0.8643
 2111SOL    HW217793   0.208   3.953   6.569  0.2029 -0.6303 -0.5038
 2112SOL     OW17794   3.467   2.092  10.037  0.2432 -0.2815  0.4790
 2112SOL    HW117795   3.515   2.125  10.113  1.7635 -0.2301 -0.5017
 2112SOL    HW217796   3.465   1.997  10.047 -0.9720 -0.5122 -1.8777
 2113SOL     OW17797   3.725   3.006  11.643 -0.0119 -0.1274 -0.4553
 2113SOL    HW117798   3.689   3.079  11.593  0.5895  0.6537  0.2683
 2113SOL    HW217799   3.739   3.037  11.732 -1.2418  0.0483 -0.3139
 2114SOL     OW17800   4.200   4.427   5.264 -0.3497  0.2040  0.3045
 2114SOL    HW117801   4.179   4.455   5.353  0.4846 -0.9420  0.8597
 2114SOL    HW217802   4.275   4.485   5.251 -0.8568  1.2160  1.9082
 2115SOL     OW17803   4.613   1.622  12.474  0.4706 -0.0364  0.0218
 2115SOL    HW117804   4.585   1.535  12.447 -0.2599  0.7499 -1.7740
 2115SOL    HW217805   4.632   1.669  12.392 -0.0358 -0.7128 -0.4910
 2116SOL     OW17806   3.992   3.983  14.941  0.6123  0.0906 -0.0326
 2116SOL    HW117807   3.938   4.061  14.927  1.1158  0.5451  0.5351
 2116SOL    HW217808   3.955   3.955  15.024 -1.4828  0.2910 -0.9064
 2117SOL     OW17809   2.427   4.026   6.278 -0.1806 -0.6239  1.1305
 2117SOL    HW117810   2.462   4.096   6.334 -2.6528  0.6179  1.1508
 2117SOL    HW217811   2.336   4.055   6.266  0.1489 -0.0374  0.0640
 2118SOL     OW17812   1.287   4.456   6.626 -0.0734 -0.0672  0.2216
 2118SOL    HW117813   1.303   4.474   6.719 -0.4554 -0.7122  0.4196
 2118SOL    HW217814   1.271   4.542   6.588 -0.4232 -0.4268 -0.4362
 2119SOL     OW17815   4.516   3.281  12.743  0.3022  0.4551  0.1963
 2119SOL    HW117816   4.424   3.257  12.745  0.4629 -0.4996 -3.4002
 2119SOL    HW217817   4.552   3.221  12.808  1.7618  0.7656 -0.3115
 2120SOL     OW17818   0.948   2.828  14.012  0.5435  0.1696  0.3413
 2120SOL    HW117819   0.954   2.741  14.052 -1.7069 -1.2729 -2.4988
 2120SOL    HW217820   0.866   2.838  13.965  1.1779  0.0807 -0.7709
 2121SOL     OW17821   3.875   3.308   4.964 -0.4732  0.2877  0.1933
 2121SOL    HW117822   3.917   3.260   4.892 -1.5386  0.0622 -0.2902
 2121SOL    HW217823   3.943   3.318   5.030  0.1055 -1.2273 -0.1571
 2122SOL     OW17824   1.899   4.139   6.941  0.2917 -0.2378 -0.2416
 2122SOL    HW117825   1.983   4.181   6.957  1.1634 -1.0623 -2.6740
 2122SOL    HW217826   1.901   4.133   6.846 -2.5469 -0.5028 -0.2842
 2123SOL     OW17827   0.835   0.048  16.767 -0.0413 -0.1290  0.1512
 2123SOL    HW117828   0.900   0.087  16.825  1.0608 -2.7358  0.6724
 2123SOL    HW217829   0.867   4.680  16.766  1.3716  0.3392  2.8868
 2124SOL     OW17830   2.942   2.685   1.596  0.5468 -0.7799 -0.8041
 2124SOL    HW117831   2.958   2.778   1.582 -1.1854 -0.2599  0.5695
 2124SOL    HW217832   2.864   2.683   1.541 -0.3819  1.1709  0.4128
 2125SOL     OW17833   0.509   2.854   6.707 -0.3578 -0.3772  0.1141
 2125SOL    HW117834   0.490   2.762   6.726 -1.2631 -0.3905 -0.8111
 2125SOL    HW217835   0.538   2.895   6.788  1.7131 -0.2690 -0.6926
 2126SOL     OW17836   4.157   4.203   9.724  0.1678  0.4753  0.0776
 2126SOL    HW117837   4.147   4.270   9.657  0.2258  1.2918  0.8967
 2126SOL    HW217838   4.098   4.240   9.789 -1.6490  0.2270 -1.4400
 2127SOL     OW17839   0.086   3.836  15.124 -0.9265 -0.5663 -0.1544
 2127SOL    HW117840   0.067   3.748  15.157  2.0773 -1.4225 -0.6618
 2127SOL    HW217841   0.166   3.856  15.172 -0.2731 -3.0941 -0.1726
 2128SOL     OW17842   2.643   3.262   3.568 -0.3544 -0.0626 -0.5518
 2128SOL    HW117843   2.654   3.217   3.484 -1.0279 -0.9143 -0.1819
 2128SOL    HW217844   2.721   3.317   3.558  0.3696 -0.9583  0.1967
 2129SOL     OW17845   2.346   0.778   0.651 -0.0574 -0.4272  0.3030
 2129SOL    HW117846   2.252   0.793   0.665 -0.3344 -1.1926 -0.7813
 2129SOL    HW217847   2.369   0.855   0.599 -0.6429 -1.6051 -1.6877
 2130SOL     OW17848   1.851   2.425   7.139  0.5250 -0.3649 -0.3623
 2130SOL    HW117849   1.805   2.446   7.058  1.8091  1.6201 -0.5962
 2130SOL    HW217850   1.883   2.336   7.128 -2.2210 -1.2736 -1.0199
 2131SOL     OW17851   0.900   0.494  10.132 -0.0504  0.3177 -0.3825
 2131SOL    HW117852   0.961   0.430  10.096 -0.3794 -0.3856  0.3106
 2131SOL    HW217853   0.936   0.578  10.102 -1.3548  1.0028 -0.0424
 2132SOL     OW17854   4.491   3.851  13.265 -0.0337 -0.2011 -0.1577
 2132SOL    HW117855   4.556   3.898  13.317 -1.0031 -0.1660  1.0272
 2132SOL    HW217856   4.415   3.851  13.323 -0.5277 -0.9641 -0.8051
 2133SOL     OW17857   1.087   0.593   3.393  0.1814 -0.0672  0.0278
 2133SOL    HW117858   1.028   0.668   3.398 -1.1270 -1.0272 -0.9703
 2133SOL    HW217859   1.164   0.638   3.358 -0.5839  0.2074 -1.3079
 2134SOL     OW17860   1.068   0.426   6.438 -0.3004 -0.1689 -0.6997
 2134SOL    HW117861   1.163   0.430   6.427 -0.1265  1.4042  1.3671
 2134SOL    HW217862   1.052   0.460   6.526  1.6428 -0.0138 -0.4180
 2135SOL     OW17863   0.863   3.647   0.334 -0.6271 -0.5661  0.1421
 2135SOL    HW117864   0.933   3.671   0.273 -0.1926 -2.1700  0.0178
 2135SOL    HW217865   0.892   3.704   0.405  0.6858  0.4143 -1.1875
 2136SOL     OW17866   3.954   4.564   4.789 -0.5990  0.3222  0.1570
 2136SOL    HW117867   3.881   4.574   4.850 -0.6141 -0.7242  0.3207
 2136SOL    HW217868   3.927   4.481   4.749  1.8389 -0.0729 -0.6805
 2137SOL     OW17869   4.210   2.610   3.255  0.3696 -0.3220 -0.0335
 2137SOL    HW117870   4.210   2.529   3.306 -1.4847 -1.2111 -1.4396
 2137SOL    HW217871   4.120   2.604   3.223  0.4713  0.5901 -0.4887
 2138SOL     OW17872   3.875   1.948  15.258 -0.7167 -0.2718  0.1070
 2138SOL    HW117873   3.890   1.853  15.255 -0.9606 -0.2723 -1.0589
 2138SOL    HW217874   3.830   1.953  15.174 -1.8943  1.4671  0.8363
 2139SOL     OW17875   3.310   3.560   9.119  0.2181  0.3403  0.0893
 2139SOL    HW117876   3.288   3.639   9.169 -0.7222 -1.2157  2.1420
 2139SOL    HW217877   3.244   3.497   9.148  2.9879 -1.7984  1.7640
 2140SOL     OW17878   4.638   3.564   0.749 -0.0101  0.5304 -0.1946
 2140SOL    HW117879   4.585   3.515   0.812 -2.1603  1.8031 -1.0009
 2140SOL    HW217880   4.702   3.493   0.743 -1.4797 -0.4059 -4.3329
 2141SOL     OW17881   1.335   3.534  14.405  0.0598 -0.1315  0.6133
 2141SOL    HW117882   1.374   3.540  14.318  0.6412  1.1301  0.9695
 2141SOL    HW217883   1.329   3.438  14.402  0.9158 -0.0674 -2.5831
 2142SOL     OW17884   3.823   1.013   8.670 -0.3359 -0.3413 -0.2404
 2142SOL    HW117885   3.734   0.979   8.662 -0.1130 -1.3776  1.6007
 2142SOL    HW217886   3.835   0.999   8.764  3.2458 -0.6053 -0.7272
 2143SOL     OW17887   0.209   4.041   5.337 -0.0837  0.1703 -0.1178
 2143SOL    HW117888   0.232   3.950   5.317  0.6908  0.8679 -2.3834
 2143SOL    HW217889   0.291   4.087   5.324 -0.6096  1.1893  0.1633
 2144SOL     OW17890   0.324   0.079   8.711  0.1540  0.3480  0.0822
 2144SOL    HW117891   0.301   0.108   8.623  0.4989  0.8698  0.1613
 2144SOL    HW217892   0.330   0.164   8.756 -2.2160  0.5110  0.0969
 2145SOL     OW17893   1.504   3.116   0.259  0.5725 -0.0972 -0.2990
 2145SOL    HW117894   1.587   3.083   0.294  0.0073  0.4510  1.5386
 2145SOL    HW217895   1.457   3.033   0.256  0.1527  0.0988  0.9158
 2146SOL     OW17896   2.204   2.575   8.220  0.2514  0.3583  0.1726
 2146SOL    HW117897   2.249   2.528   8.149 -0.0709 -1.7285  1.3407
 2146SOL    HW217898   2.279   2.588   8.277  0.2196  0.2437  0.2404
 2147SOL     OW17899   0.428   4.197  15.496  0.1907  0.9386 -0.1574
 2147SOL    HW117900   0.382   4.236  15.421  1.9003  0.9491 -1.1943
 2147SOL    HW217901   0.357   4.197  15.560 -0.3737 -3.6928 -0.8096
 2148SOL     OW17902   1.744   1.062   5.403 -0.3868  0.3122  0.0654
 2148SOL    HW117903   1.824   1.066   5.456 -1.5149 -2.6475  2.0137
 2148SOL    HW217904   1.704   0.980   5.433 -1.2002  2.4618  4.9131
 2149SOL     OW17905   2.830   0.796   7.793 -0.1433 -0.5477  0.6405
 2149SOL    HW117906   2.876   0.793   7.709 -0.8826 -0.5852  0.2324
 2149SOL    HW217907   2.903   0.813   7.852 -0.9260 -1.2787  1.7998
 2150SOL     OW17908   2.790   3.688   8.731  0.2196  0.2266  0.3456
 2150SOL    HW117909   2.709   3.642   8.710 -1.7406  2.9497  1.9813
 2150SOL    HW217910   2.789   3.754   8.662  3.2050 -0.3117 -0.1969
 2151SOL     OW17911   2.880   3.284  16.949 -0.1714  0.5906 -0.3539
 2151SOL    HW117912   2.874   3.377  16.973 -1.3920  0.4981 -0.2826
 2151SOL    HW217913   2.968   3.262  16.978 -0.2668  0.8789  0.1567
 2152SOL     OW17914   0.223   3.652   5.773  0.3738  0.2390  0.1248
 2152SOL    HW117915   0.308   3.681   5.808  1.2686 -1.1278 -0.9624
 2152SOL    HW217916   0.234   3.674   5.681 -1.4633 -0.1043 -0.1839
 2153SOL     OW17917   3.343   2.905   6.722  0.2878  0.0281  0.8727
 2153SOL    HW117918   3.339   2.978   6.660 -1.6534 -1.3188 -0.6015
 2153SOL    HW217919   3.357   2.962   6.798  0.8106 -1.9348  2.2607
 2154SOL     OW17920   0.798   4.352   5.229  0.2538  0.2662  0.8256
 2154SOL    HW117921   0.773   4.390   5.145  0.0388 -1.4048  0.1438
 2154SOL    HW217922   0.870   4.414   5.243  0.2136  0.1545  1.5025
 2155SOL     OW17923   3.672   0.515   6.225 -0.3611  0.2481 -0.4013
 2155SOL    HW117924   3.746   0.563   6.261  0.6000 -1.2059 -0.4274
 2155SOL    HW217925   3.649   0.555   6.141  3.4470 -0.8054 -1.9208
 2156SOL     OW17926   3.024   2.710   4.244  0.0626  0.3238  0.2552
 2156SOL    HW117927   3.070   2.670   4.317 -2.8785 -2.3859  0.6481
 2156SOL    HW217928   2.958   2.643   4.227  0.9340  0.0918 -2.2172
 2157SOL     OW17929   1.740   2.322   3.257 -0.0243  1.0563  0.1617
 2157SOL    HW117930   1.701   2.386   3.198 -1.9841 -0.2117  0.0725
 2157SOL    HW217931   1.681   2.335   3.332  1.1248 -1.5116  1.5106
 2158SOL     OW17932   0.838   2.112  16.308  0.0598  0.3130  0.0329
 2158SOL    HW117933   0.913   2.131  16.251  0.2634  0.1648  0.2477
 2158SOL    HW217934   0.812   2.201  16.333 -1.4118  0.2699 -1.4134
 2159SOL     OW17935   2.400   1.312   7.762  0.2953 -0.3748 -0.2268
 2159SOL    HW117936   2.350   1.313   7.844 -0.6662 -0.3933 -0.8178
 2159SOL    HW217937   2.397   1.218   7.748 -1.5435 -0.7716  2.7534
 2160SOL     OW17938   4.607   2.323   8.566  0.1395 -0.5651  0.1491
 2160SOL    HW117939   4.556   2.308   8.486 -1.4246  0.4252  0.9474
 2160SOL    HW217940   4.548   2.379   8.617  0.0298 -1.3634  0.9030
 2161SOL     OW17941   3.761   2.224  15.289 -0.1037 -0.8257 -0.2668
 2161SOL    HW117942   3.767   2.135  15.255  0.6963 -0.3302 -1.4137
 2161SOL    HW217943   3.853   2.242  15.309  0.1472 -0.4483 -1.7933
 2162SOL     OW17944   2.951   2.581   5.480 -0.2953 -0.1999 -0.2119
 2162SOL    HW117945   3.037   2.619   5.459  1.0609 -2.1893  1.6612
 2162SOL    HW217946   2.902   2.610   5.403 -0.7445  1.8249  0.8528
 2163SOL     OW17947   4.161   3.466  11.693 -0.6325 -0.2841 -0.2540
 2163SOL    HW117948   4.193   3.539  11.639 -1.1905  0.8294  0.9252
 2163SOL    HW217949   4.155   3.399  11.625  0.2501 -0.1006 -0.5191
 2164SOL     OW17950   2.930   4.090  13.322 -0.6716  0.5542  0.5942
 2164SOL    HW117951   2.992   4.157  13.294 -1.0937  2.2624  3.6730
 2164SOL    HW217952   2.846   4.136  13.320  0.4525  2.7245  3.7036
 2165SOL     OW17953   1.651   3.266   4.229  0.3914 -0.3250 -0.0995
 2165SOL    HW117954   1.743   3.265   4.201  0.3725  0.1628 -0.1721
 2165SOL    HW217955   1.608   3.339   4.185  1.0465 -0.4345 -0.9238
 2166SOL     OW17956   1.591   3.607  11.589 -0.3114  0.5136 -0.0625
 2166SOL    HW117957   1.513   3.576  11.635 -1.1099 -0.1226 -1.8687
 2166SOL    HW217958   1.662   3.562  11.635 -0.2232  2.9043  2.1534
 2167SOL     OW17959   0.301   0.409  12.337 -0.5119 -0.4217  0.3733
 2167SOL    HW117960   0.354   0.331  12.350  1.2303  0.4077 -1.7263
 2167SOL    HW217961   0.219   0.364  12.313 -1.1801 -0.1695  2.2247
 2168SOL     OW17962   3.434   1.698   5.610 -0.0754  0.2473 -0.0231
 2168SOL    HW117963   3.505   1.760   5.629  0.7826 -0.6580 -0.3023
 2168SOL    HW217964   3.403   1.664   5.694 -0.2330  0.5471  0.0423
 2169SOL     OW17965   1.707   1.320  15.510 -0.0382  0.2349  0.2424
 2169SOL    HW117966   1.658   1.277  15.580 -0.6630 -2.7294 -2.0337
 2169SOL    HW217967   1.635   1.382  15.496 -0.3192 -0.2099 -0.2820
 2170SOL     OW17968   4.644   2.295   0.382  0.2605 -0.1754 -0.1425
 2170SOL    HW117969   4.655   2.200   0.373  0.8228 -0.1110 -0.1838
 2170SOL    HW217970   4.649   2.293   0.477  1.8528 -2.6127 -0.2597
 2171SOL     OW17971   2.382   2.061   7.635 -0.1068  0.0009  0.5832
 2171SOL    HW117972   2.387   1.976   7.592  0.6111 -1.0555  2.7910
 2171SOL    HW217973   2.384   2.125   7.563  1.7619 -0.1093  0.5271
 2172SOL     OW17974   1.498   3.018   4.751  0.5948  0.4455 -0.8601
 2172SOL    HW117975   1.536   2.961   4.685  0.1082 -1.3793  0.4273
 2172SOL    HW217976   1.517   2.969   4.831  3.3148  0.2237 -1.6302
 2173SOL     OW17977   0.546   3.648  12.005 -0.6074  0.3557 -0.1927
 2173SOL    HW117978   0.605   3.688  11.941  0.8947 -2.3165 -0.5251
 2173SOL    HW217979   0.609   3.605  12.063  0.4192  0.9213 -0.8851
 2174SOL     OW17980   3.620   0.279   4.279 -0.1962 -0.1058  0.1834
 2174SOL    HW117981   3.689   0.238   4.332 -0.9955  2.2223  3.0032
 2174SOL    HW217982   3.614   0.215   4.208 -0.1980 -1.4475  1.3685
 2175SOL     OW17983   1.136   1.899   6.536 -0.0248 -0.4881  0.1688
 2175SOL    HW117984   1.145   1.994   6.543  2.8805 -0.6986 -1.1567
 2175SOL    HW217985   1.174   1.886   6.450  2.5139 -2.0654  1.5291
 2176SOL     OW17986   0.076   0.674   1.943 -0.1299 -0.3327  0.0007
 2176SOL    HW117987   0.121   0.649   1.862 -0.4774  0.7652 -0.5371
 2176SOL    HW217988   0.105   0.765   1.942 -1.6090  0.1161 -2.6554
 2177SOL     OW17989   2.659   1.022  11.079 -0.8210  0.3168  1.1070
 2177SOL    HW117990   2.741   1.022  11.128  0.4194  3.1271 -0.9545
 2177SOL    HW217991   2.621   0.941  11.113  0.5784 -0.5451  0.6156
 2178SOL     OW17992   3.904   3.353  11.041  0.2959  0.1499  0.7253
 2178SOL    HW117993   3.849   3.429  11.060  0.6938  0.3295  1.1476
 2178SOL    HW217994   3.901   3.361  10.945  0.2969  2.3162  0.8981
 2179SOL     OW17995   2.531   3.276   4.982 -0.4186 -0.1885 -0.1983
 2179SOL    HW117996   2.470   3.332   5.031  0.6575 -0.2080  1.1690
 2179SOL    HW217997   2.524   3.304   4.891 -1.4926  0.4801  0.0850
 2180SOL     OW17998   1.914   2.837  13.611 -0.5765  0.0192  0.1574
 2180SOL    HW117999   1.843   2.803  13.665  2.2900  0.5534  4.2169
 2180SOL    HW218000   1.890   2.929  13.615 -1.5378 -0.2426  0.2932
 2181SOL     OW18001   0.956   2.543   5.162  0.0956  0.1916  0.0713
 2181SOL    HW118002   0.937   2.599   5.087  0.2847  1.5363  1.0268
 2181SOL    HW218003   0.873   2.497   5.172  1.2425 -1.4597  2.0143
 2182SOL     OW18004   0.180   3.937   2.419 -0.0261 -0.4193 -0.2769
 2182SOL    HW118005   0.131   3.903   2.494 -1.2625 -0.0014 -0.8829
 2182SOL    HW218006   0.177   4.030   2.441  3.5185 -0.0052 -1.5831
 2183SOL     OW18007   3.071   2.480   4.685 -0.4203 -0.9158 -0.2131
 2183SOL    HW118008   3.000   2.518   4.737  1.0623  2.5419 -0.7107
 2183SOL    HW218009   3.066   2.388   4.712  0.1290 -2.1080 -4.1227
 2184SOL     OW18010   3.191   1.726   0.723  0.4932 -0.2628 -0.3125
 2184SOL    HW118011   3.124   1.728   0.791  2.8936 -1.5010  2.0808
 2184SOL    HW218012   3.238   1.806   0.747 -1.3937  1.3816 -2.0241
 2185SOL     OW18013   2.387   1.045  10.400  0.0267 -0.7232  0.2228
 2185SOL    HW118014   2.308   1.020  10.447 -0.0232 -0.2627  0.3864
 2185SOL    HW218015   2.447   0.973  10.420  1.0103 -0.1803 -0.7115
 2186SOL     OW18016   2.829   0.014  12.640  0.2915 -0.0906 -0.4296
 2186SOL    HW118017   2.734   0.025  12.630  0.0726  0.3051  2.0390
 2186SOL    HW218018   2.854   0.105  12.657 -1.0934  1.1234 -5.0497
 2187SOL     OW18019   1.923   3.896   7.011  0.3811  0.5563  0.2455
 2187SOL    HW118020   1.918   3.992   7.016  0.6791  0.4787  2.2592
 2187SOL    HW218021   1.829   3.880   7.015  0.4539  0.2702  0.8950
 2188SOL     OW18022   3.932   0.517   4.285  0.0348 -0.5901  0.0914
 2188SOL    HW118023   3.899   0.492   4.198  0.7386  0.8396 -0.5832
 2188SOL    HW218024   3.852   0.509   4.335  0.1646 -2.0543  0.0726
 2189SOL     OW18025   3.075   0.073  10.793 -0.3241  0.0696 -0.4082
 2189SOL    HW118026   2.987   0.111  10.792 -0.0777  0.7113  0.9807
 2189SOL    HW218027   3.110   0.099  10.879  0.9980  1.7442 -1.4646
 2190SOL     OW18028   2.407   1.526   4.715  0.5408  0.0181  0.4965
 2190SOL    HW118029   2.446   1.513   4.802  0.1818  0.2322  0.6902
 2190SOL    HW218030   2.469   1.477   4.661  1.3193  1.5326  0.0198
 2191SOL     OW18031   3.876   0.047   8.075 -0.4851  0.1205 -0.1401
 2191SOL    HW118032   3.844   4.713   8.145  2.2223 -1.1756  0.0499
 2191SOL    HW218033   3.807   0.036   8.009  0.4305  0.3274 -1.1461
 2192SOL     OW18034   4.257   0.308   7.112  0.8252  0.4357  0.2549
 2192SOL    HW118035   4.177   0.258   7.121  0.5510  0.3929 -2.5193
 2192SOL    HW218036   4.291   0.297   7.201  0.3879  0.7137  0.4539
 2193SOL     OW18037   2.135   2.778  10.988  0.0155  0.0783  0.0792
 2193SOL    HW118038   2.091   2.839  10.930  0.1696  1.2847  1.2264
 2193SOL    HW218039   2.224   2.770  10.954  0.1773 -0.2010  0.5642
 2194SOL     OW18040   2.292   1.467   3.117 -0.0675 -0.9872  0.3239
 2194SOL    HW118041   2.227   1.430   3.176 -1.2762  0.3881 -0.1290
 2194SOL    HW218042   2.355   1.397   3.102  1.3716  0.3985 -0.1061
 2195SOL     OW18043   1.367   0.012  15.068 -0.7168  0.7237 -0.5808
 2195SOL    HW118044   1.287   4.689  15.094  0.9196 -0.7359  1.8874
 2195SOL    HW218045   1.340   0.103  15.068 -0.8547  0.6878  1.3580
 2196SOL     OW18046   0.757   0.145   5.958  0.2442  0.4346  0.4497
 2196SOL    HW118047   0.704   0.145   6.037 -0.3370  0.9509  0.0598
 2196SOL    HW218048   0.683   0.162   5.899 -1.5882 -0.4186  2.4825
 2197SOL     OW18049   3.669   4.204   7.359  0.3260  0.1953  0.7095
 2197SOL    HW118050   3.744   4.221   7.416  0.2799 -0.3400  0.9229
 2197SOL    HW218051   3.630   4.131   7.406 -1.9062  1.0544  0.1612
 2198SOL     OW18052   2.810   4.661   0.808  0.2421  0.4809  0.5468
 2198SOL    HW118053   2.864   4.626   0.879  0.1393 -0.4419  0.1758
 2198SOL    HW218054   2.824   4.592   0.743  1.1765  1.0152  0.1879
 2199SOL     OW18055   0.109   3.200  13.195  0.7688 -0.0108 -0.0193
 2199SOL    HW118056   0.145   3.174  13.279  4.8650 -0.6592 -1.9480
 2199SOL    HW218057   0.102   3.294  13.215 -1.5400  0.2431 -1.9594
 2200SOL     OW18058   2.569   3.274  17.528  0.0459 -0.0658  0.6979
 2200SOL    HW118059   2.547   3.331  17.601 -3.4308 -0.7283  0.1721
 2200SOL    HW218060   2.643   3.219  17.554 -0.8581  0.0369  3.4650
 2201SOL     OW18061   4.706   2.314  11.714 -0.2051 -0.3149  0.1956
 2201SOL    HW118062   4.713   2.226  11.676 -1.6537 -0.1102 -0.5440
 2201SOL    HW218063   4.679   2.359  11.634 -3.2060  1.6841  2.3665
 2202SOL     OW18064   0.393   3.867  11.429 -0.3488 -0.0301  0.1937
 2202SOL    HW118065   0.366   3.911  11.509  1.2900 -0.5336  1.0331
 2202SOL    HW218066   0.353   3.926  11.365  0.8095  0.5115 -0.0297
 2203SOL     OW18067   2.150   1.137   3.485  0.3935  0.3977 -0.5911
 2203SOL    HW118068   2.223   1.139   3.546  0.0338 -1.8801 -0.0959
 2203SOL    HW218069   2.190   1.099   3.407  0.0421 -0.3981 -0.3879
 2204SOL     OW18070   3.404   1.251   6.066  0.2893 -0.2799  0.3158
 2204SOL    HW118071   3.491   1.268   6.029 -0.8187 -0.8635 -2.6134
 2204SOL    HW218072   3.424   1.212   6.151  2.2933  0.4186  0.1704
 2205SOL     OW18073   4.602   3.945   2.309 -0.0517  0.8006 -0.4995
 2205SOL    HW118074   4.681   3.952   2.256  1.7191 -1.0399  1.8875
 2205SOL    HW218075   4.637   3.964   2.396  0.5490 -0.3773 -0.4800
 2206SOL     OW18076   3.313   2.344   4.464 -0.0435  0.2819  0.0384
 2206SOL    HW118077   3.268   2.263   4.486 -0.3246  0.6151  0.6955
 2206SOL    HW218078   3.405   2.321   4.476 -0.1805  0.1633  0.8702
 2207SOL     OW18079   1.350   3.280  10.731 -0.0413  0.1982 -0.2045
 2207SOL    HW118080   1.258   3.253  10.738 -0.7506  2.2666 -1.6750
 2207SOL    HW218081   1.357   3.338  10.807  1.2142  1.5741 -1.3710
 2208SOL     OW18082   2.849   2.814   4.492  0.4444  1.3910  0.1212
 2208SOL    HW118083   2.781   2.847   4.551 -1.2944 -0.0309 -1.0562
 2208SOL    HW218084   2.928   2.854   4.528  1.4356 -0.8674  0.4911
 2209SOL     OW18085   4.587   2.429   6.931  0.0477 -0.1456 -0.2146
 2209SOL    HW118086   4.531   2.503   6.908  0.8751  0.6695  0.3468
 2209SOL    HW218087   4.521   2.361   6.925  0.5884 -0.7175  0.2815
 2210SOL     OW18088   0.321   2.197   7.952 -0.7096  0.2253 -0.4152
 2210SOL    HW118089   0.340   2.122   7.895  0.3879  0.1568  0.0397
 2210SOL    HW218090   0.312   2.151   8.035  0.3131  0.3219 -0.2505
 2211SOL     OW18091   4.372   2.532   6.567  0.1605 -0.1203  0.3060
 2211SOL    HW118092   4.399   2.591   6.497 -0.5741  0.1843  0.2844
 2211SOL    HW218093   4.445   2.471   6.572 -0.3827 -0.7497  0.5864
 2212SOL     OW18094   3.510   0.582  16.583 -0.3011  0.0785  0.3001
 2212SOL    HW118095   3.439   0.642  16.562 -0.3466  0.3340  1.2064
 2212SOL    HW218096   3.532   0.563  16.491 -0.9789 -2.4574  0.6673
 2213SOL     OW18097   1.177   1.025   2.921  0.1847  0.3016  0.1270
 2213SOL    HW118098   1.269   1.000   2.922  0.3127  0.7912  0.3376
 2213SOL    HW218099   1.133   0.957   2.870 -0.3705 -0.4731  1.6263
 2214SOL     OW18100   2.609   4.706   6.721 -0.3386 -0.0113 -0.1700
 2214SOL    HW118101   2.570   4.650   6.654 -2.2764  1.3314 -0.1584
 2214SOL    HW218102   2.527   0.018   6.757  0.5068  1.7055  0.0742
 2215SOL     OW18103   3.815   2.234   2.067 -0.0767 -0.3149 -0.2444
 2215SOL    HW118104   3.764   2.313   2.083 -1.8325 -1.6885  1.0101
 2215SOL    HW218105   3.896   2.284   2.061 -1.3204  1.7348  0.2760
 2216SOL     OW18106   2.392   0.263   0.853 -0.5982 -0.0921 -0.2851
 2216SOL    HW118107   2.446   0.185   0.860  0.7791  0.6210 -2.8125
 2216SOL    HW218108   2.361   0.253   0.763 -1.0598 -1.0128 -0.0193
 2217SOL     OW18109   3.204   3.443  17.014  0.3480 -0.0464 -0.4120
 2217SOL    HW118110   3.188   3.417  17.105 -0.5728  0.8776 -0.3179
 2217SOL    HW218111   3.144   3.516  17.002  0.5811  0.1376 -0.4489
 2218SOL     OW18112   4.091   0.660   2.059 -0.6229  0.2781  0.0685
 2218SOL    HW118113   4.022   0.594   2.062 -0.7070  0.4044  0.8574
 2218SOL    HW218114   4.144   0.637   1.982  1.6386  1.4060  1.2751
 2219SOL     OW18115   3.922   4.510   4.107 -0.6286 -0.3927  0.0053
 2219SOL    HW118116   3.903   4.600   4.135 -0.7588 -0.4620  0.1383
 2219SOL    HW218117   3.975   4.525   4.029 -0.1655  2.6118  0.8779
 2220SOL     OW18118   3.285   0.990   9.773 -0.0386  0.1043  1.1072
 2220SOL    HW118119   3.200   0.972   9.811 -0.8528  1.6514  0.0089
 2220SOL    HW218120   3.270   1.083   9.789 -1.1093  0.2899 -1.0367
 2221SOL     OW18121   0.407   3.971   1.386 -0.4057 -0.2168 -0.2197
 2221SOL    HW118122   0.335   3.965   1.449  1.7147  0.2310  2.2212
 2221SOL    HW218123   0.473   3.921   1.434 -0.6476 -1.4875 -1.2103
 2222SOL     OW18124   4.309   4.135  14.972 -0.0356 -0.2047 -0.3345
 2222SOL    HW118125   4.305   4.067  14.906  0.5795 -0.0592 -0.5260
 2222SOL    HW218126   4.360   4.206  14.932  1.0228 -1.1868 -0.7320
 2223SOL     OW18127   1.539   3.325   8.078 -0.1213  0.2923 -0.2030
 2223SOL    HW118128   1.616   3.326   8.021  0.1982 -0.1482  0.2130
 2223SOL    HW218129   1.475   3.263   8.043 -1.0098  1.0590  0.0766
 2224SOL     OW18130   3.344   2.263  10.455  0.2730 -0.2869  0.3226
 2224SOL    HW118131   3.352   2.358  10.457  0.7608 -0.3081 -0.7935
 2224SOL    HW218132   3.311   2.235  10.541 -1.9896  0.7323 -0.2449
 2225SOL     OW18133   2.488   4.475  15.806  0.1485 -0.0531  0.0808
 2225SOL    HW118134   2.432   4.525  15.747 -1.1649 -0.9707  0.5690
 2225SOL    HW218135   2.564   4.450  15.753  0.0834 -0.7487  0.3188
 2226SOL     OW18136   3.182   4.232   5.531 -0.0380  0.2064 -0.1252
 2226SOL    HW118137   3.224   4.235   5.617 -0.4722 -1.2872  0.1329
 2226SOL    HW218138   3.256   4.239   5.471  0.3142 -0.8572  0.1942
 2227SOL     OW18139   4.269   3.041   0.921  0.4777  0.0766 -0.2626
 2227SOL    HW118140   4.348   2.990   0.904 -0.3574 -1.2267 -0.2154
 2227SOL    HW218141   4.283   3.114   0.860 -3.9166 -0.3303 -1.7432
 2228SOL     OW18142   4.025   0.440   8.465 -0.2122  0.4940  0.3348
 2228SOL    HW118143   3.990   0.383   8.397  2.2439 -0.6502  0.0606
 2228SOL    HW218144   4.094   0.478   8.411  1.0683  0.0552  1.6443
 2229SOL     OW18145   4.331   4.387   3.770  0.0365  0.1465 -0.0409
 2229SOL    HW118146   4.358   4.298   3.749 -1.7528 -0.9710  2.3348
 2229SOL    HW218147   4.324   4.420   3.680 -0.3335  1.0277  0.3129
 2230SOL     OW18148   1.926   1.907   4.456 -0.1017  0.2872  0.3980
 2230SOL    HW118149   1.883   1.940   4.535 -2.3475 -2.0425  0.1370
 2230SOL    HW218150   2.017   1.891   4.481 -0.3687  0.9118  1.7783
 2231SOL     OW18151   3.794   1.955   3.839  0.1128 -0.1603 -0.1782
 2231SOL    HW118152   3.820   1.897   3.767  2.3598  0.5665  0.0548
 2231SOL    HW218153   3.833   1.907   3.913 -0.5098  1.0076  0.9120
 2232SOL     OW18154   2.111   3.792   6.855  0.4566 -0.2511  0.1963
 2232SOL    HW118155   2.050   3.825   6.921  1.7687 -1.4135  1.9705
 2232SOL    HW218156   2.102   3.858   6.786  2.4321 -0.6877 -0.4616
 2233SOL     OW18157   3.819   4.411   0.515 -0.0547  0.5083 -0.0165
 2233SOL    HW118158   3.832   4.324   0.552 -0.3254  0.6584  0.4300
 2233SOL    HW218159   3.754   4.450   0.574  0.1071  1.8971 -0.7547
 2234SOL     OW18160   2.661   0.841  14.810  0.0936  0.0989  0.1656
 2234SOL    HW118161   2.668   0.907  14.879 -0.8701 -0.4884  0.8162
 2234SOL    HW218162   2.709   0.770  14.853  2.2131  0.6405 -1.2697
 2235SOL     OW18163   3.867   2.430   3.288 -0.4833 -0.2174  0.0321
 2235SOL    HW118164   3.804   2.360   3.306 -1.0843  0.6400  1.2764
 2235SOL    HW218165   3.904   2.455   3.373  0.6444 -0.4257 -0.3874
 2236SOL     OW18166   3.582   1.484   4.101 -1.0187 -0.0488  0.3762
 2236SOL    HW118167   3.505   1.534   4.127 -0.3741  1.0461  0.1865
 2236SOL    HW218168   3.595   1.503   4.008 -0.9426 -0.1848  0.3573
 2237SOL     OW18169   1.559   3.446   6.874 -0.6467 -0.6649  0.0747
 2237SOL    HW118170   1.501   3.422   6.946  0.5342  0.1606  1.3035
 2237SOL    HW218171   1.502   3.493   6.814  0.9949  1.6108  0.3032
 2238SOL     OW18172   1.073   4.116  14.837 -0.5625 -0.1673  0.0016
 2238SOL    HW118173   1.157   4.144  14.875 -1.3753  0.5429  1.2587
 2238SOL    HW218174   1.026   4.197  14.859 -1.1595 -1.3022  2.8068
 2239SOL     OW18175   1.346   3.835   5.823  0.1400 -0.3230 -0.4176
 2239SOL    HW118176   1.270   3.827   5.881  0.7405  1.0079  0.5497
 2239SOL    HW218177   1.346   3.928   5.800 -1.0154 -0.4984 -1.1645
 2240SOL     OW18178   1.430   4.395   4.844  0.2691  0.1513  0.1889
 2240SOL    HW118179   1.477   4.478   4.837 -0.5349  0.7342  1.6385
 2240SOL    HW218180   1.454   4.380   4.936  0.3683  0.8660  0.2824
 2241SOL     OW18181   4.685   0.628   6.778  0.4788  0.4015  0.2970
 2241SOL    HW118182   4.640   0.561   6.728  0.0341  0.6298  0.3958
 2241SOL    HW218183   0.050   0.590   6.779 -0.6390 -2.1049  3.3104
 2242SOL     OW18184   2.188   0.643  16.949  0.2321  0.8005 -0.2311
 2242SOL    HW118185   2.119   0.593  16.905  0.6333  1.6878 -1.8593
 2242SOL    HW218186   2.169   0.734  16.923  0.4436  0.7859 -0.4319
 2243SOL     OW18187   3.003   0.958   2.045  0.2067 -0.0099 -0.2383
 2243SOL    HW118188   3.092   0.993   2.039  0.2277 -0.0530 -0.1833
 2243SOL    HW218189   2.980   0.978   1.955 -1.8411 -2.4270 -0.2716
 2244SOL     OW18190   2.907   0.400   2.473  0.1351  0.5302  0.8795
 2244SOL    HW118191   2.935   0.405   2.565  1.6759 -2.1484  0.5910
 2244SOL    HW218192   2.837   0.464   2.469 -0.9995 -0.7511  0.1203
 2245SOL     OW18193   2.151   3.796   2.222 -0.2421  0.5015  0.1745
 2245SOL    HW118194   2.142   3.745   2.302 -1.0227 -2.7993 -2.0110
 2245SOL    HW218195   2.210   3.868   2.243 -1.3558  0.5989  2.8567
 2246SOL     OW18196   4.164   3.747   7.890 -1.0654 -0.5043 -0.3448
 2246SOL    HW118197   4.153   3.820   7.951 -1.4004  0.6580 -1.7993
 2246SOL    HW218198   4.111   3.678   7.931 -2.9439  1.7211  0.9966
 2247SOL     OW18199   3.491   2.407   2.000  0.5169 -0.1849  0.2617
 2247SOL    HW118200   3.409   2.437   1.962 -0.4511  0.1172  2.5769
 2247SOL    HW218201   3.558   2.454   1.951  1.4707 -0.4580  1.2896
 2248SOL     OW18202   1.222   2.949  10.855  0.4044  0.1967  0.1226
 2248SOL    HW118203   1.249   2.950  10.947 -0.0236 -0.3439  0.2597
 2248SOL    HW218204   1.254   2.865  10.824 -0.7589  0.2976 -1.3760
 2249SOL     OW18205   2.670   3.629   2.082 -0.0257 -0.5591 -0.0891
 2249SOL    HW118206   2.737   3.603   2.145  0.4090  0.3832 -0.1613
 2249SOL    HW218207   2.700   3.586   2.002 -0.6519 -2.2093  0.5641
 2250SOL     OW18208   4.561   3.856  11.231  0.6832 -0.3969 -0.7228
 2250SOL    HW118209   4.617   3.875  11.155  2.9499 -1.1336  0.7745
 2250SOL    HW218210   4.622   3.841  11.303  0.6088  0.7580 -0.4177
 2251SOL     OW18211   4.687   2.727   4.366 -0.4001  0.0946 -0.4035
 2251SOL    HW118212   4.699   2.787   4.292 -0.2335  1.0702  0.4226
 2251SOL    HW218213   0.028   2.763   4.428 -1.6326  0.4576  0.6650
 2252SOL     OW18214   0.459   4.642   3.359 -0.3100 -0.0520  0.3076
 2252SOL    HW118215   0.434   4.675   3.445 -2.2830 -0.1170 -0.2300
 2252SOL    HW218216   0.499   4.722   3.324 -1.1201  1.0234  1.8552
 2253SOL     OW18217   4.359   3.748  10.263 -0.2061  0.1990  0.2766
 2253SOL    HW118218   4.340   3.687  10.190 -1.5795  0.8611  0.0762
 2253SOL    HW218219   4.400   3.692  10.329  2.5835  0.1843 -1.4650
 2254SOL     OW18220   2.024   1.465  16.175 -0.0121 -0.4567  0.8337
 2254SOL    HW118221   1.963   1.392  16.178 -0.0241 -0.6197 -2.8436
 2254SOL    HW218222   1.972   1.516  16.113  0.4847 -1.1904 -0.1827
 2255SOL     OW18223   1.793   1.446   4.046 -0.3504 -0.5287 -0.3980
 2255SOL    HW118224   1.741   1.453   3.966  0.8505  2.0624 -0.9492
 2255SOL    HW218225   1.867   1.396   4.012 -0.3949 -0.5492 -0.4648
 2256SOL     OW18226   0.494   0.753  15.201  0.4105  0.0638 -0.3338
 2256SOL    HW118227   0.446   0.815  15.255  0.1349  2.1855 -2.9855
 2256SOL    HW218228   0.577   0.745  15.249  0.3845 -0.5237 -0.3828
 2257SOL     OW18229   2.527   1.569   3.943 -0.0001 -0.6973 -0.5008
 2257SOL    HW118230   2.620   1.581   3.962 -0.3178  0.3102  0.3766
 2257SOL    HW218231   2.506   1.662   3.937 -0.2142 -0.8120 -1.6450
 2258SOL     OW18232   1.615   4.692   0.573  0.3649  0.3810  0.4452
 2258SOL    HW118233   1.665   0.044   0.540  0.2332  1.0441  1.7737
 2258SOL    HW218234   1.641   4.630   0.504 -0.8605 -1.1261  1.3340
 2259SOL     OW18235   3.139   2.693   5.163  0.4988 -0.3273 -0.4058
 2259SOL    HW118236   3.056   2.741   5.157  2.1917  2.6257  0.1286
 2259SOL    HW218237   3.106   2.608   5.134  2.8678 -1.9648  1.7082
 2260SOL     OW18238   4.606   1.029  11.704  0.3432 -0.0653 -0.6237
 2260SOL    HW118239   4.672   1.075  11.653 -0.2680  3.6665  1.9590
 2260SOL    HW218240   4.653   0.958  11.748  1.9407  1.5397  0.2465
 2261SOL     OW18241   4.540   1.575  11.668 -0.5014 -0.3766 -0.0400
 2261SOL    HW118242   4.507   1.627  11.594 -0.3219 -0.8495 -0.4592
 2261SOL    HW218243   4.568   1.495  11.623  3.2600  1.3420 -0.7384
 2262SOL     OW18244   1.787   1.051   5.807  0.0597 -0.2037 -0.2066
 2262SOL    HW118245   1.818   0.961   5.818  0.5644  0.1061  0.9141
 2262SOL    HW218246   1.819   1.063   5.718  2.2633 -0.1170  0.5864
 2263SOL     OW18247   3.579   1.147   0.943  0.2449 -0.7487 -0.4992
 2263SOL    HW118248   3.566   1.175   0.853  3.0689  1.3413 -0.2746
 2263SOL    HW218249   3.580   1.052   0.938  1.5156 -0.7350 -0.3691
 2264SOL     OW18250   0.469   0.068   6.975 -0.0635  0.6965 -0.6165
 2264SOL    HW118251   0.425   0.042   6.894  1.3958  2.5769 -2.0086
 2264SOL    HW218252   0.397   0.052   7.035  0.0293  0.7133 -0.5012
 2265SOL     OW18253   3.366   0.762  17.609 -0.1627  0.2284  0.0591
 2265SOL    HW118254   3.351   0.836  17.550  1.4284  1.9680  1.8227
 2265SOL    HW218255   3.417   0.797  17.681  0.0461 -1.6026  0.7926
 2266SOL     OW18256   4.705   2.096   0.097  0.1532 -0.6621  0.0448
 2266SOL    HW118257   0.041   2.171   0.107 -2.0052  0.9026  0.9022
 2266SOL    HW218258   4.644   2.146   0.043  0.7770 -1.3173 -1.2844
 2267SOL     OW18259   2.460   0.869   2.689 -0.1488 -0.1499 -0.2816
 2267SOL    HW118260   2.503   0.952   2.713 -1.7789  0.6183 -0.0361
 2267SOL    HW218261   2.533   0.809   2.673  0.3739  0.1339  0.9615
 2268SOL     OW18262   0.242   3.482   6.824 -0.1314 -0.4161 -0.1796
 2268SOL    HW118263   0.187   3.560   6.834  1.3959  0.6057  0.3129
 2268SOL    HW218264   0.201   3.452   6.743  0.0545 -0.7467 -0.1483
 2269SOL     OW18265   2.267   1.846  17.332 -0.0151  0.5249  0.7217
 2269SOL    HW118266   2.303   1.896  17.258  0.7630 -0.5406  0.3879
 2269SOL    HW218267   2.352   1.827  17.372  0.6909 -1.0400 -1.5007
 2270SOL     OW18268   0.313   2.014  15.500  0.3525 -0.6113  0.0766
 2270SOL    HW118269   0.228   2.049  15.527 -0.0111 -1.1270 -0.4289
 2270SOL    HW218270   0.370   2.055  15.566 -0.2726 -3.2543  2.2824
 2271SOL     OW18271   1.444   4.465   2.292  0.3032  0.1382  0.4265
 2271SOL    HW118272   1.431   4.469   2.387 -0.0409  3.8124  0.2524
 2271SOL    HW218273   1.502   4.541   2.285 -0.7699  0.8228 -1.1536
 2272SOL     OW18274   2.314   4.450   6.663 -0.6420  0.2834 -0.2261
 2272SOL    HW118275   2.312   4.385   6.734 -0.9984 -0.3868 -0.8545
 2272SOL    HW218276   2.403   4.432   6.633 -1.0873  0.2588 -1.5116
 2273SOL     OW18277   0.419   3.432   5.961 -0.0665  0.4276 -0.6622
 2273SOL    HW118278   0.352   3.400   6.021  1.9021  1.8345  2.2610
 2273SOL    HW218279   0.379   3.422   5.875  1.1673  0.2805 -1.2242
 2274SOL     OW18280   3.979   0.119  10.904 -0.2401  0.1382 -0.0403
 2274SOL    HW118281   3.884   0.127  10.895 -0.2024  0.2606 -0.3198
 2274SOL    HW218282   3.988   0.047  10.966 -3.8894 -1.9322 -1.8933
 2275SOL     OW18283   4.644   4.248   2.532 -0.2870  0.0266  0.3638
 2275SOL    HW118284   4.554   4.265   2.559 -0.7177 -0.9470 -0.4317
 2275SOL    HW218285   4.677   4.199   2.607 -0.3678  0.5251  0.7166
 2276SOL     OW18286   3.776   1.996   2.947  0.2327  0.1600  0.7361
 2276SOL    HW118287   3.818   1.916   2.913 -1.5101  0.1735 -1.4877
 2276SOL    HW218288   3.832   2.065   2.913  0.5648 -0.5483 -0.1866
 2277SOL     OW18289   1.765   0.190  11.275 -0.7155  0.3469 -0.1344
 2277SOL    HW118290   1.763   0.283  11.300  0.9145  1.0129 -2.5785
 2277SOL    HW218291   1.687   0.184  11.219 -1.3693  1.7512  0.6327
 2278SOL     OW18292   3.426   1.742   9.739 -0.1074  0.1926  0.4485
 2278SOL    HW118293   3.440   1.690   9.818  1.4887 -1.1482 -0.7092
 2278SOL    HW218294   3.357   1.802   9.764 -0.5702 -0.3790  0.5325
 2279SOL     OW18295   3.479   4.098   4.147 -0.4571 -0.1629 -0.2710
 2279SOL    HW118296   3.571   4.073   4.156 -0.4831  0.2730  1.1582
 2279SOL    HW218297   3.454   4.107   4.239  1.7717  0.5015  0.2571
 2280SOL     OW18298   0.032   3.996   7.143  0.0280  0.1578  0.0292
 2280SOL    HW118299   0.049   4.085   7.175  1.5336  0.1426 -0.7225
 2280SOL    HW218300   0.118   3.960   7.163 -0.7551 -0.0394  2.9490
 2281SOL     OW18301   3.900   2.180   2.815  0.8934 -0.3185  0.1317
 2281SOL    HW118302   3.813   2.217   2.797  0.6860 -1.1888 -0.6388
 2281SOL    HW218303   3.950   2.226   2.747 -0.3404 -0.1390 -0.6469
 2282SOL     OW18304   2.467   0.354  16.480  0.6398  0.0550  0.5785
 2282SOL    HW118305   2.463   0.284  16.415 -1.4652 -0.4261  1.2252
 2282SOL    HW218306   2.538   0.409  16.446 -2.0847  2.0449 -1.9778
 2283SOL     OW18307   1.802   1.037   8.477 -0.2682  0.1032  0.2018
 2283SOL    HW118308   1.753   1.112   8.446  2.8979  3.1396  2.5265
 2283SOL    HW218309   1.735   0.974   8.449 -0.6256  1.5655 -2.2178
 2284SOL     OW18310   1.737   0.749   6.233  0.1869 -0.7204  0.0175
 2284SOL    HW118311   1.768   0.754   6.142  0.3004 -2.6307 -0.0354
 2284SOL    HW218312   1.814   0.752   6.290 -0.6489  2.0438  0.9821
 2285SOL     OW18313   2.142   2.548  14.423  0.2506 -0.0140 -0.2347
 2285SOL    HW118314   2.169   2.456  14.413  0.3833  0.0866 -0.8331
 2285SOL    HW218315   2.150   2.585  14.335 -0.1714 -0.3035 -0.3964
 2286SOL     OW18316   0.540   0.393   7.248  0.5090  0.0286  0.5926
 2286SOL    HW118317   0.477   0.443   7.299  1.4381 -0.1824  1.9604
 2286SOL    HW218318   0.585   0.347   7.318 -1.0037  0.7710  2.0485
 2287SOL     OW18319   1.477   2.651   4.918 -0.3149  0.0724 -0.8980
 2287SOL    HW118320   1.386   2.643   4.890 -0.1925 -0.4738 -1.1373
 2287SOL    HW218321   1.518   2.582   4.865 -0.5411 -1.0912  0.4441
 2288SOL     OW18322   2.353   2.270   8.921  0.1995 -0.0173  0.0592
 2288SOL    HW118323   2.347   2.340   8.856 -1.6341  0.1954  0.4380
 2288SOL    HW218324   2.271   2.289   8.966 -0.8700  1.1253 -2.3707
 2289SOL     OW18325   3.751   0.081   7.223 -0.6656  0.5806  0.0322
 2289SOL    HW118326   3.690   0.007   7.221  0.5681 -0.4798  1.4003
 2289SOL    HW218327   3.800   0.063   7.143 -2.1356  0.1655 -0.7776
 2290SOL     OW18328   0.535   2.854   0.397  0.3639 -0.2252  0.1755
 2290SOL    HW118329   0.599   2.868   0.467 -0.3290  1.6655  0.4194
 2290SOL    HW218330   0.576   2.907   0.328 -0.7399  0.7895  0.3165
 2291SOL     OW18331   2.745   4.511  15.318  0.4050  0.2978  0.1228
 2291SOL    HW118332   2.753   4.418  15.298 -1.7999 -0.2993  2.0100
 2291SOL    HW218333   2.814   4.526  15.382  1.7960  2.6717 -1.9111
 2292SOL     OW18334   3.225   3.037   7.747 -0.3011 -0.8174 -0.2836
 2292SOL    HW118335   3.143   3.044   7.698 -1.3002 -2.2623  1.1992
 2292SOL    HW218336   3.198   3.024   7.838  0.8810  1.0323  0.3490
 2293SOL     OW18337   2.914   1.327   0.048  0.8936 -0.4302 -0.5432
 2293SOL    HW118338   2.965   1.246   0.049  1.5279 -0.0211  2.0277
 2293SOL    HW218339   2.973   1.396   0.076  0.0332 -0.5517  1.5739
 2294SOL     OW18340   1.958   3.059   2.931  0.1553  0.4939  0.2166
 2294SOL    HW118341   2.045   3.027   2.905 -0.9059 -1.0077 -1.4421
 2294SOL    HW218342   1.923   3.109   2.858  2.0916 -0.4932 -1.3828
 2295SOL     OW18343   1.642   1.968   8.805 -0.8566 -0.0764 -0.3916
 2295SOL    HW118344   1.576   1.917   8.852  1.6252 -1.5954  1.4929
 2295SOL    HW218345   1.680   1.898   8.752 -1.2980 -1.3731  0.9901
 2296SOL     OW18346   3.622   4.481   1.882  0.5358  0.7309  0.1594
 2296SOL    HW118347   3.669   4.497   1.963  0.2020  0.7745  0.3442
 2296SOL    HW218348   3.530   4.502   1.901  0.6606 -0.5067  2.1045
 2297SOL     OW18349   1.067   2.977   8.054  0.4797 -0.6128  0.1060
 2297SOL    HW118350   0.976   2.954   8.070 -0.5522  2.7438 -1.0296
 2297SOL    HW218351   1.065   3.060   8.005 -0.1848  1.0523  2.9473
 2298SOL     OW18352   4.312   1.800   1.622 -0.2103  0.5630 -0.4099
 2298SOL    HW118353   4.299   1.825   1.531 -1.5134 -0.3517 -0.4756
 2298SOL    HW218354   4.271   1.870   1.672 -0.6251  0.6234 -0.8338
 2299SOL     OW18355   4.715   1.560  11.115 -0.0233 -0.5469 -0.3648
 2299SOL    HW118356   4.690   1.610  11.037 -0.0326 -0.9319 -0.6047
 2299SOL    HW218357   4.695   1.469  11.093  0.1483 -0.6803  0.0251
 2300SOL     OW18358   3.088   3.404  10.264  0.0030  0.1652  0.7490
 2300SOL    HW118359   3.131   3.451  10.336  1.7644 -0.6037  0.1979
 2300SOL    HW218360   3.003   3.449  10.263  0.3174  0.7435 -0.6589
 2301SOL     OW18361   3.356   1.301   8.505  0.1223  0.3790 -0.2016
 2301SOL    HW118362   3.369   1.339   8.418 -4.1135  0.4866 -0.7784
 2301SOL    HW218363   3.333   1.209   8.491 -0.7718  0.3492  1.5561
 2302SOL     OW18364   1.124   0.923  12.157 -0.2205 -0.1678 -0.0523
 2302SOL    HW118365   1.193   0.899  12.218  0.3585  0.4033 -0.4896
 2302SOL    HW218366   1.164   1.003  12.123  0.7206 -0.3016  0.7499
 2303SOL     OW18367   2.333   0.450   1.322  0.3217  0.5258  0.4478
 2303SOL    HW118368   2.418   0.422   1.289 -0.0148 -0.2781  0.2698
 2303SOL    HW218369   2.299   0.506   1.252  1.2616 -0.0255 -0.4445
 2304SOL     OW18370   0.838   1.547   6.944  0.6878  0.2490  0.3189
 2304SOL    HW118371   0.920   1.562   6.896  0.1150  1.7216 -0.2153
 2304SOL    HW218372   0.818   1.463   6.902  2.3330  0.1718 -0.3080
 2305SOL     OW18373   3.314   1.372  16.690  0.7015 -0.5263 -0.2047
 2305SOL    HW118374   3.344   1.346  16.777 -0.9768 -1.9108 -0.0356
 2305SOL    HW218375   3.381   1.329  16.636 -1.0768 -2.5182 -0.7980
 2306SOL     OW18376   3.717   3.711   6.199 -0.2548  0.3065  0.3770
 2306SOL    HW118377   3.638   3.701   6.146 -0.5506  0.5904  0.7564
 2306SOL    HW218378   3.777   3.696   6.127 -1.0240 -1.7221  0.1504
 2307SOL     OW18379   0.385   0.967   8.552 -0.5471  0.1302 -0.0331
 2307SOL    HW118380   0.373   0.872   8.547 -1.0307  0.0815  1.8456
 2307SOL    HW218381   0.468   0.964   8.505 -0.2932  2.2827  0.2841
 2308SOL     OW18382   3.842   4.183   2.474  0.1952  0.2241 -0.3100
 2308SOL    HW118383   3.856   4.233   2.393 -0.1387 -1.2544 -1.2945
 2308SOL    HW218384   3.755   4.210   2.502 -0.4063 -1.1067 -0.8863
 2309SOL     OW18385   2.226   0.823   8.066  0.1261  0.0330  0.1969
 2309SOL    HW118386   2.197   0.899   8.015 -3.7619 -1.0600  0.7717
 2309SOL    HW218387   2.321   0.829   8.075  0.2516 -1.9770  0.1432
 2310SOL     OW18388   3.674   0.762   6.458  0.6747  0.5777 -0.0571
 2310SOL    HW118389   3.726   0.795   6.385  1.6235  0.4432  0.5697
 2310SOL    HW218390   3.730   0.747   6.534 -0.9901 -0.4332  0.9884
 2311SOL     OW18391   2.775   1.309  12.300  0.1306 -0.1962 -0.0000
 2311SOL    HW118392   2.823   1.323  12.218  0.6564 -2.5465 -0.1002
 2311SOL    HW218393   2.689   1.317  12.257 -0.5891 -0.5634  1.3798
 2312SOL     OW18394   1.094   4.528  11.364  0.2546  0.4291  0.2638
 2312SOL    HW118395   1.157   4.590  11.327  1.8664 -0.7006  1.1016
 2312SOL    HW218396   1.044   4.506  11.285  2.8844 -0.3157 -1.1877
 2313SOL     OW18397   1.722   0.430   5.246  0.2285  0.4037  0.6236
 2313SOL    HW118398   1.798   0.372   5.247 -2.4501 -3.0741  0.2093
 2313SOL    HW218399   1.672   0.380   5.310 -0.5360 -0.2706 -0.5039
 2314SOL     OW18400   2.289   1.519   7.117 -0.3048 -0.0315  0.1802
 2314SOL    HW118401   2.230   1.486   7.185  0.1578  0.4150  0.8014
 2314SOL    HW218402   2.342   1.442   7.093 -0.2267 -0.3716  1.4063
 2315SOL     OW18403   1.181   1.269   8.986  1.0083  0.0294 -0.2175
 2315SOL    HW118404   1.264   1.236   9.019  1.6132  1.2043 -0.5684
 2315SOL    HW218405   1.122   1.256   9.060  0.0664  2.3604 -0.5625
 2316SOL     OW18406   1.420   0.797   9.802  0.2836 -0.2576  0.4224
 2316SOL    HW118407   1.349   0.753   9.755 -0.1705  2.7120 -1.6132
 2316SOL    HW218408   1.395   0.889   9.791  0.0746 -0.5302 -1.2884
 2317SOL     OW18409   0.105   1.398   8.351  0.3968  0.4893 -0.4547
 2317SOL    HW118410   0.062   1.475   8.313 -0.9173 -1.4993 -2.9248
 2317SOL    HW218411   0.051   1.381   8.428  1.0396  0.9963  0.1093
 2318SOL     OW18412   1.456   1.496   7.076 -0.0421  0.7108 -0.3996
 2318SOL    HW118413   1.521   1.566   7.069  0.6749  0.0048 -0.7020
 2318SOL    HW218414   1.417   1.508   7.162 -0.1209  0.2807 -0.3777
 2319SOL     OW18415   3.801   2.864   3.431 -0.1045  0.6097  0.2772
 2319SOL    HW118416   3.778   2.778   3.394 -0.3191  1.8720 -2.5030
 2319SOL    HW218417   3.719   2.913   3.422  0.3387  1.4675  1.0139
 2320SOL     OW18418   4.414   3.967   4.773  0.1380  0.1764 -0.1650
 2320SOL    HW118419   4.503   3.978   4.740  0.6419 -1.2277  0.7518
 2320SOL    HW218420   4.416   4.015   4.856 -1.9298  0.0528 -0.0502
 2321SOL     OW18421   1.307   0.548  15.355  0.1454  0.3089  0.3135
 2321SOL    HW118422   1.273   0.605  15.287  0.2591  0.7259  0.6085
 2321SOL    HW218423   1.289   0.459  15.325  2.0981  0.2214 -0.6071
 2322SOL     OW18424   2.901   1.106   2.567  0.3245  0.4286 -0.0139
 2322SOL    HW118425   2.995   1.103   2.587  0.7643 -2.5476 -2.4970
 2322SOL    HW218426   2.897   1.129   2.475  1.3467  0.4113 -0.0678
 2323SOL     OW18427   0.881   0.615   6.322 -0.5022  0.4953  0.3461
 2323SOL    HW118428   0.934   0.693   6.303  1.0814 -1.1941 -2.0634
 2323SOL    HW218429   0.949   0.550   6.341  0.3660  1.6348  1.1483
 2324SOL     OW18430   3.363   1.378   4.413  0.3183 -0.0401 -0.7768
 2324SOL    HW118431   3.368   1.450   4.475  2.7637  0.3578 -1.4562
 2324SOL    HW218432   3.437   1.323   4.439 -0.3043  0.2201  1.5074
 2325SOL     OW18433   1.022   4.336  17.620  0.5122  0.7485 -0.4162
 2325SOL    HW118434   0.952   4.372  17.674  1.9472  0.4301  1.6415
 2325SOL    HW218435   1.086   4.406  17.632  2.0504 -0.4418 -1.8077
 2326SOL     OW18436   3.394   1.258   0.238 -0.5346 -0.6200  0.2739
 2326SOL    HW118437   3.409   1.194   0.168 -3.2621 -1.2124  0.2449
 2326SOL    HW218438   3.482   1.282   0.268 -0.4036 -1.3757  0.5104
 2327SOL     OW18439   0.437   0.203   2.807  0.0387  0.4858 -0.2541
 2327SOL    HW118440   0.351   0.245   2.815  0.0344 -0.0622  2.7030
 2327SOL    HW218441   0.410   0.117   2.775 -1.6499  1.2023 -0.7943
 2328SOL     OW18442   4.175   1.180  16.495  0.1399 -0.1703  0.5454
 2328SOL    HW118443   4.165   1.163  16.402 -0.2678  2.0473  0.1866
 2328SOL    HW218444   4.158   1.274  16.496 -0.2610 -0.2420  0.2313
 2329SOL     OW18445   3.616   3.052   2.328  0.0547 -0.2132  0.0051
 2329SOL    HW118446   3.683   3.029   2.393 -0.2494 -1.5060 -0.1230
 2329SOL    HW218447   3.551   2.985   2.350 -0.5985  0.2141 -0.6739
 2330SOL     OW18448   0.523   4.706   2.524 -0.4748  0.1037 -0.3380
 2330SOL    HW118449   0.531   4.611   2.525 -1.2565  0.0401  0.2340
 2330SOL    HW218450   0.616   0.005   2.531 -0.6557  0.2462  1.7874
 2331SOL     OW18451   2.546   0.667  10.229 -0.1791 -0.2337 -0.1509
 2331SOL    HW118452   2.556   0.606  10.156 -0.0056  0.9105 -1.0777
 2331SOL    HW218453   2.456   0.650  10.257 -0.4942 -0.6629 -1.4113
 2332SOL     OW18454   0.636   0.097   0.649  0.9662 -0.2458 -0.3853
 2332SOL    HW118455   0.662   0.154   0.576 -0.8503 -0.0084 -0.8622
 2332SOL    HW218456   0.713   0.041   0.650  0.4478 -0.9012  1.3445
 2333SOL     OW18457   4.627   2.353   1.206  0.7007  0.5409 -0.4947
 2333SOL    HW118458   4.691   2.290   1.238  0.3918 -0.3645 -1.7122
 2333SOL    HW218459   4.647   2.429   1.262  0.5467 -0.5581  1.0423
 2334SOL     OW18460   1.032   0.646   7.851  0.0983  0.2526 -0.2336
 2334SOL    HW118461   0.979   0.653   7.772 -1.4215 -0.3095  0.7272
 2334SOL    HW218462   1.026   0.728   7.900  1.7995  1.7853 -2.6275
 2335SOL     OW18463   4.277   3.989   5.431  0.4346  0.1849 -0.1566
 2335SOL    HW118464   4.299   3.920   5.369 -2.2166 -1.8008  1.1250
 2335SOL    HW218465   4.234   4.049   5.370  0.8834  2.0283  1.3246
 2336SOL     OW18466   2.809   0.805   5.075 -0.1632  0.4330 -0.3328
 2336SOL    HW118467   2.795   0.716   5.041  1.1123  0.6727 -1.4764
 2336SOL    HW218468   2.861   0.781   5.152 -0.9703 -0.8038 -0.1663
 2337SOL     OW18469   4.344   4.091   5.048 -0.3334  0.7240 -0.4271
 2337SOL    HW118470   4.253   4.103   5.074 -0.9562 -0.9775 -1.7963
 2337SOL    HW218471   4.400   4.124   5.118  0.4288 -2.4375  0.4734
 2338SOL     OW18472   0.251   0.475   6.720 -0.5660  0.2173  0.0287
 2338SOL    HW118473   0.254   0.553   6.665  1.8769 -0.6055 -1.0316
 2338SOL    HW218474   0.309   0.500   6.792  1.4361 -1.1724 -1.0731
 2339SOL     OW18475   0.901   3.499   5.950 -0.2954 -0.8313 -0.4939
 2339SOL    HW118476   0.924   3.579   5.996 -4.5049  1.3858 -2.2780
 2339SOL    HW218477   0.904   3.433   6.019  1.7871  0.9079  1.0600
 2340SOL     OW18478   0.341   1.767  11.380  0.1113 -0.6609  0.0154
 2340SOL    HW118479   0.325   1.674  11.362  1.1200 -0.4830 -1.8659
 2340SOL    HW218480   0.279   1.809  11.321 -1.5179  1.4969  3.2931
 2341SOL     OW18481   3.872   3.483   1.413  0.6972 -0.4364  0.0900
 2341SOL    HW118482   3.873   3.506   1.320  3.0352  1.1044  0.5020
 2341SOL    HW218483   3.942   3.538   1.448 -0.9099  1.7213 -0.0555
 2342SOL     OW18484   2.244   4.640   3.234  0.3400 -0.1936  0.4676
 2342SOL    HW118485   2.180   4.680   3.293 -0.0670  1.3285 -1.0240
 2342SOL    HW218486   2.311   4.614   3.296  1.5537  1.3604 -0.1970
 2343SOL     OW18487   0.496   0.153   6.071  0.3112 -0.1509 -0.3123
 2343SOL    HW118488   0.490   0.066   6.033  0.8902  0.9521 -2.9546
 2343SOL    HW218489   0.507   0.129   6.162  0.3610 -0.7088 -0.4664
 2344SOL     OW18490   2.189   1.701   9.231 -0.3252 -0.1347 -0.0937
 2344SOL    HW118491   2.147   1.704   9.145  1.2128 -1.4386 -0.8965
 2344SOL    HW218492   2.122   1.694   9.299 -1.6224 -1.2845 -1.4831
 2345SOL     OW18493   4.143   3.468   7.166  0.4312 -0.0576  0.5619
 2345SOL    HW118494   4.207   3.537   7.150 -0.8331  1.2886  1.3026
 2345SOL    HW218495   4.205   3.400   7.192  0.1946 -0.6865 -0.5365
 2346SOL     OW18496   2.487   0.103  17.024 -0.0249 -0.0328  0.0801
 2346SOL    HW118497   2.448   0.040  16.964  1.4718 -0.9239  0.0429
 2346SOL    HW218498   2.503   0.176  16.965  1.4862 -0.0681  0.4617
 2347SOL     OW18499   1.673   2.056   3.201 -0.8738  0.0524  0.6427
 2347SOL    HW118500   1.701   2.143   3.229 -1.1397  0.4177 -0.2384
 2347SOL    HW218501   1.743   2.043   3.137 -2.1029  0.1968 -0.7181
 2348SOL     OW18502   0.264   3.201   3.513 -0.1794 -0.3276  0.0237
 2348SOL    HW118503   0.171   3.185   3.500 -0.3543  1.0854 -0.4934
 2348SOL    HW218504   0.265   3.292   3.545  0.7149 -0.9033  1.6208
 2349SOL     OW18505   2.807   2.396  11.535 -0.3965 -0.5564  0.2351
 2349SOL    HW118506   2.826   2.334  11.464  2.7108 -0.6648  1.1366
 2349SOL    HW218507   2.841   2.473  11.488 -0.3973 -1.0900 -0.6345
 2350SOL     OW18508   2.609   3.828   2.903  0.3276  0.0721  0.4663
 2350SOL    HW118509   2.533   3.882   2.920  0.2070  1.2867 -3.9583
 2350SOL    HW218510   2.674   3.895   2.883  0.5343 -0.5034 -0.7876
 2351SOL     OW18511   1.808   3.875  12.487  0.4241  0.2538 -0.0692
 2351SOL    HW118512   1.803   3.864  12.392 -2.6274 -3.2922  0.4606
 2351SOL    HW218513   1.723   3.918  12.498  0.0885 -1.6776  5.0139
 2352SOL     OW18514   2.447   2.846  11.775  0.0683 -0.6944 -0.0780
 2352SOL    HW118515   2.355   2.864  11.752  0.2931  1.4682  0.7022
 2352SOL    HW218516   2.438   2.752  11.763 -0.5381 -0.4868 -1.2925
 2353SOL     OW18517   3.029   3.404  13.646  0.4211 -0.5741  0.0900
 2353SOL    HW118518   2.982   3.478  13.609  0.1322 -0.9048 -0.2118
 2353SOL    HW218519   3.116   3.444  13.648  0.1590  0.0143 -0.4109
 2354SOL     OW18520   2.289   4.235   8.541 -0.4166 -0.2391 -0.4128
 2354SOL    HW118521   2.318   4.144   8.547 -0.4133 -0.2255 -0.2225
 2354SOL    HW218522   2.196   4.228   8.521 -0.2690 -3.3297  0.0483
 2355SOL     OW18523   2.884   0.451   0.771  0.0299 -0.3514  0.1288
 2355SOL    HW118524   2.876   0.376   0.713 -0.0292 -0.7863  0.7049
 2355SOL    HW218525   2.802   0.499   0.758 -0.1119 -0.2248  1.4609
 2356SOL     OW18526   0.338   4.115   7.907  0.1430  0.1107  0.0095
 2356SOL    HW118527   0.404   4.086   7.969 -1.3756 -1.7289  0.7702
 2356SOL    HW218528   0.304   4.182   7.966 -0.1183  0.4841 -0.5598
 2357SOL     OW18529   4.299   0.006  11.081  0.1579 -0.0810 -0.2784
 2357SOL    HW118530   4.377   0.004  11.136  0.2218 -0.6029 -0.3884
 2357SOL    HW218531   4.322   4.660  11.018 -1.4232  0.4063 -1.3751
 2358SOL     OW18532   1.884   0.843   7.075  0.6083 -0.6419 -0.4852
 2358SOL    HW118533   1.941   0.785   7.127 -0.6866 -1.0511  0.5013
 2358SOL    HW218534   1.797   0.822   7.110  0.6930 -1.0379 -0.5100
 2359SOL     OW18535   0.896   1.836   7.586 -0.6294  0.2384 -0.5920
 2359SOL    HW118536   0.820   1.805   7.537 -1.7767  1.4263  0.4507
 2359SOL    HW218537   0.848   1.868   7.662 -0.6287  0.0667 -0.5176
 2360SOL     OW18538   2.106   3.378   9.033  0.2170 -0.1291  0.7796
 2360SOL    HW118539   2.082   3.425   9.113 -1.4313  0.0580  0.1733
 2360SOL    HW218540   2.054   3.424   8.966 -0.3418 -2.6235 -0.4924
 2361SOL     OW18541   4.451   3.229   7.419  0.1787 -0.1952  0.0310
 2361SOL    HW118542   4.528   3.280   7.445  0.2514 -0.5875  0.5697
 2361SOL    HW218543   4.490   3.142   7.416  1.1908  0.2124  1.5450
 2362SOL     OW18544   4.644   4.205   8.864 -0.0116  0.1359 -0.1726
 2362SOL    HW118545   4.620   4.219   8.956  0.2768 -0.1874 -0.0488
 2362SOL    HW218546   4.559   4.222   8.823 -0.5382 -2.4037 -0.1225
 2363SOL     OW18547   1.239   4.501   6.040  0.4295  0.2805  0.2819
 2363SOL    HW118548   1.180   4.575   6.023 -0.1777 -0.1515  0.5470
 2363SOL    HW218549   1.182   4.425   6.033  1.4113 -0.5277  1.2197
 2364SOL     OW18550   4.112   4.402   9.541  0.1314  0.0304  0.0363
 2364SOL    HW118551   4.147   4.490   9.558  1.3357 -0.7093  1.4591
 2364SOL    HW218552   4.145   4.370   9.457  1.3635 -1.3872  1.0553
 2365SOL     OW18553   0.595   0.362  14.240 -0.4628  0.7892  0.2399
 2365SOL    HW118554   0.651   0.407  14.176 -0.2752  0.4299  0.1506
 2365SOL    HW218555   0.520   0.421  14.245 -1.3197 -0.2797 -0.0872
 2366SOL     OW18556   3.434   0.934   2.097  0.1488  0.0361 -0.4306
 2366SOL    HW118557   3.442   0.864   2.033  0.1087  0.8645 -1.3470
 2366SOL    HW218558   3.497   0.999   2.065  1.0681  0.5443  2.3491
 2367SOL     OW18559   3.757   0.094   3.103  0.3331  0.5272 -0.2807
 2367SOL    HW118560   3.736   0.043   3.181 -1.5893  3.3710  1.0630
 2367SOL    HW218561   3.669   0.119   3.075  0.5382  1.4111 -0.1374
 2368SOL     OW18562   0.102   0.927   7.128 -0.3207 -0.4061  0.4099
 2368SOL    HW118563   0.120   1.006   7.078 -0.6650 -1.3911 -1.2912
 2368SOL    HW218564   0.026   0.965   7.170 -1.2146 -0.1253 -1.4402
 2369SOL     OW18565   2.259   3.227  15.247 -0.2806  0.1875 -0.1764
 2369SOL    HW118566   2.279   3.134  15.243  2.8383  0.8775 -0.4193
 2369SOL    HW218567   2.184   3.228  15.188 -1.1282  1.0373  0.9197
 2370SOL     OW18568   3.424   1.668  14.881  0.3088  0.2907 -0.2773
 2370SOL    HW118569   3.337   1.674  14.920  0.6773  2.9361  0.1230
 2370SOL    HW218570   3.463   1.615  14.950  1.1192 -1.3345 -1.9776
 2371SOL     OW18571   2.659   4.046   6.098 -0.4654 -0.4211  0.5400
 2371SOL    HW118572   2.578   4.053   6.149 -1.8359 -0.5433 -1.5973
 2371SOL    HW218573   2.635   3.984   6.029 -0.0633  1.9816 -1.7564
 2372SOL     OW18574   2.379   4.633   6.948  0.1543  0.4677 -0.0091
 2372SOL    HW118575   2.390   4.697   6.878 -0.0069 -0.5895 -0.9991
 2372SOL    HW218576   2.338   4.687   7.017  0.2144  0.2742  0.1775
 2373SOL     OW18577   2.131   2.391  14.698  0.3679  0.5865  0.3589
 2373SOL    HW118578   2.094   2.445  14.768  1.8224  1.7661  0.2180
 2373SOL    HW218579   2.175   2.461  14.650  1.7385 -0.9457 -0.6058
 2374SOL     OW18580   0.803   4.144   5.497  0.6397  0.2669  0.3519
 2374SOL    HW118581   0.723   4.145   5.550  0.4955  0.9163  0.1190
 2374SOL    HW218582   0.855   4.212   5.541  1.5935 -0.2550  0.0223
 2375SOL     OW18583   2.029   4.376   1.732  0.3181  0.6813  0.1679
 2375SOL    HW118584   2.027   4.303   1.793 -0.1352  0.7577  0.2434
 2375SOL    HW218585   2.013   4.337   1.646  0.0562  0.0360  0.5086
 2376SOL     OW18586   4.009   2.914  13.598 -0.1932  0.3590 -0.2431
 2376SOL    HW118587   3.918   2.910  13.627 -0.2460  0.6941 -0.3729
 2376SOL    HW218588   4.039   2.823  13.588 -2.0870 -0.1491 -1.2983
 2377SOL     OW18589   0.904   2.436   3.827 -0.6128 -0.3762 -0.4790
 2377SOL    HW118590   0.990   2.430   3.868  0.8027  2.0906 -3.0865
 2377SOL    HW218591   0.901   2.358   3.772 -1.2933 -1.4929  1.1411
 2378SOL     OW18592   3.475   2.979   5.250  0.6839  0.3197 -0.0177
 2378SOL    HW118593   3.547   3.025   5.293  1.5406 -0.2808 -0.8174
 2378SOL    HW218594   3.399   3.009   5.301  1.3376 -0.4328  1.4159
 2379SOL     OW18595   0.704   0.788  14.449 -0.6943  0.4396  0.2262
 2379SOL    HW118596   0.691   0.826  14.361  1.3016  0.1334 -0.1999
 2379SOL    HW218597   0.743   0.861  14.497  1.4542 -0.5312 -0.0440
 2380SOL     OW18598   4.138   1.789   7.900  0.4900  0.4074 -0.3384
 2380SOL    HW118599   4.150   1.695   7.915  1.1663  0.4774 -0.4244
 2380SOL    HW218600   4.221   1.824   7.933 -1.3038  4.2440  0.1051
 2381SOL     OW18601   4.551   0.884   3.523  0.0346  0.0956 -0.1755
 2381SOL    HW118602   4.620   0.871   3.588  0.2041 -2.5938 -0.9001
 2381SOL    HW218603   4.474   0.838   3.556 -0.1060  0.3085 -0.2082
 2382SOL     OW18604   1.143   3.875   0.728 -0.3311 -0.1941 -0.2291
 2382SOL    HW118605   1.098   3.937   0.785  2.7039  2.6161 -0.9121
 2382SOL    HW218606   1.234   3.906   0.727 -0.4306  0.1467  1.3559
 2383SOL     OW18607   0.079   1.520   0.957  0.0690  0.1467 -0.1381
 2383SOL    HW118608   0.089   1.569   1.039  3.1817 -1.2676  0.3286
 2383SOL    HW218609   0.011   1.458   0.982  0.3627 -0.9059 -1.9353
 2384SOL     OW18610   0.047   0.048   1.927 -0.1087  0.3520 -0.5749
 2384SOL    HW118611   0.128   0.005   1.900  0.4397  1.0262  0.0270
 2384SOL    HW218612   0.072   0.140   1.920 -0.7617  0.4940 -1.0751
 2385SOL     OW18613   2.197   3.175   2.714  0.1299 -0.5595 -0.2580
 2385SOL    HW118614   2.271   3.217   2.669  0.9189  1.6120  3.1098
 2385SOL    HW218615   2.143   3.157   2.637  0.6725  2.2553 -1.2879
 2386SOL     OW18616   0.798   2.861   8.058  0.3198  0.4871  0.7178
 2386SOL    HW118617   0.716   2.813   8.053  1.5673 -1.5185 -0.5321
 2386SOL    HW218618   0.779   2.893   8.146 -3.2166  1.7029 -0.4777
 2387SOL     OW18619   3.490   3.224   3.087  0.3853 -0.3496 -0.3456
 2387SOL    HW118620   3.460   3.285   3.154  1.5606 -0.8041  0.5827
 2387SOL    HW218621   3.575   3.198   3.121 -0.1574  0.1179  1.3447
 2388SOL     OW18622   4.184   1.697   2.731 -0.0636  0.0377  0.0860
 2388SOL    HW118623   4.204   1.617   2.683 -0.3308 -1.2390  2.1426
 2388SOL    HW218624   4.259   1.703   2.790 -0.0828 -0.5122  0.1604
 2389SOL     OW18625   2.039   1.613   6.311 -0.1508 -0.5903  0.9138
 2389SOL    HW118626   2.067   1.533   6.267  1.1459  0.9637 -1.1135
 2389SOL    HW218627   2.076   1.602   6.398 -2.1857 -1.8535  1.6221
 2390SOL     OW18628   0.461   4.576   0.316  0.2863  0.5030 -0.1583
 2390SOL    HW118629   0.420   4.580   0.229  0.3039  1.0120 -0.1459
 2390SOL    HW218630   0.551   4.552   0.297  0.2218  0.8843 -0.9508
 2391SOL     OW18631   1.790   2.572   4.781  0.0804 -0.7700  0.6392
 2391SOL    HW118632   1.705   2.608   4.757  0.2907 -2.0308 -1.9660
 2391SOL    HW218633   1.819   2.646   4.835 -2.7482  1.5899 -1.0980
 2392SOL     OW18634   2.896   4.224   6.032  0.1740  0.0173 -0.0346
 2392SOL    HW118635   2.825   4.284   6.056  0.9077  0.7484  0.3042
 2392SOL    HW218636   2.850   4.197   5.952 -1.0492  0.9208  0.3684
 2393SOL     OW18637   2.214   0.052   5.835 -0.3916 -0.8352  0.0084
 2393SOL    HW118638   2.171   0.088   5.913 -0.2678 -1.1650  0.2321
 2393SOL    HW218639   2.145   0.056   5.770  1.7090 -0.1915 -2.1792
 2394SOL     OW18640   1.800   3.602   6.398 -0.0659  0.1520  0.4869
 2394SOL    HW118641   1.729   3.641   6.449  0.2376 -0.0268  1.0462
 2394SOL    HW218642   1.859   3.572   6.468 -0.9080  0.0042  1.1361
 2395SOL     OW18643   0.052   0.032  15.093  0.3182 -0.2778  0.1136
 2395SOL    HW118644   0.084   0.053  15.005  3.5585 -2.5753  0.7501
 2395SOL    HW218645   0.033   0.123  15.115  0.9958 -0.1552  0.1884
 2396SOL     OW18646   3.441   2.788  15.626 -0.1595  0.2096  0.5457
 2396SOL    HW118647   3.393   2.761  15.548 -0.7959 -0.1469  1.0681
 2396SOL    HW218648   3.528   2.808  15.590 -0.9433  1.3729 -0.7336
 2397SOL     OW18649   1.583   0.647   3.632  0.7304 -0.0043  0.1719
 2397SOL    HW118650   1.597   0.741   3.626  2.4852 -0.3930 -1.6030
 2397SOL    HW218651   1.646   0.623   3.565  2.3505  2.1909  0.8972
 2398SOL     OW18652   2.748   4.019   8.389 -0.7225  0.2243  0.0834
 2398SOL    HW118653   2.704   4.103   8.381  0.4864  0.7538 -0.9452
 2398SOL    HW218654   2.776   4.024   8.481 -1.9748  0.8633  0.4340
 2399SOL     OW18655   0.943   1.519   6.581  0.2655  0.0793 -0.0322
 2399SOL    HW118656   0.861   1.567   6.592  0.5712  0.5291  0.2674
 2399SOL    HW218657   0.952   1.524   6.486  0.2123  0.9053  0.0052
 2400SOL     OW18658   0.999   4.686   7.441 -0.2773  0.1400 -0.0806
 2400SOL    HW118659   0.907   4.663   7.448 -0.1665 -0.5540 -0.9888
 2400SOL    HW218660   1.039   4.616   7.491 -0.1554  0.6062  0.4773
 2401SOL     OW18661   0.518   1.537   1.708  0.2886  0.2098 -0.3586
 2401SOL    HW118662   0.559   1.561   1.791  2.0823 -0.2187 -1.1023
 2401SOL    HW218663   0.580   1.472   1.675 -0.2545 -1.8843  2.7080
 2402SOL     OW18664   2.712   2.330   4.342  0.0687 -0.1954  0.1908
 2402SOL    HW118665   2.733   2.423   4.348 -0.1925 -0.2757  2.2296
 2402SOL    HW218666   2.636   2.320   4.399 -0.5489  0.6361 -0.4760
 2403SOL     OW18667   3.393   0.662   5.563  0.4124  0.0011  0.1834
 2403SOL    HW118668   3.363   0.713   5.638 -0.3797 -0.1902 -0.0011
 2403SOL    HW218669   3.349   0.577   5.573 -1.8903  1.0553 -0.9948
 2404SOL     OW18670   2.564   2.139  14.882 -0.1290 -0.1254  0.1422
 2404SOL    HW118671   2.565   2.206  14.950  0.7915 -0.4129  0.4104
 2404SOL    HW218672   2.611   2.183  14.810  1.7723  0.0480  1.4873
 2405SOL     OW18673   4.565   0.316   7.625  0.3067  1.3273  0.6606
 2405SOL    HW118674   4.552   0.393   7.680  0.6412  2.0939 -0.3348
 2405SOL    HW218675   4.606   0.253   7.685  2.1531  1.3718 -0.5666
 2406SOL     OW18676   3.278   4.169   3.753  0.5805  0.7913  0.7869
 2406SOL    HW118677   3.279   4.203   3.664  0.9807  3.0631  1.6427
 2406SOL    HW218678   3.232   4.085   3.749 -0.3451  1.3276  0.2535
 2407SOL     OW18679   2.898   1.655   7.018 -0.1120 -0.2621  0.3101
 2407SOL    HW118680   2.815   1.676   7.060  0.6696  0.6367  1.4157
 2407SOL    HW218681   2.938   1.589   7.076  1.5611  1.1910  0.7952
 2408SOL     OW18682   3.414   1.216   4.904 -0.2296  0.1242 -0.4680
 2408SOL    HW118683   3.362   1.279   4.953  0.0805 -0.7427  0.9683
 2408SOL    HW218684   3.384   1.231   4.814 -0.7535  0.0611 -0.3007
 2409SOL     OW18685   1.748   0.579   2.185  0.0534  0.0659  0.1741
 2409SOL    HW118686   1.807   0.504   2.189  0.9341  0.6886 -0.9365
 2409SOL    HW218687   1.789   0.643   2.127 -0.9594 -2.6992 -3.6133
 2410SOL     OW18688   2.795   4.677   4.344  0.1254 -0.0935  0.0869
 2410SOL    HW118689   2.871   4.619   4.346 -1.6198 -2.2559  2.1074
 2410SOL    HW218690   2.730   4.627   4.392  0.1679 -0.3704 -0.1471
 2411SOL     OW18691   1.119   0.454   8.221  0.1213 -0.3951 -0.4019
 2411SOL    HW118692   1.143   0.427   8.132  0.7236  0.6169 -0.5493
 2411SOL    HW218693   1.040   0.502   8.193 -0.3860 -0.2795  1.2329
 2412SOL     OW18694   4.034   0.943   7.367  0.3405 -0.3931 -0.0381
 2412SOL    HW118695   4.088   0.864   7.361  1.7537  0.6342 -0.9905
 2412SOL    HW218696   3.987   0.937   7.284 -2.6231  1.8099  1.5241
 2413SOL     OW18697   3.155   0.346   0.817  0.2839 -0.0066  0.2853
 2413SOL    HW118698   3.087   0.413   0.817 -0.6342 -0.9413 -0.6363
 2413SOL    HW218699   3.102   0.266   0.816 -2.3625  1.7754 -1.9372
 2414SOL     OW18700   0.314   3.588   9.004  0.3015  0.0630  0.0761
 2414SOL    HW118701   0.387   3.622   9.055 -0.3240  2.0990 -0.3649
 2414SOL    HW218702   0.298   3.504   9.047  0.9689 -0.4004 -0.5864
 2415SOL     OW18703   2.860   3.867   4.409  0.1837  0.6534  0.7436
 2415SOL    HW118704   2.787   3.904   4.458 -0.1048  2.8005 -1.2880
 2415SOL    HW218705   2.897   3.807   4.473  1.0846 -0.0524 -0.4293
 2416SOL     OW18706   0.933   2.463   3.358 -0.2832  0.0958  0.4655
 2416SOL    HW118707   0.914   2.519   3.283 -1.1908  0.1134  0.7112
 2416SOL    HW218708   0.848   2.463   3.402 -1.7093  0.1126 -2.3002
 2417SOL     OW18709   4.087   1.981   3.932 -0.5132 -0.5913  0.1449
 2417SOL    HW118710   4.180   1.977   3.955 -1.0236  2.6865  2.7381
 2417SOL    HW218711   4.081   1.894   3.893 -0.4657 -0.4445 -0.1964
 2418SOL     OW18712   3.928   4.339   6.091  0.2610 -0.6772 -0.3883
 2418SOL    HW118713   3.866   4.267   6.104 -0.4299  0.2899  1.5753
 2418SOL    HW218714   3.960   4.352   6.180 -0.3668  0.8787 -0.3950
 2419SOL     OW18715   4.589   2.462  13.588  0.2377 -0.3043 -0.3898
 2419SOL    HW118716   4.658   2.420  13.536  0.6941 -0.3200  0.2354
 2419SOL    HW218717   4.523   2.477  13.520  0.4753 -0.5370 -0.6741
 2420SOL     OW18718   2.604   0.728   8.465  0.3390  0.0006  0.5205
 2420SOL    HW118719   2.546   0.759   8.396 -0.9905 -1.4321  0.9899
 2420SOL    HW218720   2.688   0.753   8.428  0.0894  1.1057  0.7149
 2421SOL     OW18721   4.401   0.956   2.750 -0.0808  0.3766  0.2095
 2421SOL    HW118722   4.379   1.048   2.735 -0.1192 -0.0122 -2.2143
 2421SOL    HW218723   4.330   0.925   2.806  0.7061 -0.0931  0.9445
 2422SOL     OW18724   0.127   2.362   6.923 -0.8528  0.2807  0.5128
 2422SOL    HW118725   0.143   2.342   7.015  0.5629 -1.0724 -0.0380
 2422SOL    HW218726   0.033   2.379   6.915 -0.6584  0.8916 -0.4748
 2423SOL     OW18727   2.128   4.675   2.763 -0.9241  0.2677  0.6380
 2423SOL    HW118728   2.184   0.009   2.816  1.5183  1.4710 -3.2285
 2423SOL    HW218729   2.064   4.653   2.831 -1.2503  0.3176  0.3505
 2424SOL     OW18730   1.685   4.126   8.132 -0.3257 -0.4119  0.1176
 2424SOL    HW118731   1.648   4.107   8.046  2.3784  2.1887 -1.6355
 2424SOL    HW218732   1.658   4.216   8.152  0.2573 -0.1015 -0.4902
 2425SOL     OW18733   4.718   4.689   8.879 -0.0856  0.2807  0.6436
 2425SOL    HW118734   0.010   0.061   8.877 -0.3630  0.3209  0.5486
 2425SOL    HW218735   4.651   4.681   8.947 -0.6099 -2.2568 -0.1658
 2426SOL     OW18736   2.019   0.688  15.551 -0.0389 -0.0182  0.4154
 2426SOL    HW118737   1.991   0.672  15.641  0.3775 -1.2630  0.3245
 2426SOL    HW218738   2.114   0.687  15.560  0.3693  0.0608 -3.7482
 2427SOL     OW18739   3.299   3.489   4.956  0.0804 -0.1314  0.5904
 2427SOL    HW118740   3.285   3.397   4.979 -1.2475  0.4255  1.9760
 2427SOL    HW218741   3.342   3.532   5.030  1.3127  0.9932 -0.7764
 2428SOL     OW18742   0.950   1.702  12.500  0.2360  0.1771 -0.2736
 2428SOL    HW118743   0.939   1.712  12.405  1.1644  0.5501 -0.3442
 2428SOL    HW218744   1.036   1.743  12.511  0.6107 -0.3185 -1.3288
 2429SOL     OW18745   1.530   2.427   5.941 -0.6058  0.1966 -1.1960
 2429SOL    HW118746   1.530   2.522   5.932 -0.9693  0.5476  2.6758
 2429SOL    HW218747   1.484   2.405   6.022  0.5750  1.3012 -0.2323
 2430SOL     OW18748   4.550   0.738   3.766  0.4217 -0.3522 -0.0488
 2430SOL    HW118749   4.592   0.749   3.851  0.1757  0.9130 -0.0897
 2430SOL    HW218750   4.604   0.670   3.725 -0.8837 -0.9690 -0.7457
 2431SOL     OW18751   0.087   2.292  17.421  0.0390  0.4585 -0.0144
 2431SOL    HW118752   0.029   2.226  17.382 -0.3950  0.4267  0.6698
 2431SOL    HW218753   0.053   2.367  17.372 -0.5314 -1.3398 -2.3583
 2432SOL     OW18754   0.070   3.394   4.655  0.3574 -0.5159  0.6427
 2432SOL    HW118755   0.023   3.475   4.676 -2.3561 -1.9805  0.1608
 2432SOL    HW218756   0.100   3.405   4.565 -1.5281  0.6120  0.1546
 2433SOL     OW18757   2.530   2.595  16.904 -0.0582 -0.6980  0.3563
 2433SOL    HW118758   2.445   2.622  16.869  1.0962  1.9756 -0.3733
 2433SOL    HW218759   2.571   2.677  16.929 -0.7788  0.3159 -1.8261
 2434SOL     OW18760   2.104   2.906   4.140 -0.1177  0.3275  0.3499
 2434SOL    HW118761   2.088   2.816   4.169  1.2943 -0.9815 -2.9566
 2434SOL    HW218762   2.055   2.959   4.203 -0.5565  1.5539 -1.0323
 2435SOL     OW18763   2.788   2.166   0.418 -0.0524  1.0209 -0.2704
 2435SOL    HW118764   2.762   2.177   0.510 -0.4563 -1.0642 -0.1517
 2435SOL    HW218765   2.699   2.170   0.383  0.5778 -0.1780 -1.9525
 2436SOL     OW18766   1.741   3.200   7.104 -0.1475  0.3032 -0.0160
 2436SOL    HW118767   1.718   3.107   7.114 -2.8338  0.6374 -3.1690
 2436SOL    HW218768   1.833   3.197   7.076  0.4107  1.9816  1.6734
 2437SOL     OW18769   3.013   4.455   3.342  0.2182 -0.2551  0.0503
 2437SOL    HW118770   2.965   4.466   3.260 -0.9546  1.9287  1.0365
 2437SOL    HW218771   3.002   4.364   3.370  1.3245 -0.9480 -1.6991
 2438SOL     OW18772   0.546   2.474  13.861 -0.4230 -0.1833 -0.9329
 2438SOL    HW118773   0.630   2.510  13.831  1.0292 -1.1264  1.9945
 2438SOL    HW218774   0.485   2.500  13.792 -0.8368 -1.6306 -1.0981
 2439SOL     OW18775   1.667   4.499   2.680 -0.4900 -0.3286 -0.6154
 2439SOL    HW118776   1.680   4.594   2.681 -2.2845 -0.1000  0.1127
 2439SOL    HW218777   1.689   4.473   2.590  0.6770 -1.2335 -0.0703
 2440SOL     OW18778   1.867   1.185  13.479  0.2142 -0.2682  0.3041
 2440SOL    HW118779   1.939   1.155  13.423  0.0628 -1.5520  0.7766
 2440SOL    HW218780   1.788   1.135  13.458  1.1136 -1.8856  0.7121
 2441SOL     OW18781   1.004   1.728  11.375  0.4995 -0.1157  0.3489
 2441SOL    HW118782   1.078   1.705  11.432  1.1105  2.2270  0.4910
 2441SOL    HW218783   0.935   1.679  11.419  0.4315  0.3151  0.7239
 2442SOL     OW18784   0.635   1.940   4.018 -0.4583  0.1220  0.7082
 2442SOL    HW118785   0.549   1.905   3.998 -0.4787  0.9115 -0.6177
 2442SOL    HW218786   0.622   2.020   4.070 -1.5550 -2.5494  4.5383
 2443SOL     OW18787   4.595   3.790   8.527 -0.7075  0.2872 -0.5913
 2443SOL    HW118788   4.616   3.882   8.511  0.5104  0.0585 -0.3023
 2443SOL    HW218789   4.642   3.750   8.453  0.6575 -1.0890  1.0156
 2444SOL     OW18790   1.352   2.859   0.195  0.2685 -0.3482 -0.5431
 2444SOL    HW118791   1.309   2.888   0.114 -2.3813  0.0877  1.0236
 2444SOL    HW218792   1.315   2.771   0.203  0.9692 -0.5571  0.3977
 2445SOL     OW18793   4.676   1.703  11.872  0.4869 -0.7220  0.8835
 2445SOL    HW118794   4.624   1.727  11.949 -0.1144  1.9660 -0.3587
 2445SOL    HW218795   4.612   1.670  11.810  0.2292 -0.3698  0.9654
 2446SOL     OW18796   1.434   1.976   3.667  0.3932  0.9992  0.4960
 2446SOL    HW118797   1.482   1.992   3.748 -0.5770  0.7482  1.1269
 2446SOL    HW218798   1.486   1.900   3.643 -1.5500  0.3816 -1.7214
 2447SOL     OW18799   2.279   3.448   0.361  0.0514  0.2974  0.2802
 2447SOL    HW118800   2.315   3.425   0.275 -0.6181 -0.3749  0.1759
 2447SOL    HW218801   2.205   3.507   0.345  0.3908  0.1258 -1.9634
 2448SOL     OW18802   0.683   3.042   0.257 -0.0011  0.1838 -0.4944
 2448SOL    HW118803   0.758   2.985   0.238  0.4019  0.4524  0.3284
 2448SOL    HW218804   0.719   3.103   0.320 -0.9892  2.1167 -1.7909
 2449SOL     OW18805   3.408   0.062   6.312  0.0649 -0.3119 -0.1294
 2449SOL    HW118806   3.385   4.702   6.270  0.5342 -0.4767 -0.0587
 2449SOL    HW218807   3.500   0.067   6.287  0.1441 -0.7626  0.0799
 2450SOL     OW18808   1.262   4.686  15.364  0.1472 -0.2059  0.4719
 2450SOL    HW118809   1.239   0.052  15.337  2.1006  0.4242  0.8955
 2450SOL    HW218810   1.238   4.637  15.285  0.9653 -0.5360  0.4209
 2451SOL     OW18811   2.106   2.360   7.806 -0.2651  0.5748  0.1988
 2451SOL    HW118812   2.140   2.272   7.786 -1.3802 -0.1905  1.6343
 2451SOL    HW218813   2.015   2.343   7.828 -0.2181  1.8796  1.3441
 2452SOL     OW18814   0.261   3.229   5.050  0.1540 -0.2377  0.5182
 2452SOL    HW118815   0.250   3.260   4.961 -0.0613 -0.6783  0.3887
 2452SOL    HW218816   0.172   3.203   5.076 -1.6650  2.3559 -3.2130
 2453SOL     OW18817   3.471   0.956   3.730  0.0686 -0.5720  0.0834
 2453SOL    HW118818   3.557   0.915   3.716 -0.2397 -0.9719 -0.6049
 2453SOL    HW218819   3.493   1.046   3.754  0.3193 -0.0752 -2.0447
 2454SOL     OW18820   4.613   2.354   0.918 -0.2026  0.4215  0.2454
 2454SOL    HW118821   4.582   2.264   0.906  0.4389  0.2824 -0.3128
 2454SOL    HW218822   4.632   2.365   1.012 -0.1575 -0.0211  0.2863
 2455SOL     OW18823   0.055   3.854   3.452  0.1317 -0.3621 -0.2649
 2455SOL    HW118824   0.002   3.917   3.501 -2.2245 -0.7013 -2.3883
 2455SOL    HW218825   0.035   3.765   3.480 -1.7687  1.1302  3.1201
 2456SOL     OW18826   2.439   1.201   4.549 -0.1112  0.4807  0.6953
 2456SOL    HW118827   2.452   1.120   4.598 -2.1570  0.0390  0.4825
 2456SOL    HW218828   2.379   1.172   4.481 -2.2586  1.5525  2.1321
 2457SOL     OW18829   4.631   2.261   5.240  0.0093  0.3146 -0.1700
 2457SOL    HW118830   4.579   2.339   5.221 -0.0170  0.0814 -1.0450
 2457SOL    HW218831   4.618   2.208   5.162  2.1048  1.1543 -1.0997
 2458SOL     OW18832   3.214   0.417   6.205  0.5389  0.1103  0.2579
 2458SOL    HW118833   3.272   0.395   6.278  0.6038 -0.9383 -0.1227
 2458SOL    HW218834   3.158   0.340   6.217  1.4142 -0.4821  0.5315
 2459SOL     OW18835   3.583   3.772   7.554  0.2997 -0.3837 -0.1897
 2459SOL    HW118836   3.631   3.693   7.530  0.1017 -0.0152 -1.7722
 2459SOL    HW218837   3.614   3.782   7.644  3.2413  1.1960 -1.3971
 2460SOL     OW18838   0.899   3.643  13.030  0.5168  0.7516  0.3249
 2460SOL    HW118839   0.976   3.629  12.975 -0.7144 -0.2050 -1.1480
 2460SOL    HW218840   0.825   3.596  12.992  2.1322 -1.2130 -0.3519
 2461SOL     OW18841   1.412   3.833   7.986  0.1722  0.3430  0.1978
 2461SOL    HW118842   1.397   3.915   7.939 -0.6143  0.1353  0.0913
 2461SOL    HW218843   1.504   3.814   7.969 -0.1480 -0.1003 -1.0031
 2462SOL     OW18844   2.613   1.842  10.683 -0.2399  0.2243 -0.6382
 2462SOL    HW118845   2.702   1.812  10.700 -0.0089 -0.1686 -2.5208
 2462SOL    HW218846   2.568   1.760  10.702  1.8126 -0.4401  1.3693
 2463SOL     OW18847   0.103   1.463   7.667 -0.2294  0.2360 -0.3526
 2463SOL    HW118848   0.198   1.467   7.663 -0.3041  1.8042 -0.6262
 2463SOL    HW218849   0.086   1.506   7.751  1.3683  0.7933 -0.3115
 2464SOL     OW18850   1.403   2.388  10.786 -0.2767 -0.6179 -0.5076
 2464SOL    HW118851   1.448   2.451  10.843 -0.5303  0.6163 -1.6712
 2464SOL    HW218852   1.467   2.318  10.797  0.1807 -0.2781 -0.9933
 2465SOL     OW18853   1.660   2.868   8.243  0.4556  0.2879 -0.4018
 2465SOL    HW118854   1.741   2.900   8.284 -0.3870  1.7861  0.0925
 2465SOL    HW218855   1.654   2.913   8.159  0.2470  0.3555 -0.3520
 2466SOL     OW18856   4.385   3.137   2.492  0.3073  0.2253 -0.7796
 2466SOL    HW118857   4.474   3.100   2.494  0.9329  1.9392  2.5168
 2466SOL    HW218858   4.397   3.198   2.419  0.0054 -0.7970 -1.6928
 2467SOL     OW18859   0.969   1.846   5.208 -0.8941  0.6338  0.5731
 2467SOL    HW118860   0.950   1.773   5.267 -1.6807  0.6854  0.3853
 2467SOL    HW218861   1.063   1.856   5.227 -1.0443 -0.2551  1.8075
 2468SOL     OW18862   4.327   3.115   5.395  0.4800  0.3702 -0.2211
 2468SOL    HW118863   4.361   3.167   5.468  1.1550 -0.0869 -0.2075
 2468SOL    HW218864   4.351   3.170   5.320 -0.8332  0.6652 -0.4154
 2469SOL     OW18865   4.145   2.069   2.963 -0.5359  0.0700 -0.4051
 2469SOL    HW118866   4.061   2.106   2.934  0.2941  1.1165 -1.5107
 2469SOL    HW218867   4.182   2.143   3.011  0.1138  0.5578 -1.6554
 2470SOL     OW18868   4.066   0.066   4.636 -0.1803  0.0451 -0.2384
 2470SOL    HW118869   4.005   0.140   4.630 -0.7315 -0.2360  1.9449
 2470SOL    HW218870   4.011   0.002   4.681  0.1554  0.1912  0.3781
 2471SOL     OW18871   3.344   1.605   6.094 -0.1759 -0.1166  1.2449
 2471SOL    HW118872   3.431   1.641   6.080 -0.1564 -0.5082  0.3469
 2471SOL    HW218873   3.294   1.645   6.023 -1.4273  0.4655  2.4480
 2472SOL     OW18874   0.527   1.307  10.406  0.1134 -0.1875  0.2681
 2472SOL    HW118875   0.565   1.307  10.318  1.8803  0.3409  1.0302
 2472SOL    HW218876   0.524   1.398  10.436 -2.1269  0.0932 -0.8207
 2473SOL     OW18877   2.508   2.722   2.228  0.0975  0.3893  0.6592
 2473SOL    HW118878   2.439   2.706   2.164  1.4455  3.2088 -1.5253
 2473SOL    HW218879   2.463   2.778   2.291 -1.1598 -1.8885  1.8003
 2474SOL     OW18880   3.717   0.740   1.171  0.0045 -0.6723 -0.9808
 2474SOL    HW118881   3.803   0.768   1.138 -0.0432  2.6471  1.6909
 2474SOL    HW218882   3.723   0.647   1.192  0.2847 -0.5589 -0.5485
 2475SOL     OW18883   2.411   3.727   7.641  0.0652 -0.2942 -0.2752
 2475SOL    HW118884   2.465   3.779   7.700 -0.9900  0.8889 -0.3573
 2475SOL    HW218885   2.434   3.752   7.551  1.1662 -0.0289  0.0813
 2476SOL     OW18886   1.689   2.985   0.387  0.0298 -0.8318  0.5514
 2476SOL    HW118887   1.616   2.931   0.419  1.1129 -0.7895  3.0857
 2476SOL    HW218888   1.731   2.930   0.321  1.7252  1.0894  0.0274
 2477SOL     OW18889   4.312   4.098  10.852 -0.0512  0.3232  0.0966
 2477SOL    HW118890   4.252   4.143  10.793  0.8027  2.2759  0.6941
 2477SOL    HW218891   4.285   4.149  10.929 -0.6279  0.6066 -0.2974
 2478SOL     OW18892   4.204   4.657   9.538  0.7159  0.2068  0.3295
 2478SOL    HW118893   4.235   4.686   9.451 -1.4448 -1.5067 -1.0039
 2478SOL    HW218894   4.198   0.012   9.594  0.7522  0.3923  0.0774
 2479SOL     OW18895   0.270   0.398   1.320  0.1484 -0.3271 -0.4449
 2479SOL    HW118896   0.249   0.448   1.241 -0.3909  1.5234  0.8930
 2479SOL    HW218897   0.302   0.463   1.382  1.1628 -1.2255 -0.0212
 2480SOL     OW18898   3.411   2.017   4.522  0.0433  0.8136  0.0850
 2480SOL    HW118899   3.425   2.034   4.429  1.3112  0.6368  0.2375
 2480SOL    HW218900   3.369   1.931   4.517 -0.1875  0.8079  1.7879
 2481SOL     OW18901   1.529   1.044  16.311  0.1348 -0.2875 -0.0772
 2481SOL    HW118902   1.504   1.135  16.324 -0.3155 -0.3263 -0.6304
 2481SOL    HW218903   1.624   1.050  16.311  0.2365 -1.7806  0.5074
 2482SOL     OW18904   2.090   0.843  11.966  0.3276  0.5071 -0.0639
 2482SOL    HW118905   2.069   0.931  11.997  0.1929  0.0015  1.2469
 2482SOL    HW218906   2.012   0.791  11.981  0.4945 -0.4230 -2.2989
 2483SOL     OW18907   1.998   1.013   3.703  0.2156  0.0609  0.4145
 2483SOL    HW118908   1.913   1.036   3.665  0.7691 -0.1702 -0.9666
 2483SOL    HW218909   2.058   1.065   3.649 -0.4837 -0.4962 -0.8922
 2484SOL     OW18910   3.423   3.267   2.474  0.2003 -0.5061 -0.5289
 2484SOL    HW118911   3.433   3.243   2.382 -1.5671 -0.7332 -0.6738
 2484SOL    HW218912   3.483   3.207   2.519 -0.9376 -1.1527  0.1358
 2485SOL     OW18913   4.003   4.472   1.817 -0.0763 -0.0656  0.1840
 2485SOL    HW118914   4.024   4.383   1.792  1.9959  0.0530  1.5222
 2485SOL    HW218915   3.919   4.490   1.773  0.0403 -0.0099 -0.0151
 2486SOL     OW18916   3.364   0.833   6.856 -0.2356 -0.5854  0.8776
 2486SOL    HW118917   3.388   0.798   6.942  1.0492 -0.9357  0.3771
 2486SOL    HW218918   3.354   0.752   6.805 -1.9751 -0.3855  0.8776
 2487SOL     OW18919   2.025   1.315   5.742 -0.0707  0.1145 -0.0210
 2487SOL    HW118920   2.086   1.377   5.702 -2.2488  1.1497 -1.7244
 2487SOL    HW218921   1.939   1.355   5.736 -0.8328 -1.5400 -0.0266
 2488SOL     OW18922   2.947   2.694  13.789  0.1760 -0.0818  0.9147
 2488SOL    HW118923   2.876   2.635  13.765  0.4843 -0.5541  1.1582
 2488SOL    HW218924   2.960   2.753  13.715 -0.8725  0.9967  1.6103
 2489SOL     OW18925   2.666   0.983   8.105 -0.3164  0.4740 -0.3238
 2489SOL    HW118926   2.748   0.989   8.153 -1.2583 -0.3182  1.3974
 2489SOL    HW218927   2.679   0.905   8.052 -4.3787 -0.8343  0.5601
 2490SOL     OW18928   4.660   2.311   4.702  0.5904 -0.5678 -0.0247
 2490SOL    HW118929   4.676   2.396   4.661 -1.7191  0.9440  2.2259
 2490SOL    HW218930   4.702   2.245   4.647  2.2719 -0.3506  1.0081
 2491SOL     OW18931   1.857   2.794   4.938 -0.1009 -0.0057  0.0311
 2491SOL    HW118932   1.812   2.855   4.997  2.0105 -1.9631  3.6734
 2491SOL    HW218933   1.931   2.840   4.898  1.4700 -0.7294  2.0800
 2492SOL     OW18934   3.554   1.531   2.860  0.9013  0.4203 -0.1805
 2492SOL    HW118935   3.580   1.608   2.809  0.0278  0.1008 -1.0962
 2492SOL    HW218936   3.627   1.501   2.914 -0.1701 -0.7333  0.6158
 2493SOL     OW18937   4.529   1.959   8.819  0.0930 -0.4500 -0.7432
 2493SOL    HW118938   4.537   2.005   8.902 -1.5904 -0.4127 -0.6184
 2493SOL    HW218939   4.438   1.974   8.797  0.4653  3.4053  0.4465
 2494SOL     OW18940   4.689   2.133  10.264 -0.3565 -0.0243  0.6478
 2494SOL    HW118941   4.622   2.072  10.295 -0.0656 -1.5091 -1.6349
 2494SOL    HW218942   0.016   2.079  10.201 -2.4999 -0.1589 -0.9261
 2495SOL     OW18943   1.269   1.565   3.780 -0.2822  0.2616  1.1465
 2495SOL    HW118944   1.191   1.555   3.834 -1.9409 -1.4848 -1.5384
 2495SOL    HW218945   1.332   1.508   3.824 -0.0845  0.2445  0.8435
 2496SOL     OW18946   4.337   2.054   9.296 -0.0211 -0.9177 -0.2415
 2496SOL    HW118947   4.375   2.012   9.219 -0.9041 -2.7916  0.3353
 2496SOL    HW218948   4.299   1.973   9.331  0.7020 -1.0145  0.3145
 2497SOL     OW18949   3.559   0.942  10.903 -0.7287  0.0671 -0.3752
 2497SOL    HW118950   3.570   1.036  10.888 -1.1714  0.1952  0.1069
 2497SOL    HW218951   3.649   0.922  10.926 -0.1165  0.2718 -2.5540
 2498SOL     OW18952   0.378   2.341  17.035  0.6575 -0.4634 -0.0634
 2498SOL    HW118953   0.345   2.431  17.033  1.9329 -0.0059  0.0055
 2498SOL    HW218954   0.447   2.351  16.970  1.0378 -1.4726  0.1856
 2499SOL     OW18955   4.530   1.817   6.259 -0.0486  0.2133  0.2850
 2499SOL    HW118956   4.620   1.818   6.228  0.8671 -3.2729  2.8274
 2499SOL    HW218957   4.511   1.910   6.247  1.3842  0.5207  0.4149
 2500SOL     OW18958   0.291   4.654   2.313 -0.0090  0.2296 -0.0255
 2500SOL    HW118959   0.246   4.704   2.381 -1.5802 -0.6076 -0.4505
 2500SOL    HW218960   0.313   0.003   2.253  0.3339 -0.7015 -1.0060
 2501SOL     OW18961   4.472   3.804   6.280  0.4347 -0.2926 -1.0025
 2501SOL    HW118962   4.447   3.895   6.264  0.5108  0.0732  0.9073
 2501SOL    HW218963   4.546   3.824   6.337 -0.4182  1.9227 -0.6351
 2502SOL     OW18964   0.054   1.328   3.449  0.4138  0.3742 -0.0048
 2502SOL    HW118965   4.687   1.301   3.465  0.4855 -1.4788 -2.6016
 2502SOL    HW218966   0.080   1.302   3.360  1.3590 -0.6540  0.5742
 2503SOL     OW18967   4.617   1.772  12.248 -0.7344 -0.5072 -0.3773
 2503SOL    HW118968   4.576   1.713  12.185 -0.6318 -0.1487 -0.7744
 2503SOL    HW218969   4.555   1.844  12.245  0.5714  0.6253 -0.3129
 2504SOL     OW18970   3.275   2.952  15.422 -0.3235 -0.3720 -0.5445
 2504SOL    HW118971   3.244   3.031  15.376  0.2027  0.8363  1.1555
 2504SOL    HW218972   3.256   2.992  15.507  0.1821 -1.0338 -0.1239
 2505SOL     OW18973   4.322   4.679   5.129 -0.6311 -0.0137 -0.2277
 2505SOL    HW118974   4.321   0.040   5.082  0.7013 -0.8391 -1.7200
 2505SOL    HW218975   4.415   4.660   5.143 -0.6229 -0.8988 -1.6183
 2506SOL     OW18976   3.062   0.117   0.420 -0.0865  0.7841  0.3073
 2506SOL    HW118977   3.097   0.206   0.413 -0.9434  1.0371 -0.8136
 2506SOL    HW218978   3.129   0.074   0.472 -0.9903 -1.5164 -0.4150
 2507SOL     OW18979   3.554   2.976  10.794 -0.5875  0.2231 -0.4540
 2507SOL    HW118980   3.593   2.897  10.833  1.1155  0.5181 -1.5257
 2507SOL    HW218981   3.609   3.032  10.848  0.2554 -0.6024 -0.4423
 2508SOL     OW18982   2.594   1.481  16.489 -0.0074 -0.2585  0.5775
 2508SOL    HW118983   2.551   1.530  16.419 -1.2172 -1.6241  0.3575
 2508SOL    HW218984   2.681   1.467  16.452 -0.0283  0.4858  0.2510
 2509SOL     OW18985   1.136   0.804  16.177  0.6210  0.7034 -0.1361
 2509SOL    HW118986   1.098   0.761  16.254  3.1413 -4.1993 -1.6498
 2509SOL    HW218987   1.145   0.728  16.120  1.1246 -2.2052  3.8350
 2510SOL     OW18988   3.259   1.199   9.432 -0.0439  0.2629 -0.3256
 2510SOL    HW118989   3.244   1.124   9.374 -0.5386  0.8516 -0.9703
 2510SOL    HW218990   3.219   1.184   9.518  0.9891  0.4946  0.1905
 2511SOL     OW18991   1.663   0.177   2.615  0.0159  0.6719 -0.0562
 2511SOL    HW118992   1.594   0.125   2.575 -0.2452  0.6768  0.3843
 2511SOL    HW218993   1.745   0.155   2.571  0.2608  0.2892  0.5861
 2512SOL     OW18994   2.896   1.260  11.816  0.6028 -0.5583  0.0795
 2512SOL    HW118995   2.897   1.243  11.722 -0.0862  2.7650 -0.5241
 2512SOL    HW218996   2.992   1.260  11.819  0.4999 -1.0647  2.8892
 2513SOL     OW18997   4.301   2.601   4.225 -0.1872 -0.2205 -0.2483
 2513SOL    HW118998   4.345   2.557   4.298  0.7302 -0.1971 -0.7956
 2513SOL    HW218999   4.330   2.551   4.149  0.0892 -2.4357  1.3260
 2514SOL     OW19000   3.249   1.014   3.558  0.1775  0.1539  0.4018
 2514SOL    HW119001   3.337   0.991   3.589  0.0024 -0.8550  0.1458
 2514SOL    HW219002   3.251   1.109   3.567  1.3573  0.0006  1.7950
 2515SOL     OW19003   0.445   3.596   4.660 -0.1832 -0.0611 -0.0280
 2515SOL    HW119004   0.376   3.580   4.595  0.6170 -0.1706 -0.8611
 2515SOL    HW219005   0.525   3.565   4.618  0.5288  2.8861 -0.8652
 2516SOL     OW19006   4.422   4.416   0.335  0.0645  0.6451 -0.1468
 2516SOL    HW119007   4.486   4.486   0.344 -0.5969  1.5822 -2.7100
 2516SOL    HW219008   4.414   4.397   0.428  0.7148 -0.9140 -0.4021
 2517SOL     OW19009   1.737   2.440   5.042 -0.7695  0.9416 -0.1240
 2517SOL    HW119010   1.793   2.408   5.113  0.9582  2.4614 -0.7635
 2517SOL    HW219011   1.799   2.473   4.975 -3.4044  0.5700 -2.7343
 2518SOL     OW19012   1.032   4.223   4.401  0.2787  0.9039  1.0800
 2518SOL    HW119013   1.088   4.147   4.384  0.4921  1.0192  1.2592
 2518SOL    HW219014   0.944   4.187   4.390  0.0506  1.2644  1.7307
 2519SOL     OW19015   0.014   4.264  17.584  0.0978 -0.5798  0.5917
 2519SOL    HW119016   4.662   4.276  17.524  1.1596  0.3557 -0.5352
 2519SOL    HW219017   4.696   4.196  17.638 -0.0222 -1.5000 -0.6518
 2520SOL     OW19018   2.774   2.322   8.248  0.0614  0.1016 -0.4181
 2520SOL    HW119019   2.684   2.333   8.277  0.0419  0.4724 -0.6151
 2520SOL    HW219020   2.813   2.266   8.316 -0.4173  0.2249 -0.0422
 2521SOL     OW19021   1.274   2.194   3.662 -0.7108 -0.0035  0.0855
 2521SOL    HW119022   1.208   2.135   3.624 -0.5824  0.0635 -0.2435
 2521SOL    HW219023   1.347   2.134   3.672 -0.6526 -0.0888 -0.8354
 2522SOL     OW19024   4.297   2.042  16.607 -0.7713  0.5284 -0.0767
 2522SOL    HW119025   4.304   2.123  16.556 -2.4184 -0.3002 -1.6307
 2522SOL    HW219026   4.314   1.984  16.534 -2.2502  0.9905 -0.7861
 2523SOL     OW19027   3.700   2.662   3.230  0.0606 -0.0738 -0.4998
 2523SOL    HW119028   3.668   2.573   3.219  1.0290 -0.4354 -0.3489
 2523SOL    HW219029   3.792   2.636   3.229  0.3423  0.9108 -0.4323
 2524SOL     OW19030   1.297   3.127   3.725  0.3032 -0.0995  0.1863
 2524SOL    HW119031   1.281   3.196   3.789  1.7705  3.0116 -2.8039
 2524SOL    HW219032   1.206   3.099   3.713  0.6386 -0.5197 -1.4790
 2525SOL     OW19033   2.444   3.682   3.058 -0.6405  0.1076 -0.5037
 2525SOL    HW119034   2.503   3.726   2.997 -0.9090  1.1727  0.0204
 2525SOL    HW219035   2.375   3.746   3.043  0.2203  0.6955 -1.9393
 2526SOL     OW19036   2.057   0.214   4.714  0.1586 -0.6176 -0.0577
 2526SOL    HW119037   1.995   0.188   4.781  1.5933 -2.8746  0.3861
 2526SOL    HW219038   2.143   0.199   4.754  0.3638 -1.8154 -0.9399
 2527SOL     OW19039   4.429   0.650   2.743  0.0827 -0.0108 -0.1270
 2527SOL    HW119040   4.417   0.685   2.655 -0.9148  1.7843  0.7037
 2527SOL    HW219041   4.452   0.730   2.790  3.1498 -0.6558 -0.5356
 2528SOL     OW19042   0.814   0.372   6.808 -0.0060  0.0552 -0.4575
 2528SOL    HW119043   0.719   0.365   6.799 -0.1367  1.7336 -0.4189
 2528SOL    HW219044   0.840   0.389   6.717 -0.8685 -1.8377 -1.0629
 2529SOL     OW19045   1.403   2.860   8.592 -0.3145 -0.3431 -0.0002
 2529SOL    HW119046   1.417   2.918   8.667  0.3175 -2.0941  1.2306
 2529SOL    HW219047   1.410   2.917   8.515  0.0309  0.3600  0.5474
 2530SOL     OW19048   1.805   1.033  16.358 -0.1244  0.3889  0.1205
 2530SOL    HW119049   1.842   0.945  16.355 -1.2040 -0.2085  4.0088
 2530SOL    HW219050   1.820   1.062  16.448  3.0271 -0.6413 -0.0632
 2531SOL     OW19051   1.789   3.699   9.512 -0.2969  0.1418  0.4934
 2531SOL    HW119052   1.785   3.793   9.490  1.7545 -0.0104 -0.5328
 2531SOL    HW219053   1.776   3.659   9.426 -0.3816  0.5814  0.3007
 2532SOL     OW19054   2.935   4.253   9.412 -0.1817  0.4314 -0.5949
 2532SOL    HW119055   2.962   4.345   9.412 -1.3240  0.7682 -1.6262
 2532SOL    HW219056   2.880   4.252   9.491 -0.9199  4.3959 -1.0902
 2533SOL     OW19057   3.298   1.776   6.933  0.6984 -0.0729 -0.6064
 2533SOL    HW119058   3.254   1.811   6.855 -0.8322  3.2834  1.7376
 2533SOL    HW219059   3.373   1.743   6.884 -0.6042  0.1873 -2.7779
 2534SOL     OW19060   2.762   2.446   5.177 -0.4127  0.3476 -0.0617
 2534SOL    HW119061   2.689   2.460   5.116 -1.0196  1.9090  1.0127
 2534SOL    HW219062   2.745   2.519   5.236  4.4909  0.6101  0.9670
 2535SOL     OW19063   2.019   3.765   7.221  0.5015 -0.1696 -0.2803
 2535SOL    HW119064   1.991   3.800   7.136  0.8269 -0.0636 -0.3428
 2535SOL    HW219065   1.961   3.689   7.227  0.5705 -0.2202 -0.2517
 2536SOL     OW19066   2.353   3.499  11.397 -0.0732 -0.5990 -0.2850
 2536SOL    HW119067   2.409   3.562  11.443  1.4351 -0.6093 -2.0927
 2536SOL    HW219068   2.269   3.506  11.443 -1.0639 -1.0860 -2.0057
 2537SOL     OW19069   3.989   1.842   0.783 -0.4828  0.3998 -0.0428
 2537SOL    HW119070   3.980   1.784   0.858  0.8619  0.2348  0.0026
 2537SOL    HW219071   3.915   1.830   0.723  0.3416 -2.3775 -0.5041
 2538SOL     OW19072   0.717   2.894   3.225 -0.4425  0.8874 -0.4581
 2538SOL    HW119073   0.762   2.814   3.249 -2.2309 -0.0368 -0.1914
 2538SOL    HW219074   0.641   2.851   3.184  0.1347  1.0347 -1.6946
 2539SOL     OW19075   4.344   2.846   5.498  0.2438 -0.5333  0.5168
 2539SOL    HW119076   4.364   2.938   5.517 -0.3697 -0.1896 -0.4768
 2539SOL    HW219077   4.371   2.837   5.406  0.3439  0.6426  0.4365
 2540SOL     OW19078   0.748   2.362  16.350 -0.2565  0.7163  0.7579
 2540SOL    HW119079   0.680   2.384  16.415 -2.3995  1.2729 -1.6855
 2540SOL    HW219080   0.709   2.398  16.271  0.3822 -1.0390 -0.3560
 2541SOL     OW19081   3.206   2.160   3.388 -0.2746  0.5544  0.5893
 2541SOL    HW119082   3.214   2.256   3.390 -0.2649  0.5902 -1.0547
 2541SOL    HW219083   3.147   2.156   3.313 -1.2083  0.8733  1.3082
 2542SOL     OW19084   2.808   0.854   4.677  0.2456 -0.0073  0.1301
 2542SOL    HW119085   2.879   0.844   4.740  0.8240 -1.0308 -0.6914
 2542SOL    HW219086   2.751   0.786   4.712  1.4161 -0.8108  0.4704
 2543SOL     OW19087   2.578   2.516   3.056  0.0413  0.4186  0.1430
 2543SOL    HW119088   2.530   2.560   2.986 -2.1967 -0.3518  1.2116
 2543SOL    HW219089   2.631   2.453   3.006  0.1600 -0.6534  1.6336
 2544SOL     OW19090   0.693   1.197  16.008  0.0977 -0.3193 -0.1385
 2544SOL    HW119091   0.614   1.181  15.956  1.0985  0.4563 -1.8979
 2544SOL    HW219092   0.669   1.274  16.060  2.5446 -0.0588  0.5903
 2545SOL     OW19093   1.378   1.590   7.731 -0.0622 -0.0677 -0.4455
 2545SOL    HW119094   1.347   1.546   7.811 -0.9523 -2.5824 -2.1943
 2545SOL    HW219095   1.337   1.673   7.753  0.4362  0.1391 -0.2810
 2546SOL     OW19096   0.154   3.512   7.672  0.0601 -0.5310  0.2235
 2546SOL    HW119097   0.084   3.571   7.645  0.0563  0.2850  1.9850
 2546SOL    HW219098   0.216   3.573   7.712 -0.4972 -0.7372  1.4225
 2547SOL     OW19099   4.076   1.058  10.582  0.2544 -0.5496 -0.5930
 2547SOL    HW119100   4.100   0.976  10.538 -0.2783 -0.6179 -0.7539
 2547SOL    HW219101   3.995   1.031  10.625  0.2852  0.1253 -0.1086
 2548SOL     OW19102   0.726   1.356  15.235 -0.4596  0.6265 -0.3301
 2548SOL    HW119103   0.746   1.450  15.234  2.1815  0.0862  3.4430
 2548SOL    HW219104   0.781   1.327  15.308  0.4144 -0.0446 -1.2546
 2549SOL     OW19105   2.035   1.947   7.365  0.2407  0.1434 -0.4265
 2549SOL    HW119106   2.007   1.908   7.282 -0.1546 -0.6882  0.1131
 2549SOL    HW219107   2.115   1.898   7.383 -0.6722 -0.9130  0.6922
 2550SOL     OW19108   0.589   3.225   3.576 -0.1308 -0.2222 -0.3233
 2550SOL    HW119109   0.514   3.179   3.539 -0.4918 -1.1608  1.6049
 2550SOL    HW219110   0.664   3.201   3.521  0.1842 -0.8606  0.3982
 2551SOL     OW19111   2.517   0.243   5.191 -0.0431  0.2291 -0.1461
 2551SOL    HW119112   2.579   0.305   5.231  1.7486 -0.0831 -2.4611
 2551SOL    HW219113   2.569   0.166   5.211  0.0819 -0.0422 -1.5088
 2552SOL     OW19114   2.317   3.246   2.099 -0.1952 -0.2808  0.3833
 2552SOL    HW119115   2.284   3.265   2.187  0.7052  1.1412  0.4051
 2552SOL    HW219116   2.353   3.333   2.085  1.1503 -0.6253  1.7609
 2553SOL     OW19117   1.139   1.243  10.179 -0.1725  0.2340 -0.1966
 2553SOL    HW119118   1.176   1.218  10.264 -0.2700  1.1844  0.1195
 2553SOL    HW219119   1.213   1.244  10.118  1.2033 -1.6955  1.3995
 2554SOL     OW19120   0.199   1.599  11.847 -0.5873 -0.1120 -0.5916
 2554SOL    HW119121   0.220   1.559  11.931  0.1033 -0.5931 -0.9852
 2554SOL    HW219122   0.116   1.644  11.861  0.0064  1.1030 -0.9722
 2555SOL     OW19123   4.448   1.519  16.027  0.2047  0.5190 -0.7131
 2555SOL    HW119124   4.446   1.612  16.006 -0.3016  0.8133  0.6641
 2555SOL    HW219125   4.460   1.524  16.122 -0.3442  2.8016 -0.7629
 2556SOL     OW19126   0.751   3.677  15.107 -0.1654 -0.6578 -0.3683
 2556SOL    HW119127   0.804   3.700  15.183  2.4811 -0.2356 -2.3604
 2556SOL    HW219128   0.810   3.636  15.044  0.5742  2.3965 -1.6464
 2557SOL     OW19129   4.475   4.211   7.675  0.0146  0.2890 -0.5120
 2557SOL    HW119130   4.407   4.243   7.616 -0.5972 -1.0445 -0.5192
 2557SOL    HW219131   4.484   4.289   7.729 -0.8268  0.4695 -0.6462
 2558SOL     OW19132   3.881   3.735  14.470  0.0270 -0.0708  0.4093
 2558SOL    HW119133   3.884   3.830  14.456  1.4002 -0.0899  0.5995
 2558SOL    HW219134   3.968   3.723  14.507  0.1850 -0.1660  0.0064
 2559SOL     OW19135   0.347   2.244  17.331 -0.4664  0.5197 -0.6446
 2559SOL    HW119136   0.265   2.283  17.360  0.7981  0.9605  2.2772
 2559SOL    HW219137   0.351   2.273  17.239 -0.1297  1.0777 -0.4562
 2560SOL     OW19138   2.949   0.837   0.112  0.5965 -0.2289  0.2634
 2560SOL    HW119139   2.936   0.902   0.182  0.0161  0.5197 -0.5396
 2560SOL    HW219140   3.033   0.802   0.143 -0.1688 -2.7969 -0.6079
 2561SOL     OW19141   4.408   1.748   3.773 -0.0798 -0.1362 -0.1738
 2561SOL    HW119142   4.343   1.692   3.731 -1.1087  0.2540  0.8971
 2561SOL    HW219143   4.351   1.792   3.836 -0.1919  1.0350 -1.1087
 2562SOL     OW19144   2.386   2.034   6.532 -0.0549 -0.1574  0.0684
 2562SOL    HW119145   2.307   2.031   6.586 -1.1720  1.0379 -1.5040
 2562SOL    HW219146   2.400   2.128   6.532 -0.3220 -0.1176  0.0731
 2563SOL     OW19147   3.495   3.181  15.956  0.1819  0.1788 -0.0452
 2563SOL    HW119148   3.460   3.092  15.945  0.7817  0.1326 -1.6312
 2563SOL    HW219149   3.461   3.208  16.041 -0.4744  0.9637 -0.5620
 2564SOL     OW19150   1.389   3.121   2.832 -0.1003  0.3744 -0.3654
 2564SOL    HW119151   1.295   3.130   2.844 -0.2588 -0.5166 -0.9005
 2564SOL    HW219152   1.426   3.204   2.861 -1.6330  1.0158 -0.2958
 2565SOL     OW19153   4.694   4.020   4.177 -0.1061 -0.8843  0.6857
 2565SOL    HW119154   4.710   3.979   4.262 -0.9914 -1.8883  0.3739
 2565SOL    HW219155   0.039   3.978   4.124  0.9870  0.6931  0.8431
 2566SOL     OW19156   3.459   1.357   3.408  0.3630 -0.2869  0.0661
 2566SOL    HW119157   3.536   1.304   3.425 -1.5758 -2.9629  0.4328
 2566SOL    HW219158   3.500   1.425   3.355  0.6504  0.0230  0.6862
 2567SOL     OW19159   4.547   3.011   7.756 -0.2267 -0.6990 -0.0157
 2567SOL    HW119160   4.595   3.093   7.752 -0.2360 -0.6488  0.9891
 2567SOL    HW219161   4.511   3.018   7.844 -1.3728 -0.8360 -0.4728
 2568SOL     OW19162   1.609   0.995   4.189 -0.4292 -0.9056 -0.0085
 2568SOL    HW119163   1.587   0.951   4.107  1.2612 -2.2566  0.2510
 2568SOL    HW219164   1.702   1.012   4.172 -0.4518 -0.2799  0.5006
 2569SOL     OW19165   1.024   2.529   7.239 -0.2264  0.5780  0.0956
 2569SOL    HW119166   0.992   2.612   7.203 -1.4638 -0.1345 -0.4514
 2569SOL    HW219167   1.085   2.510   7.168 -0.5368  1.0582 -0.2976
 2570SOL     OW19168   0.327   4.523  15.175 -0.2500 -0.0219 -0.1571
 2570SOL    HW119169   0.267   4.497  15.244  0.1796  1.2328  0.6971
 2570SOL    HW219170   0.375   4.441  15.163 -0.8467 -0.6054  1.6150
 2571SOL     OW19171   3.017   3.492   4.172  0.6547  0.0189  0.2228
 2571SOL    HW119172   3.044   3.401   4.162  0.0226 -0.2779  1.2539
 2571SOL    HW219173   2.988   3.490   4.263  2.5483 -0.9851  0.8215
 2572SOL     OW19174   2.912   2.911   6.186  0.2869  0.3611 -0.0211
 2572SOL    HW119175   2.826   2.879   6.213  0.9321 -0.4171  1.1054
 2572SOL    HW219176   2.902   3.006   6.181  2.1806  0.4353 -2.4274
 2573SOL     OW19177   2.639   3.942  11.628 -0.3199  0.3005 -0.0139
 2573SOL    HW119178   2.553   3.914  11.659  0.3620 -0.6755  1.0075
 2573SOL    HW219179   2.611   3.997  11.555  0.1400 -0.9044 -1.1055
 2574SOL     OW19180   2.240   1.844   1.577 -0.5436 -0.0767  0.2058
 2574SOL    HW119181   2.327   1.843   1.539 -1.3248 -0.4559 -1.5559
 2574SOL    HW219182   2.200   1.918   1.533 -1.4883 -0.2115  0.8304
 2575SOL     OW19183   3.483   3.703   7.038  0.0696 -0.3147 -0.0444
 2575SOL    HW119184   3.524   3.790   7.041 -2.3058  0.8287 -0.0353
 2575SOL    HW219185   3.484   3.682   7.131 -1.9460  2.5008  0.6344
 2576SOL     OW19186   1.991   1.192   4.829  0.5595 -0.3809 -0.0522
 2576SOL    HW119187   2.030   1.272   4.795 -0.2557  0.8058  1.8019
 2576SOL    HW219188   2.066   1.146   4.867  0.0376 -0.0341  1.4315
 2577SOL     OW19189   0.439   2.386   8.374 -0.2500  1.0941  0.0632
 2577SOL    HW119190   0.404   2.306   8.413 -1.7299 -0.5879 -4.7326
 2577SOL    HW219191   0.476   2.429   8.451  0.5464  0.9627 -0.2449
 2578SOL     OW19192   1.174   4.022   2.991 -0.0090  0.6725 -0.0273
 2578SOL    HW119193   1.092   4.023   3.041 -0.6963  1.0109 -1.1657
 2578SOL    HW219194   1.160   3.940   2.943  0.7057  0.0681  0.8113
 2579SOL     OW19195   4.246   0.679   3.907 -0.6219  0.1752 -0.0931
 2579SOL    HW119196   4.313   0.615   3.881  0.0440  0.0099  2.0503
 2579SOL    HW219197   4.225   0.655   3.997  1.7908 -1.3833  0.0744
 2580SOL     OW19198   4.108   4.219   8.875  0.1469  0.3594  0.3337
 2580SOL    HW119199   4.035   4.182   8.925  0.1565  0.9306  0.7617
 2580SOL    HW219200   4.136   4.299   8.918 -0.4187  1.0913 -0.6711
 2581SOL     OW19201   3.286   2.628   9.467 -0.0883  0.2178  0.0183
 2581SOL    HW119202   3.361   2.621   9.408  0.1225 -2.6811  0.6549
 2581SOL    HW219203   3.210   2.608   9.412  0.1918  2.4530 -1.2150
 2582SOL     OW19204   3.571   2.019  11.803 -0.1809  0.2314  0.1401
 2582SOL    HW119205   3.575   2.010  11.898  1.7070 -0.2771  0.0286
 2582SOL    HW219206   3.604   1.931  11.784 -1.2103 -0.1303  0.0567
 2583SOL     OW19207   3.687   0.299   8.053  0.4315 -0.7761  0.4134
 2583SOL    HW119208   3.696   0.226   7.993 -2.0371 -2.0975  1.6751
 2583SOL    HW219209   3.779   0.316   8.073  0.3699  0.1428 -0.0874
 2584SOL     OW19210   3.874   1.377  16.310 -0.2124 -0.0846  0.1681
 2584SOL    HW119211   3.916   1.442  16.254 -2.0453  1.0544  0.1053
 2584SOL    HW219212   3.934   1.377  16.384 -0.2874  2.8623  0.2363
 2585SOL     OW19213   4.704   1.032  17.250  0.0496 -0.2582  0.5896
 2585SOL    HW119214   0.003   1.118  17.214  1.1579 -0.3606  0.9878
 2585SOL    HW219215   0.042   1.037  17.324  0.5591 -4.9397  0.5063
 2586SOL     OW19216   3.360   2.991   6.990  0.0408 -0.5379 -0.2370
 2586SOL    HW119217   3.313   3.073   6.973  0.8284 -0.1868 -0.7387
 2586SOL    HW219218   3.362   2.982   7.085  3.6789 -2.3482 -0.5088
 2587SOL     OW19219   3.254   4.217  15.507 -1.3020  0.1395 -0.1299
 2587SOL    HW119220   3.259   4.217  15.411  0.9982 -1.1823 -0.0025
 2587SOL    HW219221   3.312   4.145  15.530 -2.5500 -0.9235 -0.2950
 2588SOL     OW19222   4.423   1.532   5.375  0.1064  0.1019 -0.1628
 2588SOL    HW119223   4.395   1.511   5.286  0.2500  1.6113 -0.5625
 2588SOL    HW219224   4.513   1.560   5.359  0.4277 -0.4209  0.6880
 2589SOL     OW19225   2.890   4.361   4.390  1.1641  0.1161  0.2924
 2589SOL    HW119226   2.823   4.345   4.324  0.3357  0.7350  0.9814
 2589SOL    HW219227   2.969   4.368   4.337  2.9377  0.7939  3.0210
 2590SOL     OW19228   3.731   3.059   6.760  0.0792 -0.4767  0.0140
 2590SOL    HW119229   3.810   3.085   6.712 -0.2721  0.0975 -0.2502
 2590SOL    HW219230   3.669   3.041   6.690 -0.7640 -0.5945  0.7923
 2591SOL     OW19231   1.348   2.871   4.272  0.6811  0.5460  0.1027
 2591SOL    HW119232   1.409   2.831   4.210 -1.8467  0.4603 -2.2927
 2591SOL    HW219233   1.336   2.954   4.227  0.6760  0.8401  0.6402
 2592SOL     OW19234   1.554   4.174  12.968  0.2553 -0.0275 -0.3112
 2592SOL    HW119235   1.475   4.178  12.914  0.0667 -0.5438 -0.0700
 2592SOL    HW219236   1.574   4.081  12.981  1.2487 -0.0611 -2.0765
 2593SOL     OW19237   4.311   3.285   6.231 -0.4712  0.1779 -0.1178
 2593SOL    HW119238   4.313   3.380   6.226 -1.0137  0.3712  3.3690
 2593SOL    HW219239   4.344   3.264   6.318 -1.7469 -1.3669  0.0089
 2594SOL     OW19240   2.048   0.438   2.078  0.5080 -0.3216  0.2952
 2594SOL    HW119241   2.071   0.450   1.986  0.5246 -1.0763  0.1964
 2594SOL    HW219242   2.029   0.344   2.073  1.1175 -0.3118 -2.2854
 2595SOL     OW19243   4.471   1.939   0.027  0.0172  0.0999 -0.4111
 2595SOL    HW119244   4.496   1.861   0.077 -1.2463  0.6660  1.0961
 2595SOL    HW219245   4.514   2.012   0.071 -0.0235 -0.5728  0.7496
 2596SOL     OW19246   3.210   3.847   1.827 -0.0473 -0.4673 -0.4376
 2596SOL    HW119247   3.151   3.894   1.769 -0.3047 -2.5494 -1.8700
 2596SOL    HW219248   3.185   3.889   1.909  0.7280 -1.3107  0.2430
 2597SOL     OW19249   3.076   1.135   7.850 -0.3643 -0.2172  0.1803
 2597SOL    HW119250   3.157   1.101   7.890  0.4014  3.7254  1.9480
 2597SOL    HW219251   3.102   1.207   7.793  2.8991  0.1084  2.0698
 2598SOL     OW19252   0.348   0.492   4.145 -0.3073  0.0875  0.5356
 2598SOL    HW119253   0.443   0.482   4.153 -0.3273  1.3114  2.0737
 2598SOL    HW219254   0.308   0.426   4.201  0.3488 -0.7454  0.0306
 2599SOL     OW19255   0.409   2.566  13.618  0.2594 -0.0323  0.4295
 2599SOL    HW119256   0.371   2.653  13.633  1.7640  0.4395  1.5776
 2599SOL    HW219257   0.438   2.579  13.528  2.0414 -0.7064  0.9101
 2600SOL     OW19258   0.087   0.734   7.916 -0.5539 -0.9094  1.0501
 2600SOL    HW119259   0.045   0.742   8.001 -1.4544 -1.7447  0.6779
 2600SOL    HW219260   0.169   0.784   7.919  0.4142 -2.5312  1.5137
 2601SOL     OW19261   3.006   4.242  16.381 -0.3910  0.1655 -0.6719
 2601SOL    HW119262   3.031   4.280  16.465  1.5164 -0.1515 -1.1033
 2601SOL    HW219263   3.039   4.152  16.385  2.8185  1.4435  1.6268
 2602SOL     OW19264   1.855   3.193  11.217 -0.6545 -0.7594 -0.5343
 2602SOL    HW119265   1.794   3.203  11.143 -1.3082 -0.8510 -0.0145
 2602SOL    HW219266   1.890   3.282  11.225  0.6350 -1.1451 -1.8335
 2603SOL     OW19267   2.831   1.877   6.596 -0.0203 -0.0707  0.4339
 2603SOL    HW119268   2.866   1.854   6.682 -1.3969 -1.3126  0.6590
 2603SOL    HW219269   2.876   1.814   6.539  1.0372  0.7870  0.3046
 2604SOL     OW19270   1.983   3.095  16.713 -0.2177 -0.3345 -0.0434
 2604SOL    HW119271   1.953   3.186  16.721  1.3599  0.4559 -2.8456
 2604SOL    HW219272   2.013   3.081  16.803 -0.2272 -0.5080 -0.0679
 2605SOL     OW19273   2.188   1.614   3.786  0.4326 -0.0930 -0.4547
 2605SOL    HW119274   2.187   1.603   3.881 -2.2966 -0.5654 -0.5515
 2605SOL    HW219275   2.276   1.576   3.783 -0.6078 -2.3872 -2.1176
 2606SOL     OW19276   0.291   0.842  17.340  0.2006  0.8823  0.3414
 2606SOL    HW119277   0.274   0.873  17.251 -0.7896  0.3241  0.3377
 2606SOL    HW219278   0.387   0.841  17.337  0.2059  0.8236  0.5396
 2607SOL     OW19279   3.215   4.722   9.391 -0.2075 -0.1405  0.4169
 2607SOL    HW119280   3.244   4.688   9.475  1.0013 -0.4393 -0.1284
 2607SOL    HW219281   3.264   4.667   9.331  0.7347  2.6621 -1.4089
 2608SOL     OW19282   2.422   0.351   4.648 -0.3979  0.3088  0.2925
 2608SOL    HW119283   2.498   0.382   4.697  0.4960  0.5553 -1.2293
 2608SOL    HW219284   2.394   0.438   4.618 -0.0302  0.0385 -0.8296
 2609SOL     OW19285   3.042   2.811   8.653 -0.3387 -0.0313  0.3672
 2609SOL    HW119286   3.133   2.841   8.645 -0.3112 -1.1113 -3.7479
 2609SOL    HW219287   2.996   2.895   8.648  2.9282  1.6216 -2.0690
 2610SOL     OW19288   2.068   1.979   8.678 -0.1209 -0.0004 -0.2319
 2610SOL    HW119289   2.063   1.892   8.639 -1.0318  0.2201 -0.6081
 2610SOL    HW219290   2.154   1.981   8.720 -1.4823 -0.6609  2.6237
 2611SOL     OW19291   4.413   1.317   6.159 -0.5193  0.0201 -0.1903
 2611SOL    HW119292   4.358   1.290   6.085  0.2894 -0.9571 -0.4270
 2611SOL    HW219293   4.414   1.410   6.133 -0.7026 -0.2998 -1.3682
 2612SOL     OW19294   1.549   2.683   8.405 -0.3608 -0.0390 -0.7034
 2612SOL    HW119295   1.520   2.739   8.477 -2.2455 -4.1467  1.7469
 2612SOL    HW219296   1.576   2.746   8.338 -1.7819  1.9912  0.6289
 2613SOL     OW19297   1.434   1.280   0.862 -0.0137 -0.3925 -0.1038
 2613SOL    HW119298   1.339   1.288   0.874  0.1712 -0.1030  1.1844
 2613SOL    HW219299   1.456   1.373   0.853  1.7091 -0.8919 -1.0049
 2614SOL     OW19300   3.107   3.714  15.105 -0.5314  0.2945 -0.1424
 2614SOL    HW119301   3.069   3.749  15.185 -2.4431 -0.9978 -0.4859
 2614SOL    HW219302   3.154   3.792  15.074 -1.0875  0.5809 -0.2592
 2615SOL     OW19303   3.103   3.422  10.608 -0.1024 -0.2662  0.6846
 2615SOL    HW119304   3.146   3.474  10.540  0.6743 -1.2037  0.4624
 2615SOL    HW219305   3.169   3.420  10.677 -0.5954  1.1436  1.1993
 2616SOL     OW19306   2.204   0.780   6.640 -0.3298 -0.3658  0.3548
 2616SOL    HW119307   2.115   0.809   6.659 -0.1802  2.2794 -2.9833
 2616SOL    HW219308   2.250   0.854   6.601 -1.5771  0.3518  0.2456
 2617SOL     OW19309   1.908   3.368   6.314  0.4991 -0.1914 -0.1889
 2617SOL    HW119310   1.856   3.443   6.345  1.7138  0.9938 -1.0241
 2617SOL    HW219311   1.984   3.422   6.292  0.6113 -1.5721 -3.1897
 2618SOL     OW19312   1.729   0.178  10.407  0.1401 -0.2477 -0.5010
 2618SOL    HW119313   1.795   0.203  10.471  0.8583 -0.8656 -1.0013
 2618SOL    HW219314   1.757   0.089  10.389  0.3756 -0.7837  2.4436
 2619SOL     OW19315   3.930   4.119   6.459  0.3988 -0.0337 -0.5412
 2619SOL    HW119316   4.009   4.069   6.439  1.0349  0.9563 -0.4850
 2619SOL    HW219317   3.971   4.197   6.495 -2.3989  1.5963 -0.8307
 2620SOL     OW19318   4.064   0.518   1.260 -0.0267 -0.1764  0.8132
 2620SOL    HW119319   4.110   0.440   1.289 -1.3866 -0.9670  0.8468
 2620SOL    HW219320   4.072   0.569   1.341 -2.5187  1.3393  0.1260
 2621SOL     OW19321   3.033   1.487   8.514  0.3503  0.3678  0.6447
 2621SOL    HW119322   2.975   1.521   8.583 -0.0573  0.9462  0.0155
 2621SOL    HW219323   3.111   1.463   8.563  0.8187 -1.8364 -1.1798
 2622SOL     OW19324   2.532   3.323  14.037 -0.1750 -0.6244  0.5343
 2622SOL    HW119325   2.562   3.316  13.946 -0.7447 -1.3210  0.3995
 2622SOL    HW219326   2.526   3.418  14.045  1.3570 -0.5079  0.4560
 2623SOL     OW19327   0.630   3.649  12.427  0.0072  0.4423 -0.8977
 2623SOL    HW119328   0.724   3.638  12.413  0.6248  1.0794  2.8401
 2623SOL    HW219329   0.587   3.588  12.367 -0.8836  0.7721 -0.5901
 2624SOL     OW19330   3.168   2.513   0.785  0.4496  0.0866 -0.4427
 2624SOL    HW119331   3.222   2.470   0.720 -0.9912 -3.8465  0.9764
 2624SOL    HW219332   3.213   2.597   0.798  2.3429 -0.7852 -1.4845
 2625SOL     OW19333   0.773   3.833   2.830  0.5410  0.4290  0.1801
 2625SOL    HW119334   0.853   3.884   2.813  0.7506 -0.6084 -2.0125
 2625SOL    HW219335   0.710   3.875   2.772 -0.1192 -1.2423 -0.3118
 2626SOL     OW19336   0.549   1.599   1.972 -0.2844  0.0237  0.3788
 2626SOL    HW119337   0.596   1.550   2.039 -1.3916 -2.7002 -0.8432
 2626SOL    HW219338   0.458   1.590   1.999 -0.8437  0.9993 -1.1428
 2627SOL     OW19339   0.562   4.445   5.327  0.2162  0.4052 -0.3400
 2627SOL    HW119340   0.645   4.404   5.302 -0.1985  0.5355 -1.9272
 2627SOL    HW219341   0.581   4.504   5.400  1.8074 -1.1844  0.5260
 2628SOL     OW19342   3.535   1.058  11.406  0.4631  0.1368  0.7463
 2628SOL    HW119343   3.608   1.015  11.451  1.1859  0.8009  0.2024
 2628SOL    HW219344   3.488   1.080  11.487  2.5147 -0.7040  2.1749
 2629SOL     OW19345   2.009   3.566  10.485  0.3640 -0.3139  0.0800
 2629SOL    HW119346   2.099   3.532  10.483  0.2585 -0.8129  2.9900
 2629SOL    HW219347   1.994   3.582  10.578 -2.1399 -0.4352 -0.3220
 2630SOL     OW19348   0.173   4.700   6.036 -0.1170  0.3078  0.2618
 2630SOL    HW119349   0.259   4.678   5.999 -0.9832 -2.3257 -0.1751
 2630SOL    HW219350   0.109   4.655   5.980  1.7730 -0.4625 -1.2989
 2631SOL     OW19351   2.841   1.010   3.525  0.3780 -0.0173  0.0835
 2631SOL    HW119352   2.878   0.998   3.438  2.3706  0.2027  0.8944
 2631SOL    HW219353   2.916   1.020   3.583 -0.6783  3.5431  0.8421
 2632SOL     OW19354   0.432   0.288  11.021 -0.2691  0.0555  0.2253
 2632SOL    HW119355   0.359   0.229  11.002 -0.1614  0.3317 -1.0458
 2632SOL    HW219356   0.392   0.369  10.990  0.8272  0.2048 -0.8009
 2633SOL     OW19357   4.099   2.525   5.203 -0.0122 -0.1044  0.1874
 2633SOL    HW119358   4.056   2.606   5.176 -0.4745 -1.2955 -2.6150
 2633SOL    HW219359   4.148   2.558   5.279  2.2286  2.3697 -2.3245
 2634SOL     OW19360   4.580   0.880  11.430 -0.0235 -0.0047 -0.0530
 2634SOL    HW119361   4.497   0.927  11.435 -0.3497 -0.6343  0.3501
 2634SOL    HW219362   4.560   0.813  11.364  0.7007  1.1365 -1.4400
 2635SOL     OW19363   4.073   1.806   4.986 -0.3505  0.0519  0.3288
 2635SOL    HW119364   4.127   1.885   4.994  1.6762 -1.1079 -1.7771
 2635SOL    HW219365   4.076   1.800   4.891 -0.8144 -2.9443  0.5119
 2636SOL     OW19366   3.655   0.091  13.367 -0.0402 -0.1009  0.0037
 2636SOL    HW119367   3.656   0.157  13.297  1.2527 -0.4648 -0.3130
 2636SOL    HW219368   3.670   0.147  13.443 -1.6826  0.2896  0.0395
 2637SOL     OW19369   3.593   2.454   5.781 -0.6854  0.2629 -0.3593
 2637SOL    HW119370   3.615   2.388   5.846 -0.1763 -0.3669 -1.1645
 2637SOL    HW219371   3.650   2.412   5.716 -1.1882 -0.7533 -0.1443
 2638SOL     OW19372   0.399   2.631   0.337  0.6172 -0.6167 -0.3876
 2638SOL    HW119373   0.474   2.679   0.371  0.0688  1.0231 -1.5340
 2638SOL    HW219374   0.393   2.555   0.396  0.3047  0.6652  1.2306
 2639SOL     OW19375   0.528   2.239   3.624  0.1935 -0.1290  0.2343
 2639SOL    HW119376   0.569   2.299   3.561 -0.3475 -1.0540 -1.0046
 2639SOL    HW219377   0.595   2.171   3.630  1.0824  0.5660 -1.8757
 2640SOL     OW19378   1.852   0.779   5.985  0.6327  0.7027  0.4828
 2640SOL    HW119379   1.914   0.788   5.912 -1.0297  1.7810 -0.8022
 2640SOL    HW219380   1.855   0.868   6.020 -0.9426  1.0920 -0.3478
 2641SOL     OW19381   0.358   1.811  15.326  0.8939  0.0746  0.4582
 2641SOL    HW119382   0.328   1.847  15.242 -2.5717 -1.8500  0.8695
 2641SOL    HW219383   0.340   1.888  15.380 -0.7816  0.1585 -0.2072
 2642SOL     OW19384   3.438   0.804  10.711 -0.9238 -0.0487  0.0668
 2642SOL    HW119385   3.357   0.846  10.681 -0.1898  0.1182 -1.6736
 2642SOL    HW219386   3.461   0.846  10.794 -1.4886 -1.8224  1.1199
 2643SOL     OW19387   1.215   4.635   5.673 -0.3219  0.0569  0.6056
 2643SOL    HW119388   1.258   4.702   5.727 -0.2843  0.3737  0.1816
 2643SOL    HW219389   1.129   4.638   5.717 -0.7386 -5.3125  0.1599
 2644SOL     OW19390   0.782   1.013   6.955  0.1088 -0.0007 -0.3319
 2644SOL    HW119391   0.873   0.997   6.928  0.8248  0.3129  1.8777
 2644SOL    HW219392   0.731   0.956   6.898  0.6733 -1.5761  0.7415
 2645SOL     OW19393   3.720   1.261   3.388  0.4206  0.1841  0.1343
 2645SOL    HW119394   3.747   1.314   3.313  0.2832  0.3424  0.1958
 2645SOL    HW219395   3.734   1.174   3.351 -1.0641  0.1500 -0.3558
 2646SOL     OW19396   1.101   3.991   3.769 -0.9541  0.0705  0.2501
 2646SOL    HW119397   1.102   4.009   3.675 -2.0888 -0.8717  0.0633
 2646SOL    HW219398   1.189   4.024   3.787 -1.4261  1.8073 -0.6152
 2647SOL     OW19399   3.286   3.756   2.587  0.3112  0.5783 -0.0027
 2647SOL    HW119400   3.338   3.677   2.595 -1.7674 -0.7926 -0.1302
 2647SOL    HW219401   3.318   3.789   2.671  1.2056  0.1168 -0.1686
 2648SOL     OW19402   4.556   1.395  11.955  0.3590  0.0180 -0.5339
 2648SOL    HW119403   4.572   1.427  11.866  0.9222 -0.9462 -0.7846
 2648SOL    HW219404   4.642   1.376  11.992 -0.2951  0.9263  1.4416
 2649SOL     OW19405   1.995   2.152   4.936  0.2733  0.6018 -0.0415
 2649SOL    HW119406   1.968   2.224   4.993  3.4226  3.0849 -1.7081
 2649SOL    HW219407   2.032   2.089   4.998 -2.8643 -0.7424  0.4810
 2650SOL     OW19408   3.856   0.057   2.727  0.0459 -0.2156 -0.1712
 2650SOL    HW119409   3.926   0.001   2.692  1.1488  0.5464  0.7743
 2650SOL    HW219410   3.906   0.111   2.789 -0.6025  0.0799  0.0903
 2651SOL     OW19411   1.490   0.835  12.428 -0.1140 -0.3664  0.2997
 2651SOL    HW119412   1.492   0.772  12.501 -1.8543 -0.4024  0.3172
 2651SOL    HW219413   1.418   0.799  12.376 -0.0020  1.5413 -1.1464
 2652SOL     OW19414   1.283   4.078  14.125 -0.3262  0.0379 -0.0875
 2652SOL    HW119415   1.367   4.123  14.126 -1.5518  2.3593 -0.2874
 2652SOL    HW219416   1.309   4.022  14.052 -2.4497  1.9107 -2.2983
 2653SOL     OW19417   4.245   3.345   8.424  0.6203  0.3235  0.4670
 2653SOL    HW119418   4.282   3.392   8.498 -1.6452  0.9597  1.1832
 2653SOL    HW219419   4.320   3.299   8.386 -0.5937 -1.5804  0.3271
 2654SOL     OW19420   4.049   1.280   3.403 -0.3835  0.0170 -0.0393
 2654SOL    HW119421   4.027   1.361   3.449 -1.3405  0.8706 -1.9939
 2654SOL    HW219422   4.028   1.212   3.467 -0.3688 -0.2606 -0.3270
 2655SOL     OW19423   4.322   3.212   8.686  0.5435 -0.1496  0.4154
 2655SOL    HW119424   4.257   3.249   8.746 -2.0621 -1.9355 -1.3157
 2655SOL    HW219425   4.293   3.124   8.663 -2.1895  1.4792 -2.4052
 2656SOL     OW19426   2.633   0.078  14.256 -0.1498 -0.0148 -0.0101
 2656SOL    HW119427   2.629   0.163  14.301  1.5891  0.7359 -1.2532
 2656SOL    HW219428   2.604   0.096  14.166 -3.0618  1.9978  1.3261
 2657SOL     OW19429   1.405   1.491   8.665  0.2312  0.4087 -1.0109
 2657SOL    HW119430   1.390   1.452   8.750  0.3503 -1.3458 -1.8012
 2657SOL    HW219431   1.468   1.434   8.621 -0.5499 -0.8759 -0.4401
 2658SOL     OW19432   2.369   3.276  17.328  0.4427  0.2997  0.6744
 2658SOL    HW119433   2.432   3.254  17.397  1.4974 -3.5422 -1.4692
 2658SOL    HW219434   2.405   3.350  17.279  1.1199 -0.1184  0.5410
 2659SOL     OW19435   4.206   2.831   2.892  0.2335 -0.4109 -0.2677
 2659SOL    HW119436   4.266   2.832   2.966  0.5086 -0.3055 -0.4948
 2659SOL    HW219437   4.179   2.922   2.899  1.0366 -0.1325 -0.8449
 2660SOL     OW19438   2.594   3.640  12.912 -0.9453 -0.2133  0.1079
 2660SOL    HW119439   2.560   3.582  12.844 -1.8759 -0.0296  0.4219
 2660SOL    HW219440   2.597   3.729  12.876  0.3952 -1.2036 -2.2822
 2661SOL     OW19441   1.319   3.164  14.141  0.0843 -0.1042 -0.6914
 2661SOL    HW119442   1.311   3.223  14.066  2.1273 -0.0567 -0.8480
 2661SOL    HW219443   1.234   3.119  14.139  0.1142 -0.1428 -1.0778
 2662SOL     OW19444   3.374   1.657   1.470  0.3432 -0.2809 -0.4783
 2662SOL    HW119445   3.386   1.691   1.382 -0.0653 -0.7096 -0.7014
 2662SOL    HW219446   3.324   1.578   1.449  1.2306 -1.5818  2.2583
 2663SOL     OW19447   0.875   3.178   5.554 -0.1267 -0.0685  0.1789
 2663SOL    HW119448   0.887   3.264   5.593 -2.3839  1.3666 -2.2833
 2663SOL    HW219449   0.823   3.129   5.618 -1.3917 -0.8920 -1.4830
 2664SOL     OW19450   0.055   1.292   3.153 -0.1708  0.3491  0.1896
 2664SOL    HW119451   0.004   1.316   3.076 -1.0368 -2.2296 -0.0471
 2664SOL    HW219452   0.000   1.227   3.198  0.6898 -0.1991  0.4422
 2665SOL     OW19453   4.055   3.511   9.076 -0.8475  0.4063 -0.3452
 2665SOL    HW119454   4.020   3.430   9.114 -1.6999  1.1959  0.5480
 2665SOL    HW219455   3.979   3.566   9.057 -0.0172  0.9356 -2.1551
 2666SOL     OW19456   4.566   0.189   8.319 -0.1705  0.4073  0.0325
 2666SOL    HW119457   4.557   0.128   8.246  3.5341  0.6863 -0.6717
 2666SOL    HW219458   4.611   0.136   8.385 -0.1037  2.1123  1.3786
 2667SOL     OW19459   0.443   0.471   6.463 -0.5177  0.1265  0.6085
 2667SOL    HW119460   0.431   0.516   6.380 -1.2737 -2.1475 -0.5039
 2667SOL    HW219461   0.372   0.406   6.458 -1.9549  1.6194  1.5127
 2668SOL     OW19462   1.661   0.728   7.168 -0.6278 -0.0353 -0.0972
 2668SOL    HW119463   1.584   0.775   7.134  0.0372  0.0520 -1.4906
 2668SOL    HW219464   1.630   0.638   7.156  0.9079 -0.6208  0.4200
 2669SOL     OW19465   1.541   3.385   6.564  0.0816  0.1584  0.0262
 2669SOL    HW119466   1.568   3.348   6.480 -0.0838  0.2511 -0.0674
 2669SOL    HW219467   1.493   3.309   6.596  1.3136  0.2878  2.2351
 2670SOL     OW19468   1.355   3.719  14.921 -0.3205 -0.1294 -0.0050
 2670SOL    HW119469   1.367   3.805  14.960 -0.9130 -0.3491  0.6737
 2670SOL    HW219470   1.420   3.667  14.969  0.5084  0.7291 -0.2147
 2671SOL     OW19471   3.589   4.666   7.967  0.2302 -0.2184  0.4234
 2671SOL    HW119472   3.518   0.007   7.970  0.0457 -0.5269  2.4129
 2671SOL    HW219473   3.565   4.593   8.023 -1.0921 -0.2990 -0.2563
 2672SOL     OW19474   3.152   3.666   8.103 -0.5108 -0.4744  0.3867
 2672SOL    HW119475   3.088   3.595   8.092 -0.4487 -0.4436 -0.1549
 2672SOL    HW219476   3.212   3.645   8.032  0.0145 -1.6942  1.1996
 2673SOL     OW19477   1.320   2.120   7.360 -0.7742  0.5774 -0.0523
 2673SOL    HW119478   1.302   2.202   7.407  0.0452  0.7460 -0.0270
 2673SOL    HW219479   1.406   2.098   7.394 -0.0373  0.5486 -1.9369
 2674SOL     OW19480   3.940   2.103  10.681 -0.1285  0.1956  0.0851
 2674SOL    HW119481   3.968   2.113  10.590 -0.3739 -1.2674 -0.1449
 2674SOL    HW219482   3.935   2.195  10.707  1.5094  1.1437 -2.9562
 2675SOL     OW19483   3.707   2.219   7.772 -0.7786 -0.0251 -0.1135
 2675SOL    HW119484   3.729   2.299   7.724  0.5094 -0.3804 -0.1166
 2675SOL    HW219485   3.785   2.164   7.768 -1.6005 -1.3133  1.4187
 2676SOL     OW19486   0.727   3.500  13.805 -0.1697  0.0263  0.2660
 2676SOL    HW119487   0.814   3.542  13.811  0.0580 -0.2784 -0.9948
 2676SOL    HW219488   0.675   3.564  13.757  0.0114 -0.1166 -0.1148
 2677SOL     OW19489   4.470   1.786   3.262  0.0072 -0.4281  0.1980
 2677SOL    HW119490   4.470   1.703   3.213  1.0828 -0.7402  0.7249
 2677SOL    HW219491   4.539   1.769   3.326  0.9502 -0.8464 -0.9277
 2678SOL     OW19492   3.219   4.005   5.976  0.2512 -0.8090  0.3080
 2678SOL    HW119493   3.251   3.972   6.059 -0.2491  0.0714  0.8513
 2678SOL    HW219494   3.241   3.933   5.917  0.8747 -0.3672  0.0118
 2679SOL     OW19495   1.683   0.993   9.014 -0.2831  0.3330  0.0866
 2679SOL    HW119496   1.744   0.919   9.019  2.0207  2.2344  0.2305
 2679SOL    HW219497   1.699   1.024   8.924 -1.4719 -1.6400 -0.7956
 2680SOL     OW19498   0.787   2.853  13.730 -0.9723  0.8034  0.5363
 2680SOL    HW119499   0.841   2.931  13.713 -2.1182  1.2017 -1.2493
 2680SOL    HW219500   0.710   2.860  13.674  0.0111  0.4090 -0.8690
 2681SOL     OW19501   4.614   4.707  11.967 -0.1752 -0.0048  0.1442
 2681SOL    HW119502   4.538   4.648  11.963  1.7140 -2.4707  0.4774
 2681SOL    HW219503   4.577   0.056  12.018  0.3115 -1.1143  2.0740
 2682SOL     OW19504   0.893   2.805   4.239  0.3723 -0.3296  0.5623
 2682SOL    HW119505   0.834   2.753   4.294 -1.9871  1.7101  0.0131
 2682SOL    HW219506   0.885   2.895   4.273 -0.5161 -0.2525  0.1514
 2683SOL     OW19507   0.893   1.837   4.031 -0.1251  0.3415  0.4462
 2683SOL    HW119508   0.815   1.891   4.047 -0.8255  0.3938 -3.1165
 2683SOL    HW219509   0.849   1.765   3.987  1.6299  0.2342 -1.1316
 2684SOL     OW19510   0.416   2.325  10.200 -0.1452  0.4458 -0.0558
 2684SOL    HW119511   0.363   2.251  10.171  1.1405 -1.3312  2.1788
 2684SOL    HW219512   0.442   2.306  10.290  1.2417 -0.4144 -0.6339
 2685SOL     OW19513   3.325   1.954   0.792 -0.2828  0.4390  0.1531
 2685SOL    HW119514   3.412   1.932   0.757 -0.2805  0.0322  0.4132
 2685SOL    HW219515   3.310   2.030   0.737 -3.1393  0.2593  0.7225
 2686SOL     OW19516   3.209   0.790   0.245  0.0958 -0.3287 -0.1420
 2686SOL    HW119517   3.289   0.741   0.231  0.8892  1.0898 -0.5297
 2686SOL    HW219518   3.183   0.777   0.337  0.3527  0.3704  0.0279
 2687SOL     OW19519   0.530   1.429  14.525  0.1389  0.2202 -0.2269
 2687SOL    HW119520   0.501   1.404  14.437  1.7528 -2.4345  0.0075
 2687SOL    HW219521   0.471   1.368  14.569  1.0635 -0.4019  0.1409
 2688SOL     OW19522   3.089   0.788   6.792 -0.1872  0.7327 -0.2878
 2688SOL    HW119523   3.130   0.855   6.846 -1.0430 -0.5368  1.9092
 2688SOL    HW219524   3.026   0.841   6.742 -0.0815 -1.4220 -2.7072
 2689SOL     OW19525   0.531   4.408   8.038 -0.1560 -0.6107 -0.2764
 2689SOL    HW119526   0.613   4.419   8.085 -0.6281 -0.0399  0.4206
 2689SOL    HW219527   0.521   4.313   8.047  2.7827 -1.1917 -3.0970
 2690SOL     OW19528   4.242   2.567  13.657  0.2005  0.0627  1.1709
 2690SOL    HW119529   4.280   2.600  13.739  1.3487 -0.9819  1.0703
 2690SOL    HW219530   4.250   2.472  13.665  0.5095 -0.0959 -1.0191
 2691SOL     OW19531   1.468   0.937   5.245 -0.0285 -0.0641  0.7471
 2691SOL    HW119532   1.499   0.892   5.166  2.6920 -0.0266  1.7830
 2691SOL    HW219533   1.515   0.882   5.308  1.4504  1.8320  1.3253
 2692SOL     OW19534   2.936   2.951   5.433  0.1192  0.6027 -0.2606
 2692SOL    HW119535   2.955   2.921   5.522  0.3962  3.9418  0.8366
 2692SOL    HW219536   2.890   3.034   5.450  1.3364  1.3489 -0.6040
 2693SOL     OW19537   3.682   2.445   9.003  0.3395 -0.2147 -0.2276
 2693SOL    HW119538   3.774   2.421   9.019  0.4772 -0.2431 -1.0525
 2693SOL    HW219539   3.646   2.390   9.073  0.5090  0.4076  0.3538
 2694SOL     OW19540   2.404   0.314  10.013 -0.0364  0.3025  0.1109
 2694SOL    HW119541   2.468   0.363   9.962 -2.6807 -0.3187 -3.8442
 2694SOL    HW219542   2.459   0.242  10.044 -3.0464 -1.8389  0.5713
 2695SOL     OW19543   1.788   3.729   3.261 -0.0386  0.4761  0.5945
 2695SOL    HW119544   1.810   3.731   3.168 -1.7345 -1.4768  0.1405
 2695SOL    HW219545   1.738   3.648   3.270 -1.0636  1.1582  1.0575
 2696SOL     OW19546   3.576   3.745   3.046  0.2380 -0.2149 -0.2040
 2696SOL    HW119547   3.612   3.661   3.019  3.4760  1.8385 -2.3153
 2696SOL    HW219548   3.655   3.774   3.093  1.6036 -2.5070 -1.1048
 2697SOL     OW19549   2.413   3.757   9.617 -0.2139  0.0212  0.0547
 2697SOL    HW119550   2.386   3.747   9.708 -1.9606 -1.4665 -0.6272
 2697SOL    HW219551   2.450   3.673   9.588 -1.2803 -0.0754 -1.0350
 2698SOL     OW19552   0.204   0.048  11.032  0.4361 -0.1228 -0.2527
 2698SOL    HW119553   0.254   0.011  10.960  0.3107 -2.3008  0.7871
 2698SOL    HW219554   0.118   0.019  11.002  1.0910 -3.0857  0.7440
 2699SOL     OW19555   4.721   1.578   4.955  0.2250 -0.3610 -0.5263
 2699SOL    HW119556   0.043   1.509   5.004 -0.4523 -0.5275 -0.1381
 2699SOL    HW219557   4.632   1.542   4.954 -0.8263  2.1799  1.0985
 2700SOL     OW19558   4.560   2.901   6.069  0.1762 -0.8056  0.3081
 2700SOL    HW119559   4.540   2.929   6.158 -0.6008  1.3632 -0.5427
 2700SOL    HW219560   4.645   2.863   6.089  0.7530 -0.5584 -1.6643
 2701SOL     OW19561   0.600   2.188   4.116 -0.4032  0.0473 -0.2040
 2701SOL    HW119562   0.672   2.207   4.176 -0.3451 -0.6028 -0.0644
 2701SOL    HW219563   0.640   2.235   4.043 -0.9116 -0.4224 -0.7939
 2702SOL     OW19564   0.931   3.947  10.799 -0.0089 -0.3231  0.5761
 2702SOL    HW119565   0.949   4.041  10.799  0.5841 -0.4378 -1.7107
 2702SOL    HW219566   0.877   3.944  10.879  0.1868  1.1789  0.7580
 2703SOL     OW19567   1.571   1.691   3.588  0.5422 -0.1183 -0.7682
 2703SOL    HW119568   1.610   1.640   3.517  2.4589  0.9957 -0.5188
 2703SOL    HW219569   1.490   1.650   3.618  0.4823  1.3493  1.0749
 2704SOL     OW19570   4.209   1.431   3.975  0.2633 -0.0635  0.4003
 2704SOL    HW119571   4.210   1.352   3.920  1.0305 -0.7131  1.3441
 2704SOL    HW219572   4.175   1.498   3.916  3.8277  0.0686 -1.4650
 2705SOL     OW19573   0.679   0.908  11.041 -0.6968 -0.5064 -0.0548
 2705SOL    HW119574   0.710   0.988  11.084 -0.6402 -0.8070  0.4534
 2705SOL    HW219575   0.643   0.941  10.958  1.8782  2.0634 -0.1609
 2706SOL     OW19576   3.229   1.080   2.215 -0.1550  0.3307 -0.3103
 2706SOL    HW119577   3.281   1.110   2.290  2.0764 -2.3711 -0.7437
 2706SOL    HW219578   3.299   1.040   2.163 -0.9124  1.4941 -2.2059
 2707SOL     OW19579   3.649   4.097   6.592 -0.2534 -0.3443 -0.2633
 2707SOL    HW119580   3.744   4.086   6.580  0.0120  1.7675 -0.2378
 2707SOL    HW219581   3.646   4.193   6.593 -1.7867 -0.4204  1.3081
 2708SOL     OW19582   4.125   0.896   5.587  0.4969 -0.0208  0.2773
 2708SOL    HW119583   4.041   0.912   5.631  0.6345  0.2543  0.4355
 2708SOL    HW219584   4.089   0.826   5.532 -0.6648 -0.6852  1.8886
 2709SOL     OW19585   0.810   1.315  13.705 -0.6199  0.4849  0.0021
 2709SOL    HW119586   0.875   1.287  13.769 -1.5555 -1.3814  0.1405
 2709SOL    HW219587   0.800   1.406  13.733 -2.2875 -0.6237  3.0005
 2710SOL     OW19588   3.053   4.605  17.584 -0.7995 -0.1844 -0.0048
 2710SOL    HW119589   2.972   4.656  17.582 -0.2225  0.8908  3.8008
 2710SOL    HW219590   3.087   4.620  17.496 -3.1952  1.3067 -0.6598
 2711SOL     OW19591   4.370   3.870   1.953 -0.4490  0.2878 -0.1576
 2711SOL    HW119592   4.360   3.831   1.866 -0.3140  1.1603 -0.5622
 2711SOL    HW219593   4.281   3.904   1.966 -0.8809 -0.8999  0.0145
 2712SOL     OW19594   0.915   3.271   8.378  0.1070  0.2065  0.1473
 2712SOL    HW119595   1.007   3.285   8.356 -0.3764  3.5847  0.2271
 2712SOL    HW219596   0.880   3.291   8.291 -3.9286 -1.1008  1.4572
 2713SOL     OW19597   0.546   0.274   7.529 -0.3827  1.0150  0.2659
 2713SOL    HW119598   0.505   0.195   7.565  0.5631  0.2548 -0.3244
 2713SOL    HW219599   0.476   0.338   7.541 -1.9852 -0.1762 -2.8896
 2714SOL     OW19600   0.402   1.491  17.531  0.2148 -0.2053  0.2407
 2714SOL    HW119601   0.462   1.456  17.596  0.7973 -0.7152 -0.5765
 2714SOL    HW219602   0.451   1.547  17.470 -1.7364  0.2754 -0.9104
 2715SOL     OW19603   1.323   2.233   6.972  0.3044  0.1221 -0.3100
 2715SOL    HW119604   1.259   2.181   7.020 -0.0398 -0.8528 -1.8370
 2715SOL    HW219605   1.404   2.220   7.020  0.3821  1.9447  0.0704
 2716SOL     OW19606   3.484   2.636   1.647 -0.1792  0.2902  0.0316
 2716SOL    HW119607   3.478   2.550   1.687 -2.8343  0.7447  0.6094
 2716SOL    HW219608   3.436   2.690   1.709 -1.3951 -0.1231 -0.5635
 2717SOL     OW19609   4.304   2.420   0.895  0.2545 -0.5833 -0.2456
 2717SOL    HW119610   4.386   2.457   0.862  0.7369 -1.1631  0.3310
 2717SOL    HW219611   4.249   2.429   0.816  2.2251  1.1604 -1.4143
 2718SOL     OW19612   1.341   0.831  16.443 -0.1610  0.1419  0.7910
 2718SOL    HW119613   1.278   0.862  16.507 -0.7501  0.1017  0.2295
 2718SOL    HW219614   1.342   0.739  16.470 -0.8489 -0.1441 -0.1565
 2719SOL     OW19615   0.184   1.774   5.829  0.3366 -0.4849  0.1906
 2719SOL    HW119616   0.139   1.796   5.748 -1.9362 -2.7077  0.8689
 2719SOL    HW219617   0.206   1.859   5.867 -0.5488 -0.0556 -0.2606
 2720SOL     OW19618   0.526   2.886   9.710  0.5987 -0.1775 -0.5292
 2720SOL    HW119619   0.456   2.950   9.702 -0.4020 -1.1905  0.2333
 2720SOL    HW219620   0.582   2.920   9.640  2.5676 -1.7999  0.2596
 2721SOL     OW19621   1.106   4.455  11.936  0.0428  0.2335 -0.8218
 2721SOL    HW119622   1.184   4.467  11.991  0.8243 -0.5969 -1.7570
 2721SOL    HW219623   1.114   4.530  11.878  1.1397 -0.0994 -1.1053
 2722SOL     OW19624   3.683   2.642  15.245  0.2677 -0.5519  0.0779
 2722SOL    HW119625   3.730   2.570  15.287  1.6594  1.0631  1.2795
 2722SOL    HW219626   3.739   2.720  15.253  0.2664 -0.3554 -1.9485
 2723SOL     OW19627   0.082   2.461   2.877 -0.2153  0.2134 -0.0951
 2723SOL    HW119628   0.083   2.452   2.973 -0.1998 -0.7511 -0.1800
 2723SOL    HW219629   0.023   2.387   2.860  0.4021 -0.6836  1.6262
 2724SOL     OW19630   1.291   2.204   8.769 -0.2728  0.2661 -0.2213
 2724SOL    HW119631   1.308   2.205   8.863  1.0347  1.1650 -0.4719
 2724SOL    HW219632   1.241   2.124   8.755  2.6616 -1.3659 -1.1334
 2725SOL     OW19633   3.179   0.369   1.337 -0.1704 -0.5230  0.3597
 2725SOL    HW119634   3.215   0.342   1.253  0.2290 -0.7013  0.5878
 2725SOL    HW219635   3.245   0.430   1.369 -0.5807 -0.0162  0.2445
 2726SOL     OW19636   4.123   1.198   4.176 -0.3647  0.5206  0.2411
 2726SOL    HW119637   4.193   1.196   4.241 -0.5396 -2.2765  0.3387
 2726SOL    HW219638   4.099   1.106   4.163 -0.9069  1.1703 -3.2826
 2727SOL     OW19639   3.575   1.555  12.763 -0.0469  0.2840 -0.2228
 2727SOL    HW119640   3.669   1.538  12.766  0.1922  1.7201  0.5789
 2727SOL    HW219641   3.544   1.466  12.748 -0.2696  0.2832  0.2333
 2728SOL     OW19642   2.535   1.515   4.969  0.3429 -0.3081 -0.0700
 2728SOL    HW119643   2.625   1.485   4.985 -0.0258 -0.4725  1.7140
 2728SOL    HW219644   2.556   1.607   4.989 -1.8860 -0.0007  0.8858
 2729SOL     OW19645   1.906   0.393   8.642 -0.7017  0.2234 -0.0279
 2729SOL    HW119646   1.898   0.419   8.551 -1.8119 -0.4779 -0.1353
 2729SOL    HW219647   1.983   0.338   8.627  0.6210  1.8463  0.8000
 2730SOL     OW19648   0.767   1.584  15.399  0.4544  0.3141  0.3439
 2730SOL    HW119649   0.803   1.508  15.444  1.3496  0.2776 -0.4051
 2730SOL    HW219650   0.850   1.614  15.362  0.4952 -1.3508 -0.9454
 2731SOL     OW19651   3.988   2.822   7.852 -0.2627 -0.2754 -0.0363
 2731SOL    HW119652   4.039   2.780   7.921 -1.4484 -0.0024  1.0134
 2731SOL    HW219653   4.019   2.912   7.861 -0.0784 -0.2457 -0.9561
 2732SOL     OW19654   0.236   1.390   1.718 -0.1894  0.2788 -0.3311
 2732SOL    HW119655   0.228   1.484   1.704 -0.9702  0.3970  0.9509
 2732SOL    HW219656   0.329   1.393   1.742  0.0791  0.3677 -1.3596
 2733SOL     OW19657   0.712   3.352   5.242  0.0497 -0.2450 -0.5199
 2733SOL    HW119658   0.770   3.428   5.249  0.5296 -0.5289 -1.4984
 2733SOL    HW219659   0.636   3.396   5.202 -1.6756 -2.7008  0.0834
 2734SOL     OW19660   4.162   2.379  17.196  0.0215 -0.8214  0.3267
 2734SOL    HW119661   4.126   2.297  17.161 -1.3708  0.2770 -0.7760
 2734SOL    HW219662   4.255   2.357  17.193  0.4258  1.1565 -1.4682
 2735SOL     OW19663   3.503   2.539   2.311  0.5970  0.7787 -0.2108
 2735SOL    HW119664   3.491   2.589   2.391  0.6701 -1.6179  1.2743
 2735SOL    HW219665   3.444   2.575   2.244  2.7721  1.2183 -1.9165
 2736SOL     OW19666   1.558   4.719   7.933  0.1502 -0.4405 -0.1968
 2736SOL    HW119667   1.501   0.038   7.869 -1.3870 -0.8869  0.8673
 2736SOL    HW219668   1.592   4.639   7.892 -1.0186 -1.5751  1.0281
 2737SOL     OW19669   2.238   2.096   3.612  0.4591 -0.9840 -0.3210
 2737SOL    HW119670   2.330   2.076   3.597  0.2038 -2.5706  0.2163
 2737SOL    HW219671   2.199   2.009   3.607 -2.1143  0.3127 -3.1475
 2738SOL     OW19672   1.540   1.831  13.830 -0.7859 -0.4187 -0.1145
 2738SOL    HW119673   1.453   1.861  13.805 -0.2664 -0.3345 -1.7907
 2738SOL    HW219674   1.508   1.745  13.859  0.0737 -1.4269 -2.1309
 2739SOL     OW19675   4.155   0.731   7.250 -0.3338 -0.1911 -0.6281
 2739SOL    HW119676   4.111   0.666   7.196 -2.8087  0.4725  0.6023
 2739SOL    HW219677   4.188   0.777   7.173 -0.0598 -0.3483 -0.6045
 2740SOL     OW19678   1.761   2.401  13.372  0.2624  0.1019  0.1325
 2740SOL    HW119679   1.684   2.385  13.318  1.0562 -1.3435 -0.5764
 2740SOL    HW219680   1.785   2.489  13.342  0.9955  0.7548  2.6227
 2741SOL     OW19681   3.533   4.653   3.624  0.2508  0.3759  0.6677
 2741SOL    HW119682   3.601   4.590   3.601 -0.5051  0.9290 -3.0895
 2741SOL    HW219683   3.579   0.013   3.641  2.4374 -0.9647  1.2367
 2742SOL     OW19684   4.649   1.691   0.750  0.0709  0.1736  0.8080
 2742SOL    HW119685   4.705   1.691   0.672 -0.0852 -3.2158  0.7014
 2742SOL    HW219686   4.706   1.627   0.793  0.3353  0.5350  0.9913
 2743SOL     OW19687   1.430   3.540   8.573 -0.3548  0.2816 -0.6993
 2743SOL    HW119688   1.420   3.468   8.510 -1.1728  0.0856 -0.3434
 2743SOL    HW219689   1.415   3.613   8.513 -0.5768  0.5573 -0.3041
 2744SOL     OW19690   0.428   1.712   7.798 -0.2632 -0.1735 -0.6888
 2744SOL    HW119691   0.398   1.670   7.717 -1.1796 -0.4523 -0.1968
 2744SOL    HW219692   0.349   1.714   7.851 -0.6491 -0.8303 -1.2509
 2745SOL     OW19693   4.096   0.595   9.303  0.2156 -0.0889  0.6976
 2745SOL    HW119694   4.047   0.580   9.223  0.4628 -3.3816  1.1648
 2745SOL    HW219695   4.104   0.503   9.328 -0.3445 -0.0139  1.1386
 2746SOL     OW19696   0.780   1.363   7.833 -0.3697  0.1026 -0.3270
 2746SOL    HW119697   0.798   1.280   7.789  4.4472  0.1784  1.4925
 2746SOL    HW219698   0.845   1.410   7.781  0.2763 -2.0164 -1.4725
 2747SOL     OW19699   1.361   2.527  11.523  0.3137  0.4567 -0.5260
 2747SOL    HW119700   1.291   2.469  11.553  1.3857 -0.2819  0.5486
 2747SOL    HW219701   1.309   2.579  11.462  0.0600  1.0587  0.2085
 2748SOL     OW19702   3.200   0.208  17.542 -0.3355 -0.8756  0.2518
 2748SOL    HW119703   3.233   0.163  17.464  0.2117  1.0783 -0.6304
 2748SOL    HW219704   3.156   0.282  17.501 -2.0710 -0.5905  2.6265
 2749SOL     OW19705   0.798   4.133   7.039  0.7536 -0.1074  0.2403
 2749SOL    HW119706   0.786   4.129   7.134  0.5168 -1.0715  0.1659
 2749SOL    HW219707   0.736   4.066   7.010 -0.8575  0.5378  2.2114
 2750SOL     OW19708   3.609   4.451   4.452  0.0457  0.1807 -0.5719
 2750SOL    HW119709   3.593   4.522   4.514  0.2259  0.7819 -1.2220
 2750SOL    HW219710   3.553   4.489   4.385  0.5497  0.8344 -0.6309
 2751SOL     OW19711   0.518   0.145   4.222 -0.7286  0.4379  0.1878
 2751SOL    HW119712   0.423   0.147   4.221 -0.7521 -0.2890  2.0162
 2751SOL    HW219713   0.533   0.051   4.230 -2.7722 -0.1981 -3.5004
 2752SOL     OW19714   2.966   2.729   9.008 -0.3935  0.2243  0.3390
 2752SOL    HW119715   2.995   2.820   9.010 -1.5451  0.6115 -0.3241
 2752SOL    HW219716   2.874   2.746   9.029 -1.2399 -1.8571 -1.7440
 2753SOL     OW19717   3.046   3.168   8.446 -0.3378 -0.8661 -0.0467
 2753SOL    HW119718   3.035   3.101   8.378 -2.7086 -1.2083  0.6828
 2753SOL    HW219719   3.119   3.127   8.492 -0.6861 -0.6302  0.7219
 2754SOL     OW19720   3.150   2.174   8.659 -0.0863 -0.2348 -0.5621
 2754SOL    HW119721   3.196   2.150   8.578  0.8410 -0.1253 -0.0789
 2754SOL    HW219722   3.182   2.103   8.715 -0.3504 -1.4750 -1.9755
 2755SOL     OW19723   3.818   3.205  14.293  0.2367 -0.6099 -0.0804
 2755SOL    HW119724   3.817   3.301  14.297  3.3706 -0.5769 -0.2377
 2755SOL    HW219725   3.910   3.184  14.274  0.1654 -0.1316 -0.9660
 2756SOL     OW19726   3.192   2.050   3.634  0.2403  0.1091 -0.4774
 2756SOL    HW119727   3.263   1.987   3.622 -1.8283 -2.8525  2.6678
 2756SOL    HW219728   3.195   2.094   3.549  2.8861  1.4072  0.3064
 2757SOL     OW19729   3.180   1.763   2.645 -0.3795 -0.3036  0.2638
 2757SOL    HW119730   3.217   1.698   2.705 -1.1451 -0.2855  0.7686
 2757SOL    HW219731   3.092   1.763   2.685 -0.1457 -2.1834  0.7743
 2758SOL     OW19732   0.395   3.035   1.221  0.6437 -0.1350 -0.0849
 2758SOL    HW119733   0.312   3.057   1.264  1.9094 -0.9065  2.7227
 2758SOL    HW219734   0.445   3.041   1.302  0.3440  0.6901  0.0423
 2759SOL     OW19735   0.891   1.635  10.152 -0.0455 -0.1190  0.6603
 2759SOL    HW119736   0.983   1.626  10.130  0.1329  0.3953  1.1727
 2759SOL    HW219737   0.861   1.716  10.111 -1.5052 -0.1466  1.6615
 2760SOL     OW19738   4.660   1.045   2.835 -0.3597 -0.0411  0.0784
 2760SOL    HW119739   4.711   0.998   2.769 -0.1872  0.2527  0.0018
 2760SOL    HW219740   4.568   1.031   2.811 -0.2723  2.1686 -1.5204
 2761SOL     OW19741   3.272   2.589  11.147 -0.3062 -0.0827  0.2559
 2761SOL    HW119742   3.349   2.634  11.114  0.0986 -1.5382 -0.7548
 2761SOL    HW219743   3.208   2.633  11.091  1.8679 -0.6870 -2.6718
 2762SOL     OW19744   3.294   3.933   4.032 -0.2746 -0.3317 -0.2681
 2762SOL    HW119745   3.360   3.999   4.052 -0.2666 -0.3110 -0.3649
 2762SOL    HW219746   3.226   3.953   4.097 -0.0118  0.2639 -0.1779
 2763SOL     OW19747   2.887   3.632   9.391  0.6151 -0.2457  0.0649
 2763SOL    HW119748   2.818   3.697   9.404 -0.0300 -0.1840 -3.7126
 2763SOL    HW219749   2.886   3.589   9.477 -0.3918  1.3370  0.8377
 2764SOL     OW19750   3.331   3.315   7.737  0.1973  0.5295  0.7733
 2764SOL    HW119751   3.291   3.231   7.761 -0.1222  1.4761  3.5858
 2764SOL    HW219752   3.420   3.287   7.716 -0.3621 -0.3615 -0.3695
 2765SOL     OW19753   1.870   2.626  15.507 -0.6317  0.2946  0.0932
 2765SOL    HW119754   1.955   2.598  15.538  0.3276  1.9933 -0.9874
 2765SOL    HW219755   1.841   2.657  15.593 -1.6251  3.0503 -1.2216
 2766SOL     OW19756   0.327   4.387   6.078 -0.1401 -0.7064  0.0244
 2766SOL    HW119757   0.304   4.366   5.987  0.0337  1.6900 -0.5657
 2766SOL    HW219758   0.272   4.330   6.131 -0.2531  0.0650  0.7331
 2767SOL     OW19759   1.278   4.291   2.152 -0.1515  0.0407  0.5027
 2767SOL    HW119760   1.240   4.354   2.091 -0.4325 -1.2115 -0.6055
 2767SOL    HW219761   1.344   4.347   2.195  2.4736 -1.9541 -0.9004
 2768SOL     OW19762   0.004   2.026   4.876  0.0699  0.0915 -0.3817
 2768SOL    HW119763   4.672   2.096   4.910 -0.9350 -1.5156  1.2768
 2768SOL    HW219764   0.007   2.042   4.781  0.4443 -2.1722 -0.7408
 2769SOL     OW19765   3.899   3.021   8.175 -0.2337 -0.3991 -0.2157
 2769SOL    HW119766   3.818   2.982   8.210  0.2675 -0.5156  0.8084
 2769SOL    HW219767   3.923   3.079   8.246 -1.0558 -2.4741  1.7522
 2770SOL     OW19768   4.362   1.231   1.064 -0.5745  0.0641 -0.3146
 2770SOL    HW119769   4.367   1.136   1.061  2.5309  0.2228 -0.0245
 2770SOL    HW219770   4.294   1.244   0.997 -1.1720 -1.3239  0.0308
 2771SOL     OW19771   0.045   4.014   2.101  0.2912 -0.2423 -0.9294
 2771SOL    HW119772   0.128   3.976   2.073  2.3532  4.3616 -1.1125
 2771SOL    HW219773   0.087   4.098   2.121 -1.5530 -0.0016  1.9312
 2772SOL     OW19774   0.488   2.164   6.630  0.3082  0.2738  0.1809
 2772SOL    HW119775   0.508   2.231   6.696 -0.0070 -1.5731  2.1456
 2772SOL    HW219776   0.546   2.092   6.655 -0.8100 -0.8004 -0.3649
 2773SOL     OW19777   0.162   4.713  11.580 -0.4224 -0.5750 -0.2890
 2773SOL    HW119778   0.150   4.670  11.665 -1.3151 -1.1922 -0.7355
 2773SOL    HW219779   0.190   0.081  11.592 -1.1571 -0.0805 -2.3447
 2774SOL     OW19780   4.578   4.213  17.087 -0.1446  0.6459 -0.1773
 2774SOL    HW119781   4.596   4.120  17.079  1.8839  0.9599  0.5867
 2774SOL    HW219782   4.586   4.214  17.183  0.4601 -2.5269 -0.2028
 2775SOL     OW19783   0.814   0.565  15.494  0.1701  0.0222  0.2202
 2775SOL    HW119784   0.826   0.504  15.421  0.3334 -2.1010  2.0651
 2775SOL    HW219785   0.789   0.643  15.444  1.1261  0.8006  0.9476
 2776SOL     OW19786   2.610   3.535  17.345  0.2705 -0.1782 -0.7865
 2776SOL    HW119787   2.673   3.483  17.395  2.7751  1.5110 -2.1553
 2776SOL    HW219788   2.596   3.482  17.267 -1.5514  0.0164 -0.5869
 2777SOL     OW19789   3.171   3.127  10.331 -0.2092 -0.8526 -1.5460
 2777SOL    HW119790   3.169   3.218  10.303 -1.4986 -1.0640 -2.1596
 2777SOL    HW219791   3.266   3.118  10.340 -0.3481 -2.1302 -1.4187
 2778SOL     OW19792   1.946   4.379   3.341  0.0362 -0.3843 -0.0398
 2778SOL    HW119793   1.906   4.304   3.385  0.4351 -0.9002 -0.5556
 2778SOL    HW219794   1.980   4.416   3.423 -2.3934 -1.3327  1.3949
 2779SOL     OW19795   3.270   2.398   7.214 -0.0906  0.0200  0.0099
 2779SOL    HW119796   3.254   2.488   7.244 -1.9920  0.4220 -2.2557
 2779SOL    HW219797   3.365   2.401   7.201  0.3226 -0.3435  2.9658
 2780SOL     OW19798   2.227   3.709   5.062  0.7091  0.7094 -0.1695
 2780SOL    HW119799   2.160   3.743   5.002 -0.9564  0.4370  1.5375
 2780SOL    HW219800   2.175   3.650   5.117 -2.3240  1.1185 -2.5738
 2781SOL     OW19801   0.690   4.185   2.783  0.1321  0.7180 -0.4853
 2781SOL    HW119802   0.675   4.273   2.750 -0.6903 -0.0560 -2.1578
 2781SOL    HW219803   0.729   4.210   2.867 -1.5474  0.3937  0.3796
 2782SOL     OW19804   1.165   0.686   0.157 -0.0313  0.0272 -0.1490
 2782SOL    HW119805   1.152   0.593   0.136  2.5031 -0.6829  1.4648
 2782SOL    HW219806   1.260   0.686   0.162 -0.0239  1.7415 -0.2998
 2783SOL     OW19807   4.159   1.777   8.334 -0.5675  0.1385 -0.3622
 2783SOL    HW119808   4.123   1.749   8.418  1.2693 -0.9855  0.0388
 2783SOL    HW219809   4.088   1.757   8.273 -0.8242 -1.0912  0.3498
 2784SOL     OW19810   1.840   2.246   8.192 -0.0941  0.1904  0.3550
 2784SOL    HW119811   1.767   2.204   8.237 -0.7294 -0.5537 -1.3955
 2784SOL    HW219812   1.859   2.184   8.122  1.4278  0.8473  0.1752
 2785SOL     OW19813   0.325   1.858   0.375 -0.4813 -0.1868 -0.4560
 2785SOL    HW119814   0.309   1.895   0.289  1.6140 -0.0582 -0.7949
 2785SOL    HW219815   0.361   1.775   0.345 -1.0063 -0.6635  0.2186
 2786SOL     OW19816   0.562   0.619   3.455 -0.1405  0.0342  0.3455
 2786SOL    HW119817   0.529   0.531   3.436 -2.9616  1.0447  0.6206
 2786SOL    HW219818   0.498   0.647   3.520  0.7935 -0.3203  1.4113
 2787SOL     OW19819   0.151   3.227   2.617  0.2237  0.8671  0.0863
 2787SOL    HW119820   0.075   3.283   2.605  0.7599  1.4837 -0.4509
 2787SOL    HW219821   0.123   3.150   2.568 -1.5039  1.2769  0.4411
 2788SOL     OW19822   4.460   0.363  15.107  0.1704 -0.0617 -0.1414
 2788SOL    HW119823   4.547   0.339  15.139 -1.3202 -1.2787  2.9537
 2788SOL    HW219824   4.478   0.407  15.024 -1.7144  0.6600 -0.1789
 2789SOL     OW19825   1.221   4.425   1.656 -0.1088  0.3712  0.0971
 2789SOL    HW119826   1.133   4.418   1.693  0.9692 -0.0518  2.6474
 2789SOL    HW219827   1.260   4.474   1.729 -0.0005 -1.5489  1.3201
 2790SOL     OW19828   1.393   3.641   3.177  0.2057 -0.3326  0.1062
 2790SOL    HW119829   1.402   3.695   3.099  0.7867  2.1792  1.9007
 2790SOL    HW219830   1.474   3.590   3.170  0.4809  0.2296 -0.7586
 2791SOL     OW19831   4.450   3.967   6.528 -0.7305 -0.2829 -0.1653
 2791SOL    HW119832   4.480   3.963   6.618 -1.3244  0.6028  0.0734
 2791SOL    HW219833   4.414   3.879   6.515 -0.6969 -0.0500 -1.9553
 2792SOL     OW19834   1.033   2.696  10.426 -0.1315 -0.1913  0.3736
 2792SOL    HW119835   1.106   2.727  10.481 -0.7648 -0.1431  1.1915
 2792SOL    HW219836   0.967   2.747  10.473 -0.5276 -0.4521  0.0930
 2793SOL     OW19837   3.366   1.488   6.707  0.1793 -0.4469  0.1086
 2793SOL    HW119838   3.412   1.432   6.645  0.4886  0.9777 -0.9356
 2793SOL    HW219839   3.316   1.550   6.654 -0.7381 -0.9193  0.4114
 2794SOL     OW19840   4.275   0.234   7.753 -0.4055 -0.4979  0.1129
 2794SOL    HW119841   4.343   0.256   7.689 -1.2326  3.5412  0.6564
 2794SOL    HW219842   4.304   0.299   7.817 -0.7629 -0.3920  0.1628
 2795SOL     OW19843   2.025   2.435   3.914 -0.2452  0.5067 -0.1519
 2795SOL    HW119844   1.945   2.410   3.961 -0.3638  0.7288 -0.2354
 2795SOL    HW219845   2.076   2.355   3.918 -0.3673  0.4347 -0.0249
 2796SOL     OW19846   0.300   2.100  10.086  0.0305 -0.2561 -0.7434
 2796SOL    HW119847   0.213   2.075  10.055 -0.6266  0.9368  0.1596
 2796SOL    HW219848   0.328   2.014  10.119 -0.5291 -0.4515 -0.7776
 2797SOL     OW19849   0.357   3.781   5.569 -0.2364 -1.0006 -0.1961
 2797SOL    HW119850   0.448   3.797   5.547 -0.4491 -0.4480 -0.6814
 2797SOL    HW219851   0.325   3.789   5.479 -2.1260  2.2236  0.7111
 2798SOL     OW19852   4.370   0.173   6.158 -0.0017 -0.5279 -0.2461
 2798SOL    HW119853   4.300   0.108   6.148 -0.1980 -0.1215 -1.5628
 2798SOL    HW219854   4.442   0.119   6.125  0.3548 -0.4638  0.4300
 2799SOL     OW19855   1.725   2.866   8.777 -0.2096  0.5568  0.3868
 2799SOL    HW119856   1.688   2.927   8.714 -2.0804  0.3937  1.3392
 2799SOL    HW219857   1.820   2.883   8.778 -0.1290  0.1254 -0.3005
 2800SOL     OW19858   4.431   2.337  10.449  0.1162  0.0570  0.7593
 2800SOL    HW119859   4.406   2.250  10.481 -0.8846 -0.9134 -2.7425
 2800SOL    HW219860   4.445   2.320  10.356 -1.6289 -1.1598  0.7072
 2801SOL     OW19861   1.532   1.116   3.094 -0.2529  0.0868 -0.6071
 2801SOL    HW119862   1.498   1.048   3.036  1.5113 -2.1973  1.0889
 2801SOL    HW219863   1.584   1.063   3.153 -1.8525 -2.4503 -1.4914
 2802SOL     OW19864   1.403   3.097  13.643 -0.2001  0.0105 -0.0201
 2802SOL    HW119865   1.474   3.063  13.697  0.3897  3.6473  1.4696
 2802SOL    HW219866   1.324   3.084  13.695  1.0569 -0.7527  1.6948
 2803SOL     OW19867   0.969   2.031   5.831 -0.4029 -0.0886  0.1338
 2803SOL    HW119868   0.999   2.122   5.831 -0.1761 -0.1769 -2.0258
 2803SOL    HW219869   0.986   2.008   5.740  0.6766 -0.9964  0.5690
 2804SOL     OW19870   4.247   2.879   1.936  0.0254 -0.0303  0.3016
 2804SOL    HW119871   4.295   2.952   1.896  0.0643 -0.6302 -0.7552
 2804SOL    HW219872   4.157   2.905   1.952  0.3231  1.5864 -0.6607
 2805SOL     OW19873   4.247   4.347   4.753  0.1015 -0.1253  0.4939
 2805SOL    HW119874   4.268   4.438   4.775 -0.0212 -0.3883  1.7163
 2805SOL    HW219875   4.195   4.331   4.832 -0.0081 -2.0865  0.0126
 2806SOL     OW19876   2.064   0.319   3.882 -0.6018  0.2261 -0.7263
 2806SOL    HW119877   2.049   0.291   3.973 -1.0766 -0.8365 -1.1370
 2806SOL    HW219878   2.098   0.409   3.893  0.3046 -0.2966  0.8724
 2807SOL     OW19879   1.926   0.045   3.571  0.1607  0.7767  0.0067
 2807SOL    HW119880   1.864   4.695   3.563 -0.9967  1.4003  3.0110
 2807SOL    HW219881   1.981   0.029   3.495  0.9452 -1.7351  1.0897
 2808SOL     OW19882   2.162   2.950   2.365 -0.5648  0.6710  0.3014
 2808SOL    HW119883   2.084   2.898   2.346 -0.3360  0.9980 -1.5084
 2808SOL    HW219884   2.120   3.033   2.386 -1.5274  0.1038  0.6239
 2809SOL     OW19885   0.695   3.698   3.920 -0.1422  0.5075 -0.8048
 2809SOL    HW119886   0.791   3.699   3.920 -0.1445  0.7195  1.6942
 2809SOL    HW219887   0.672   3.737   4.004  0.0029  0.1407 -0.5980
 2810SOL     OW19888   1.253   3.360   6.273 -0.3696 -0.5738 -0.7325
 2810SOL    HW119889   1.303   3.280   6.256 -1.1105 -1.3482  0.7140
 2810SOL    HW219890   1.305   3.430   6.234  1.6206 -2.0497 -0.7401
 2811SOL     OW19891   3.165   4.397  12.052 -0.2376 -0.6294  0.1424
 2811SOL    HW119892   3.253   4.417  12.083 -0.9413 -0.6049  2.1789
 2811SOL    HW219893   3.145   4.305  12.067 -1.4977 -0.5903 -1.2711
 2812SOL     OW19894   3.706   2.951   8.566 -0.3588  0.1899  0.3971
 2812SOL    HW119895   3.634   2.924   8.508  2.2482 -4.2914 -0.7562
 2812SOL    HW219896   3.762   2.873   8.568 -1.2853 -0.5800 -2.6565
 2813SOL     OW19897   4.368   0.961   8.013  0.1187 -0.0827 -0.2657
 2813SOL    HW119898   4.306   1.030   8.037  0.2387 -1.0015  2.7659
 2813SOL    HW219899   4.427   1.001   7.949  0.2220 -1.3627 -0.9658
 2814SOL     OW19900   0.944   2.253   7.518 -0.4455  0.1140 -0.5769
 2814SOL    HW119901   0.984   2.215   7.596  1.2842  0.7439 -1.1657
 2814SOL    HW219902   1.018   2.270   7.461  0.3748 -2.1470 -0.1533
 2815SOL     OW19903   3.409   3.200   2.213 -0.1237  0.2396  0.1999
 2815SOL    HW119904   3.489   3.151   2.229  0.8470  0.2285 -4.5985
 2815SOL    HW219905   3.433   3.248   2.133 -0.0766  0.9991  0.6710
 2816SOL     OW19906   0.653   1.646  11.756  0.2281 -0.3201  0.4433
 2816SOL    HW119907   0.561   1.670  11.759  0.1119 -1.1349  3.0163
 2816SOL    HW219908   0.690   1.697  11.684 -1.5568  0.8308  0.3521
 2817SOL     OW19909   1.274   1.449   9.603 -0.6004  0.0043 -0.6056
 2817SOL    HW119910   1.220   1.377   9.635  0.7741 -0.4535  0.6657
 2817SOL    HW219911   1.241   1.516   9.663 -1.0081  1.6571 -2.7025
 2818SOL     OW19912   4.200   1.483   1.724  0.7713  0.1139 -0.0229
 2818SOL    HW119913   4.218   1.565   1.678  1.1772 -0.3739 -0.7267
 2818SOL    HW219914   4.185   1.516   1.813  1.8396 -0.7592  0.4954
 2819SOL     OW19915   4.149   2.560   1.130 -0.3581  0.0154 -0.7280
 2819SOL    HW119916   4.146   2.488   1.193 -1.7831 -0.2932 -1.1471
 2819SOL    HW219917   4.178   2.518   1.050 -2.6261  1.3677 -2.2751
 2820SOL     OW19918   2.560   0.052  12.668 -0.4288  0.7877 -0.5937
 2820SOL    HW119919   2.505   0.004  12.606  2.1225 -1.0673 -1.3843
 2820SOL    HW219920   2.494   0.118  12.690  0.2074  1.1731  0.1417
 2821SOL     OW19921   2.846   2.279   6.997 -0.0246  0.1691 -0.2657
 2821SOL    HW119922   2.915   2.328   6.953 -1.1866  2.2735  0.2314
 2821SOL    HW219923   2.775   2.303   6.936  0.7681  1.2444 -0.7674
 2822SOL     OW19924   1.098   2.380  14.836 -0.1197 -0.1634 -0.3537
 2822SOL    HW119925   1.070   2.387  14.744 -0.2238 -2.0122 -0.4581
 2822SOL    HW219926   1.097   2.474  14.851 -0.0001 -0.2543  0.2192
 2823SOL     OW19927   4.713   1.378  14.474 -0.2409 -0.4199 -0.0626
 2823SOL    HW119928   4.689   1.288  14.496 -1.0268 -0.1827  0.0537
 2823SOL    HW219929   0.008   1.367  14.381 -0.1252 -0.5006 -0.0322
 2824SOL     OW19930   1.780   1.536  12.902 -0.0020 -0.3238 -0.2461
 2824SOL    HW119931   1.809   1.546  12.993 -0.5830  1.8125 -0.2954
 2824SOL    HW219932   1.725   1.612  12.884 -1.2421 -0.8583  1.3016
 2825SOL     OW19933   1.606   0.782   5.051  0.2556  0.5114 -0.3515
 2825SOL    HW119934   1.696   0.755   5.068 -0.8614 -2.4505  0.8063
 2825SOL    HW219935   1.557   0.700   5.049  0.0439  0.6499 -1.0362
 2826SOL     OW19936   1.209   4.192   2.777  0.5138 -0.3382  0.0830
 2826SOL    HW119937   1.196   4.129   2.849  0.3278 -2.2115 -1.6072
 2826SOL    HW219938   1.147   4.259   2.807  0.1158  0.4651 -2.5661
 2827SOL     OW19939   0.086   4.455   7.700 -0.1524  0.2266 -0.3627
 2827SOL    HW119940   0.101   4.465   7.794 -0.0144  0.4782 -0.4133
 2827SOL    HW219941   0.146   4.383   7.684  0.3680  0.1983  1.7225
 2828SOL     OW19942   3.168   0.796   5.061 -0.1032  0.2502 -0.1405
 2828SOL    HW119943   3.140   0.756   5.144 -1.5102  1.3620 -0.0805
 2828SOL    HW219944   3.262   0.810   5.074 -0.5101  0.4110  2.6874
 2829SOL     OW19945   2.683   1.167  10.849  0.0190 -0.2467 -0.0360
 2829SOL    HW119946   2.661   1.107  10.779 -2.0645  0.0038  0.4185
 2829SOL    HW219947   2.665   1.114  10.927  1.1987  0.4263  0.6960
 2830SOL     OW19948   3.506   0.860   2.381 -0.0423 -0.2515 -0.0082
 2830SOL    HW119949   3.564   0.925   2.420  1.1516 -1.2705 -0.0909
 2830SOL    HW219950   3.477   0.902   2.300  1.5346 -3.2423 -2.1347
 2831SOL     OW19951   0.989   4.248   3.615  0.4122  0.7196  0.3578
 2831SOL    HW119952   0.943   4.290   3.543 -0.0185  0.8965  0.7395
 2831SOL    HW219953   1.063   4.304   3.642  0.3796  0.3784  1.1479
 2832SOL     OW19954   0.269   1.766   8.005 -0.4523  0.3734  0.2392
 2832SOL    HW119955   0.286   1.835   8.069 -1.6423  1.5901 -0.7559
 2832SOL    HW219956   0.184   1.735   8.038 -0.3080  1.4454  1.6027
 2833SOL     OW19957   0.897   0.811  11.293  0.3812 -0.0542  0.4324
 2833SOL    HW119958   0.989   0.828  11.312  0.3901  1.9813 -1.4091
 2833SOL    HW219959   0.877   0.844  11.205 -4.3865 -0.8454  1.2305
 2834SOL     OW19960   2.982   0.153  14.381 -0.0285  0.1844 -0.2779
 2834SOL    HW119961   2.968   0.129  14.290 -0.4281  0.3403 -0.2599
 2834SOL    HW219962   2.941   0.077  14.423 -0.5695  1.1284  0.9068
 2835SOL     OW19963   1.790   1.163   6.622  0.2849  0.4882 -0.0977
 2835SOL    HW119964   1.803   1.109   6.699  1.0002 -0.4703 -0.8881
 2835SOL    HW219965   1.792   1.101   6.549  0.4157 -0.0622  0.3732
 2836SOL     OW19966   0.467   2.461   7.259 -0.3895  0.0914  0.2783
 2836SOL    HW119967   0.491   2.421   7.175  1.4764 -0.7722  1.2460
 2836SOL    HW219968   0.504   2.546   7.236  1.1421  0.1774  3.0639
 2837SOL     OW19969   4.335   0.281  10.387 -0.4676 -0.5863  0.6254
 2837SOL    HW119970   4.251   0.325  10.400  0.5209  1.1280  1.1781
 2837SOL    HW219971   4.380   0.312  10.465 -0.8257  2.4226 -0.3458
 2838SOL     OW19972   2.849   3.165  12.151 -0.3364 -0.0023  0.2901
 2838SOL    HW119973   2.798   3.220  12.091 -1.5059  0.5737  1.8191
 2838SOL    HW219974   2.924   3.135  12.099 -0.0691  0.1160  0.6089
 2839SOL     OW19975   2.583   3.949   9.006 -0.1125 -0.2190  0.0583
 2839SOL    HW119976   2.559   4.014   9.072  1.2357 -1.7701  2.1061
 2839SOL    HW219977   2.530   3.973   8.930  1.3317  1.4276 -0.4154
 2840SOL     OW19978   1.452   2.698   3.794 -0.3161  0.3278  0.0990
 2840SOL    HW119979   1.361   2.702   3.822 -0.6845  2.3307 -1.3865
 2840SOL    HW219980   1.437   2.647   3.715 -0.7328  0.4237  0.1153
 2841SOL     OW19981   0.114   2.244   3.766 -1.3071  0.2797  0.0144
 2841SOL    HW119982   0.165   2.258   3.686 -1.9391 -0.3757 -0.5084
 2841SOL    HW219983   0.099   2.333   3.797 -0.9379 -0.7680  3.1768
 2842SOL     OW19984   2.963   2.059  14.744 -0.3723  0.1216 -0.2531
 2842SOL    HW119985   3.032   2.009  14.700  0.4681  0.0726  1.1066
 2842SOL    HW219986   2.935   2.005  14.818  0.9554 -2.1165 -1.3748
 2843SOL     OW19987   3.184   4.633   5.314 -0.7851 -0.4137 -0.5285
 2843SOL    HW119988   3.151   4.720   5.290 -1.3642 -0.1937  1.0941
 2843SOL    HW219989   3.184   4.591   5.228 -2.7543 -0.8060 -0.3295
 2844SOL     OW19990   4.046   0.083   9.074  0.5846  0.1738 -0.1954
 2844SOL    HW119991   4.008   0.063   9.159  4.5418  0.5269  1.6425
 2844SOL    HW219992   4.052   0.002   9.023  0.1911 -0.4789  0.8139
 2845SOL     OW19993   2.104   3.838   8.755  0.0801 -0.1582  0.0964
 2845SOL    HW119994   2.112   3.831   8.850 -1.2797 -2.7909  0.0396
 2845SOL    HW219995   2.017   3.878   8.755 -0.6796 -1.8176  0.3562
 2846SOL     OW19996   4.226   1.366  16.211  0.2899  0.4433 -0.0524
 2846SOL    HW119997   4.306   1.361  16.264 -0.1756 -1.2191  0.4634
 2846SOL    HW219998   4.188   1.279  16.221  0.0130  0.7862  1.9864
 2847SOL     OW19999   2.705   0.663  13.320  0.3422 -0.3963  0.6192
 2847SOL    HW120000   2.770   0.665  13.250  0.0664  1.3335  0.4137
 2847SOL    HW220001   2.772   0.659  13.389 -0.4015  0.3500  1.3675
 2848SOL     OW20002   1.060   2.973   8.347  0.6126  0.2789 -0.3295
 2848SOL    HW120003   0.972   2.999   8.374  0.4901  1.5390 -1.9374
 2848SOL    HW220004   1.070   2.992   8.254 -0.9429 -1.5840 -0.8769
 2849SOL     OW20005   4.675   3.123   2.379  0.1132 -0.2328  0.2301
 2849SOL    HW120006   0.042   3.114   2.347 -0.3343 -2.8756 -0.3063
 2849SOL    HW220007   4.677   3.213   2.412  0.7427  0.4164 -1.6410
 2850SOL     OW20008   3.737   4.225   8.650  0.0101 -0.0456  0.0475
 2850SOL    HW120009   3.696   4.309   8.669 -3.0533 -1.0919 -1.8564
 2850SOL    HW220010   3.828   4.249   8.666 -0.8203  3.1114  0.1248
 2851SOL     OW20011   1.536   3.717   8.766  0.3065 -0.3904 -0.1006
 2851SOL    HW120012   1.571   3.628   8.757 -2.7143 -1.8988  2.7028
 2851SOL    HW220013   1.442   3.708   8.751  0.4492 -0.0987 -1.1892
 2852SOL     OW20014   2.796   2.785   1.230  0.5925 -0.3501 -0.2310
 2852SOL    HW120015   2.766   2.754   1.316  1.0898  0.6200  0.2912
 2852SOL    HW220016   2.789   2.880   1.233  0.8782 -0.3088 -1.0134
 2853SOL     OW20017   1.726   0.238  13.543 -0.4535 -0.3652  0.5102
 2853SOL    HW120018   1.781   0.218  13.618  0.7666 -0.4528 -0.4191
 2853SOL    HW220019   1.794   0.272  13.485 -0.5582 -1.6466 -0.3544
 2854SOL     OW20020   0.507   4.453   6.970  0.2470  0.2502 -0.6905
 2854SOL    HW120021   0.477   4.512   6.901 -2.0466  0.6694  0.6544
 2854SOL    HW220022   0.574   4.496   7.022  0.5615 -1.3665  0.2480
 2855SOL     OW20023   0.545   4.118   8.068 -0.8720 -0.1496  0.0259
 2855SOL    HW120024   0.637   4.107   8.045 -1.4252  0.0382 -2.2538
 2855SOL    HW220025   0.534   4.042   8.126  0.2577 -1.0161 -0.8847
 2856SOL     OW20026   4.356   1.948   1.392  0.1659 -0.2855  0.7123
 2856SOL    HW120027   4.413   2.007   1.441 -0.2107  1.2524 -0.6871
 2856SOL    HW220028   4.352   1.990   1.306  1.4867  0.6884  1.1320
 2857SOL     OW20029   2.027   2.124  14.687 -0.2754  0.6157  0.2601
 2857SOL    HW120030   2.079   2.204  14.690  2.2048 -1.0080  1.1898
 2857SOL    HW220031   1.938   2.157  14.676 -0.6033 -0.3101  0.0972
 2858SOL     OW20032   3.462   0.916   6.506  0.3324  0.1039  0.3925
 2858SOL    HW120033   3.526   0.850   6.480  0.3561  0.2072  0.1867
 2858SOL    HW220034   3.390   0.855   6.525 -1.9874  2.9261  0.6690
 2859SOL     OW20035   2.644   3.008   6.793 -0.0231  0.2586 -0.4765
 2859SOL    HW120036   2.633   2.918   6.824  0.8558  0.4916  0.5012
 2859SOL    HW220037   2.581   3.056   6.847 -1.1846 -0.3936 -1.2496
 2860SOL     OW20038   4.574   3.404   4.412  0.1594 -0.2348  0.0220
 2860SOL    HW120039   4.538   3.443   4.332 -0.4175  0.8132  0.7949
 2860SOL    HW220040   4.528   3.460   4.475  0.1826  1.3924 -1.4036
 2861SOL     OW20041   3.190   4.426   6.402 -0.5740 -0.3228  0.3604
 2861SOL    HW120042   3.264   4.365   6.404 -0.5618 -0.3588 -1.0935
 2861SOL    HW220043   3.121   4.360   6.408  0.0978 -1.1150 -0.4738
 2862SOL     OW20044   4.280   2.774  10.359 -0.0733  0.5147  0.3126
 2862SOL    HW120045   4.271   2.869  10.355 -2.3452  0.3410  1.5274
 2862SOL    HW220046   4.374   2.760  10.350  0.2628  2.5035  0.7962
 2863SOL     OW20047   0.994   4.715   2.230 -0.7431  0.3937 -0.1050
 2863SOL    HW120048   0.932   0.060   2.203 -1.1313 -0.3877 -1.1647
 2863SOL    HW220049   0.979   4.649   2.162  0.8129 -1.1595  1.0622
 2864SOL     OW20050   0.906   1.561   3.056 -0.0595  0.5087 -0.1961
 2864SOL    HW120051   0.940   1.492   2.999  0.6815  1.2829 -0.6899
 2864SOL    HW220052   0.986   1.614   3.059  0.3846 -0.1139 -0.8946
 2865SOL     OW20053   2.498   3.604  14.078 -0.3838  0.1450 -0.2321
 2865SOL    HW120054   2.588   3.626  14.101  0.2472 -1.5785 -1.0892
 2865SOL    HW220055   2.456   3.668  14.136 -0.0311 -0.5842  0.8240
 2866SOL     OW20056   2.250   3.759   3.445  0.7099  0.4722 -0.0869
 2866SOL    HW120057   2.252   3.729   3.536  1.7661  2.2467  0.4761
 2866SOL    HW220058   2.190   3.691   3.415  0.5398  0.2266  0.8365
 2867SOL     OW20059   1.789   0.848   4.650  0.4035 -0.2823 -0.0033
 2867SOL    HW120060   1.723   0.896   4.700 -0.4459 -2.6062  1.1337
 2867SOL    HW220061   1.807   0.777   4.713 -0.8160 -1.7561 -1.3157
 2868SOL     OW20062   1.631   2.430  11.576 -0.3241 -0.8007 -0.4421
 2868SOL    HW120063   1.653   2.338  11.559 -2.4415 -1.1968 -1.0809
 2868SOL    HW220064   1.535   2.422  11.570 -0.0699 -1.2908 -3.5500
 2869SOL     OW20065   3.719   4.674  14.872 -0.3023 -0.2489 -0.5647
 2869SOL    HW120066   3.750   4.588  14.899  0.1291 -0.0978 -0.5816
 2869SOL    HW220067   3.752   4.684  14.783 -2.2448 -0.3412 -1.3039
 2870SOL     OW20068   0.538   3.955  17.683  0.1173  0.0686 -0.4150
 2870SOL    HW120069   0.461   3.916   0.032 -0.3006 -1.1955 -2.4007
 2870SOL    HW220070   0.608   3.893   0.012 -1.4128 -2.2068 -1.9922
 2871SOL     OW20071   1.239   0.860   4.832 -0.3504  0.4293  0.1913
 2871SOL    HW120072   1.169   0.874   4.768  0.5391 -1.4213 -1.1683
 2871SOL    HW220073   1.257   0.954   4.838  1.3216  0.0618  0.9852
 2872SOL     OW20074   1.759   4.182   7.649  0.4475  0.0411  0.5411
 2872SOL    HW120075   1.847   4.168   7.686  1.1545  0.6290 -0.9109
 2872SOL    HW220076   1.771   4.205   7.557  2.8708 -2.9577  0.0869
 2873SOL     OW20077   1.435   3.142  10.111 -0.8401  0.2214 -0.5437
 2873SOL    HW120078   1.365   3.202  10.137 -0.4949  0.9825 -1.4023
 2873SOL    HW220079   1.482   3.113  10.189 -1.6247 -2.3080 -1.0017
 2874SOL     OW20080   3.894   0.858  11.875 -0.1100  0.4695 -0.2776
 2874SOL    HW120081   3.960   0.927  11.862  0.3329 -0.0861 -1.0143
 2874SOL    HW220082   3.940   0.781  11.840 -1.7976 -1.2761  1.3678
 2875SOL     OW20083   1.810   1.792   0.488  0.0158  0.3571  0.4283
 2875SOL    HW120084   1.839   1.877   0.521 -2.1424  1.1703  0.2388
 2875SOL    HW220085   1.784   1.746   0.567 -0.8565  1.5313  0.8320
 2876SOL     OW20086   0.186   0.065   8.028 -0.0096 -0.2194  0.4683
 2876SOL    HW120087   0.124   4.722   7.996 -0.5283 -0.4632  1.9415
 2876SOL    HW220088   0.264   0.010   8.035 -0.3817 -0.9651 -1.3254
 2877SOL     OW20089   4.506   3.004   1.180  0.2972  0.4079  0.1807
 2877SOL    HW120090   4.451   2.928   1.161  2.6420 -1.2488  0.0840
 2877SOL    HW220091   4.567   3.003   1.107 -0.7108  1.0268 -0.6783
 2878SOL     OW20092   4.647   3.465   2.006  0.2221 -0.3094 -0.5250
 2878SOL    HW120093   4.593   3.434   2.079 -0.7699 -0.8775 -1.4992
 2878SOL    HW220094   4.652   3.560   2.021 -0.2623 -0.5796  1.4390
 2879SOL     OW20095   1.971   2.349   3.031  0.6938 -0.0368 -0.0261
 2879SOL    HW120096   2.012   2.394   3.105 -0.3215 -0.2338  0.6560
 2879SOL    HW220097   1.923   2.282   3.080  1.3047  0.5255  1.3502
 2880SOL     OW20098   2.609   4.368   2.530 -0.5317  0.4745 -0.2193
 2880SOL    HW120099   2.540   4.376   2.597 -0.5681 -1.9160  0.0071
 2880SOL    HW220100   2.655   4.288   2.552 -0.9845  0.0547 -0.8108
 2881SOL     OW20101   4.357   3.899   6.009 -0.3407  0.3163  0.9339
 2881SOL    HW120102   4.354   3.803   6.013  0.6497  0.2719  0.4302
 2881SOL    HW220103   4.337   3.906   5.916 -0.1802  3.6657  1.1767
 2882SOL     OW20104   2.340   3.993   2.061 -0.0592  0.2397 -0.5724
 2882SOL    HW120105   2.275   3.963   1.998 -0.2349 -1.3449  0.3744
 2882SOL    HW220106   2.384   3.912   2.087  0.0073  0.7983  1.0334
 2883SOL     OW20107   1.992   2.484   1.254  0.0013 -0.2276 -0.0200
 2883SOL    HW120108   1.973   2.398   1.216  1.5900 -0.7010  0.2584
 2883SOL    HW220109   2.075   2.471   1.300  0.2542  1.5446  0.0183
 2884SOL     OW20110   3.543   0.118   2.529  0.0683 -0.4612 -0.4448
 2884SOL    HW120111   3.619   0.176   2.524 -1.4523  1.6197  0.2272
 2884SOL    HW220112   3.486   0.166   2.469 -0.5665 -1.4088 -0.5930
 2885SOL     OW20113   2.543   2.335  11.625  0.0269 -0.3456 -0.1313
 2885SOL    HW120114   2.548   2.241  11.645 -0.0520 -0.2654  0.2502
 2885SOL    HW220115   2.633   2.342  11.594  0.1997 -2.4307 -0.1338
 2886SOL     OW20116   1.240   0.088   9.006  0.5549  0.5475 -0.1507
 2886SOL    HW120117   1.299   0.164   9.004 -0.4282  1.3382  0.6045
 2886SOL    HW220118   1.268   0.061   8.918 -2.9182 -1.2945 -0.6774
 2887SOL     OW20119   3.744   1.632   7.537 -0.2397 -0.1244 -0.2865
 2887SOL    HW120120   3.693   1.644   7.457  0.4874  0.8762 -0.5959
 2887SOL    HW220121   3.678   1.636   7.606  2.5990 -0.4896  2.4824
 2888SOL     OW20122   1.093   2.010   3.538  0.7433  0.6761  0.7777
 2888SOL    HW120123   1.089   1.972   3.450  0.5119  0.0817  1.0420
 2888SOL    HW220124   1.062   1.936   3.591  3.2816  0.1935  1.5869
 2889SOL     OW20125   0.890   3.644   2.097 -0.1797 -0.4480  1.0030
 2889SOL    HW120126   0.829   3.654   2.171  0.5749  0.0036  1.5716
 2889SOL    HW220127   0.965   3.702   2.114  0.2012 -0.5417 -0.3959
 2890SOL     OW20128   1.834   2.052   6.299  0.0983  0.0871  0.5681
 2890SOL    HW120129   1.764   1.995   6.330 -0.6783  0.1990 -0.9753
 2890SOL    HW220130   1.913   2.000   6.316 -1.5292 -2.4816  0.1875
 2891SOL     OW20131   0.060   2.773  17.269  0.3921 -0.0486 -0.5617
 2891SOL    HW120132   0.083   2.837  17.336  0.9289 -1.5155  0.6497
 2891SOL    HW220133   0.044   2.827  17.192  2.9523  0.8906 -0.4251
 2892SOL     OW20134   0.871   2.679   6.004  0.4993  0.1882 -0.3342
 2892SOL    HW120135   0.894   2.725   5.924 -0.0631  1.2643  0.1292
 2892SOL    HW220136   0.808   2.743   6.035 -0.3402  0.9681 -3.6687
 2893SOL     OW20137   1.483   3.376   8.349 -0.4754 -0.9301 -0.2624
 2893SOL    HW120138   1.571   3.378   8.388 -0.0292  1.3027 -1.3375
 2893SOL    HW220139   1.495   3.355   8.257  1.7446 -1.6166  0.1757
 2894SOL     OW20140   1.390   3.008   6.986  0.0821 -0.5149  0.0233
 2894SOL    HW120141   1.376   3.101   6.967  1.0217 -0.2303  0.7216
 2894SOL    HW220142   1.300   2.979   6.977 -0.6669  1.4800  1.1475
 2895SOL     OW20143   2.659   4.673   5.974  0.4074  0.2909 -0.2697
 2895SOL    HW120144   2.587   0.009   5.951 -1.1220 -1.4161  0.1864
 2895SOL    HW220145   2.707   4.675   5.892 -0.4681  0.2462 -0.7865
 2896SOL     OW20146   3.366   3.108   8.444  0.0329  0.1861  0.1966
 2896SOL    HW120147   3.346   3.085   8.353  1.7485  2.2267 -0.6784
 2896SOL    HW220148   3.450   3.152   8.436 -0.4168  0.5280 -2.5501
 2897SOL     OW20149   0.590   3.940  14.148  0.3217 -0.1081 -0.6630
 2897SOL    HW120150   0.559   3.858  14.110 -1.7462  1.5204 -2.4880
 2897SOL    HW220151   0.680   3.943  14.117  0.2343 -0.3541 -0.9342
 2898SOL     OW20152   4.273   3.481   3.332  0.5071  0.0415  0.6045
 2898SOL    HW120153   4.221   3.401   3.333  0.5318  0.0097 -0.9411
 2898SOL    HW220154   4.208   3.532   3.284 -0.2420 -0.0038  1.5572
 2899SOL     OW20155   4.593   1.191   5.524  0.1328 -0.1660 -0.2226
 2899SOL    HW120156   4.585   1.270   5.577 -2.0251 -0.2519 -0.4028
 2899SOL    HW220157   4.652   1.146   5.584  1.7458 -1.8976 -3.1371
 2900SOL     OW20158   2.865   4.576   5.099 -0.5747  0.4542 -0.4278
 2900SOL    HW120159   2.814   4.518   5.041 -2.7371  0.8260  1.0868
 2900SOL    HW220160   2.951   4.535   5.096 -1.3887 -1.1913 -1.6994
 2901SOL     OW20161   0.352   3.435   3.611 -0.4879  0.5395  0.2167
 2901SOL    HW120162   0.372   3.386   3.691  0.5698  0.7003  0.0572
 2901SOL    HW220163   0.437   3.440   3.567  0.4407 -0.2594  1.9072
 2902SOL     OW20164   1.568   1.040   6.820  0.5952  0.0767 -0.3368
 2902SOL    HW120165   1.546   1.119   6.870 -0.3394 -1.3749  1.5668
 2902SOL    HW220166   1.484   1.035   6.773  0.4878  0.6319 -0.2011
 2903SOL     OW20167   2.576   0.897  16.709  0.4968  0.6125 -0.1508
 2903SOL    HW120168   2.526   0.953  16.768  1.3016  0.8174  0.3413
 2903SOL    HW220169   2.528   0.816  16.724 -0.9032  1.1963 -1.4329
 2904SOL     OW20170   0.450   0.528   0.618  0.1014 -0.3965  0.4765
 2904SOL    HW120171   0.482   0.483   0.697  0.4970  3.7095  2.6467
 2904SOL    HW220172   0.360   0.496   0.611  0.5781 -1.4288 -0.9265
 2905SOL     OW20173   2.467   0.461   3.386  0.2122  0.3851 -0.7638
 2905SOL    HW120174   2.432   0.550   3.386 -1.8818 -0.4321 -0.4964
 2905SOL    HW220175   2.502   0.457   3.475 -1.4685  0.0207 -0.1184
 2906SOL     OW20176   2.277   2.461   8.549 -0.5400 -0.4514  0.0864
 2906SOL    HW120177   2.353   2.472   8.607 -1.3210  1.5048  0.7476
 2906SOL    HW220178   2.222   2.538   8.561 -1.6548 -1.0769 -0.9895
 2907SOL     OW20179   2.468   4.595   3.396 -0.1249 -0.3503 -0.1401
 2907SOL    HW120180   2.490   4.657   3.465 -0.2019 -1.1223  0.5712
 2907SOL    HW220181   2.555   4.561   3.378 -0.4088  0.5946 -3.3165
 2908SOL     OW20182   2.090   1.507   5.114  0.5281 -0.1612  0.1296
 2908SOL    HW120183   2.054   1.500   5.025 -0.2668  0.9330  0.3606
 2908SOL    HW220184   2.078   1.420   5.153 -0.1808 -0.5472 -0.9583
 2909SOL     OW20185   2.017   1.681   5.388 -0.3267  0.3823 -0.4312
 2909SOL    HW120186   2.109   1.658   5.376 -0.6999 -0.7592 -1.0841
 2909SOL    HW220187   2.008   1.773   5.413  2.3086  0.1810  1.2808
 2910SOL     OW20188   4.077   4.420   3.496  0.4198 -0.5680 -0.6659
 2910SOL    HW120189   4.058   4.469   3.416  0.4816 -1.1135 -1.0098
 2910SOL    HW220190   4.165   4.384   3.496  1.6132  2.3975 -0.1188
 2911SOL     OW20191   3.059   1.195   3.952  0.2814 -0.3667 -0.1318
 2911SOL    HW120192   3.036   1.247   3.875 -0.8550 -1.9791 -0.8760
 2911SOL    HW220193   3.102   1.262   4.005 -0.8250  0.9543 -0.8901
 2912SOL     OW20194   3.043   1.958   7.340  0.2924  0.1189  0.4730
 2912SOL    HW120195   3.087   1.879   7.308  0.5527  1.0815 -1.4883
 2912SOL    HW220196   3.080   2.024   7.282  0.2575 -0.1816  0.1113
 2913SOL     OW20197   2.413   3.187   3.180  0.2570 -0.0108  0.7129
 2913SOL    HW120198   2.475   3.199   3.251  1.4120  1.6125 -0.5805
 2913SOL    HW220199   2.446   3.242   3.109  0.6512 -0.4750  0.5391
 2914SOL     OW20200   2.941   0.096   4.871  0.2681 -0.2114  0.3603
 2914SOL    HW120201   2.911   0.159   4.806 -0.6293 -0.4290  0.5665
 2914SOL    HW220202   3.032   0.091   4.842 -0.0951 -1.3985 -0.5540
 2915SOL     OW20203   4.424   1.540   4.865  0.1526  0.1186  0.4668
 2915SOL    HW120204   4.454   1.585   4.786  1.5906 -1.5538  0.0605
 2915SOL    HW220205   4.401   1.618   4.914  1.6084  1.3760 -0.8714
 2916SOL     OW20206   0.256   0.446   3.625  0.6332  0.4373 -0.2857
 2916SOL    HW120207   0.293   0.535   3.627  1.2990  0.1413  0.6476
 2916SOL    HW220208   0.212   0.454   3.709  3.9745 -0.7230  1.5826
 2917SOL     OW20209   2.441   0.543   5.702 -0.3979  1.2751 -0.3829
 2917SOL    HW120210   2.423   0.527   5.794 -0.8343  0.7818 -0.5508
 2917SOL    HW220211   2.494   0.621   5.715 -0.5122  0.7423  3.2041
 2918SOL     OW20212   0.793   4.321   2.361 -0.0051 -0.8053 -0.0371
 2918SOL    HW120213   0.884   4.334   2.338  0.4212 -2.7436  0.5452
 2918SOL    HW220214   0.793   4.227   2.343  2.1684 -0.7717 -0.1786
 2919SOL     OW20215   3.899   2.382  13.458  0.1856  0.2294  0.2887
 2919SOL    HW120216   3.821   2.329  13.441  0.3456 -0.2680  1.1264
 2919SOL    HW220217   3.881   2.412  13.547  0.2466  1.4623 -0.1159
 2920SOL     OW20218   3.175   0.330   9.078  1.0987  0.0104 -0.3862
 2920SOL    HW120219   3.189   0.244   9.040 -0.5135  0.2928 -1.6164
 2920SOL    HW220220   3.167   0.304   9.170  0.1863  1.9481  0.1069
 2921SOL     OW20221   2.414   0.977  13.316  0.0421 -0.4732  0.1862
 2921SOL    HW120222   2.431   0.908  13.252 -0.4041  0.6787 -1.1744
 2921SOL    HW220223   2.499   0.985  13.357  0.3767  2.4883 -1.0898
 2922SOL     OW20224   3.934   3.718   7.061 -0.1199 -0.1313  0.1575
 2922SOL    HW120225   3.995   3.786   7.090  1.8750 -1.8511 -0.0260
 2922SOL    HW220226   3.990   3.680   6.994  0.1884  1.1913 -0.3379
 2923SOL     OW20227   1.475   1.218   8.061 -0.2715 -0.1771  0.3824
 2923SOL    HW120228   1.388   1.179   8.069  0.0223 -0.8002  0.5481
 2923SOL    HW220229   1.531   1.142   8.076  0.3920 -0.1297 -1.8273
 2924SOL     OW20230   3.387   0.037  14.471  0.0948  0.7534  0.2191
 2924SOL    HW120231   3.383   0.017  14.565 -0.1113 -0.0622  0.0366
 2924SOL    HW220232   3.474   0.009  14.446  0.0425  0.1596  0.7026
 2925SOL     OW20233   0.295   0.861   0.850  0.2155 -0.2436  0.3441
 2925SOL    HW120234   0.232   0.888   0.917 -0.9361 -4.0089  0.7469
 2925SOL    HW220235   0.369   0.922   0.858  0.3308 -0.6407  2.2703
 2926SOL     OW20236   2.454   4.466   7.905  0.7032 -0.2807 -0.4383
 2926SOL    HW120237   2.529   4.499   7.955  0.2350 -1.0584  0.7567
 2926SOL    HW220238   2.418   4.394   7.956  1.4284  0.6511  1.3948
 2927SOL     OW20239   0.483   3.645   9.206 -0.0674 -0.1129 -0.5922
 2927SOL    HW120240   0.559   3.658   9.263 -0.5567  1.3497 -0.2694
 2927SOL    HW220241   0.454   3.736   9.197  0.5812  0.0910 -0.6083
 2928SOL     OW20242   2.840   2.786  15.351 -0.3113  0.1332  0.0438
 2928SOL    HW120243   2.903   2.714  15.348 -0.7356 -0.2335 -0.1419
 2928SOL    HW220244   2.889   2.858  15.312  0.6944 -0.7444 -0.3110
 2929SOL     OW20245   0.607   2.898   4.097 -0.7920  0.4987  0.7027
 2929SOL    HW120246   0.568   2.812   4.083 -0.1351  0.1356  1.0986
 2929SOL    HW220247   0.689   2.872   4.137 -1.3202 -0.1888  1.3306
 2930SOL     OW20248   0.114   1.567  13.524  0.3145  0.4557 -0.2928
 2930SOL    HW120249   0.177   1.637  13.510 -0.0922  0.8843  0.0001
 2930SOL    HW220250   0.141   1.538  13.611  1.8016 -0.5408 -1.0953
 2931SOL     OW20251   2.334   1.304   2.119  0.7440 -0.2441 -0.2011
 2931SOL    HW120252   2.414   1.325   2.071  1.5070  0.6225  1.4750
 2931SOL    HW220253   2.368   1.288   2.207  0.4308  0.7840  0.1053
 2932SOL     OW20254   1.893   4.389  11.374  0.7890 -1.2760  0.1202
 2932SOL    HW120255   1.935   4.303  11.371  3.6136  0.0487  1.9656
 2932SOL    HW220256   1.837   4.377  11.297 -0.4827 -1.6449  1.1046
 2933SOL     OW20257   3.616   1.651  14.677 -0.1205  0.1081  0.4162
 2933SOL    HW120258   3.594   1.739  14.649  0.8131  0.8207  1.9360
 2933SOL    HW220259   3.564   1.643  14.758 -2.0239 -0.1658 -0.8348
 2934SOL     OW20260   3.351   1.570   7.239  0.2623 -0.0134 -0.2928
 2934SOL    HW120261   3.435   1.606   7.211  0.2787 -1.0339 -1.5407
 2934SOL    HW220262   3.353   1.578   7.335  0.0104  1.1863 -0.3817
 2935SOL     OW20263   3.448   4.194   5.459 -0.8215 -0.0047  0.0080
 2935SOL    HW120264   3.507   4.139   5.407 -0.9480 -0.1486  0.0147
 2935SOL    HW220265   3.464   4.281   5.421 -0.9814  0.2906  0.6253
 2936SOL     OW20266   1.398   4.632   5.285 -0.1360  0.0340  0.1411
 2936SOL    HW120267   1.464   4.679   5.336  0.9055 -0.0548 -1.1313
 2936SOL    HW220268   1.326   4.685   5.320  0.9234  1.1741  0.5905
 2937SOL     OW20269   3.439   0.446   6.380 -0.3872 -0.1416 -0.3051
 2937SOL    HW120270   3.514   0.466   6.324  1.3260 -1.4997  1.5042
 2937SOL    HW220271   3.486   0.389   6.441  0.4284 -1.4240 -2.1607
 2938SOL     OW20272   0.901   0.439   8.022 -0.1248  0.5172 -0.1364
 2938SOL    HW120273   0.914   0.514   7.964  0.7841 -0.6888 -1.4808
 2938SOL    HW220274   0.925   0.368   7.963 -0.2986  0.1875  0.1918
 2939SOL     OW20275   4.337   1.071   3.100  0.2004  0.1677 -0.0084
 2939SOL    HW120276   4.302   1.106   3.019  2.6734 -0.9204 -1.5505
 2939SOL    HW220277   4.311   1.124   3.176  0.1940  2.1060 -1.3779
 2940SOL     OW20278   0.189   1.153   6.561 -0.1495  0.4397  0.1123
 2940SOL    HW120279   0.277   1.121   6.581 -0.1972  0.8246  0.9193
 2940SOL    HW220280   0.195   1.248   6.556 -1.5994  0.5563  0.8490
 2941SOL     OW20281   4.384   0.293   5.637 -0.4469  0.0632 -0.0444
 2941SOL    HW120282   4.419   0.234   5.570 -1.2589  0.4710 -0.8306
 2941SOL    HW220283   4.392   0.251   5.722 -0.2737 -1.1432 -0.6578
 2942SOL     OW20284   0.249   4.661   6.346  0.1837  0.4571 -0.0926
 2942SOL    HW120285   0.200   4.645   6.265  1.6955  0.1860 -0.9660
 2942SOL    HW220286   0.336   4.676   6.309  0.9946  1.4437  2.2247
 2943SOL     OW20287   1.161   3.407   2.642 -0.0270  0.1407  0.2707
 2943SOL    HW120288   1.137   3.347   2.571  1.6249 -1.9868  1.5137
 2943SOL    HW220289   1.254   3.419   2.624 -0.5161  1.6679 -1.1872
 2944SOL     OW20290   2.910   4.337  16.154 -0.2094  0.1159 -0.3175
 2944SOL    HW120291   2.945   4.315  16.241  0.6275  0.6080 -0.5254
 2944SOL    HW220292   2.963   4.267  16.115  1.4737  1.2915 -0.1303
 2945SOL     OW20293   1.707   3.786   7.386  0.2809 -0.8754  0.1406
 2945SOL    HW120294   1.675   3.744   7.306  0.8013  1.2934 -1.2329
 2945SOL    HW220295   1.682   3.717   7.447 -0.6728 -1.3752 -0.7933
 2946SOL     OW20296   1.136   1.518  17.167  0.6073  0.2431 -0.6392
 2946SOL    HW120297   1.117   1.584  17.233  1.0196 -0.9723  0.6910
 2946SOL    HW220298   1.134   1.568  17.085 -0.2087  2.4728  0.7481
 2947SOL     OW20299   1.706   0.915   8.732  0.6103 -0.4968  0.5225
 2947SOL    HW120300   1.664   0.998   8.708  0.8562 -0.3344  0.6660
 2947SOL    HW220301   1.786   0.913   8.680  0.8043  0.7496  0.7767
 2948SOL     OW20302   1.999   3.819   6.470 -0.5872 -0.6176 -0.1386
 2948SOL    HW120303   1.987   3.741   6.524  0.8301 -1.6058 -1.2601
 2948SOL    HW220304   2.079   3.855   6.508 -1.8780  1.0034  1.0185
 2949SOL     OW20305   1.003   3.832   0.106 -0.1657 -0.5948 -0.2735
 2949SOL    HW120306   1.078   3.799   0.057 -0.2307  0.6811 -1.2336
 2949SOL    HW220307   1.004   3.926   0.091  0.3978 -0.8255 -1.6228
 2950SOL     OW20308   1.598   2.075   7.455 -0.0946 -0.1799  0.2333
 2950SOL    HW120309   1.669   2.077   7.391 -0.7753 -1.7629 -0.5939
 2950SOL    HW220310   1.643   2.060   7.538  0.2031  0.1477  0.1322
 2951SOL     OW20311   3.901   1.099  11.306  0.6925  0.1115 -0.2927
 2951SOL    HW120312   3.848   1.021  11.290  0.0604  0.1317  1.7414
 2951SOL    HW220313   3.983   1.084  11.259  0.9912  1.6377 -0.2430
 2952SOL     OW20314   3.890   1.511   2.747 -0.0073 -0.3950  0.2404
 2952SOL    HW120315   3.875   1.449   2.818 -2.5804  0.2078  0.2168
 2952SOL    HW220316   3.830   1.484   2.678  1.6640  0.1134 -1.4134
 2953SOL     OW20317   1.454   2.996   7.317 -0.4668 -0.6240 -0.3050
 2953SOL    HW120318   1.542   2.994   7.279  0.3079  0.9695  1.4038
 2953SOL    HW220319   1.406   2.995   7.234 -0.8470 -0.4550 -0.0873
 2954SOL     OW20320   4.655   1.063   0.832 -0.1167  0.9528  0.0584
 2954SOL    HW120321   0.020   1.076   0.869 -0.2134 -1.4446  1.1470
 2954SOL    HW220322   4.673   0.993   0.769  2.9161  0.2694  1.6882
 2955SOL     OW20323   4.490   3.401   3.477 -0.2153 -0.1944  0.1409
 2955SOL    HW120324   4.411   3.436   3.435  1.3800  1.1195 -1.7559
 2955SOL    HW220325   4.454   3.332   3.532  1.0847 -1.0163 -0.0445
 2956SOL     OW20326   1.272   0.488   4.888  0.0998 -0.0991  0.1831
 2956SOL    HW120327   1.213   0.549   4.932  1.1948  2.2147 -1.5086
 2956SOL    HW220328   1.326   0.554   4.842  3.3944 -0.0923  4.0890
 2957SOL     OW20329   2.507   4.010  14.486 -0.1911  0.4070  0.1163
 2957SOL    HW120330   2.520   3.918  14.509 -0.5108  0.8778  2.1583
 2957SOL    HW220331   2.459   4.019  14.404  2.7876 -1.8835 -1.8912
 2958SOL     OW20332   3.650   3.185   7.217 -0.0565  0.5552  0.2587
 2958SOL    HW120333   3.667   3.193   7.123  1.0366 -0.4889  0.3659
 2958SOL    HW220334   3.583   3.118   7.228 -0.2888  0.8765  0.8354
 2959SOL     OW20335   4.234   3.759   7.388 -0.3487  0.7437 -0.5569
 2959SOL    HW120336   4.327   3.748   7.366 -0.0471 -0.5600  1.3718
 2959SOL    HW220337   4.206   3.668   7.393  1.5770  0.0625 -2.3831
 2960SOL     OW20338   1.878   1.511   8.888 -0.5480  0.6103  0.2936
 2960SOL    HW120339   1.845   1.429   8.925 -1.5473  1.2177  0.7618
 2960SOL    HW220340   1.794   1.558   8.886 -0.4771  0.5785 -3.7437
 2961SOL     OW20341   4.477   0.591  16.940 -0.0711  0.0366 -0.5800
 2961SOL    HW120342   4.489   0.497  16.954  1.4315  0.6087  1.8650
 2961SOL    HW220343   4.392   0.601  16.983  1.2301  0.7070  1.8571
 2962SOL     OW20344   0.807   4.155   6.320 -0.2454  0.2169  0.3172
 2962SOL    HW120345   0.837   4.235   6.277  2.3591  0.7689  3.1467
 2962SOL    HW220346   0.867   4.092   6.281 -2.1831 -1.1013 -0.5723
 2963SOL     OW20347   0.933   0.830   8.076 -0.6240  0.1503  0.0591
 2963SOL    HW120348   0.982   0.814   8.157  0.1832 -0.5937 -0.5803
 2963SOL    HW220349   0.935   0.926   8.080  0.5987  0.2173 -1.9629
 2964SOL     OW20350   3.342   3.481  14.936  0.1226  0.3345 -0.0567
 2964SOL    HW120351   3.385   3.526  15.009 -0.6979  0.9583  0.0469
 2964SOL    HW220352   3.251   3.493  14.964 -0.1553 -1.7381 -0.0698
 2965SOL     OW20353   0.540   2.268  12.271 -0.1317 -0.4433 -0.1943
 2965SOL    HW120354   0.447   2.291  12.268  0.3107  0.9556 -2.8516
 2965SOL    HW220355   0.579   2.336  12.216 -3.8030  1.5786 -0.2980
 2966SOL     OW20356   0.186   4.559  14.910 -0.0823  0.1036 -0.3325
 2966SOL    HW120357   0.228   4.535  14.993  0.2309  2.5403  0.2144
 2966SOL    HW220358   0.187   4.655  14.911 -0.9350  0.1200 -1.2483
 2967SOL     OW20359   3.096   4.268   4.205 -0.1159  0.3408 -0.5708
 2967SOL    HW120360   3.078   4.187   4.253 -0.2232  0.9834  0.4779
 2967SOL    HW220361   3.067   4.243   4.118 -1.3017 -1.5185  0.3557
 2968SOL     OW20362   0.173   4.249  10.336  0.1269  0.0141 -0.2122
 2968SOL    HW120363   0.226   4.242  10.256 -2.1515 -0.5466 -1.6687
 2968SOL    HW220364   0.112   4.176  10.328  2.5853 -1.8795 -1.3984
 2969SOL     OW20365   1.319   4.499   1.898  0.3393  0.5575  0.4316
 2969SOL    HW120366   1.389   4.436   1.915 -2.5492 -2.1420  2.4959
 2969SOL    HW220367   1.342   4.563   1.964  1.1325  0.1595  0.5454
 2970SOL     OW20368   3.880   0.044   4.154  0.1913 -0.4273 -0.4711
 2970SOL    HW120369   3.901   0.126   4.110  1.8609 -0.3939  0.3706
 2970SOL    HW220370   3.847   0.074   4.239  0.2538 -1.6750  0.0052
 2971SOL     OW20371   4.321   1.385   1.279  0.1090  0.6984  0.2072
 2971SOL    HW120372   4.227   1.372   1.296  0.3497 -0.0880  0.9279
 2971SOL    HW220373   4.326   1.330   1.201 -1.4671  1.0737 -0.1557
 2972SOL     OW20374   1.318   4.553  13.102 -0.4787 -0.2057 -0.2677
 2972SOL    HW120375   1.373   4.515  13.170  2.0736  2.2245 -0.9392
 2972SOL    HW220376   1.381   4.617  13.068  1.2215 -0.5705  2.1696
 2973SOL     OW20377   4.442   1.119   2.047  0.1468 -0.1884  0.1557
 2973SOL    HW120378   4.362   1.068   2.038  1.7769 -2.6072 -0.5829
 2973SOL    HW220379   4.496   1.086   1.976 -0.7928 -0.5481 -0.3841
 2974SOL     OW20380   4.696   2.276   8.171 -0.4355 -0.0431  0.1268
 2974SOL    HW120381   0.023   2.345   8.128 -0.8689  0.0028 -0.3054
 2974SOL    HW220382   0.003   2.289   8.261  0.9199  0.4207 -0.3942
 2975SOL     OW20383   2.351   0.339   1.911 -0.1280 -0.5857  0.1719
 2975SOL    HW120384   2.268   0.314   1.871  0.1350 -0.4829 -0.4294
 2975SOL    HW220385   2.329   0.348   2.004 -1.7911  0.2176 -0.3017
 2976SOL     OW20386   3.414   1.553   7.488 -0.4717 -0.5376  0.3412
 2976SOL    HW120387   3.458   1.585   7.567  0.2409 -0.3944 -0.1088
 2976SOL    HW220388   3.451   1.464   7.480  0.7793 -0.1513  1.7290
 2977SOL     OW20389   2.458   0.726  13.214  0.2439 -0.1225 -0.1986
 2977SOL    HW120390   2.456   0.672  13.135 -1.3066  1.8562 -1.5187
 2977SOL    HW220391   2.544   0.702  13.250  0.8923 -1.2344 -2.4677
 2978SOL     OW20392   3.443   1.109   6.329  0.2988  0.0318 -0.5887
 2978SOL    HW120393   3.352   1.133   6.342  0.7182  1.5301 -0.3919
 2978SOL    HW220394   3.449   1.033   6.387  2.0784  0.2163 -0.5115
 2979SOL     OW20395   3.828   1.134   0.217  0.5105 -0.0184  0.0400
 2979SOL    HW120396   3.838   1.186   0.137 -1.2626 -0.3209 -0.3760
 2979SOL    HW220397   3.899   1.072   0.197 -1.9593 -2.6801 -0.5123
 2980SOL     OW20398   3.159   0.539   7.902  0.9470  0.1558 -0.0163
 2980SOL    HW120399   3.065   0.550   7.888  1.3777  2.3106 -1.2626
 2980SOL    HW220400   3.185   0.599   7.832 -0.5562  1.6915  0.7324
 2981SOL     OW20401   4.645   1.819  15.227  0.3265 -0.3900  0.2966
 2981SOL    HW120402   4.632   1.833  15.133  2.6670 -1.2743 -0.1444
 2981SOL    HW220403   4.710   1.749  15.232 -0.1122 -0.7838  0.4870
 2982SOL     OW20404   1.214   1.209  17.079  0.1009 -0.2845 -0.8473
 2982SOL    HW120405   1.124   1.183  17.094  1.0030 -2.8660  0.1023
 2982SOL    HW220406   1.253   1.138  17.130  0.9885  0.5567 -0.3300
 2983SOL     OW20407   4.587   3.809   2.867 -0.4669  0.1390 -0.0096
 2983SOL    HW120408   4.659   3.770   2.916 -0.7835 -0.7103 -0.2094
 2983SOL    HW220409   4.516   3.825   2.930 -0.4395 -0.0553  0.0718
 2984SOL     OW20410   1.155   3.967   1.577 -0.1727 -0.0760  0.5677
 2984SOL    HW120411   1.141   4.025   1.652 -0.0450  0.4312  0.1951
 2984SOL    HW220412   1.073   3.979   1.529 -0.7508  1.5346  1.9644
 2985SOL     OW20413   4.242   2.266   1.827 -0.0508 -0.2841  0.4313
 2985SOL    HW120414   4.266   2.275   1.919  1.0763  0.5644  0.0519
 2985SOL    HW220415   4.209   2.354   1.807  1.3268  0.5648  1.9394
 2986SOL     OW20416   4.290   4.493   6.271 -0.2023 -0.1489  0.2330
 2986SOL    HW120417   4.298   4.553   6.197 -1.0665 -0.1869  0.1050
 2986SOL    HW220418   4.358   4.526   6.329 -0.1967  0.8621 -0.3391
 2987SOL     OW20419   1.443   3.031  10.578 -0.1033 -0.2297 -0.0616
 2987SOL    HW120420   1.406   3.108  10.621  0.1049 -1.6634  2.6908
 2987SOL    HW220421   1.461   2.985  10.660 -0.5005 -0.6643 -0.2172
 2988SOL     OW20422   2.570   3.931   6.688 -0.7402  0.4805 -0.1096
 2988SOL    HW120423   2.618   3.907   6.608  0.0007  2.8239 -0.3459
 2988SOL    HW220424   2.604   3.862   6.746 -0.1037 -0.0353 -1.0833
 2989SOL     OW20425   0.749   2.890   3.638  0.0558  0.9772  0.0344
 2989SOL    HW120426   0.822   2.949   3.656 -0.0131  0.2171  2.8551
 2989SOL    HW220427   0.790   2.808   3.612 -1.0132  0.4956 -0.1646
 2990SOL     OW20428   3.168   3.268   1.991  0.3804 -0.0235 -0.1971
 2990SOL    HW120429   3.220   3.315   1.925  0.9016  1.5012  1.3079
 2990SOL    HW220430   3.134   3.337   2.047  2.1206  0.6504  0.0286
 2991SOL     OW20431   4.137   0.330  10.145  0.0246 -0.7929 -0.4438
 2991SOL    HW120432   4.067   0.284  10.100  0.8635 -2.1479 -0.3684
 2991SOL    HW220433   4.113   0.420  10.123  0.2488 -0.4979  0.5160
 2992SOL     OW20434   1.748   3.966  14.557 -0.5575  0.0761  0.3927
 2992SOL    HW120435   1.819   4.006  14.507 -1.1466  1.1254  0.3980
 2992SOL    HW220436   1.731   4.041  14.615  0.1054 -1.1114  2.1029
 2993SOL     OW20437   1.686   3.772  13.547 -0.5104 -0.0762  0.5271
 2993SOL    HW120438   1.752   3.803  13.485 -0.4337  1.4328  1.3466
 2993SOL    HW220439   1.689   3.679  13.527  0.9671 -0.0763  0.7475
 2994SOL     OW20440   1.434   3.556   6.188 -0.6051 -0.0186  0.2520
 2994SOL    HW120441   1.504   3.503   6.149 -0.2168  0.7653 -0.1189
 2994SOL    HW220442   1.486   3.627   6.226  2.2022 -0.3425 -2.9240
 2995SOL     OW20443   2.609   3.913   1.483  0.0920  0.4000  0.2334
 2995SOL    HW120444   2.696   3.944   1.456  1.0396 -2.2519  0.2705
 2995SOL    HW220445   2.624   3.843   1.546 -0.1077 -0.7713 -1.0145
 2996SOL     OW20446   0.332   2.124   6.952  0.1179  0.9463  0.8858
 2996SOL    HW120447   0.295   2.040   6.926  2.0297  0.3401  0.1260
 2996SOL    HW220448   0.258   2.178   6.924  1.5454  0.8107 -3.1663
 2997SOL     OW20449   1.358   2.213   3.277 -0.0086  1.0857  0.5846
 2997SOL    HW120450   1.350   2.125   3.315  1.3964  1.2500  1.2357
 2997SOL    HW220451   1.271   2.239   3.308 -1.3288 -0.6372 -1.6609
 2998SOL     OW20452   2.520   3.630   6.505  0.2777 -0.1693  0.0175
 2998SOL    HW120453   2.476   3.615   6.589 -0.6583  1.7720 -0.1360
 2998SOL    HW220454   2.447   3.655   6.448 -1.7966 -2.4147  1.6642
 2999SOL     OW20455   3.038   0.662   5.562 -0.6298  0.0402  0.2683
 2999SOL    HW120456   3.067   0.739   5.610 -1.3906  1.0730 -0.9415
 2999SOL    HW220457   3.119   0.612   5.571 -0.5932  0.0999  0.2661
 3000SOL     OW20458   0.514   1.562  10.507  0.3094 -0.0822 -0.1708
 3000SOL    HW120459   0.501   1.581  10.600 -0.3992 -1.5454  0.0227
 3000SOL    HW220460   0.587   1.617  10.480 -0.0533  0.1036 -0.7640
 3001SOL     OW20461   1.282   3.297   8.654  0.3033 -0.2399 -0.0286
 3001SOL    HW120462   1.202   3.257   8.619 -0.2561  0.8736 -0.0426
 3001SOL    HW220463   1.267   3.380   8.608 -0.9625 -0.0586  0.7059
 3002SOL     OW20464   4.570   0.092   7.148  0.0191  0.2904  0.0006
 3002SOL    HW120465   4.578   0.163   7.084  0.0465 -1.6100 -2.1152
 3002SOL    HW220466   4.576   0.143   7.229 -0.0941 -0.4328  0.4627
 3003SOL     OW20467   3.946   2.050   8.241 -0.4024  0.2837  0.2818
 3003SOL    HW120468   3.872   2.015   8.290 -0.6930  1.4999  0.7048
 3003SOL    HW220469   3.946   1.978   8.177 -0.7197  1.1923 -0.7322
 3004SOL     OW20470   0.256   1.650   1.659  0.6411 -0.2223  0.2404
 3004SOL    HW120471   0.251   1.726   1.718 -0.3637 -0.1886  0.1102
 3004SOL    HW220472   0.350   1.641   1.646  0.7067 -1.3264  1.5034
 3005SOL     OW20473   1.704   4.041   5.894 -0.0816  0.2583 -0.0412
 3005SOL    HW120474   1.688   3.946   5.898 -1.1771  0.3472 -2.3500
 3005SOL    HW220475   1.763   4.059   5.967 -0.9096  0.6109  0.5440
 3006SOL     OW20476   2.508   2.243  14.492  0.7415  0.3481  0.0066
 3006SOL    HW120477   2.504   2.326  14.444 -0.2492  1.1011  1.3940
 3006SOL    HW220478   2.476   2.188  14.420  1.9765 -1.6663  0.9845
 3007SOL     OW20479   1.141   2.351   3.014  0.3899 -0.0767  0.5221
 3007SOL    HW120480   1.157   2.442   3.041  1.1498 -0.4489  1.3279
 3007SOL    HW220481   1.059   2.349   2.966  0.2802  3.5535  0.5753
 3008SOL     OW20482   1.578   1.603   1.676 -0.6079  0.4320 -0.1543
 3008SOL    HW120483   1.492   1.562   1.687 -0.2523 -0.2228  0.1864
 3008SOL    HW220484   1.610   1.589   1.765 -2.4482  0.2887  0.4882
 3009SOL     OW20485   3.254   0.622   3.690 -0.4402  0.3641 -0.2428
 3009SOL    HW120486   3.222   0.538   3.720  1.2370  0.5787  2.1196
 3009SOL    HW220487   3.274   0.599   3.599 -0.5342  2.7211 -0.8561
 3010SOL     OW20488   0.538   2.199   8.592  0.0704 -0.0779  0.0088
 3010SOL    HW120489   0.622   2.216   8.548  0.4559  0.7139  1.0680
 3010SOL    HW220490   0.577   2.220   8.677 -0.0826  0.0491  0.0466
 3011SOL     OW20491   3.257   2.223   1.882  0.4351  0.5959 -0.3498
 3011SOL    HW120492   3.262   2.319   1.883 -0.4799  0.6385  1.0567
 3011SOL    HW220493   3.164   2.204   1.895  0.3594  0.5079 -1.0070
 3012SOL     OW20494   3.794   3.927  10.096  0.2218 -0.4369 -0.0696
 3012SOL    HW120495   3.741   3.967  10.165  2.5585  0.5030  1.1776
 3012SOL    HW220496   3.787   3.833  10.111 -2.1770 -0.2542  0.0337
 3013SOL     OW20497   0.334   1.144   7.214 -0.1016 -0.6996 -0.4066
 3013SOL    HW120498   0.337   1.055   7.178 -0.4211 -0.9854  0.2778
 3013SOL    HW220499   0.241   1.166   7.211 -0.1821 -0.8325  0.7936
 3014SOL     OW20500   2.304   4.144   5.996  0.1028  0.1583  0.1004
 3014SOL    HW120501   2.228   4.085   5.993 -0.7809  1.1941  2.3388
 3014SOL    HW220502   2.322   4.156   5.903  0.6245 -1.7733 -0.0515
 3015SOL     OW20503   3.627   4.118   5.263 -0.7192  0.8237 -0.0118
 3015SOL    HW120504   3.679   4.046   5.229 -1.9412  0.0476 -0.2595
 3015SOL    HW220505   3.567   4.136   5.190 -0.1160 -2.4403 -1.2974
 3016SOL     OW20506   2.035   2.362   5.138  0.3001  0.2328  0.2384
 3016SOL    HW120507   2.000   2.426   5.199  1.1213 -1.6972  2.7167
 3016SOL    HW220508   2.101   2.317   5.191 -0.5206  0.2900  1.2811
 3017SOL     OW20509   4.624   2.179  15.504 -0.3248  0.3469 -0.0506
 3017SOL    HW120510   4.680   2.140  15.437  0.1589  1.0058 -0.0217
 3017SOL    HW220511   4.557   2.222  15.450 -1.0988 -1.2197 -0.3451
 3018SOL     OW20512   1.947   3.456  11.180  0.4882 -0.0933  0.2258
 3018SOL    HW120513   1.998   3.492  11.108 -1.2646 -0.5023 -1.2064
 3018SOL    HW220514   1.914   3.541  11.208 -1.6625 -0.6544 -0.5977
 3019SOL     OW20515   3.316   2.467  14.598  0.6455  0.7918 -0.0957
 3019SOL    HW120516   3.309   2.400  14.531 -0.5444 -0.6359  1.4659
 3019SOL    HW220517   3.246   2.450  14.661 -1.1769  2.4098 -1.7116
 3020SOL     OW20518   1.443   4.186   9.070  0.4306 -0.4435 -0.3423
 3020SOL    HW120519   1.496   4.134   9.131  0.0705 -0.1754  0.1989
 3020SOL    HW220520   1.406   4.254   9.125 -0.5518 -1.3919  0.1790
 3021SOL     OW20521   2.450   2.393   0.994  0.9711 -0.8400  0.2894
 3021SOL    HW120522   2.382   2.326   0.995  0.8250 -0.7045 -0.4104
 3021SOL    HW220523   2.415   2.456   0.931 -0.0105 -1.4556  0.2264
 3022SOL     OW20524   1.269   2.116  17.167  0.1714 -0.5217 -0.0773
 3022SOL    HW120525   1.186   2.128  17.214  0.1041 -0.3079 -0.2539
 3022SOL    HW220526   1.258   2.045  17.104  1.8960  0.3150 -1.3369
 3023SOL     OW20527   4.697   3.846  14.787 -0.4849 -0.3038  0.1183
 3023SOL    HW120528   4.648   3.872  14.865  1.8030  1.1488  1.0525
 3023SOL    HW220529   4.634   3.798  14.732 -1.8580 -0.1108  1.5188
 3024SOL     OW20530   3.637   2.880   8.209 -0.2329 -0.0785 -0.9452
 3024SOL    HW120531   3.707   2.816   8.213  0.9292  1.2534  0.0763
 3024SOL    HW220532   3.584   2.851   8.283  0.3422  0.0014 -0.5056
 3025SOL     OW20533   3.113   1.742   5.943 -0.1318 -0.4529  0.2101
 3025SOL    HW120534   3.057   1.819   5.957 -0.6267 -0.8001  0.1571
 3025SOL    HW220535   3.094   1.739   5.849  1.2806  2.0326 -0.1617
 3026SOL     OW20536   0.386   2.051   3.948 -0.4125  0.7406 -0.4381
 3026SOL    HW120537   0.421   2.117   3.887 -3.0384  2.9315  0.4458
 3026SOL    HW220538   0.361   1.987   3.881  3.0713 -0.3968 -0.6896
 3027SOL     OW20539   0.502   4.103   3.311 -0.6128 -0.7182  0.0087
 3027SOL    HW120540   0.525   4.193   3.290 -1.0168 -0.4769  0.6049
 3027SOL    HW220541   0.495   4.093   3.406 -1.4936 -0.4306 -0.0199
 3028SOL     OW20542   2.763   3.805   3.857 -0.8153 -0.1509  0.0179
 3028SOL    HW120543   2.817   3.729   3.880  0.8462  1.4218  1.3231
 3028SOL    HW220544   2.818   3.882   3.871 -2.8902  0.8357  2.6014
 3029SOL     OW20545   2.254   3.920  11.384 -0.0247  0.2967  0.1101
 3029SOL    HW120546   2.205   3.971  11.448 -0.4651  1.5739 -1.2540
 3029SOL    HW220547   2.336   3.969  11.385 -0.6153  1.3094 -1.7729
 3030SOL     OW20548   0.901   4.254   8.127 -0.3209  0.0043 -0.1444
 3030SOL    HW120549   0.866   4.313   8.193  0.2844 -0.6107  0.7265
 3030SOL    HW220550   0.910   4.185   8.193 -0.3685  1.3890  1.3000
 3031SOL     OW20551   2.426   4.074   7.594 -0.2325  0.2642  0.2045
 3031SOL    HW120552   2.466   4.003   7.644 -0.4597 -0.1918 -0.2537
 3031SOL    HW220553   2.463   4.153   7.632  0.8352  1.0605 -2.5202
 3032SOL     OW20554   2.048   4.573   6.758 -0.2398  0.5858 -0.0565
 3032SOL    HW120555   2.134   4.563   6.718 -0.0197 -0.6025  0.6948
 3032SOL    HW220556   2.067   4.598   6.848  2.1025 -1.3021 -0.0176
 3033SOL     OW20557   3.722   0.522   2.639  0.4842 -0.3572  0.0574
 3033SOL    HW120558   3.679   0.574   2.707 -0.3898 -1.3943  0.3139
 3033SOL    HW220559   3.676   0.555   2.562  0.9632  0.9570  0.3372
 3034SOL     OW20560   3.641   1.846   3.199  0.0066  0.0807  0.0479
 3034SOL    HW120561   3.673   1.850   3.109 -0.8188 -0.2686 -0.2603
 3034SOL    HW220562   3.598   1.931   3.209 -0.2780  0.2058 -2.3200
 3035SOL     OW20563   4.666   0.608   0.835  0.4640 -0.5719  0.1802
 3035SOL    HW120564   4.598   0.540   0.836 -0.4672  0.3342 -1.4964
 3035SOL    HW220565   0.025   0.558   0.827  0.4761 -0.6353  0.7360
 3036SOL     OW20566   4.292   2.046   8.697  0.2187  0.2064 -0.1321
 3036SOL    HW120567   4.204   2.009   8.686  0.0145  0.2215  1.3300
 3036SOL    HW220568   4.285   2.121   8.638 -0.8369 -1.3375 -1.9406
 3037SOL     OW20569   3.296   2.551   1.145  0.1889 -0.0994 -0.2149
 3037SOL    HW120570   3.361   2.533   1.213 -0.7205  0.2900  0.7748
 3037SOL    HW220571   3.340   2.612   1.086  1.9216  0.2321  1.3930
 3038SOL     OW20572   0.030   0.639  14.965  0.2596 -0.0887  0.2132
 3038SOL    HW120573   0.064   0.579  15.031  3.8635  1.4612 -0.2350
 3038SOL    HW220574   0.072   0.604  14.886  0.4785 -0.2686  0.4101
 3039SOL     OW20575   2.812   2.076   4.448  0.3658 -0.2505 -0.0237
 3039SOL    HW120576   2.805   2.153   4.505 -0.7602 -0.4296  0.0881
 3039SOL    HW220577   2.906   2.063   4.435  1.0100  1.0329  3.3429
 3040SOL     OW20578   4.079   4.185  17.200  0.0491  0.1348 -0.3991
 3040SOL    HW120579   4.044   4.112  17.251  2.1533 -0.7182 -0.1789
 3040SOL    HW220580   4.170   4.156  17.201 -0.5928 -1.8302 -0.2759
 3041SOL     OW20581   4.034   3.492   5.643  0.7223 -0.0198 -0.3556
 3041SOL    HW120582   4.021   3.534   5.728  2.7064 -0.5751  0.2253
 3041SOL    HW220583   4.083   3.416   5.674  2.4632 -0.1514 -3.3942
 3042SOL     OW20584   1.506   2.630   5.472 -0.1717 -0.0543 -0.3191
 3042SOL    HW120585   1.502   2.628   5.376 -0.2837 -0.3212 -0.3088
 3042SOL    HW220586   1.535   2.542   5.494  1.0439 -0.2432 -2.6759
 3043SOL     OW20587   2.007   1.098  12.073  0.0416 -0.1283  0.3545
 3043SOL    HW120588   1.913   1.097  12.089 -0.1918 -1.1699 -1.0576
 3043SOL    HW220589   2.039   1.147  12.148  1.5341  1.0425 -1.0402
 3044SOL     OW20590   1.554   2.788   6.053 -0.4929  0.1484 -0.1338
 3044SOL    HW120591   1.634   2.831   6.023  0.0969  0.0299  1.2562
 3044SOL    HW220592   1.562   2.814   6.145 -0.1794 -0.0540 -0.1045
 3045SOL     OW20593   1.479   3.612   4.448  0.3041  0.5240 -0.0206
 3045SOL    HW120594   1.561   3.593   4.494  1.2287  0.4405 -1.7339
 3045SOL    HW220595   1.503   3.692   4.403 -0.7257  0.5721 -0.4747
 3046SOL     OW20596   0.385   1.847   4.859  0.3593  0.4617 -0.5189
 3046SOL    HW120597   0.417   1.761   4.889 -2.1701 -0.1354  0.4034
 3046SOL    HW220598   0.392   1.835   4.764  0.1919 -2.8839 -0.1009
 3047SOL     OW20599   3.547   4.269   6.101 -0.1874  0.6788 -0.5080
 3047SOL    HW120600   3.607   4.233   6.166  0.3342 -1.3177 -2.1034
 3047SOL    HW220601   3.473   4.303   6.152  0.5171 -0.2033  1.0980
 3048SOL     OW20602   3.210   1.144   4.350 -0.6347 -0.4125 -0.1597
 3048SOL    HW120603   3.237   1.220   4.401  0.5899 -0.5132 -0.6471
 3048SOL    HW220604   3.122   1.167   4.323 -0.7491 -0.3478  0.2752
 3049SOL     OW20605   0.394   1.695  13.242 -0.1344  0.0732 -0.2460
 3049SOL    HW120606   0.330   1.653  13.185  0.7221 -1.7040  0.1279
 3049SOL    HW220607   0.481   1.673  13.209  0.7206  0.2164  1.8842
 3050SOL     OW20608   2.077   4.176  11.516 -0.0677 -0.0404  0.2001
 3050SOL    HW120609   2.097   4.176  11.423  2.2056  0.3895  0.6893
 3050SOL    HW220610   2.106   4.260  11.552 -1.8414  0.1304  1.2094
 3051SOL     OW20611   2.802   2.576   4.124 -0.1885 -0.2694 -0.2511
 3051SOL    HW120612   2.726   2.538   4.080 -2.5613  2.9755  1.0946
 3051SOL    HW220613   2.863   2.563   4.050 -0.3980 -0.3965 -0.4017
 3052SOL     OW20614   3.807   1.316   2.928 -0.1531  0.2916  0.1060
 3052SOL    HW120615   3.715   1.313   2.952 -0.3460 -0.5023 -0.7635
 3052SOL    HW220616   3.847   1.280   3.007  0.2247 -0.2600 -0.3318
 3053SOL     OW20617   3.388   0.615   6.594  0.0671  0.1502 -0.1931
 3053SOL    HW120618   3.378   0.550   6.524  1.7684  0.5833 -0.8587
 3053SOL    HW220619   3.303   0.656   6.579  0.0205  0.5045  1.1060
 3054SOL     OW20620   2.786   1.237   0.680 -0.6605  0.2604 -0.1948
 3054SOL    HW120621   2.721   1.268   0.743  0.7860  0.0740  1.3815
 3054SOL    HW220622   2.822   1.312   0.633 -0.4761  0.2791 -0.0230
 3055SOL     OW20623   4.720   1.666  14.714  0.1709  0.3971 -0.1883
 3055SOL    HW120624   0.003   1.594  14.777  0.4246 -0.2701 -0.9764
 3055SOL    HW220625   4.630   1.698  14.720 -0.9077 -2.4374 -1.3910
 3056SOL     OW20626   2.322   0.635  16.565 -0.3940 -0.0334  0.5566
 3056SOL    HW120627   2.282   0.574  16.503  2.3851 -2.7045  1.4104
 3056SOL    HW220628   2.397   0.587  16.599 -0.8079 -1.8382 -1.0664
 3057SOL     OW20629   3.605   3.039   6.524  0.3193  0.2611  0.2706
 3057SOL    HW120630   3.549   3.056   6.449 -0.0420  1.0588  0.7227
 3057SOL    HW220631   3.620   2.945   6.513 -1.1382  0.2866 -1.8894
 3058SOL     OW20632   0.835   3.550   6.722 -0.0923 -0.5106  0.1031
 3058SOL    HW120633   0.914   3.598   6.696 -1.1776  0.4755 -1.4121
 3058SOL    HW220634   0.832   3.475   6.662 -0.0493 -0.9111  0.6051
 3059SOL     OW20635   1.251   0.757   5.946  0.3232 -0.0204 -0.4448
 3059SOL    HW120636   1.161   0.783   5.968  0.4013  0.7013 -0.9601
 3059SOL    HW220637   1.290   0.842   5.966 -2.5672  1.4807 -1.2206
 3060SOL     OW20638   4.645   0.631   8.104  0.0936 -0.0250  0.1944
 3060SOL    HW120639   4.614   0.679   8.181 -1.6097 -1.1168  0.2012
 3060SOL    HW220640   4.569   0.632   8.046  1.3109 -0.0368 -1.3958
 3061SOL     OW20641   1.250   3.818   6.466 -0.6018  0.2139  0.0316
 3061SOL    HW120642   1.285   3.819   6.556 -0.0934 -2.7440 -0.1499
 3061SOL    HW220643   1.330   3.821   6.413  0.0848 -0.1428  1.0378
 3062SOL     OW20644   0.490   0.911  12.739  0.2176  0.3103 -0.6982
 3062SOL    HW120645   0.582   0.922  12.714  0.0648  2.1649 -0.4164
 3062SOL    HW220646   0.489   0.892  12.833  1.6388  2.2953 -0.2771
 3063SOL     OW20647   0.663   1.201   2.808  0.2449 -0.0674  0.0135
 3063SOL    HW120648   0.660   1.291   2.776  1.2567  0.4587  1.3582
 3063SOL    HW220649   0.674   1.152   2.727 -3.1746 -0.4643 -0.1707
 3064SOL     OW20650   3.341   1.116   4.114 -0.2655  0.1880 -0.8792
 3064SOL    HW120651   3.311   1.094   4.203 -1.7969 -3.1016 -2.2159
 3064SOL    HW220652   3.273   1.083   4.055  1.2600 -1.8432 -1.5069
 3065SOL     OW20653   1.763   1.114   3.598 -0.4031 -0.6894  0.0986
 3065SOL    HW120654   1.702   1.115   3.524  0.4340  1.2917 -0.5627
 3065SOL    HW220655   1.759   1.207   3.622 -1.6595 -0.4198 -1.1657
 3066SOL     OW20656   1.565   4.103  15.081 -0.9845  0.1808  0.4672
 3066SOL    HW120657   1.533   4.190  15.104  0.2108  0.9930 -0.9010
 3066SOL    HW220658   1.613   4.075  15.159  2.5367 -0.1788 -1.8290
 3067SOL     OW20659   3.517   4.554  12.538 -0.1150 -0.1916 -0.2995
 3067SOL    HW120660   3.491   4.480  12.593  0.7027  0.4798  1.0045
 3067SOL    HW220661   3.603   4.572  12.578 -1.2825  1.0693  1.6333
 3068SOL     OW20662   2.596   2.444   6.353 -0.3057 -0.4871  0.2142
 3068SOL    HW120663   2.673   2.396   6.324 -0.5583 -0.3560 -0.6926
 3068SOL    HW220664   2.559   2.476   6.270  0.2374 -1.4801 -0.4141
 3069SOL     OW20665   0.499   1.644  17.339  0.3847 -0.1535  0.2135
 3069SOL    HW120666   0.483   1.737  17.349 -0.0822 -0.4075  1.8480
 3069SOL    HW220667   0.592   1.645  17.362  0.3235  2.3145  0.3019
 3070SOL     OW20668   3.868   1.724   5.894 -0.1315  0.3348 -0.7076
 3070SOL    HW120669   3.835   1.777   5.966 -0.9902 -0.5383 -0.4521
 3070SOL    HW220670   3.960   1.729   5.918  0.4200  0.1128 -2.7600
 3071SOL     OW20671   3.968   4.215   3.657  0.1453 -0.0857  0.7572
 3071SOL    HW120672   4.049   4.187   3.699  1.1783 -1.4900 -2.1759
 3071SOL    HW220673   3.992   4.302   3.625 -1.1021  0.1846  0.5224
 3072SOL     OW20674   1.378   0.907  10.050 -0.1610  0.4016  0.2424
 3072SOL    HW120675   1.294   0.863  10.041 -0.0081  0.3832 -1.0390
 3072SOL    HW220676   1.430   0.842  10.003 -1.1687 -0.7773  0.7922
 3073SOL     OW20677   2.841   0.610   3.390 -0.2355 -0.7883  0.3625
 3073SOL    HW120678   2.929   0.584   3.364 -0.8810 -3.7619  1.0683
 3073SOL    HW220679   2.845   0.661   3.471 -0.1201  1.7155 -1.2384
 3074SOL     OW20680   4.530   0.345   3.001 -0.2658 -0.4509  0.2500
 3074SOL    HW120681   4.456   0.309   3.050 -0.0964 -1.0040  0.1071
 3074SOL    HW220682   4.478   0.375   2.926 -2.0764 -1.2337  1.2030
 3075SOL     OW20683   4.201   2.075   0.534 -0.0820 -0.3267 -0.1192
 3075SOL    HW120684   4.189   2.028   0.452  0.6909  0.4078 -0.6626
 3075SOL    HW220685   4.176   2.163   0.504 -1.4661 -0.8354 -0.4506
 3076SOL     OW20686   3.744   1.468   9.230 -0.0491 -0.2804 -0.2622
 3076SOL    HW120687   3.727   1.381   9.265 -1.0999 -0.4445 -1.1674
 3076SOL    HW220688   3.758   1.523   9.307  1.7071 -1.8463  0.5172
 3077SOL     OW20689   1.417   3.520  13.689 -0.2417  0.5005 -0.1264
 3077SOL    HW120690   1.352   3.449  13.689  0.5767 -0.2405 -1.4389
 3077SOL    HW220691   1.488   3.475  13.643 -0.2068  1.1053 -0.6618
 3078SOL     OW20692   3.990   0.361   4.911  0.4630 -0.7589 -0.2473
 3078SOL    HW120693   3.932   0.435   4.930  1.1588 -0.3897  0.4558
 3078SOL    HW220694   3.985   0.319   4.997  1.5790 -1.5714 -0.5864
 3079SOL     OW20695   4.026   0.074  10.072 -0.0059  0.0825 -0.5145
 3079SOL    HW120696   3.932   0.072  10.087 -0.2474  4.1823 -1.5423
 3079SOL    HW220697   4.028   4.715  10.021 -0.1189  0.4280 -1.0763
 3080SOL     OW20698   4.589   0.642  16.633 -0.0736  0.5730  0.5557
 3080SOL    HW120699   4.517   0.627  16.694  1.2755  0.9272  2.2404
 3080SOL    HW220700   4.599   0.557  16.588 -0.7411  0.2074  1.0991
 3081SOL     OW20701   0.409   2.195   6.235 -0.1366 -0.8644 -0.5187
 3081SOL    HW120702   0.366   2.185   6.320  1.8588 -0.5127  0.5337
 3081SOL    HW220703   0.483   2.135   6.244 -1.0508 -1.6681  1.7630
 3082SOL     OW20704   0.717   4.518   6.273  0.1196 -0.2769  0.7765
 3082SOL    HW120705   0.802   4.474   6.275  1.7830  3.0100  1.8364
 3082SOL    HW220706   0.749   4.607   6.257 -1.4222 -0.0537 -1.0993
 3083SOL     OW20707   1.998   1.887  17.400 -0.2320 -0.1860  0.2731
 3083SOL    HW120708   2.092   1.871  17.392 -0.3425  0.0411 -1.5933
 3083SOL    HW220709   1.986   1.980  17.420  2.9958 -0.4223  3.1740
 3084SOL     OW20710   3.059   2.384   7.994  0.5257 -0.1640 -0.2468
 3084SOL    HW120711   3.084   2.440   8.067 -0.4072  1.0839 -0.8774
 3084SOL    HW220712   3.019   2.447   7.934 -0.8172 -0.0160  0.8014
 3085SOL     OW20713   4.259   1.291   4.896 -0.1863 -0.0029 -0.3720
 3085SOL    HW120714   4.265   1.281   4.991  0.7049  2.7413 -0.1399
 3085SOL    HW220715   4.336   1.344   4.872 -0.4654  0.3534 -0.4846
 3086SOL     OW20716   1.437   2.477   9.033 -0.0576  0.4720 -0.0440
 3086SOL    HW120717   1.367   2.533   8.998 -0.9362  0.3527  1.5365
 3086SOL    HW220718   1.514   2.520   8.996  0.6532  0.1115  1.0319
 3087SOL     OW20719   1.369   2.771   7.848  0.0207 -0.5405  0.4509
 3087SOL    HW120720   1.414   2.758   7.932  0.3343  1.4786  0.6104
 3087SOL    HW220721   1.378   2.682   7.814 -1.3171 -1.0556  1.4447
 3088SOL     OW20722   2.655   3.341   6.692  0.7017  0.1063  0.8156
 3088SOL    HW120723   2.717   3.358   6.620  1.4602 -2.1019  0.9614
 3088SOL    HW220724   2.607   3.269   6.652  1.5246 -0.1883  0.3435
 3089SOL     OW20725   3.373   2.363  16.042  0.4243  0.8431 -0.0823
 3089SOL    HW120726   3.426   2.369  15.962  2.0660 -0.3480  0.9252
 3089SOL    HW220727   3.430   2.310  16.097 -1.4142 -0.7626  0.2579
 3090SOL     OW20728   4.154   1.117  11.128  0.6228  0.0236  0.2787
 3090SOL    HW120729   4.182   1.026  11.114 -0.5211 -0.7428  3.0195
 3090SOL    HW220730   4.239   1.158  11.144  0.3267  0.6492  0.2398
 3091SOL     OW20731   4.703   4.585  15.295 -0.4104 -0.3557 -0.1353
 3091SOL    HW120732   0.005   4.654  15.233 -1.7784  1.6825  1.5888
 3091SOL    HW220733   4.690   4.516  15.229 -0.7953  0.2091 -0.6614
 3092SOL     OW20734   4.017   3.454  11.391 -0.4221 -0.4718  0.3329
 3092SOL    HW120735   4.036   3.509  11.467  2.1736 -1.7987  0.6486
 3092SOL    HW220736   4.039   3.365  11.420  1.1694 -0.7047 -1.5925
 3093SOL     OW20737   0.603   3.751   3.405  0.3082 -0.5069 -0.5611
 3093SOL    HW120738   0.686   3.791   3.432  0.4652 -0.9247 -0.4228
 3093SOL    HW220739   0.556   3.766   3.487  0.6843 -2.4963  0.0136
 3094SOL     OW20740   3.054   3.188  13.494  0.1323 -0.5322 -0.7822
 3094SOL    HW120741   3.026   3.260  13.550  0.5395 -1.3643  0.4981
 3094SOL    HW220742   3.043   3.226  13.407  1.8326  1.3095 -0.1921
 3095SOL     OW20743   3.224   2.754  12.997  0.4304  0.1308 -0.1873
 3095SOL    HW120744   3.133   2.782  12.986  0.4704  0.0924 -0.6379
 3095SOL    HW220745   3.221   2.700  12.918  1.6716  0.1755 -0.2622
 3096SOL     OW20746   0.823   0.050   8.792  0.4563  0.2840  0.1184
 3096SOL    HW120747   0.878   0.061   8.715 -0.3756 -0.2835 -0.5662
 3096SOL    HW220748   0.736   0.086   8.771 -0.3226 -1.5427  0.1527
 3097SOL     OW20749   3.681   0.201  10.873  0.4153  0.0370 -0.4066
 3097SOL    HW120750   3.652   0.186  10.963 -0.6894  0.8739 -0.6252
 3097SOL    HW220751   3.622   0.138  10.831  0.6036 -0.2627 -0.2227
 3098SOL     OW20752   3.318   2.122   3.038 -0.5109 -0.0602 -0.1261
 3098SOL    HW120753   3.294   2.211   3.009 -0.0750 -0.3509 -1.3595
 3098SOL    HW220754   3.268   2.068   2.977  0.9773  0.6264 -1.9500
 3099SOL     OW20755   4.017   1.224   8.959 -0.0805 -0.2810 -0.1657
 3099SOL    HW120756   3.945   1.287   8.967 -0.3274 -0.4340 -1.0854
 3099SOL    HW220757   4.011   1.167   9.035 -2.2356  1.8339  1.2495
 3100SOL     OW20758   1.216   1.235   1.960 -0.1829 -0.1450 -0.2920
 3100SOL    HW120759   1.183   1.147   1.943 -1.0605 -0.1855  1.6933
 3100SOL    HW220760   1.141   1.276   2.003 -2.3569 -1.5260 -2.7315
 3101SOL     OW20761   1.613   0.402   8.097  0.7101  0.5772  0.9359
 3101SOL    HW120762   1.668   0.470   8.059 -1.0340  1.9707  0.9287
 3101SOL    HW220763   1.529   0.444   8.077  0.7677 -0.0432 -0.6195
 3102SOL     OW20764   4.031   2.671   3.783 -0.1685 -0.6751 -0.3244
 3102SOL    HW120765   4.093   2.695   3.852 -1.1204 -0.3573  0.4158
 3102SOL    HW220766   3.965   2.737   3.802  1.1034 -0.7175  4.1408
 3103SOL     OW20767   0.240   1.949   1.854  0.5679 -0.3585  0.0319
 3103SOL    HW120768   0.190   2.028   1.874 -0.6010 -1.0821 -0.0775
 3103SOL    HW220769   0.264   1.930   1.944 -1.2395 -0.2316  0.5379
 3104SOL     OW20770   4.160   1.576  11.656  0.4871 -0.2265  0.0060
 3104SOL    HW120771   4.176   1.579  11.750  0.0587  1.6349  0.0129
 3104SOL    HW220772   4.069   1.549  11.655  0.6746 -0.8776  1.0823
 3105SOL     OW20773   1.046   4.012   0.466 -0.4879  0.3336 -0.6108
 3105SOL    HW120774   0.960   3.999   0.427 -1.3807 -0.3372  1.5882
 3105SOL    HW220775   1.046   3.938   0.527  1.7307 -0.9134 -2.1288
 3106SOL     OW20776   4.553   3.995   1.818  0.0104 -0.4611 -0.6679
 3106SOL    HW120777   4.499   3.987   1.896  2.6080 -3.1105  0.8054
 3106SOL    HW220778   4.538   4.083   1.782  1.8716 -0.0411 -0.4123
 3107SOL     OW20779   4.482   0.178  12.075  0.1942  0.0065 -0.2854
 3107SOL    HW120780   4.426   0.253  12.056 -1.6197 -1.9143 -2.4535
 3107SOL    HW220781   4.418   0.116  12.111 -1.2598  1.4847 -0.3765
 3108SOL     OW20782   3.194   0.117   4.813  0.8271  0.0329  0.2947
 3108SOL    HW120783   3.206   0.174   4.737 -2.7935  0.9501  0.3901
 3108SOL    HW220784   3.234   0.171   4.880  0.6421 -1.7321  1.8379
 3109SOL     OW20785   2.762   1.612   4.035  0.2957  0.2958  0.0987
 3109SOL    HW120786   2.801   1.642   4.117  0.5988  3.0342 -1.0391
 3109SOL    HW220787   2.805   1.528   4.022 -0.5202  0.2825 -2.5101
 3110SOL     OW20788   3.561   0.286   0.807 -0.6349  0.1437 -0.0538
 3110SOL    HW120789   3.515   0.322   0.731 -1.4986 -0.1279  0.3275
 3110SOL    HW220790   3.525   0.334   0.882 -0.4329 -1.3973  1.0474
 3111SOL     OW20791   2.101   3.156   8.877 -0.0127 -0.2366 -0.3409
 3111SOL    HW120792   2.011   3.123   8.874  0.6340 -1.9763 -0.4915
 3111SOL    HW220793   2.092   3.234   8.931 -0.6294 -0.2314 -0.4548
 3112SOL     OW20794   4.405   4.373   8.742  0.3965 -0.1305 -0.2051
 3112SOL    HW120795   4.373   4.376   8.833  1.5244 -2.0730  0.2580
 3112SOL    HW220796   4.353   4.443   8.702 -0.5853 -0.5943  0.2527
 3113SOL     OW20797   3.866   1.841   5.196  0.4130 -0.2866  0.3509
 3113SOL    HW120798   3.846   1.758   5.153 -0.2709  0.1831 -0.2339
 3113SOL    HW220799   3.795   1.899   5.170  1.1651  0.8721  0.9108
 3114SOL     OW20800   4.415   2.454  17.477 -0.1190  0.1651  0.2530
 3114SOL    HW120801   4.427   2.407  17.394 -2.3719 -2.5999  1.5011
 3114SOL    HW220802   4.475   2.409  17.536  0.0335  1.8106  1.3534
 3115SOL     OW20803   3.948   0.716   8.553  0.0574 -0.0027 -0.7232
 3115SOL    HW120804   3.955   0.631   8.510  1.1997 -0.0369 -0.4518
 3115SOL    HW220805   3.872   0.761   8.514 -0.1896  0.0757 -0.1594
 3116SOL     OW20806   3.188   2.043   1.611  0.0441  0.2153 -0.0668
 3116SOL    HW120807   3.093   2.030   1.613  0.3490 -2.0716 -0.3692
 3116SOL    HW220808   3.209   2.059   1.519 -0.0127  1.7767  0.1942
 3117SOL     OW20809   4.007   0.199  15.870 -0.6954 -0.1706  0.6513
 3117SOL    HW120810   4.070   0.137  15.832  0.7327  0.8706  1.3316
 3117SOL    HW220811   4.060   0.231  15.942 -1.3221 -0.2338  1.1369
 3118SOL     OW20812   4.062   1.444   6.812 -0.3136 -0.4219 -0.2396
 3118SOL    HW120813   4.150   1.421   6.841  0.2167  0.1278 -1.4146
 3118SOL    HW220814   4.076   1.531   6.775 -0.6336 -0.2372  0.0795
 3119SOL     OW20815   0.662   1.266   1.851 -0.5671 -0.0027  0.0681
 3119SOL    HW120816   0.611   1.187   1.831 -2.6350  1.3492  0.0459
 3119SOL    HW220817   0.740   1.254   1.796 -0.1968  2.4804  0.0812
 3120SOL     OW20818   2.007   3.400   5.650 -0.1431 -0.2861  0.2652
 3120SOL    HW120819   1.998   3.433   5.740  0.6272 -0.6857  0.4876
 3120SOL    HW220820   2.020   3.307   5.669  2.4748 -0.2750 -1.4098
 3121SOL     OW20821   4.698   0.745   1.293  0.1535  0.3609 -0.3737
 3121SOL    HW120822   4.693   0.737   1.197 -1.2137  1.9512 -0.4157
 3121SOL    HW220823   4.614   0.779   1.321  0.4988  1.5792 -0.8345
 3122SOL     OW20824   2.139   2.199   3.227  0.1816  0.1284  0.4573
 3122SOL    HW120825   2.115   2.126   3.284  0.7198  0.6470  1.3478
 3122SOL    HW220826   2.149   2.160   3.140 -0.5479 -2.0915  1.3752
 3123SOL     OW20827   0.503   2.490   2.800  0.8946  0.2308 -0.7168
 3123SOL    HW120828   0.542   2.538   2.726 -0.7237  0.4952 -1.4039
 3123SOL    HW220829   0.412   2.504   2.774  0.6632 -0.2482 -0.1497
 3124SOL     OW20830   1.042   4.076   9.678 -0.2294  0.4923  0.4539
 3124SOL    HW120831   0.975   4.145   9.679 -0.8254 -0.0661 -2.0873
 3124SOL    HW220832   1.072   4.084   9.768 -0.9849  0.0692  0.7400
 3125SOL     OW20833   2.244   4.639   7.226 -0.0310 -0.8620 -0.4421
 3125SOL    HW120834   2.333   4.674   7.221 -0.2908  0.0702  1.2276
 3125SOL    HW220835   2.248   4.592   7.309 -1.5427 -0.6320 -0.2288
 3126SOL     OW20836   3.815   0.463   7.676  0.1532 -0.1800  0.0579
 3126SOL    HW120837   3.881   0.512   7.725  0.3563 -0.5963  0.1961
 3126SOL    HW220838   3.740   0.470   7.735 -0.8622  0.3548 -1.3150
 3127SOL     OW20839   1.301   0.681   4.033 -0.1353 -0.6897 -0.0012
 3127SOL    HW120840   1.302   0.637   3.948 -0.9936 -0.0653 -0.3259
 3127SOL    HW220841   1.365   0.746   4.003  0.9095 -0.9880  1.6340
 3128SOL     OW20842   0.837   1.778   5.532 -0.0685  0.0783  0.0751
 3128SOL    HW120843   0.828   1.804   5.624 -1.6796 -0.0249 -0.0483
 3128SOL    HW220844   0.909   1.838   5.512  0.0205 -0.0940 -0.1261
 3129SOL     OW20845   1.751   2.348  10.062  0.0293 -0.6031  0.8205
 3129SOL    HW120846   1.709   2.379   9.982  1.6387 -0.4641  0.0313
 3129SOL    HW220847   1.827   2.402  10.081 -0.3128 -0.1155  0.7986
 3130SOL     OW20848   1.156   0.182   4.404  0.1754 -0.2647  0.1744
 3130SOL    HW120849   1.079   0.142   4.446 -0.4449  1.0465  0.2767
 3130SOL    HW220850   1.170   0.124   4.330  3.0120 -1.8624  1.9591
 3131SOL     OW20851   0.223   2.756   8.108 -0.1508 -0.3905  0.3667
 3131SOL    HW120852   0.166   2.784   8.179  0.6076  0.2478  0.7233
 3131SOL    HW220853   0.307   2.761   8.155 -0.1967 -0.8473  0.4975
 3132SOL     OW20854   0.988   2.030   4.610 -0.0195  0.4732 -0.9360
 3132SOL    HW120855   0.963   2.000   4.697 -2.2570  0.2918 -1.6449
 3132SOL    HW220856   1.012   2.121   4.628  2.2539 -0.3194  0.0460
 3133SOL     OW20857   4.385   0.549  13.814  0.5920 -0.2416  0.4700
 3133SOL    HW120858   4.337   0.477  13.854 -1.2561  0.0633 -1.2220
 3133SOL    HW220859   4.432   0.582  13.891  0.7999  2.2361 -0.7007
 3134SOL     OW20860   4.088   1.167   6.642  0.0845  0.4263  0.3278
 3134SOL    HW120861   4.170   1.122   6.662 -0.2703  1.0217  3.0244
 3134SOL    HW220862   4.022   1.113   6.687  1.0842  1.4564  3.0309
 3135SOL     OW20863   2.180   0.254  16.300  0.4716  0.4684 -0.3719
 3135SOL    HW120864   2.109   0.241  16.363 -0.5763 -0.4731 -1.7419
 3135SOL    HW220865   2.218   0.168  16.320  1.7904  0.9182 -0.9507
 3136SOL     OW20866   2.430   0.943   4.155  0.3413  0.1009 -0.0100
 3136SOL    HW120867   2.463   0.893   4.230  0.2428  0.1499  0.0661
 3136SOL    HW220868   2.500   0.993   4.114  1.1356 -1.5119 -0.6065
 3137SOL     OW20869   0.875   3.237  16.645  0.5661 -0.5960 -0.2009
 3137SOL    HW120870   0.935   3.167  16.672 -0.5382 -1.2028  0.6736
 3137SOL    HW220871   0.793   3.189  16.636 -0.2381  0.7169  0.0884
 3138SOL     OW20872   1.954   1.247  13.728  0.3752  0.3897 -0.2265
 3138SOL    HW120873   1.921   1.220  13.643  1.1563  2.3250 -1.1222
 3138SOL    HW220874   1.875   1.294  13.756  1.1075  0.4595  1.7465
 3139SOL     OW20875   0.634   0.518   6.222 -0.1959  0.0727 -0.5147
 3139SOL    HW120876   0.727   0.533   6.235 -0.4236  0.1331  1.0158
 3139SOL    HW220877   0.616   0.612   6.229  0.6792  0.1271  0.9602
 3140SOL     OW20878   0.466   1.250   2.484 -0.2819 -0.3702  0.1711
 3140SOL    HW120879   0.399   1.186   2.508 -0.3840  0.1963  1.4202
 3140SOL    HW220880   0.445   1.329   2.534 -0.1491 -0.8461  0.9788
 3141SOL     OW20881   1.096   4.159   4.751 -0.4200 -0.1585  0.2961
 3141SOL    HW120882   1.104   4.064   4.763 -0.9564 -0.3458 -0.8441
 3141SOL    HW220883   1.020   4.164   4.693  0.6940 -1.1549 -1.2410
 3142SOL     OW20884   3.635   2.796   4.447 -0.4644 -0.4035 -0.2712
 3142SOL    HW120885   3.578   2.746   4.507 -1.3465 -0.3991 -1.0954
 3142SOL    HW220886   3.706   2.733   4.453  0.2395  0.5093  0.8176
 3143SOL     OW20887   0.856   2.059   8.237  0.0949 -0.3871 -0.0843
 3143SOL    HW120888   0.795   1.993   8.203 -0.4525 -0.2048  0.5487
 3143SOL    HW220889   0.801   2.137   8.238  0.8138  0.1313 -2.1423
 3144SOL     OW20890   0.863   3.331   0.884  0.4148  0.4207 -0.3783
 3144SOL    HW120891   0.808   3.402   0.919  1.6854 -0.2910  3.0947
 3144SOL    HW220892   0.941   3.331   0.940 -1.2301  1.7457  1.9136
 3145SOL     OW20893   2.502   2.171   4.568 -0.1719 -0.1138  0.1553
 3145SOL    HW120894   2.472   2.165   4.659  0.2865  0.3874  0.3443
 3145SOL    HW220895   2.432   2.230   4.541 -0.4121 -0.6352 -0.3379
 3146SOL     OW20896   0.222   4.684  15.646 -0.2428  0.2529  0.4843
 3146SOL    HW120897   0.269   0.004  15.717  0.3459 -1.3866  1.0822
 3146SOL    HW220898   0.143   4.662  15.694  0.6489  1.6003  2.5568
 3147SOL     OW20899   3.082   4.231   2.939  0.3050 -0.2450 -0.0607
 3147SOL    HW120900   3.093   4.270   2.853 -2.6209 -0.3604 -0.4710
 3147SOL    HW220901   3.040   4.300   2.991  0.7135 -0.4537  0.5564
 3148SOL     OW20902   3.911   2.200   6.112  0.2762 -0.1068 -0.2434
 3148SOL    HW120903   3.920   2.255   6.190 -0.1078  0.0630 -0.3223
 3148SOL    HW220904   4.003   2.190   6.087  0.8987 -1.3096  2.5532
 3149SOL     OW20905   0.810   3.491   2.729  0.0961  0.2706 -0.0630
 3149SOL    HW120906   0.857   3.571   2.705 -1.0391  1.2284  0.8738
 3149SOL    HW220907   0.736   3.494   2.668 -1.7942  2.8616  2.3122
 3150SOL     OW20908   2.155   1.023  13.442  0.2298  0.1363 -0.0445
 3150SOL    HW120909   2.226   0.969  13.409 -0.3402 -0.1467 -0.8303
 3150SOL    HW220910   2.131   1.057  13.356 -0.9424  0.9766  0.6135
 3151SOL     OW20911   2.677   4.716   2.926 -0.1039  0.1474  0.2512
 3151SOL    HW120912   2.596   4.701   2.975 -0.0226 -0.4693  0.2022
 3151SOL    HW220913   2.641   4.718   2.837  1.4416  0.0889 -0.3654
 3152SOL     OW20914   2.776   0.197   3.111 -0.5910 -0.0395  0.2086
 3152SOL    HW120915   2.730   0.146   3.045 -0.0057  1.9208 -1.7085
 3152SOL    HW220916   2.726   0.185   3.192 -0.1576  1.4417  0.7060
 3153SOL     OW20917   4.329   0.425   1.028 -0.9864 -0.0394 -0.4978
 3153SOL    HW120918   4.233   0.431   1.033 -0.9724  0.3325 -0.6197
 3153SOL    HW220919   4.346   0.384   1.113  1.2607  1.8850 -0.0289
 3154SOL     OW20920   3.433   2.866   2.369 -0.2142 -0.6035 -0.2809
 3154SOL    HW120921   3.485   2.828   2.439 -1.0962 -0.5494  0.3894
 3154SOL    HW220922   3.345   2.881   2.403 -0.0244  0.5344 -0.2768
 3155SOL     OW20923   4.593   1.799   7.856 -0.3149  0.2127  0.2136
 3155SOL    HW120924   4.624   1.859   7.923  1.8285 -0.6368 -0.0246
 3155SOL    HW220925   4.614   1.849   7.777 -0.1987  0.4793  0.4166
 3156SOL     OW20926   1.291   0.083   2.805 -0.5691  0.1116 -0.2786
 3156SOL    HW120927   1.374   0.120   2.835  0.0268 -2.9026  1.7727
 3156SOL    HW220928   1.304   0.086   2.711  1.2903 -0.5691 -0.0338
 3157SOL     OW20929   1.323   0.222   9.905  0.0181  0.5761  0.0003
 3157SOL    HW120930   1.401   0.227   9.959  0.4932 -0.1185 -0.6154
 3157SOL    HW220931   1.343   0.215   9.811 -2.8361 -0.5277 -0.5247
 3158SOL     OW20932   0.027   1.313   1.553  0.0881  0.1720 -0.1559
 3158SOL    HW120933   4.711   1.369   1.486 -1.1706 -0.8567 -0.3071
 3158SOL    HW220934   0.105   1.362   1.578 -0.3835  1.1206 -0.5568
 3159SOL     OW20935   3.302   0.526   4.986  0.6789  0.1670 -0.5086
 3159SOL    HW120936   3.318   0.435   5.012 -0.7156 -0.3567 -1.4818
 3159SOL    HW220937   3.214   0.510   4.954  0.8396  2.5388 -2.1226
 3160SOL     OW20938   1.439   3.827  16.035 -0.3015 -0.2268 -0.0840
 3160SOL    HW120939   1.409   3.884  16.106  1.9115  0.1010  0.5715
 3160SOL    HW220940   1.512   3.883  16.008 -0.4027  1.2640  2.7231
 3161SOL     OW20941   0.131   3.085  16.568 -0.1753  0.2753  0.3852
 3161SOL    HW120942   0.116   3.180  16.566 -0.9483  0.1082 -1.0387
 3161SOL    HW220943   0.047   3.045  16.591 -0.7219  2.6610  2.6303
 3162SOL     OW20944   1.053   2.124  12.544  0.4990  0.2048  0.1434
 3162SOL    HW120945   1.037   2.184  12.471 -3.1298 -2.0031 -0.8349
 3162SOL    HW220946   1.128   2.073  12.512 -0.0732  0.1394 -1.0811
 3163SOL     OW20947   3.808   1.042   0.469  0.3690  0.3222 -0.0026
 3163SOL    HW120948   3.837   1.127   0.504 -0.1950 -0.4145  2.2495
 3163SOL    HW220949   3.835   1.060   0.379  0.8313 -0.0100  0.0711
 3164SOL     OW20950   4.206   3.818  14.939 -0.6923 -0.1518  0.1582
 3164SOL    HW120951   4.208   3.833  15.034 -0.4587 -0.0765  0.1427
 3164SOL    HW220952   4.139   3.882  14.916 -1.4423 -1.3377 -0.9290
 3165SOL     OW20953   4.513   0.874   8.267 -0.4768 -0.2221 -0.2524
 3165SOL    HW120954   4.473   0.934   8.204  1.9441  0.9908 -0.6089
 3165SOL    HW220955   4.551   0.932   8.332  0.9546 -0.0370 -1.2678
 3166SOL     OW20956   4.069   0.131   0.200  0.4192  0.1204  0.2429
 3166SOL    HW120957   3.988   0.088   0.228 -0.0706  1.8084  1.4082
 3166SOL    HW220958   4.123   0.057   0.226 -1.6055 -0.8460  1.7774
 3167SOL     OW20959   1.595   0.828   7.885 -0.2887 -0.2310 -0.0255
 3167SOL    HW120960   1.621   0.906   7.836  0.0262 -0.2104  0.1728
 3167SOL    HW220961   1.661   0.765   7.858  0.6403  0.5909  0.3288
 3168SOL     OW20962   1.226   4.022   9.007 -0.6425  0.1976 -0.0638
 3168SOL    HW120963   1.276   4.100   8.984 -1.1111  0.7114  0.6552
 3168SOL    HW220964   1.163   4.068   9.062 -2.0976  2.3730 -3.5515
 3169SOL     OW20965   1.352   0.454   6.407  0.9358 -0.3028 -0.3673
 3169SOL    HW120966   1.400   0.374   6.384  1.0265  0.0824 -1.5192
 3169SOL    HW220967   1.367   0.513   6.333  0.0206 -0.0836 -0.3789
 3170SOL     OW20968   3.800   1.432   6.685  0.2277 -0.5679 -0.1908
 3170SOL    HW120969   3.881   1.427   6.736  1.2862  0.3876 -1.7566
 3170SOL    HW220970   3.794   1.356   6.627 -0.7301 -2.2899  2.1684
 3171SOL     OW20971   4.572   3.676  10.872  0.0283  0.4923 -0.0728
 3171SOL    HW120972   4.661   3.640  10.862  0.7360  1.3303  3.1797
 3171SOL    HW220973   4.588   3.759  10.916  1.3720  0.6502 -0.8516
 3172SOL     OW20974   2.542   3.963   2.466 -0.0439 -0.1082 -0.5727
 3172SOL    HW120975   2.590   3.914   2.399  0.8650  2.6529 -1.9214
 3172SOL    HW220976   2.495   4.017   2.404 -1.0154  1.3067  1.3868
 3173SOL     OW20977   1.011   1.079  17.475  0.2519  0.0078 -0.4113
 3173SOL    HW120978   1.041   1.156  17.426 -1.7498  1.3412  0.4457
 3173SOL    HW220979   1.096   1.042  17.497 -0.3078  0.0488  1.7859
 3174SOL     OW20980   0.777   0.582   7.248  0.4029  0.1312 -0.5375
 3174SOL    HW120981   0.759   0.673   7.271 -0.6609  0.2385 -1.7638
 3174SOL    HW220982   0.691   0.551   7.217  0.1408 -1.4709  1.7808
 3175SOL     OW20983   0.027   1.154  11.908 -0.2383  0.0838 -0.5261
 3175SOL    HW120984   0.018   1.080  11.968 -1.2942  0.2734 -0.4461
 3175SOL    HW220985   4.675   1.141  11.849 -0.5324 -1.3384  0.1508
 3176SOL     OW20986   2.298   3.386   8.031 -0.0963  0.7301  0.1137
 3176SOL    HW120987   2.293   3.476   8.065  1.4472  0.2524  1.5826
 3176SOL    HW220988   2.349   3.353   8.105  1.7032  3.6878  0.2030
 3177SOL     OW20989   3.843   2.610   4.764  0.1857  0.2164 -0.2864
 3177SOL    HW120990   3.817   2.518   4.761  0.3434  0.1964 -1.1685
 3177SOL    HW220991   3.843   2.625   4.670 -1.3728 -2.6958 -0.7701
 3178SOL     OW20992   2.627   1.024  16.454 -0.4134  0.7388 -0.2726
 3178SOL    HW120993   2.578   0.974  16.389  2.9108 -0.7216 -1.6886
 3178SOL    HW220994   2.624   0.970  16.534  0.0864  0.3164 -0.5333
 3179SOL     OW20995   3.421   2.973  10.297 -0.0637  0.1342 -0.2369
 3179SOL    HW120996   3.512   2.962  10.270 -0.1377 -2.1619  0.4788
 3179SOL    HW220997   3.435   2.981  10.391 -3.2902 -0.6598  0.3082
 3180SOL     OW20998   0.706   4.582  12.649  0.9131 -0.4930 -0.6323
 3180SOL    HW120999   0.663   4.499  12.669  1.2506 -0.7614 -1.0256
 3180SOL    HW221000   0.637   4.648  12.655  1.2355 -0.3447  1.5053
 3181SOL     OW21001   0.904   1.414   5.900 -0.7218  0.0342  0.7425
 3181SOL    HW121002   0.980   1.459   5.936 -0.5090 -1.4057  2.0847
 3181SOL    HW221003   0.945   1.371   5.825 -1.0102  2.9556 -1.0926
 3182SOL     OW21004   1.033   4.136   4.069 -0.5423 -0.1908 -0.1563
 3182SOL    HW121005   1.125   4.155   4.083  0.0381 -2.6439 -0.7066
 3182SOL    HW221006   1.018   4.168   3.980  0.2731 -0.3230 -0.3330
 3183SOL     OW21007   4.153   0.906   8.488  0.6705 -0.1702  0.1809
 3183SOL    HW121008   4.084   0.866   8.542  0.0955 -1.7253 -1.7123
 3183SOL    HW221009   4.109   0.944   8.412 -1.9741 -1.5302  1.0256
 3184SOL     OW21010   2.564   1.584   9.583 -0.3984 -0.0195 -0.1847
 3184SOL    HW121011   2.478   1.552   9.609 -0.1767  0.5544  1.3073
 3184SOL    HW221012   2.541   1.653   9.521 -1.1070  0.7437  0.9252
 3185SOL     OW21013   1.348   4.688  13.384 -0.2662 -0.0876  0.1139
 3185SOL    HW121014   1.291   4.708  13.309 -0.2889 -2.6794 -0.5763
 3185SOL    HW221015   1.399   0.045  13.395 -0.5041  0.3347 -1.6842
 3186SOL     OW21016   3.561   3.727   6.758 -0.2462  0.3662 -0.2537
 3186SOL    HW121017   3.606   3.732   6.673  0.2635 -0.0825 -0.0110
 3186SOL    HW221018   3.622   3.767   6.819 -0.3474  1.0268 -0.5834
 3187SOL     OW21019   0.784   0.094  14.907  0.1034  0.0792 -0.0725
 3187SOL    HW121020   0.827   0.100  14.821 -1.8737 -0.3923 -1.0994
 3187SOL    HW221021   0.772   0.000  14.922 -1.9125  0.0963 -1.5951
 3188SOL     OW21022   4.209   3.189   2.056  0.2838 -0.0822  0.1732
 3188SOL    HW121023   4.139   3.124   2.050  0.6981 -0.4912 -0.2585
 3188SOL    HW221024   4.252   3.182   1.971 -0.1939 -0.8772 -0.0038
 3189SOL     OW21025   1.878   1.250   2.206 -0.4976  0.1628  0.1593
 3189SOL    HW121026   1.862   1.203   2.124  0.3348  1.3592 -0.6746
 3189SOL    HW221027   1.914   1.327   2.162 -0.1449  0.2874  0.6701
 3190SOL     OW21028   3.838   0.737   2.195 -0.1384 -0.1457  0.6739
 3190SOL    HW121029   3.853   0.830   2.179 -3.4669  0.2020 -0.3228
 3190SOL    HW221030   3.824   0.701   2.107 -0.3621  1.3635  0.0914
 3191SOL     OW21031   2.740   0.690   0.620  0.8902 -0.1286 -0.6786
 3191SOL    HW121032   2.689   0.771   0.628  0.4541 -0.6934  2.2962
 3191SOL    HW221033   2.763   0.695   0.527 -0.1499  1.0400 -0.8778
 3192SOL     OW21034   3.597   4.578   8.761 -0.8642 -0.1078  0.1098
 3192SOL    HW121035   3.688   4.571   8.732 -1.3240  0.3665 -1.4583
 3192SOL    HW221036   3.611   4.594   8.855 -1.1624  1.8110 -0.1768
 3193SOL     OW21037   3.976   1.974   7.489 -0.0112 -0.6973 -0.0121
 3193SOL    HW121038   3.940   2.058   7.517 -0.2323 -0.0471 -2.2358
 3193SOL    HW221039   4.010   1.949   7.575  0.0880  1.8520  0.6976
 3194SOL     OW21040   2.231   4.206   4.109  0.2332  0.3037  0.2285
 3194SOL    HW121041   2.168   4.154   4.059  0.9169  0.0790 -0.4079
 3194SOL    HW221042   2.178   4.285   4.117 -2.0521 -1.2401  0.1755
 3195SOL     OW21043   2.139   3.624  14.870  0.1199  0.1925  0.1623
 3195SOL    HW121044   2.070   3.585  14.816 -2.1945 -0.5550  3.6240
 3195SOL    HW221045   2.113   3.611  14.962  2.1788 -0.5999  0.6471
 3196SOL     OW21046   0.439   4.171   6.936 -0.0844 -0.3170  0.0854
 3196SOL    HW121047   0.443   4.155   6.842  2.8367  0.4987  0.0656
 3196SOL    HW221048   0.485   4.255   6.943  3.1721 -2.0602 -0.2130
 3197SOL     OW21049   3.269   4.628   3.328  0.0062  0.0002 -0.1307
 3197SOL    HW121050   3.184   4.586   3.339 -0.2570  0.8403  0.9820
 3197SOL    HW221051   3.309   4.594   3.248  1.5219 -0.4064  0.7988
 3198SOL     OW21052   0.604   4.616   3.728 -0.1353  0.0492 -0.1390
 3198SOL    HW121053   0.637   4.706   3.722  0.0271  0.0759  1.2357
 3198SOL    HW221054   0.525   4.610   3.675  1.4221  0.5579 -2.5199
 3199SOL     OW21055   1.414   0.752   8.592  0.2518  0.3662  0.3660
 3199SOL    HW121056   1.467   0.769   8.671 -0.9320 -1.4004  1.5147
 3199SOL    HW221057   1.351   0.824   8.596 -0.0339  0.1486 -0.3373
 3200SOL     OW21058   0.368   3.797   2.230 -0.2111  0.3969 -0.3301
 3200SOL    HW121059   0.339   3.846   2.153 -0.7883  1.5217  0.5874
 3200SOL    HW221060   0.305   3.836   2.291 -0.0417 -0.5342  0.4428
 3201SOL     OW21061   0.981   2.376  11.593  0.4588  0.3887  0.2068
 3201SOL    HW121062   0.958   2.419  11.676 -3.3902 -0.2525 -0.5391
 3201SOL    HW221063   1.068   2.344  11.614 -0.6269 -1.8813  1.2085
 3202SOL     OW21064   3.099   4.637  15.189  0.2198 -0.2451  0.3364
 3202SOL    HW121065   3.186   4.645  15.151  0.2631 -1.5788  0.1601
 3202SOL    HW221066   3.111   4.558  15.242  0.4673 -0.6293 -0.3011
 3203SOL     OW21067   2.926   3.949   6.001 -0.2585  0.6389  0.0274
 3203SOL    HW121068   3.014   3.958   6.036  0.2999  1.3161 -1.5834
 3203SOL    HW221069   2.887   4.035   6.018 -0.1176  0.5530  0.8116
 3204SOL     OW21070   3.220   0.638   2.809  0.7904 -0.4358 -0.3232
 3204SOL    HW121071   3.191   0.583   2.737 -1.2561 -0.8380  0.8117
 3204SOL    HW221072   3.312   0.645   2.781  0.0104  3.0601 -2.0012
 3205SOL     OW21073   2.059   3.260   7.190 -0.2109 -0.1404  0.0329
 3205SOL    HW121074   2.061   3.266   7.094 -0.0694 -1.1710 -0.0282
 3205SOL    HW221075   2.058   3.166   7.207  1.3188 -0.1415  0.1078
 3206SOL     OW21076   1.744   3.125   6.085  0.2544 -0.1309  0.2974
 3206SOL    HW121077   1.826   3.080   6.105 -0.1723 -0.6473  0.8609
 3206SOL    HW221078   1.713   3.075   6.010  0.1211  1.9135 -1.0231
 3207SOL     OW21079   2.817   3.488   1.898 -0.0506  0.4154 -0.0150
 3207SOL    HW121080   2.849   3.415   1.950  1.2211 -1.1886 -3.0700
 3207SOL    HW221081   2.795   3.446   1.815 -1.8386  2.1393 -0.4289
 3208SOL     OW21082   2.722   2.848   2.377  0.3243 -0.0162 -0.0678
 3208SOL    HW121083   2.671   2.860   2.457  0.7609 -1.0610  0.3653
 3208SOL    HW221084   2.657   2.824   2.311 -0.3930  0.7138  0.3761
 3209SOL     OW21085   0.789   1.270   3.127  0.6871 -0.5837  0.0777
 3209SOL    HW121086   0.803   1.365   3.127  0.0114 -0.4855  0.7508
 3209SOL    HW221087   0.777   1.249   3.035  1.4424  1.5215 -0.5067
 3210SOL     OW21088   0.897   0.625   4.877 -0.4473 -0.3492 -0.2643
 3210SOL    HW121089   0.887   0.679   4.799  1.2762 -3.0743 -2.3925
 3210SOL    HW221090   0.979   0.662   4.910 -1.7567  0.2278  2.3634
 3211SOL     OW21091   3.403   1.190   2.397  0.3275  0.0143 -0.4686
 3211SOL    HW121092   3.466   1.262   2.393 -0.4270  0.7942  1.4811
 3211SOL    HW221093   3.368   1.209   2.484  0.6514 -2.0249  0.1043
 3212SOL     OW21094   2.190   0.492   3.610 -0.5459 -0.0530  0.3125
 3212SOL    HW121095   2.232   0.552   3.549 -0.3713  0.7894  1.2608
 3212SOL    HW221096   2.200   0.551   3.684  2.0864  1.8490 -1.5778
 3213SOL     OW21097   2.664   0.934  16.981 -0.1201  0.4460 -0.0835
 3213SOL    HW121098   2.706   0.990  17.047 -0.2511 -0.2407  0.5760
 3213SOL    HW221099   2.698   0.967  16.898  0.8525  0.1392  0.1981
 3214SOL     OW21100   1.393   4.031   7.041 -0.5089  0.2223  0.4148
 3214SOL    HW121101   1.390   4.066   6.952  0.0549  0.8714  0.6560
 3214SOL    HW221102   1.326   3.962   7.042 -1.6257  1.3267  0.7849
 3215SOL     OW21103   2.635   2.286  15.284  0.9077 -0.4818 -0.0621
 3215SOL    HW121104   2.622   2.354  15.218 -0.4687 -1.9977 -1.3549
 3215SOL    HW221105   2.666   2.335  15.359 -1.1954  1.5894 -0.5660
 3216SOL     OW21106   1.255   1.591   7.247  0.3804 -0.3378  0.4181
 3216SOL    HW121107   1.200   1.620   7.320 -1.3112 -0.9432 -0.6333
 3216SOL    HW221108   1.285   1.677   7.218 -0.6844 -0.1195 -0.0401
 3217SOL     OW21109   0.564   1.416   7.344 -0.3812 -0.0806 -0.2321
 3217SOL    HW121110   0.527   1.467   7.273 -1.7900 -0.4245  0.2562
 3217SOL    HW221111   0.562   1.477   7.418 -0.6614 -0.7721  0.3327
 3218SOL     OW21112   4.334   0.312   8.018  0.4027  0.4697  0.1762
 3218SOL    HW121113   4.319   0.384   8.080 -0.6626 -0.8190  1.4147
 3218SOL    HW221114   4.284   0.237   8.051  0.2848  0.1817 -0.6611
 3219SOL     OW21115   1.527   2.052   5.802 -0.1018  0.1643 -0.5881
 3219SOL    HW121116   1.578   2.130   5.823  1.5134 -0.6766 -1.4315
 3219SOL    HW221117   1.470   2.053   5.879  0.7376  2.3624 -0.0134
 3220SOL     OW21118   0.829   3.672  15.609  0.5442 -0.3983 -0.1042
 3220SOL    HW121119   0.845   3.688  15.516  2.4180  1.2387  0.5014
 3220SOL    HW221120   0.911   3.630  15.633 -0.3774 -3.1736 -1.8022
 3221SOL     OW21121   3.841   2.627   6.727 -0.5029 -0.1579 -0.2099
 3221SOL    HW121122   3.922   2.575   6.729  2.2719  4.1861  1.4976
 3221SOL    HW221123   3.853   2.679   6.807 -0.3267  0.8247 -0.8870
 3222SOL     OW21124   2.467   4.591  15.335 -0.1796  0.2748 -0.7325
 3222SOL    HW121125   2.476   4.613  15.242 -0.7520  1.2358 -0.5558
 3222SOL    HW221126   2.558   4.568  15.353 -0.4662 -1.9081 -2.0441
 3223SOL     OW21127   0.400   1.154   1.163  1.0949 -0.2065 -0.0262
 3223SOL    HW121128   0.341   1.119   1.230 -0.4383  0.0562 -1.2521
 3223SOL    HW221129   0.437   1.232   1.206  1.4009  0.4224 -1.4176
 3224SOL     OW21130   1.812   3.627   0.348 -0.1378  0.0290 -0.0180
 3224SOL    HW121131   1.740   3.688   0.363  0.3545  0.6597 -0.2336
 3224SOL    HW221132   1.763   3.546   0.359 -0.3575  0.1279 -0.2921
 3225SOL     OW21133   1.557   3.345   0.644 -0.8097  0.2805  0.9582
 3225SOL    HW121134   1.560   3.250   0.632 -0.5772  0.5010 -0.7583
 3225SOL    HW221135   1.645   3.375   0.619 -0.7709  0.2187  1.0211
 3226SOL     OW21136   2.682   1.432   6.266  0.2326 -0.0772  0.0934
 3226SOL    HW121137   2.666   1.504   6.204  0.1089 -0.9700 -0.9041
 3226SOL    HW221138   2.673   1.486   6.345 -1.1666 -0.2052  0.0259
 3227SOL     OW21139   1.147   0.993   4.604 -0.2178  0.1465  0.1628
 3227SOL    HW121140   1.194   1.046   4.539 -1.4358  0.8594 -0.1439
 3227SOL    HW221141   1.073   0.961   4.551 -1.7760  1.5397  1.5151
 3228SOL     OW21142   2.233   3.465  10.608 -0.1710  0.2472  0.3454
 3228SOL    HW121143   2.203   3.512  10.685  1.2370  0.6453  0.6578
 3228SOL    HW221144   2.292   3.399  10.646  1.5720  1.0641 -0.9547
 3229SOL     OW21145   0.484   4.042   2.463  0.0521 -0.0277  0.2793
 3229SOL    HW121146   0.430   4.079   2.533 -0.4991 -1.0979  0.4219
 3229SOL    HW221147   0.471   4.097   2.385  1.7197 -1.4727 -0.9987
 3230SOL     OW21148   3.675   0.041   9.675  0.0001 -0.0759 -0.0537
 3230SOL    HW121149   3.591   0.074   9.709 -0.8653 -1.2344 -1.0611
 3230SOL    HW221150   3.638   4.688   9.630 -0.4428 -0.8273  1.5818
 3231SOL     OW21151   0.700   3.800  16.262 -0.2942 -0.2291  0.1972
 3231SOL    HW121152   0.703   3.717  16.216 -1.3059 -0.5379  0.7051
 3231SOL    HW221153   0.759   3.792  16.337 -2.2250 -2.6869  1.4385
 3232SOL     OW21154   4.611   0.433   2.650  0.3825  0.4906  0.0533
 3232SOL    HW121155   4.539   0.487   2.681 -2.1013 -2.7314 -0.0292
 3232SOL    HW221156   4.622   0.447   2.556 -0.1526  2.9545  0.3578
 3233SOL     OW21157   4.043   2.080  14.634 -0.0793  0.0176 -0.3313
 3233SOL    HW121158   4.092   2.161  14.622  0.3676 -0.4587 -1.6443
 3233SOL    HW221159   4.114   2.020  14.656 -0.9248 -0.9073 -0.0877
 3234SOL     OW21160   2.090   2.019   5.149 -0.4017  0.0289 -0.2246
 3234SOL    HW121161   2.036   2.010   5.228 -3.8486 -1.1352 -2.7085
 3234SOL    HW221162   2.141   1.938   5.146 -1.4785 -0.6504 -0.3091
 3235SOL     OW21163   3.008   0.935   7.117  0.0330 -0.5399 -0.7647
 3235SOL    HW121164   3.061   0.974   7.047 -2.1883 -1.1391 -2.7855
 3235SOL    HW221165   3.055   0.853   7.131  1.4007  0.3483 -0.2237
 3236SOL     OW21166   1.372   0.640   6.624  0.8888  0.1802  0.1411
 3236SOL    HW121167   1.432   0.712   6.602 -3.3435  4.0688  1.3532
 3236SOL    HW221168   1.374   0.573   6.555 -0.1255  0.0695  0.2282
 3237SOL     OW21169   4.602   0.174   2.648 -0.3544  0.2284  0.9917
 3237SOL    HW121170   4.506   0.178   2.645 -0.2562  1.0213 -0.9122
 3237SOL    HW221171   4.622   0.265   2.628  0.9344  0.0530  1.4669
 3238SOL     OW21172   4.023   2.511   0.276 -0.3047  0.0489  0.6941
 3238SOL    HW121173   3.940   2.558   0.272  0.0195  0.3828 -1.9636
 3238SOL    HW221174   4.094   2.571   0.253  1.1569 -2.2060 -0.6820
 3239SOL     OW21175   3.555   4.326  13.277  1.2064  0.7526 -0.1088
 3239SOL    HW121176   3.471   4.305  13.235  1.7861  0.1152 -0.9514
 3239SOL    HW221177   3.537   4.420  13.277 -1.6834  0.2049  1.7213
 3240SOL     OW21178   1.164   4.473   3.699 -0.1843 -0.2893  1.1126
 3240SOL    HW121179   1.175   4.555   3.651  3.1755 -0.8138  0.9703
 3240SOL    HW221180   1.077   4.494   3.734 -1.7230  0.1142 -2.8892
 3241SOL     OW21181   2.386   4.642   8.415 -0.1346  0.0329  0.0941
 3241SOL    HW121182   2.347   4.659   8.329  0.2243  1.2474  0.1736
 3241SOL    HW221183   2.302   4.640   8.459 -0.1917 -0.3215 -0.0283
 3242SOL     OW21184   1.159   2.077   7.136  0.4800  0.2874  0.5971
 3242SOL    HW121185   1.198   2.096   7.221 -0.1370  1.0524  0.7069
 3242SOL    HW221186   1.078   2.128   7.138 -0.6674 -1.5144  0.1260
 3243SOL     OW21187   3.512   4.619  14.053  0.2010  0.1581  0.3323
 3243SOL    HW121188   3.417   4.623  14.063 -0.0236  0.1313 -1.7953
 3243SOL    HW221189   3.521   4.573  13.970  0.3534 -0.4811  0.7020
 3244SOL     OW21190   0.563   0.914   8.188 -0.9733  0.6118  0.4950
 3244SOL    HW121191   0.631   0.891   8.252 -0.9942  1.0366  0.6662
 3244SOL    HW221192   0.538   0.823   8.168 -4.5466  1.4918  1.0958
 3245SOL     OW21193   0.993   1.820   8.176 -0.3383  0.0434  0.0840
 3245SOL    HW121194   1.004   1.890   8.240 -0.1444  0.2092 -0.1320
 3245SOL    HW221195   0.938   1.761   8.227 -1.3383  1.1146  0.2462
 3246SOL     OW21196   4.676   3.609  15.195  0.2884  0.1689  0.4948
 3246SOL    HW121197   4.622   3.566  15.129  2.3189  2.3568 -2.5762
 3246SOL    HW221198   4.717   3.531  15.233 -1.1073 -0.2054  1.2366
 3247SOL     OW21199   2.813   0.578   2.094 -0.1094 -0.4862  0.3660
 3247SOL    HW121200   2.898   0.538   2.111 -0.6376 -1.0162  1.6977
 3247SOL    HW221201   2.753   0.506   2.113  1.4637 -2.0054 -0.4498
 3248SOL     OW21202   3.020   4.511   9.420 -0.3875  0.1628  0.1163
 3248SOL    HW121203   3.072   4.581   9.459 -1.7658  1.3461 -0.1600
 3248SOL    HW221204   2.938   4.556   9.439 -0.4443  0.1456 -0.0809
 3249SOL     OW21205   3.239   4.158   8.739  0.1867  0.1100 -0.4473
 3249SOL    HW121206   3.287   4.093   8.790 -3.4559 -2.1769 -0.0046
 3249SOL    HW221207   3.300   4.232   8.742 -0.8486  0.9753 -0.9076
 3250SOL     OW21208   1.778   0.984   2.832  0.1106  0.0295  0.2303
 3250SOL    HW121209   1.732   0.901   2.820  2.4681 -1.2827  0.3620
 3250SOL    HW221210   1.841   0.996   2.761  0.8497  0.6342  0.9750
 3251SOL     OW21211   1.864   2.120   4.664 -0.1800 -0.3454 -0.0604
 3251SOL    HW121212   1.785   2.169   4.688  1.0042  0.7581  1.6136
 3251SOL    HW221213   1.920   2.144   4.738 -2.0624 -2.0093  1.9308
 3252SOL     OW21214   2.207   4.129  17.301 -0.5237  0.8253  0.9534
 3252SOL    HW121215   2.167   4.185  17.368  1.6163  0.3252  2.6456
 3252SOL    HW221216   2.292   4.115  17.342 -0.1916  0.0779 -0.0068
 3253SOL     OW21217   0.482   2.178   9.874 -0.2187 -0.1242  0.5675
 3253SOL    HW121218   0.427   2.174   9.953 -0.3226 -0.8618  0.4666
 3253SOL    HW221219   0.524   2.264   9.875 -1.3235  0.4388 -2.0740
 3254SOL     OW21220   0.039   4.591  14.629  0.2693  0.7108  0.1151
 3254SOL    HW121221   0.012   4.653  14.697  0.7393  1.6697 -0.5679
 3254SOL    HW221222   0.085   4.533  14.690  0.4797 -0.7775 -1.4802
 3255SOL     OW21223   3.858   1.493  12.794 -0.7745  0.2517  1.0553
 3255SOL    HW121224   3.923   1.445  12.845  1.4906  2.2101  0.0615
 3255SOL    HW221225   3.826   1.431  12.729  0.7782 -0.9179  1.4242
 3256SOL     OW21226   1.988   4.594   8.329  0.0166 -0.1158 -0.3306
 3256SOL    HW121227   2.007   4.677   8.285 -2.5143 -1.1501 -3.4327
 3256SOL    HW221228   1.895   4.595   8.307 -0.0783 -2.4072 -0.0162
 3257SOL     OW21229   4.656   3.415   2.510  0.2235 -0.5540 -0.1709
 3257SOL    HW121230   4.656   3.481   2.579 -1.5479 -2.1379  1.3284
 3257SOL    HW221231   4.600   3.463   2.449  0.4057  2.1944  1.8108
 3258SOL     OW21232   1.546   0.507   7.658 -0.0348  0.0175 -0.2795
 3258SOL    HW121233   1.457   0.509   7.693  0.1859  1.4807  0.2118
 3258SOL    HW221234   1.565   0.414   7.663 -1.5098 -0.2202  1.0524
 3259SOL     OW21235   2.145   0.577  15.032  0.4438  0.1465  0.1648
 3259SOL    HW121236   2.062   0.560  15.077  1.0407 -0.2919  1.1138
 3259SOL    HW221237   2.124   0.645  14.968 -0.0221  0.5191  0.7078
 3260SOL     OW21238   3.974   0.636   3.541  0.4584  0.8485  0.2576
 3260SOL    HW121239   4.022   0.557   3.567 -0.4001  0.3715  0.4139
 3260SOL    HW221240   3.882   0.607   3.540 -0.0780  2.6012 -0.4912
 3261SOL     OW21241   4.470   2.890   4.859  0.7477 -0.2834 -0.0914
 3261SOL    HW121242   4.548   2.835   4.870  0.1342 -1.5620 -2.0437
 3261SOL    HW221243   4.484   2.911   4.767  3.6378  0.6263  0.5646
 3262SOL     OW21244   2.355   1.381  11.015  0.4034  0.2615  0.7256
 3262SOL    HW121245   2.395   1.336  11.089 -0.5992  0.0767  1.1604
 3262SOL    HW221246   2.417   1.366  10.944  0.7108  0.7685  0.8806
 3263SOL     OW21247   1.582   3.850  17.175 -0.5340 -0.3966 -0.4269
 3263SOL    HW121248   1.592   3.870  17.082  0.5951 -1.8987 -0.6388
 3263SOL    HW221249   1.527   3.912  17.223 -0.9525 -2.8743  2.2946
 3264SOL     OW21250   1.787   4.496   6.665 -0.0472 -1.0506 -0.1497
 3264SOL    HW121251   1.751   4.410   6.686  0.9235 -1.2609  0.6096
 3264SOL    HW221252   1.872   4.500   6.709  1.1790 -0.4900 -2.5218
 3265SOL     OW21253   0.651   2.999   6.515 -0.5639 -0.2933 -0.4626
 3265SOL    HW121254   0.589   2.943   6.562  0.4647  0.4916  1.8296
 3265SOL    HW221255   0.640   3.083   6.560  0.2513  1.4766 -3.6386
 3266SOL     OW21256   3.116   0.783   3.473 -0.3867 -0.3556 -0.1808
 3266SOL    HW121257   3.141   0.868   3.508  2.8080 -1.4528  0.1726
 3266SOL    HW221258   3.060   0.756   3.546  2.4606 -1.1531  1.7058
 3267SOL     OW21259   4.269   1.859   5.663 -0.0068 -0.4310  0.4487
 3267SOL    HW121260   4.222   1.940   5.680 -0.4362 -0.5921  0.0410
 3267SOL    HW221261   4.199   1.794   5.671 -1.9121  1.3935 -1.2371
 3268SOL     OW21262   1.664   2.322   1.574  0.1239 -0.7607  0.0984
 3268SOL    HW121263   1.651   2.417   1.583  2.1414 -0.5597  0.7896
 3268SOL    HW221264   1.579   2.302   1.536 -0.1701  2.8963 -1.2278
 3269SOL     OW21265   0.406   2.271   2.935 -0.6092 -0.4966  1.0242
 3269SOL    HW121266   0.416   2.348   2.880  0.5454 -2.5556 -1.6266
 3269SOL    HW221267   0.494   2.234   2.943 -0.6825 -0.8498  0.2027
 3270SOL     OW21268   2.580   2.744   6.135 -0.4165  0.2964 -0.4144
 3270SOL    HW121269   2.658   2.711   6.090  0.1549 -0.6280  1.2453
 3270SOL    HW221270   2.517   2.755   6.065 -1.6944 -4.2699  0.0256
 3271SOL     OW21271   3.553   2.000  12.068  0.0336 -0.2694 -0.3861
 3271SOL    HW121272   3.568   2.092  12.091 -1.0790  0.0861 -1.1143
 3271SOL    HW221273   3.584   1.951  12.145 -0.7707  0.5029  0.4154
 3272SOL     OW21274   1.656   4.264   4.379  0.5829 -0.0471 -0.0291
 3272SOL    HW121275   1.747   4.245   4.355  1.0603  2.9273 -0.5216
 3272SOL    HW221276   1.617   4.182   4.350 -1.1723  1.2930 -1.3955
 3273SOL     OW21277   2.151   3.944   5.866  0.3256 -0.2325 -0.1257
 3273SOL    HW121278   2.220   3.886   5.898  1.1363  1.6752  1.6240
 3273SOL    HW221279   2.095   3.881   5.822  0.9192 -0.3334 -0.7493
 3274SOL     OW21280   3.868   2.845   6.907 -0.4622 -0.2960  0.1657
 3274SOL    HW121281   3.852   2.877   6.996  0.3211  2.1732 -0.5741
 3274SOL    HW221282   3.792   2.889   6.869 -1.1423 -1.1906  0.4996
 3275SOL     OW21283   2.752   1.564   3.509 -0.4950  0.3964  0.2050
 3275SOL    HW121284   2.827   1.549   3.451 -0.5513  1.1072 -0.0606
 3275SOL    HW221285   2.802   1.604   3.580 -0.9401  1.0823  0.1345
 3276SOL     OW21286   1.955   4.218   4.370  0.5589  0.3665 -0.3177
 3276SOL    HW121287   2.046   4.245   4.358  1.5059 -1.6349  2.3271
 3276SOL    HW221288   1.923   4.270   4.444 -2.3681 -0.6787 -0.8270
 3277SOL     OW21289   2.027   3.555   0.481 -0.2904 -0.2345 -0.2108
 3277SOL    HW121290   2.042   3.643   0.516  0.7069 -1.0223  1.3399
 3277SOL    HW221291   1.953   3.577   0.424  0.0538 -0.2116 -0.6507
 3278SOL     OW21292   3.020   1.004   5.888 -0.3413  0.4927 -0.4586
 3278SOL    HW121293   3.070   0.928   5.916  1.2890  1.8889  0.4614
 3278SOL    HW221294   3.099   1.052   5.862 -0.9655  2.1172  0.5861
 3279SOL     OW21295   1.708   3.080   8.597  0.1791  0.6631 -0.2940
 3279SOL    HW121296   1.682   3.172   8.584  1.2947  1.1389  0.8638
 3279SOL    HW221297   1.745   3.088   8.685 -3.0242 -1.5743  1.2757
 3280SOL     OW21298   1.810   4.253   4.627 -0.4226 -0.0608  0.3163
 3280SOL    HW121299   1.727   4.266   4.583 -1.0088 -0.0963  1.4012
 3280SOL    HW221300   1.787   4.164   4.654  0.3067  0.1418  1.6544
 3281SOL     OW21301   3.116   4.394   8.886 -0.3039 -0.4667 -0.3134
 3281SOL    HW121302   3.210   4.385   8.898 -0.1581  1.3137 -0.1327
 3281SOL    HW221303   3.086   4.400   8.977  1.0404  0.1705  0.0781
 3282SOL     OW21304   2.773   0.299   2.154 -0.0854  0.2569  0.1511
 3282SOL    HW121305   2.781   0.204   2.146  0.3556  0.3134 -0.0375
 3282SOL    HW221306   2.856   0.320   2.197  1.3207 -1.6181 -1.6718
 3283SOL     OW21307   1.271   0.266  15.306  0.5387 -0.1151 -0.7925
 3283SOL    HW121308   1.266   0.264  15.210 -2.9250  1.5721 -0.6509
 3283SOL    HW221309   1.178   0.276  15.327  0.8161  0.2142  0.2689
 3284SOL     OW21310   2.653   0.738  12.761 -0.1506  0.7720 -0.0917
 3284SOL    HW121311   2.699   0.801  12.706  1.0884 -1.0433 -1.1569
 3284SOL    HW221312   2.602   0.681  12.703  0.9696 -0.0052 -0.3320
 3285SOL     OW21313   2.547   3.263   5.622  0.5379 -0.3406 -0.3926
 3285SOL    HW121314   2.569   3.240   5.713  1.8791 -1.6818 -1.0543
 3285SOL    HW221315   2.580   3.184   5.578  0.5278 -0.8863  0.5749
 3286SOL     OW21316   0.145   3.174  15.998  0.0982  0.0178 -0.1392
 3286SOL    HW121317   0.220   3.120  16.022  0.0053 -0.9006 -2.0116
 3286SOL    HW221318   0.190   3.235  15.939 -3.0406  1.6170 -0.8713
 3287SOL     OW21319   0.694   2.803   4.694 -0.0635  0.2635  0.0136
 3287SOL    HW121320   0.663   2.776   4.608  0.3522 -1.1183  0.2929
 3287SOL    HW221321   0.657   2.891   4.698  1.5371  0.9248  0.4628
 3288SOL     OW21322   3.135   3.971   6.343  0.0739 -0.5463 -0.2625
 3288SOL    HW121323   3.076   3.899   6.319 -0.8152  0.3239 -0.6847
 3288SOL    HW221324   3.161   3.949   6.433  1.2477 -0.6402 -0.6349
 3289SOL     OW21325   3.249   1.087   0.909 -0.6012  0.1131  0.4252
 3289SOL    HW121326   3.162   1.048   0.913 -0.2035 -0.8576 -0.2857
 3289SOL    HW221327   3.293   1.053   0.987  0.7441 -0.7178 -0.6966
 3290SOL     OW21328   2.904   0.669   1.492 -0.4039  0.9531 -0.1753
 3290SOL    HW121329   2.835   0.687   1.556  1.1284 -1.9692  2.3271
 3290SOL    HW221330   2.845   0.622   1.434 -1.2242  0.9952  0.6131
 3291SOL     OW21331   4.494   4.327  15.511  0.0888 -0.0570 -0.0977
 3291SOL    HW121332   4.529   4.264  15.448 -1.8533  1.0049 -2.2423
 3291SOL    HW221333   4.407   4.287  15.522 -0.2106  0.8013  0.6896
 3292SOL     OW21334   3.861   2.235   7.477  0.6157  0.2070 -0.4858
 3292SOL    HW121335   3.806   2.301   7.519  3.5213  1.5761  1.1692
 3292SOL    HW221336   3.860   2.267   7.387 -0.1316  0.5118 -0.3648
 3293SOL     OW21337   0.478   0.436   9.507  0.1373  0.3509  0.3784
 3293SOL    HW121338   0.509   0.451   9.596  1.9242 -0.9641 -0.0391
 3293SOL    HW221339   0.552   0.389   9.469  0.1240  0.0684  0.7072
 3294SOL     OW21340   0.719   1.093   5.843  0.3789 -0.5486 -0.0236
 3294SOL    HW121341   0.790   1.078   5.782 -0.0728 -0.2070 -0.6315
 3294SOL    HW221342   0.681   1.171   5.802 -0.7831 -1.5951 -0.9347
 3295SOL     OW21343   1.036   1.826   6.985  0.0166  0.1192 -0.4057
 3295SOL    HW121344   1.027   1.855   6.895 -0.6158  0.2498 -0.2945
 3295SOL    HW221345   1.127   1.856   6.994  0.2582 -0.4124 -1.0523
 3296SOL     OW21346   0.068   4.034   8.215  0.0814  0.1271  0.3339
 3296SOL    HW121347   0.031   4.118   8.190  1.2626  0.3955 -0.4612
 3296SOL    HW221348   0.151   4.058   8.256 -0.8339  1.6310  1.3078
 3297SOL     OW21349   1.096   0.769   0.987  0.6384  0.4771  0.0696
 3297SOL    HW121350   1.002   0.755   0.998  0.7074 -0.8382 -1.1263
 3297SOL    HW221351   1.091   0.864   0.977  0.6812  0.3912 -0.7081
 3298SOL     OW21352   1.682   3.993   6.748  0.6297  0.0077  0.5925
 3298SOL    HW121353   1.590   4.019   6.738  0.5290 -1.0981 -1.3447
 3298SOL    HW221354   1.684   3.948   6.832 -1.0888 -1.2142 -0.0151
 3299SOL     OW21355   2.089   0.972   8.935 -0.0378 -1.0040 -0.8392
 3299SOL    HW121356   2.102   0.938   9.024 -0.8473 -0.1016 -0.3773
 3299SOL    HW221357   2.173   1.008   8.907  0.8107  0.0173  3.1256
 3300SOL     OW21358   2.212   4.429   7.429 -0.6311  0.8649  0.1269
 3300SOL    HW121359   2.211   4.423   7.524 -2.8447 -0.5713  0.0134
 3300SOL    HW221360   2.251   4.345   7.406 -0.4617 -0.0070  3.6778
 3301SOL     OW21361   1.522   4.662   1.182 -0.0837  0.0491  0.1891
 3301SOL    HW121362   1.499   4.573   1.155 -2.1372  0.4683  0.5329
 3301SOL    HW221363   1.611   4.661   1.147  0.6498  0.2640  2.0590
 3302SOL     OW21364   3.789   1.142   6.501 -0.4911  0.2035 -0.4904
 3302SOL    HW121365   3.774   1.069   6.440 -0.6757 -1.5228  1.6039
 3302SOL    HW221366   3.871   1.180   6.470  0.5776 -1.4123  0.3140
 3303SOL     OW21367   0.093   4.551   2.888 -0.0656  0.3536  0.2737
 3303SOL    HW121368   0.071   4.529   2.978  0.6590  1.1867  0.6674
 3303SOL    HW221369   0.007   4.570   2.851  1.2858  0.7143 -2.6949
 3304SOL     OW21370   0.901   4.357   5.832  0.4337  0.4684 -0.8875
 3304SOL    HW121371   0.935   4.310   5.755  1.7185  0.1843 -0.1368
 3304SOL    HW221372   0.969   4.333   5.895  0.8435  1.8124 -0.8345
 3305SOL     OW21373   3.809   2.576   5.946  0.2641 -0.5224  0.0746
 3305SOL    HW121374   3.880   2.588   5.883 -0.1294  1.0089 -0.0680
 3305SOL    HW221375   3.763   2.507   5.898 -2.0236  0.8677  0.2547
 3306SOL     OW21376   0.499   4.093   8.438  0.1505 -0.4018  0.8412
 3306SOL    HW121377   0.489   4.002   8.466  2.1693 -1.2810 -1.3942
 3306SOL    HW221378   0.414   4.107   8.396 -0.3103 -0.3779  1.7675
 3307SOL     OW21379   0.833   2.008  16.588  0.1819  0.0005 -0.2844
 3307SOL    HW121380   0.913   1.968  16.554 -0.9715 -2.4846 -0.0605
 3307SOL    HW221381   0.803   2.051  16.507 -0.7874  2.4873  1.4037
 3308SOL     OW21382   0.332   1.159   6.098 -0.1406  0.3769  0.1047
 3308SOL    HW121383   0.407   1.218   6.090 -0.4547  0.8262  0.4668
 3308SOL    HW221384   0.262   1.224   6.098  1.5582  2.2054 -1.0970
 3309SOL     OW21385   1.542   0.775   7.504  0.3032  0.4137 -0.1137
 3309SOL    HW121386   1.529   0.735   7.590  0.0538  0.4925 -0.1128
 3309SOL    HW221387   1.487   0.717   7.451 -0.1216 -0.7323  1.5869
 3310SOL     OW21388   4.326   3.942  15.491 -0.3343 -0.7818 -0.4151
 3310SOL    HW121389   4.365   3.976  15.571 -1.4261 -1.2803  0.3267
 3310SOL    HW221390   4.355   3.851  15.494  0.6080 -0.3355  3.4948
 3311SOL     OW21391   2.240   2.273   4.543  0.4898  0.3175 -0.0947
 3311SOL    HW121392   2.267   2.228   4.623  0.4441  1.3107  0.4724
 3311SOL    HW221393   2.199   2.352   4.579 -0.8658  0.0553 -1.0399
 3312SOL     OW21394   3.088   4.586  16.244  0.0583 -0.1616 -0.7910
 3312SOL    HW121395   3.038   4.652  16.292  0.3965  0.2837 -1.0497
 3312SOL    HW221396   3.017   4.528  16.217  1.3732 -1.3644 -1.6392
 3313SOL     OW21397   2.288   0.886   0.411  0.2993  0.3610 -0.0423
 3313SOL    HW121398   2.250   0.825   0.349 -0.9368  0.9723  0.0978
 3313SOL    HW221399   2.374   0.901   0.372  0.6567 -0.5733  0.3809
 3314SOL     OW21400   1.569   0.105   8.609 -0.1080  0.1326 -0.0026
 3314SOL    HW121401   1.535   0.098   8.520 -0.4932 -1.3802  0.2620
 3314SOL    HW221402   1.614   0.021   8.618  0.0137  0.1885 -0.0894
 3315SOL     OW21403   3.019   4.296   5.290 -0.3652  0.1716 -0.1342
 3315SOL    HW121404   3.065   4.231   5.237  1.9182  1.9689 -0.3276
 3315SOL    HW221405   3.041   4.263   5.378 -2.6947  0.2915  0.4961
 3316SOL     OW21406   1.224   1.060   3.975  0.0471  0.0012 -0.3218
 3316SOL    HW121407   1.190   1.006   4.046 -0.1176  0.4452 -0.0605
 3316SOL    HW221408   1.270   0.994   3.924  1.5226 -0.3629  1.5072
 3317SOL     OW21409   0.892   0.147  12.993  0.5640 -0.1454 -0.3302
 3317SOL    HW121410   0.946   0.179  12.921  0.1548  0.1386 -0.5105
 3317SOL    HW221411   0.832   0.220  13.006 -1.1842 -1.2678 -2.2605
 3318SOL     OW21412   2.828   4.654   5.757  0.0265  0.1467 -0.0031
 3318SOL    HW121413   2.881   4.586   5.716  0.0334 -0.3613  0.8656
 3318SOL    HW221414   2.869   0.010   5.718 -0.2479  0.1782 -0.2273
 3319SOL     OW21415   0.677   1.270   6.316 -0.3159 -0.1455 -0.1864
 3319SOL    HW121416   0.747   1.326   6.283 -0.7789 -1.0363 -2.6288
 3319SOL    HW221417   0.600   1.320   6.290  0.3763  0.7610 -0.4910
 3320SOL     OW21418   1.203   2.546   4.854  0.2666  0.6775  0.4293
 3320SOL    HW121419   1.137   2.611   4.879  0.2083  1.1892 -0.9998
 3320SOL    HW221420   1.167   2.528   4.767  1.8946  3.8705 -0.9182
 3321SOL     OW21421   4.149   3.379   8.812 -0.3382 -0.1448  0.0332
 3321SOL    HW121422   4.067   3.415   8.778  0.3108  0.7449 -0.5812
 3321SOL    HW221423   4.147   3.433   8.892 -2.2107  2.6152 -1.8898
 3322SOL     OW21424   1.708   0.126  17.224  0.0748  0.8298  0.0189
 3322SOL    HW121425   1.717   0.180  17.303  2.1834  0.9870 -0.3116
 3322SOL    HW221426   1.720   0.040  17.264  2.2508 -0.6804 -3.8826
 3323SOL     OW21427   0.083   4.080   6.497 -0.1251  0.1459  0.6607
 3323SOL    HW121428   0.004   4.105   6.450  1.2996 -1.0903 -2.4051
 3323SOL    HW221429   0.080   4.136   6.574 -2.1596 -0.2962  0.9207
 3324SOL     OW21430   1.237   3.830   1.925 -0.0116  0.2642  0.4612
 3324SOL    HW121431   1.242   3.899   1.859 -0.9232  0.0095  0.1358
 3324SOL    HW221432   1.163   3.778   1.894 -0.3862  0.5318  0.9167
 3325SOL     OW21433   3.083   2.708  15.271 -0.2004  0.4065  0.0089
 3325SOL    HW121434   3.132   2.787  15.295 -0.8771  0.8597 -0.1007
 3325SOL    HW221435   3.127   2.640  15.322  0.2557  0.0867 -0.8034
 3326SOL     OW21436   4.712   0.101   6.388 -0.2264  0.1508  0.3026
 3326SOL    HW121437   0.080   0.070   6.382  0.3285  1.3234  2.5888
 3326SOL    HW221438   4.685   0.071   6.475 -0.3446  2.5623  1.0866
 3327SOL     OW21439   0.914   0.745   3.667  0.5592 -0.1147 -0.2796
 3327SOL    HW121440   0.888   0.768   3.578  0.4371 -1.2293 -0.5241
 3327SOL    HW221441   0.936   0.653   3.656 -2.1319 -0.3345 -3.4979
 3328SOL     OW21442   3.572   3.347   7.567 -0.4149 -0.1029 -0.5078
 3328SOL    HW121443   3.635   3.287   7.607 -0.8438  0.9949  1.8195
 3328SOL    HW221444   3.613   3.433   7.560  1.4846 -0.8772  1.3421
 3329SOL     OW21445   0.293   1.980   1.561  0.2790  0.2370 -0.2570
 3329SOL    HW121446   0.228   2.031   1.512  2.3898  2.3570 -0.8481
 3329SOL    HW221447   0.247   1.965   1.643  0.5273 -0.1677 -0.1925
 3330SOL     OW21448   2.888   4.571   1.897 -0.0360  0.2398 -0.3781
 3330SOL    HW121449   2.963   4.511   1.898 -2.7230 -3.1314  0.2342
 3330SOL    HW221450   2.936   4.653   1.909  0.3406 -0.0441  0.0527
 3331SOL     OW21451   2.420   2.680   8.347 -0.1266 -0.0474  0.2980
 3331SOL    HW121452   2.515   2.684   8.331  0.2451  1.0182  2.7549
 3331SOL    HW221453   2.423   2.719   8.435  0.6565  1.3128 -0.3285
 3332SOL     OW21454   1.628   3.880   7.006 -0.2270 -0.1576 -0.1700
 3332SOL    HW121455   1.567   3.946   7.040 -0.8122 -1.2135  0.8373
 3332SOL    HW221456   1.596   3.803   7.053  1.2575 -0.7090 -0.0535
 3333SOL     OW21457   1.797   0.998   7.762 -0.0166  0.3457 -0.0134
 3333SOL    HW121458   1.827   0.977   7.674 -0.8664 -0.9327  0.0134
 3333SOL    HW221459   1.775   1.091   7.768 -0.3008  0.1552  2.1629
 3334SOL     OW21460   3.855   1.760   6.690  0.4660 -0.0770 -0.5101
 3334SOL    HW121461   3.770   1.733   6.655 -0.5375  1.7762  0.4841
 3334SOL    HW221462   3.837   1.833   6.749  0.5922  0.2208 -0.8439
 3335SOL     OW21463   0.620   0.540   7.783  0.4591 -0.0037  0.4126
 3335SOL    HW121464   0.606   0.457   7.829  0.2584 -0.2996 -0.1828
 3335SOL    HW221465   0.538   0.541   7.733 -0.7314 -0.6571  2.3440
 3336SOL     OW21466   3.450   2.852  15.092  0.0775  0.2544  0.7744
 3336SOL    HW121467   3.540   2.882  15.083  0.2824 -0.7018 -0.3099
 3336SOL    HW221468   3.420   2.905  15.166  2.4124 -1.8772  3.2456
 3337SOL     OW21469   0.359   0.437   7.710 -0.5763  0.7643 -0.4178
 3337SOL    HW121470   0.299   0.500   7.751  0.4692  0.4513  1.6047
 3337SOL    HW221471   0.329   0.355   7.748  0.3480 -0.0415 -1.4441
 3338SOL     OW21472   2.880   0.836   3.991  0.6835 -0.0052 -0.3780
 3338SOL    HW121473   2.922   0.766   3.942 -1.1198 -1.2380 -0.1467
 3338SOL    HW221474   2.927   0.828   4.074  2.4022 -0.4499 -1.4126
 3339SOL     OW21475   0.597   2.303   3.872 -0.0123 -0.1424  0.3539
 3339SOL    HW121476   0.543   2.383   3.874  0.9376  0.5331 -1.1764
 3339SOL    HW221477   0.581   2.273   3.783  1.7382 -2.3786  0.8063
 3340SOL     OW21478   2.805   0.841   9.271  0.6141 -0.2623  0.2251
 3340SOL    HW121479   2.712   0.861   9.267  0.2430 -1.7916  1.1488
 3340SOL    HW221480   2.844   0.902   9.209 -4.4589  0.9274 -1.8160
 3341SOL     OW21481   1.972   3.178   3.771 -0.3144  0.4068 -0.2449
 3341SOL    HW121482   1.911   3.113   3.736 -1.1538  0.4407  1.1730
 3341SOL    HW221483   2.035   3.122   3.817 -0.3719  1.1917  0.7926
 3342SOL     OW21484   0.025   4.405  15.552 -0.3755  0.1341 -0.4725
 3342SOL    HW121485   0.038   4.455  15.472 -1.0672 -1.0431 -1.3288
 3342SOL    HW221486   4.667   4.357  15.530  0.1011 -0.4885 -0.8603
 3343SOL     OW21487   2.641   0.926   0.729 -0.5212  0.1077  0.2889
 3343SOL    HW121488   2.576   0.990   0.699 -0.5115 -1.0103 -2.1386
 3343SOL    HW221489   2.718   0.981   0.743  0.0390 -0.1337 -1.8223
 3344SOL     OW21490   2.172   0.696  17.239  0.2799 -0.1360  0.2898
 3344SOL    HW121491   2.228   0.621  17.263  0.9562  0.1734 -0.3368
 3344SOL    HW221492   2.156   0.673  17.148  0.8041 -0.8681  0.3773
 3345SOL     OW21493   2.684   1.068  17.236 -0.3200  0.4087  0.6531
 3345SOL    HW121494   2.746   1.062  17.309 -1.8299  2.4808  2.0884
 3345SOL    HW221495   2.646   1.154  17.249 -2.3151 -0.4962  0.7175
 3346SOL     OW21496   0.039   2.758  10.527  0.3146 -0.3121  0.2168
 3346SOL    HW121497   4.722   2.841  10.554  0.5759 -0.1720  0.1706
 3346SOL    HW221498   4.690   2.696  10.544  0.5186 -0.4200  0.6649
 3347SOL     OW21499   4.714   2.413  10.222 -0.4290  0.4379 -0.4502
 3347SOL    HW121500   4.712   2.321  10.197 -0.0804  0.2890  0.0566
 3347SOL    HW221501   4.630   2.437  10.183 -0.1986  0.9571 -0.6339
 3348SOL     OW21502   3.355   1.583   4.613  0.4510 -0.5174  0.6461
 3348SOL    HW121503   3.427   1.616   4.559  0.2408 -0.2615  0.5258
 3348SOL    HW221504   3.414   1.558   4.684  1.6886  0.8701  0.1183
 3349SOL     OW21505   0.718   3.076   3.025  0.4041 -0.7771 -0.3308
 3349SOL    HW121506   0.718   3.015   3.098  1.7779  0.8190  0.9983
 3349SOL    HW221507   0.800   3.125   3.032  0.5691 -1.0053 -0.7037
 3350SOL     OW21508   3.341   3.881   3.517 -0.0216  0.4524  0.2871
 3350SOL    HW121509   3.342   3.971   3.484  0.7689  0.1343 -0.5224
 3350SOL    HW221510   3.246   3.870   3.514  0.1016 -0.4063 -0.2516
 3351SOL     OW21511   3.533   0.100  15.954 -0.1342 -0.1437 -0.4496
 3351SOL    HW121512   3.578   0.085  16.037  0.5609 -1.0273 -0.9859
 3351SOL    HW221513   3.594   0.152  15.901 -0.0163  0.2117  0.0269
 3352SOL     OW21514   3.975   2.032   7.149  0.2597 -0.6879 -0.5537
 3352SOL    HW121515   3.953   2.123   7.168 -0.2304 -0.5987 -1.5571
 3352SOL    HW221516   4.069   2.033   7.166 -0.0691  0.3421  1.1747
 3353SOL     OW21517   0.171   1.431  15.196  0.6072  0.1291 -0.6589
 3353SOL    HW121518   0.121   1.490  15.252  0.0239 -0.5270 -0.4898
 3353SOL    HW221519   0.136   1.348  15.230  1.3024  0.1081  0.0202
 3354SOL     OW21520   3.356   0.528   9.385 -0.1420 -0.0933  0.1670
 3354SOL    HW121521   3.334   0.605   9.437  1.9606 -1.1128  2.5078
 3354SOL    HW221522   3.282   0.475   9.414 -0.3621 -0.0913 -0.3900
 3355SOL     OW21523   4.098   0.873   2.527 -0.1856 -0.6270 -0.3872
 3355SOL    HW121524   4.115   0.967   2.525 -0.9451 -0.4941 -0.3460
 3355SOL    HW221525   4.122   0.845   2.439  2.6286  0.3351  0.0631
 3356SOL     OW21526   4.395   0.539   5.258  0.3796  0.6772  0.0050
 3356SOL    HW121527   4.420   0.457   5.215 -1.0522 -0.2325  0.8940
 3356SOL    HW221528   4.448   0.548   5.337 -1.3322  1.7983  1.0239
 3357SOL     OW21529   1.580   0.270   5.885 -0.0826 -0.0793 -0.5812
 3357SOL    HW121530   1.625   0.271   5.969 -0.0876  1.2865 -0.5964
 3357SOL    HW221531   1.611   0.355   5.855 -0.0345 -0.1655 -0.7738
 3358SOL     OW21532   2.707   1.267   2.973  0.9442  0.4943 -0.2590
 3358SOL    HW121533   2.616   1.271   3.002  1.7628 -0.1787  2.3460
 3358SOL    HW221534   2.691   1.218   2.893 -1.4460 -0.0697  0.5746
 3359SOL     OW21535   4.512   4.192   5.232 -0.3655  0.3001 -0.2766
 3359SOL    HW121536   4.557   4.111   5.257  0.6016  0.5346 -1.2777
 3359SOL    HW221537   4.512   4.240   5.315 -1.6287 -0.7281  0.3138
 3360SOL     OW21538   0.033   1.146   8.234  0.3970  0.0385 -0.4678
 3360SOL    HW121539   0.038   1.241   8.243 -1.2709  0.1165 -0.4675
 3360SOL    HW221540   0.019   1.137   8.140  2.4048 -6.2093 -0.1910
 3361SOL     OW21541   4.526   2.555  11.085 -0.2159  0.1454 -0.4663
 3361SOL    HW121542   4.576   2.535  11.005 -0.5075 -3.3011  0.2071
 3361SOL    HW221543   4.540   2.649  11.074 -2.1495  0.5292  0.3785
 3362SOL     OW21544   4.429   3.693  15.528  0.4310 -0.1999  0.5630
 3362SOL    HW121545   4.404   3.674  15.619 -0.4061  1.7585  0.7433
 3362SOL    HW221546   4.524   3.679  15.530  0.5077  0.4147  1.2219
 3363SOL     OW21547   4.665   2.313   4.117 -0.1917  0.4506 -0.1203
 3363SOL    HW121548   4.606   2.317   4.042 -0.5789  0.1997  0.1672
 3363SOL    HW221549   0.030   2.317   4.077  0.5638  0.9177  1.5534
 3364SOL     OW21550   0.489   4.057   2.938 -0.2618  0.5594  0.3439
 3364SOL    HW121551   0.549   4.032   3.008  0.9172  0.1120 -0.8246
 3364SOL    HW221552   0.545   4.115   2.887  2.6636 -2.7374 -0.2023
 3365SOL     OW21553   4.481   3.000   3.275 -0.2191  0.1137 -0.1969
 3365SOL    HW121554   4.529   2.917   3.282 -2.3222 -0.8922  2.0801
 3365SOL    HW221555   4.539   3.055   3.222 -0.3637 -0.3201 -0.8133
 3366SOL     OW21556   3.016   4.334   4.840 -0.1283  0.1304  0.2095
 3366SOL    HW121557   2.979   4.409   4.794  2.9741  1.9790  0.7684
 3366SOL    HW221558   3.005   4.262   4.778 -2.8465 -0.3779  1.2615
 3367SOL     OW21559   2.472   4.122   2.274 -0.1943  0.3028 -0.7116
 3367SOL    HW121560   2.420   4.083   2.203  2.5748 -0.6098 -2.2430
 3367SOL    HW221561   2.558   4.144   2.237  1.5080 -2.6425  1.4861
 3368SOL     OW21562   3.284   0.674  16.109 -0.2566 -0.0170  0.0053
 3368SOL    HW121563   3.262   0.766  16.118  0.8479  0.2681 -0.2303
 3368SOL    HW221564   3.269   0.645  16.199 -2.2788  1.4752  0.1307
 3369SOL     OW21565   3.148   3.793   3.222  0.0380 -0.1062 -0.2589
 3369SOL    HW121566   3.103   3.776   3.305 -0.0708  2.9388  0.3041
 3369SOL    HW221567   3.093   3.868   3.199 -0.0940 -0.4621 -1.0865
 3370SOL     OW21568   2.922   0.431   1.071  0.5608 -0.0319  0.0774
 3370SOL    HW121569   2.915   0.436   0.976  0.0539  2.2365  0.2278
 3370SOL    HW221570   2.932   0.337   1.081  0.0214 -0.0047  0.9105
 3371SOL     OW21571   2.919   3.044  13.746  0.1850  0.7505  0.4072
 3371SOL    HW121572   2.940   3.114  13.684 -2.6103  0.5238 -0.7866
 3371SOL    HW221573   2.837   3.018  13.705  0.1522 -1.4602  1.8713
 3372SOL     OW21574   1.282   0.680  12.308 -0.1395  0.4714 -0.7461
 3372SOL    HW121575   1.330   0.625  12.246  0.4862  0.4783 -0.2605
 3372SOL    HW221576   1.200   0.634  12.327  0.4130 -1.0044 -1.8841
 3373SOL     OW21577   3.018   0.237   6.649 -0.6535 -0.1234  0.3801
 3373SOL    HW121578   3.055   0.155   6.614  1.3293  0.9208  0.0779
 3373SOL    HW221579   3.072   0.252   6.726  0.8438  0.8392 -0.8811
 3374SOL     OW21580   0.606   4.351   2.109 -0.1609  0.2720 -0.2256
 3374SOL    HW121581   0.605   4.444   2.085  2.3604  0.3723  0.1077
 3374SOL    HW221582   0.652   4.350   2.193  0.3539 -0.3076 -0.5118
 3375SOL     OW21583   0.012   1.256   9.228 -0.3431  0.0744 -0.9054
 3375SOL    HW121584   0.098   1.214   9.233 -0.2059  0.2911 -1.5494
 3375SOL    HW221585   4.681   1.176   9.232 -1.1472  0.5362 -2.9264
 3376SOL     OW21586   2.160   1.096   4.118  0.0271  0.2537  0.1907
 3376SOL    HW121587   2.226   1.029   4.100  0.7297  1.2431 -0.8543
 3376SOL    HW221588   2.188   1.122   4.205 -0.1520 -0.2484  0.4029
 3377SOL     OW21589   3.928   1.052   5.124  0.1219  0.3170 -0.4177
 3377SOL    HW121590   3.990   1.033   5.054 -0.7070 -0.9253 -0.8162
 3377SOL    HW221591   3.916   0.971   5.173 -2.5242 -0.3037 -2.1027
 3378SOL     OW21592   3.165   1.260  11.761  0.7007 -0.0265  0.0798
 3378SOL    HW121593   3.231   1.205  11.802  2.4232  1.7865 -0.2090
 3378SOL    HW221594   3.183   1.249  11.667 -0.0849 -1.2230  0.0791
 3379SOL     OW21595   0.365   0.673   2.039 -0.2182 -0.2660  0.6235
 3379SOL    HW121596   0.434   0.730   2.003 -0.2629 -0.5404  0.0977
 3379SOL    HW221597   0.308   0.665   1.963 -1.5265  0.2309  1.5621
 3380SOL     OW21598   0.637   1.142   8.698  0.1187  0.0990  0.2696
 3380SOL    HW121599   0.636   1.237   8.688 -1.0485 -0.1220 -1.5739
 3380SOL    HW221600   0.554   1.121   8.740  1.4077 -1.2664  2.1793
 3381SOL     OW21601   1.362   4.328   8.249 -0.0654 -0.1526  0.0989
 3381SOL    HW121602   1.427   4.315   8.319 -0.7667 -0.4761  0.6891
 3381SOL    HW221603   1.282   4.334   8.301 -0.0026  2.4927 -0.0826
 3382SOL     OW21604   4.007   3.378   3.327 -0.3856 -0.1808  0.3822
 3382SOL    HW121605   4.008   3.297   3.277 -0.2563 -0.9905  1.6942
 3382SOL    HW221606   3.917   3.409   3.311 -0.7243 -0.9310  0.8318
 3383SOL     OW21607   3.158   0.527   6.781 -0.1599  0.2645  0.4306
 3383SOL    HW121608   3.070   0.489   6.786 -0.4783  0.7685 -1.1717
 3383SOL    HW221609   3.138   0.620   6.791 -0.7318  0.0943  0.8678
 3384SOL     OW21610   1.629   3.392   7.246  0.1179  0.5092 -0.0216
 3384SOL    HW121611   1.593   3.356   7.327 -0.8612 -0.4846 -0.8874
 3384SOL    HW221612   1.672   3.318   7.203 -0.4874  0.2559 -0.1929
 3385SOL     OW21613   4.124   1.516   5.012  0.0826 -0.2852  0.5132
 3385SOL    HW121614   4.190   1.452   4.987 -1.2458 -1.0795 -0.9474
 3385SOL    HW221615   4.090   1.535   4.925 -0.4909 -0.6522  0.6577
 3386SOL     OW21616   3.492   2.789   8.415 -0.1966 -0.0949 -0.2947
 3386SOL    HW121617   3.452   2.714   8.372 -1.7180  0.7663 -0.3906
 3386SOL    HW221618   3.415   2.844   8.427 -0.2464  0.3888 -2.8503
 3387SOL     OW21619   1.466   3.002   5.658  0.9569  0.6522 -0.0902
 3387SOL    HW121620   1.492   3.068   5.723  0.4158  0.8077 -0.0302
 3387SOL    HW221621   1.529   3.006   5.586  2.4095 -0.6058  1.1149
 3388SOL     OW21622   0.566   4.386   4.463 -0.0858  0.7878  0.7755
 3388SOL    HW121623   0.554   4.401   4.557 -2.1741  3.8175  0.0456
 3388SOL    HW221624   0.492   4.328   4.443 -0.8105  1.9158  0.1769
 3389SOL     OW21625   4.229   3.700   2.166  0.5664  0.4114 -0.2811
 3389SOL    HW121626   4.183   3.780   2.145 -0.7798 -0.1390  0.6036
 3389SOL    HW221627   4.299   3.735   2.221 -0.3306 -0.8026  1.6388
 3390SOL     OW21628   2.943   0.194  14.094 -0.1190  0.7411 -0.1509
 3390SOL    HW121629   2.935   0.100  14.081  0.1806  0.4789  1.6025
 3390SOL    HW221630   2.863   0.230  14.054 -1.0949 -0.6315  0.5723
 3391SOL     OW21631   2.383   4.488   0.029  0.5940  0.1887  0.4856
 3391SOL    HW121632   2.301   4.518  17.680 -0.6802 -2.4941  1.0696
 3391SOL    HW221633   2.360   4.398   0.052  0.5412 -0.1532 -0.8924
 3392SOL     OW21634   3.406   0.677   7.305  0.4543  0.2555 -0.4542
 3392SOL    HW121635   3.422   0.727   7.385 -1.4687 -1.2216  0.8471
 3392SOL    HW221636   3.428   0.588   7.335  0.0709  0.2924 -0.0679
 3393SOL     OW21637   4.251   1.899   7.380  0.2258 -0.4665  0.1969
 3393SOL    HW121638   4.194   1.940   7.445 -1.7631 -0.7951 -1.3313
 3393SOL    HW221639   4.207   1.816   7.359  1.8530 -1.2230 -0.1782
 3394SOL     OW21640   0.061   1.254  15.380  0.0677  0.0483  0.0225
 3394SOL    HW121641   4.689   1.241  15.374  0.1747 -0.0819 -1.4811
 3394SOL    HW221642   0.076   1.203  15.460 -0.5409 -1.8673 -1.0734
 3395SOL     OW21643   3.669   4.060   7.833 -0.2982 -0.2509  0.2644
 3395SOL    HW121644   3.668   3.969   7.863  0.8704 -0.3659 -0.0395
 3395SOL    HW221645   3.589   4.098   7.871 -0.8398 -3.6977  2.5689
 3396SOL     OW21646   4.449   1.862   0.869 -0.1767  0.6122  0.2344
 3396SOL    HW121647   4.523   1.806   0.848  1.0907  1.6800  1.8900
 3396SOL    HW221648   4.384   1.801   0.904  0.4346 -0.4655 -0.4988
 3397SOL     OW21649   1.129   2.960   7.274  0.2173 -0.2877 -0.4987
 3397SOL    HW121650   1.179   2.924   7.348  0.0902  3.2583  1.2942
 3397SOL    HW221651   1.107   3.048   7.305  0.7158 -0.1177 -0.6195
 3398SOL     OW21652   0.031   2.131   1.817  0.1060  0.0736 -0.2127
 3398SOL    HW121653   0.001   2.040   1.820  0.2881 -0.0144 -1.0195
 3398SOL    HW221654   4.672   2.169   1.783 -0.9414 -2.3267 -0.3763
 3399SOL     OW21655   2.927   1.026   0.315  0.4038 -0.1313  0.0911
 3399SOL    HW121656   2.836   1.011   0.339  0.2572 -1.8499 -1.5220
 3399SOL    HW221657   2.969   1.023   0.401 -0.7088  1.5683  0.7039
 3400SOL     OW21658   1.012   0.265  10.557 -0.4323  0.0363 -0.5010
 3400SOL    HW121659   0.945   0.299  10.497 -0.4703 -0.8705 -0.9673
 3400SOL    HW221660   0.973   0.180  10.576  0.0863 -0.2739 -0.8293
 3401SOL     OW21661   3.536   3.427   6.495  0.2591 -0.2327  0.2217
 3401SOL    HW121662   3.467   3.443   6.559  0.3153  2.8741 -0.5331
 3401SOL    HW221663   3.481   3.413   6.419  0.6110  0.8327 -0.2181
 3402SOL     OW21664   2.683   1.449   2.503 -0.4424 -0.4425  0.9670
 3402SOL    HW121665   2.627   1.381   2.539 -0.1398 -1.1021  0.1955
 3402SOL    HW221666   2.681   1.421   2.411 -0.5936  1.8443  0.2664
 3403SOL     OW21667   3.278   4.595  11.649 -0.4188 -0.7847 -0.3443
 3403SOL    HW121668   3.333   4.585  11.727 -1.0133 -0.8084  0.0689
 3403SOL    HW221669   3.327   4.531  11.596  0.3025 -1.0205  0.6089
 3404SOL     OW21670   2.644   1.652   9.210 -0.2426  0.2272 -0.1451
 3404SOL    HW121671   2.571   1.628   9.266  0.7071 -1.8637  0.1708
 3404SOL    HW221672   2.661   1.735   9.255 -2.0378  2.2858 -3.2170
 3405SOL     OW21673   0.778   1.707  10.413  0.1140 -0.4226 -0.4647
 3405SOL    HW121674   0.843   1.657  10.463  1.4710  1.3694 -0.4266
 3405SOL    HW221675   0.803   1.691  10.322  0.3814 -1.0897 -0.2725
 3406SOL     OW21676   1.315   0.559  16.536 -0.2761  0.6553  0.0334
 3406SOL    HW121677   1.267   0.527  16.612 -2.2287  0.3812 -1.2983
 3406SOL    HW221678   1.252   0.546  16.465  0.7821  0.3387 -0.8620
 3407SOL     OW21679   2.422   0.997  14.312 -0.0215 -0.4878 -0.1485
 3407SOL    HW121680   2.337   1.039  14.327  0.4918  1.3482 -2.3263
 3407SOL    HW221681   2.453   0.989  14.402 -1.3300 -2.4284  0.1231
 3408SOL     OW21682   2.037   4.284  15.850  0.2954  0.1195  0.2670
 3408SOL    HW121683   2.010   4.374  15.870 -0.8269 -0.0251 -0.5934
 3408SOL    HW221684   2.112   4.291  15.792 -0.1284  0.9244 -0.1892
 3409SOL     OW21685   4.066   2.089   4.335 -0.5623 -0.0674  0.1579
 3409SOL    HW121686   4.094   2.157   4.274  0.2489 -0.7016 -0.1804
 3409SOL    HW221687   4.154   2.056   4.354 -0.8503 -0.2626  1.1813
 3410SOL     OW21688   4.685   3.588   9.144 -0.3772 -0.1365 -0.2018
 3410SOL    HW121689   4.616   3.575   9.209  2.5180 -2.0262  2.4740
 3410SOL    HW221690   4.655   3.561   9.057 -3.4583  2.3053  0.1050
 3411SOL     OW21691   0.279   1.240   4.084  0.1313 -0.2109  0.3694
 3411SOL    HW121692   0.312   1.192   4.008 -2.8364 -2.7357  0.6515
 3411SOL    HW221693   0.346   1.198   4.137  0.3149  1.1939  1.2501
 3412SOL     OW21694   4.208   0.764   6.583 -0.0726 -0.6707 -0.3638
 3412SOL    HW121695   4.167   0.724   6.659  1.8928 -1.8787  0.0510
 3412SOL    HW221696   4.236   0.847   6.623  1.7840 -0.0137 -3.0197
 3413SOL     OW21697   1.292   1.677  17.015 -0.4289 -0.4349  0.1877
 3413SOL    HW121698   1.268   1.768  16.997 -0.6194 -0.2951  1.1295
 3413SOL    HW221699   1.340   1.653  16.936 -1.1243 -3.0490  0.5458
 3414SOL     OW21700   3.496   4.289   7.039 -0.4738 -0.6354 -0.6141
 3414SOL    HW121701   3.485   4.214   6.980  2.3086  1.0009 -3.1778
 3414SOL    HW221702   3.459   4.356   6.982  1.2752 -0.1210 -1.1209
 3415SOL     OW21703   3.822   2.679   8.326  0.2393 -0.4753 -0.0591
 3415SOL    HW121704   3.803   2.636   8.410  0.6399 -0.6815 -0.0742
 3415SOL    HW221705   3.903   2.724   8.349 -0.2473  0.1320  0.4447
 3416SOL     OW21706   2.644   0.296   7.520 -0.2398  0.6164  0.4081
 3416SOL    HW121707   2.732   0.263   7.506  0.0102  1.5112 -0.1314
 3416SOL    HW221708   2.607   0.225   7.572  1.7303 -1.5506 -1.1749
 3417SOL     OW21709   1.421   0.260   3.891 -0.3734 -0.1539 -0.5529
 3417SOL    HW121710   1.458   0.241   3.977  0.7716 -1.3346 -1.2969
 3417SOL    HW221711   1.415   0.355   3.877  0.8715 -0.2095 -1.5354
 3418SOL     OW21712   4.421   0.439   9.943 -0.2006 -0.3098 -0.2751
 3418SOL    HW121713   4.428   0.397   9.857  0.6925  1.6670 -1.1804
 3418SOL    HW221714   4.359   0.510   9.925  0.6102  1.1035  2.3589
 3419SOL     OW21715   3.573   3.894   9.504  0.2896 -0.0683  0.3979
 3419SOL    HW121716   3.478   3.904   9.513  0.3311 -1.2176  2.1698
 3419SOL    HW221717   3.575   3.806   9.466 -1.6686  0.1922 -0.3090
 3420SOL     OW21718   3.784   3.567   3.599 -0.6532  0.2009 -0.2427
 3420SOL    HW121719   3.693   3.580   3.574 -0.9716 -0.9622  0.2916
 3420SOL    HW221720   3.793   3.476   3.570 -0.1722  0.3276 -0.4838
 3421SOL     OW21721   2.869   0.358   9.745  0.1963  0.2224 -0.2992
 3421SOL    HW121722   2.847   0.280   9.693 -1.1454  1.6097 -1.8130
 3421SOL    HW221723   2.810   0.423   9.707  0.0951  0.3538  0.0882
 3422SOL     OW21724   1.268   2.491   9.586 -0.5039 -0.2806 -0.5115
 3422SOL    HW121725   1.322   2.507   9.664 -0.0974  1.2288 -1.0884
 3422SOL    HW221726   1.289   2.564   9.528  1.1980  0.8288  1.4680
 3423SOL     OW21727   2.331   3.985   5.035  0.1803  0.1497 -0.4912
 3423SOL    HW121728   2.361   4.064   5.079  1.6163  1.0268 -3.0666
 3423SOL    HW221729   2.285   3.934   5.102 -0.4295  0.0778 -0.9630
 3424SOL     OW21730   2.139   3.200   0.992 -0.1941  0.0109  0.1231
 3424SOL    HW121731   2.133   3.218   0.898  0.8920 -0.1777  0.0182
 3424SOL    HW221732   2.068   3.246   1.037  0.2647  0.8666 -0.0257
 3425SOL     OW21733   0.555   0.770   5.793  0.4924 -0.4260  0.2038
 3425SOL    HW121734   0.466   0.799   5.773  1.1197  1.5625  0.3556
 3425SOL    HW221735   0.593   0.849   5.830  0.8139 -0.3762 -0.2322
 3426SOL     OW21736   0.563   0.310  15.566 -0.0920 -0.0092  0.5596
 3426SOL    HW121737   0.658   0.323  15.555 -0.1753  0.9128  0.9507
 3426SOL    HW221738   0.539   0.354  15.647 -0.6727  1.0400 -0.1823
 3427SOL     OW21739   2.478   1.351  13.496  0.2389  0.5619  0.1878
 3427SOL    HW121740   2.395   1.316  13.463  0.7251 -0.9853  0.5852
 3427SOL    HW221741   2.541   1.335  13.426 -2.5165  0.2114 -2.2208
 3428SOL     OW21742   3.843   2.797   2.138  0.1515 -0.0811 -0.8808
 3428SOL    HW121743   3.779   2.763   2.076  0.9691 -2.5264 -0.3725
 3428SOL    HW221744   3.830   2.892   2.136  1.1458  0.1201  2.0242
 3429SOL     OW21745   3.047   0.499   5.983 -0.3485  0.0821 -0.1269
 3429SOL    HW121746   2.954   0.475   5.981  0.0943 -1.4121 -2.2425
 3429SOL    HW221747   3.073   0.507   6.075 -0.2985 -2.9387  0.1211
 3430SOL     OW21748   1.822   0.585   8.033 -0.0864 -0.2563  0.4319
 3430SOL    HW121749   1.803   0.625   7.948 -1.5454  2.1820  1.8953
 3430SOL    HW221750   1.892   0.642   8.064 -0.6894 -0.1868  1.6553
 3431SOL     OW21751   2.428   1.811   4.402  0.0712 -0.4497  0.2548
 3431SOL    HW121752   2.437   1.902   4.374  0.1775 -0.8791 -1.0790
 3431SOL    HW221753   2.483   1.794   4.479  1.5230 -1.3311 -0.9887
 3432SOL     OW21754   1.053   2.521  10.210 -0.0929  0.0999  0.0508
 3432SOL    HW121755   1.006   2.571  10.144  0.5440 -0.1749 -0.6158
 3432SOL    HW221756   1.043   2.584  10.282  1.9615  1.4510 -0.8613
 3433SOL     OW21757   2.316   2.156   4.793  0.0739 -0.0325  0.9185
 3433SOL    HW121758   2.244   2.219   4.798 -0.1383 -0.2593  0.7373
 3433SOL    HW221759   2.340   2.138   4.884 -1.2177 -1.3553  0.9930
 3434SOL     OW21760   1.935   3.776   3.537  0.2269  0.2165 -0.2540
 3434SOL    HW121761   1.875   3.762   3.464  0.0950 -1.2212  0.1270
 3434SOL    HW221762   1.973   3.862   3.521  0.5467  0.0805 -0.2197
 3435SOL     OW21763   1.212   0.662   1.888  0.2808 -0.1787  0.0774
 3435SOL    HW121764   1.221   0.700   1.801  0.0212  0.0299  0.1420
 3435SOL    HW221765   1.148   0.599   1.854  0.7859 -1.4753  1.5195
 3436SOL     OW21766   4.107   3.898  13.693 -0.0020 -0.4381  0.1076
 3436SOL    HW121767   4.128   3.917  13.601 -0.7208 -0.9954 -0.1656
 3436SOL    HW221768   4.128   3.981  13.738  1.9582 -0.6604 -0.3915
 3437SOL     OW21769   0.022   2.965  12.487  0.3447  0.2461 -0.2398
 3437SOL    HW121770   0.011   2.969  12.582  0.7804 -2.4352 -0.0538
 3437SOL    HW221771   4.655   2.979  12.457  0.0786  3.5626  2.1076
 3438SOL     OW21772   0.522   0.217   5.382 -0.1942  0.1718 -0.0824
 3438SOL    HW121773   0.460   0.256   5.444  0.8372 -0.1381  1.1435
 3438SOL    HW221774   0.585   0.288   5.383  0.8879 -0.7924  2.5369
 3439SOL     OW21775   2.669   1.829   4.218  0.1126  0.3621 -0.0110
 3439SOL    HW121776   2.665   1.836   4.313  0.3675  0.0330  0.0212
 3439SOL    HW221777   2.598   1.886   4.187  1.4212  1.0614 -1.7545
 3440SOL     OW21778   2.584   1.572   6.484 -0.3615 -0.5894  0.5422
 3440SOL    HW121779   2.642   1.536   6.552 -0.8138 -0.3324  1.0645
 3440SOL    HW221780   2.594   1.664   6.510 -0.4354 -0.0184 -1.4538
 3441SOL     OW21781   3.761   3.141   7.691 -0.2111 -0.2389 -0.5032
 3441SOL    HW121782   3.801   3.144   7.778  0.2761 -0.8957 -0.7036
 3441SOL    HW221783   3.676   3.106   7.720 -0.0774  0.8149  1.1858
 3442SOL     OW21784   0.510   3.467   5.107  0.3290  0.0951  0.0298
 3442SOL    HW121785   0.441   3.402   5.092 -0.0552  0.5859 -0.3026
 3442SOL    HW221786   0.551   3.475   5.021  1.4492 -1.7224  0.3785
 3443SOL     OW21787   2.193   2.207   9.278  0.0221  0.2420  0.8807
 3443SOL    HW121788   2.150   2.170   9.201  0.4152 -1.1964  1.3465
 3443SOL    HW221789   2.256   2.136   9.287  0.3787  0.6428  1.5056
 3444SOL     OW21790   4.647   0.719   2.169  0.2806 -0.1183 -0.5444
 3444SOL    HW121791   4.663   0.714   2.074 -0.2977  3.7781 -0.8422
 3444SOL    HW221792   4.556   0.690   2.160  0.6101 -1.6133  0.8970
 3445SOL     OW21793   4.209   1.587   9.661 -0.0616 -0.1526 -0.2382
 3445SOL    HW121794   4.259   1.668   9.651 -1.6844  0.7327 -1.2455
 3445SOL    HW221795   4.241   1.546   9.741 -2.3900  0.9094  1.2462
 3446SOL     OW21796   0.158   2.550   8.396  0.2547 -0.3414  0.1050
 3446SOL    HW121797   0.150   2.535   8.490  2.7738  1.7903  0.6705
 3446SOL    HW221798   0.193   2.464   8.370 -1.8470 -1.7335  1.9085
 3447SOL     OW21799   4.629   3.811  10.111 -0.0429  0.2096  0.8752
 3447SOL    HW121800   4.592   3.806  10.024 -0.0478  0.4301  0.8637
 3447SOL    HW221801   4.548   3.796  10.160 -0.9101 -2.8119 -1.5352
 3448SOL     OW21802   0.517   2.069   5.665 -0.1101  0.2825  0.3486
 3448SOL    HW121803   0.534   2.011   5.591 -3.1508  0.2661 -0.3186
 3448SOL    HW221804   0.595   2.124   5.657  0.9628 -1.4631 -1.1669
 3449SOL     OW21805   0.665   3.308   5.940 -0.2320 -0.7392 -0.2699
 3449SOL    HW121806   0.586   3.358   5.957  0.1229 -0.2051 -0.1819
 3449SOL    HW221807   0.727   3.369   5.899 -0.8561 -0.0991 -0.2709
 3450SOL     OW21808   1.115   0.538   6.693 -0.2464 -0.2161 -0.1640
 3450SOL    HW121809   1.107   0.550   6.788 -0.9746  1.0170 -0.3851
 3450SOL    HW221810   1.192   0.594   6.683  1.5549 -2.9712 -1.7061
 3451SOL     OW21811   3.380   4.662   2.863  0.0550  0.2808  0.3651
 3451SOL    HW121812   3.326   4.657   2.784 -0.5829  0.6813  0.7749
 3451SOL    HW221813   3.468   4.655   2.826  0.0348 -0.4405  0.4518
 3452SOL     OW21814   4.290   3.793   5.229  0.3139  0.1463  0.0863
 3452SOL    HW121815   4.217   3.826   5.176 -0.1771  1.1577  1.4062
 3452SOL    HW221816   4.294   3.708   5.185  0.7524  0.0588  0.2998
 3453SOL     OW21817   3.321   2.526   3.860 -0.5988 -0.0312 -0.3417
 3453SOL    HW121818   3.347   2.436   3.876 -0.4654  0.2175  0.8111
 3453SOL    HW221819   3.351   2.582   3.931 -1.4791  2.2012 -1.7161
 3454SOL     OW21820   4.097   2.512   6.657  0.2415  0.1785  0.0850
 3454SOL    HW121821   4.149   2.574   6.606  2.3461 -2.0499 -0.4531
 3454SOL    HW221822   4.156   2.438   6.669  1.6498  1.4059  0.5684
 3455SOL     OW21823   2.980   3.676   5.857  0.6872  0.5317  0.5417
 3455SOL    HW121824   2.903   3.704   5.908  0.1065  0.0310 -0.0569
 3455SOL    HW221825   2.980   3.583   5.878 -0.8902  0.3850 -0.1023
 3456SOL     OW21826   4.090   1.079   6.283  0.1705  0.1329 -0.4226
 3456SOL    HW121827   4.159   1.036   6.334  0.9002 -1.1259 -2.4496
 3456SOL    HW221828   4.086   1.173   6.300 -0.3517 -0.3340  2.0510
 3457SOL     OW21829   3.155   3.921   5.498 -0.3751 -0.1124 -0.0536
 3457SOL    HW121830   3.097   3.975   5.552 -2.1732 -1.4328 -0.6302
 3457SOL    HW221831   3.098   3.844   5.508  0.7421 -0.8763  0.3470
 3458SOL     OW21832   2.206   2.856  11.658 -0.2766  0.4082  0.4792
 3458SOL    HW121833   2.129   2.901  11.692 -1.1911  0.3119 -1.4604
 3458SOL    HW221834   2.172   2.807  11.583 -1.0095  0.6253  0.6698
 3459SOL     OW21835   3.679   4.444   6.354  0.1566 -0.3581  0.0089
 3459SOL    HW121836   3.639   4.431   6.440  0.8356  0.6458  0.4874
 3459SOL    HW221837   3.645   4.366   6.310 -0.0528  0.9368 -2.1335
 3460SOL     OW21838   4.186   1.368   8.417  0.2398 -0.4966  0.1161
 3460SOL    HW121839   4.258   1.307   8.437 -1.4213 -2.7063 -0.6768
 3460SOL    HW221840   4.121   1.312   8.459 -0.9855 -0.1529 -1.3516
 3461SOL     OW21841   2.373   3.362   8.306 -0.3618 -0.4105 -0.2481
 3461SOL    HW121842   2.422   3.371   8.388 -0.1452  4.4951 -0.8935
 3461SOL    HW221843   2.298   3.419   8.321 -1.5344 -1.9103 -0.3975
 3462SOL     OW21844   0.766   1.549  11.978  0.4062  0.3689 -0.3841
 3462SOL    HW121845   0.723   1.583  11.899  0.9900 -0.4384 -1.0396
 3462SOL    HW221846   0.851   1.591  11.968 -0.9110  3.5148  1.3349
 3463SOL     OW21847   0.813   4.059   9.258 -0.4296 -0.4904  0.7754
 3463SOL    HW121848   0.742   4.047   9.194 -0.4540  1.9758  0.3457
 3463SOL    HW221849   0.767   4.061   9.342  1.7331  0.2160  1.9361
 3464SOL     OW21850   2.647   2.096   2.111  0.1412 -0.2699 -0.2842
 3464SOL    HW121851   2.632   2.108   2.205 -0.3863  1.7524 -0.6204
 3464SOL    HW221852   2.570   2.132   2.066  0.2861 -2.1599 -2.0477
 3465SOL     OW21853   2.548   3.072  11.659 -0.3013  0.1683  0.0861
 3465SOL    HW121854   2.515   2.988  11.692  2.3283 -0.4904  1.1045
 3465SOL    HW221855   2.481   3.135  11.684  0.0072  0.8298 -0.7646
 3466SOL     OW21856   1.341   3.155   5.875  0.0574 -0.4790 -0.7612
 3466SOL    HW121857   1.281   3.101   5.822  0.0856 -2.4461  1.2170
 3466SOL    HW221858   1.283   3.231   5.878  2.0474  1.0309 -0.8066
 3467SOL     OW21859   4.319   4.243   5.930  0.3903  0.0627 -0.6961
 3467SOL    HW121860   4.246   4.203   5.883  0.3778 -2.2371  1.3205
 3467SOL    HW221861   4.304   4.229   6.023  0.8593  2.1993 -0.2846
 3468SOL     OW21862   0.499   3.269   7.418 -0.4646 -0.4313 -0.3037
 3468SOL    HW121863   0.555   3.317   7.479 -1.1691 -1.3333  1.0367
 3468SOL    HW221864   0.490   3.183   7.458  0.2430  0.1197  1.0419
 3469SOL     OW21865   1.184   3.031   2.428  0.0356 -0.2627  0.2182
 3469SOL    HW121866   1.152   3.121   2.425  0.4041 -0.1362  0.0522
 3469SOL    HW221867   1.106   2.986   2.460 -0.5704 -0.9365 -2.1851
 3470SOL     OW21868   0.159   3.950  12.862  0.0980 -0.0006 -0.6069
 3470SOL    HW121869   0.189   4.014  12.927 -0.4454  0.5287 -0.8804
 3470SOL    HW221870   0.235   3.949  12.803  0.5849  0.7706  0.0014
 3471SOL     OW21871   3.884   1.890  12.391 -0.6468  0.2178  0.0300
 3471SOL    HW121872   3.960   1.927  12.434  1.0438  0.4413 -3.1737
 3471SOL    HW221873   3.917   1.888  12.301  0.3158 -3.9764  0.4499
 3472SOL     OW21874   0.265   1.380  14.897 -0.4460  0.4642  0.4712
 3472SOL    HW121875   0.242   1.352  14.808 -0.4685  0.8944  0.3387
 3472SOL    HW221876   0.288   1.305  14.951  0.0938  0.5548  0.3668
 3473SOL     OW21877   1.708   2.528   1.269 -0.0009  0.0713  0.2412
 3473SOL    HW121878   1.803   2.518   1.264 -0.1923 -2.0642  0.7532
 3473SOL    HW221879   1.695   2.599   1.207  1.9175  0.4358  0.2368
 3474SOL     OW21880   2.267   4.054  11.813  0.1544 -0.1111 -0.1349
 3474SOL    HW121881   2.180   4.095  11.815  0.6600  0.8648  1.5218
 3474SOL    HW221882   2.260   3.982  11.750  2.5022  0.1988 -0.7555
 3475SOL     OW21883   3.289   3.078   1.840 -0.3029  0.1471 -0.4132
 3475SOL    HW121884   3.222   3.076   1.773 -0.0919 -0.0063 -0.6181
 3475SOL    HW221885   3.254   3.132   1.912 -0.8833 -1.3871  0.4484
 3476SOL     OW21886   0.305   1.322   8.006 -0.1501  0.0190 -0.1029
 3476SOL    HW121887   0.398   1.326   7.984 -0.4284 -2.3100 -1.7041
 3476SOL    HW221888   0.302   1.313   8.102 -1.6504  1.9288  0.0405
 3477SOL     OW21889   0.291   0.244   3.298 -0.0444 -0.0890  0.1873
 3477SOL    HW121890   0.295   0.184   3.223  0.3046  2.0156 -1.4493
 3477SOL    HW221891   0.278   0.326   3.251  2.4782  0.4003  0.3513
 3478SOL     OW21892   3.657   4.327  12.026  0.4479  1.0346 -0.1662
 3478SOL    HW121893   3.709   4.266  11.975 -1.0952  1.0556 -1.7415
 3478SOL    HW221894   3.712   4.330  12.105  1.1576 -0.2655 -0.6147
 3479SOL     OW21895   1.388   1.717   3.278  0.0681 -0.1072 -0.3173
 3479SOL    HW121896   1.411   1.654   3.210 -0.8482  0.7305 -1.4046
 3479SOL    HW221897   1.319   1.669   3.324  0.5089 -0.1524  0.3038
 3480SOL     OW21898   0.045   4.453   3.984 -0.3658 -0.5931 -0.2436
 3480SOL    HW121899   0.017   4.489   4.068 -0.5520  1.7137 -1.2921
 3480SOL    HW221900   4.693   4.479   3.930  0.1520  2.0957  0.3216
 3481SOL     OW21901   0.282   3.371  15.847 -0.3512 -0.5631 -0.5854
 3481SOL    HW121902   0.309   3.408  15.763 -0.9087  2.9960  0.7969
 3481SOL    HW221903   0.335   3.420  15.910  1.4098 -1.1266 -1.6254
 3482SOL     OW21904   1.888   2.963  17.108  0.2232 -0.4699  0.0537
 3482SOL    HW121905   1.895   2.967  17.204 -1.5330 -0.3646  0.1821
 3482SOL    HW221906   1.833   3.041  17.096  0.3657 -0.3491  0.1706
 3483SOL     OW21907   2.201   0.710   5.984  0.2299  0.0417 -0.1911
 3483SOL    HW121908   2.152   0.730   6.064 -0.2148 -0.2672 -0.3840
 3483SOL    HW221909   2.140   0.713   5.910 -0.0380 -0.1005  0.0234
 3484SOL     OW21910   3.919   2.542  13.731  0.1003 -0.0527  0.2880
 3484SOL    HW121911   3.957   2.469  13.780  0.0273 -1.4774 -1.7701
 3484SOL    HW221912   3.844   2.578  13.778 -0.3253  1.3104 -1.4535
 3485SOL     OW21913   3.004   3.665   7.599 -0.1114  0.4365 -0.0292
 3485SOL    HW121914   2.932   3.697   7.653  0.4220  1.3264  0.1550
 3485SOL    HW221915   3.061   3.612   7.655  0.2144  0.5544 -0.2478
 3486SOL     OW21916   0.719   1.410  10.215 -0.3391 -0.1176  0.0160
 3486SOL    HW121917   0.799   1.463  10.207 -0.0206 -0.3803  1.3713
 3486SOL    HW221918   0.665   1.437  10.141 -1.9398 -2.2089  0.4133
 3487SOL     OW21919   1.829   0.068  10.700  0.3599 -0.0428 -0.2490
 3487SOL    HW121920   1.910   0.017  10.705 -1.3402 -2.9646 -2.1877
 3487SOL    HW221921   1.851   0.128  10.628  0.6782 -0.2102 -0.2938
 3488SOL     OW21922   1.771   3.675  17.262 -0.3984  0.5420 -0.4170
 3488SOL    HW121923   1.717   3.746  17.229  2.5388  1.6286 -2.8463
 3488SOL    HW221924   1.839   3.722  17.310 -1.7358  1.4344  0.6016
 3489SOL     OW21925   1.545   2.886  16.995  0.4464  0.0433 -0.5765
 3489SOL    HW121926   1.507   2.903  16.908 -0.3571  0.7981 -0.0818
 3489SOL    HW221927   1.607   2.815  16.979  0.7565  0.4122 -1.0101
 3490SOL     OW21928   3.594   1.279  14.491 -0.2554 -0.1821  0.6444
 3490SOL    HW121929   3.533   1.285  14.564 -1.9385  1.3234 -0.8717
 3490SOL    HW221930   3.537   1.287  14.415 -0.9895  0.9246  1.3025
 3491SOL     OW21931   1.536   3.042   6.555  0.1453  0.3483  0.0770
 3491SOL    HW121932   1.623   3.083   6.556 -0.0346  0.7340  0.1476
 3491SOL    HW221933   1.537   2.971   6.492  3.1247 -0.3317  0.8733
 3492SOL     OW21934   2.091   2.718   2.816 -0.1094 -0.1079 -0.1703
 3492SOL    HW121935   2.135   2.697   2.733  2.2325  0.7346  0.8511
 3492SOL    HW221936   2.138   2.800   2.831 -0.3529 -0.4935  2.6754
 3493SOL     OW21937   3.437   3.542   0.121 -0.2446  0.1513  0.0369
 3493SOL    HW121938   3.363   3.565   0.064  0.7574  0.8990 -0.9734
 3493SOL    HW221939   3.512   3.554   0.061 -1.9722 -1.3363 -2.4331
 3494SOL     OW21940   2.748   2.472   5.977 -0.2271 -0.0118  0.4034
 3494SOL    HW121941   2.805   2.439   6.046 -0.1695 -0.7691 -0.0058
 3494SOL    HW221942   2.661   2.473   6.016 -0.1019 -1.1664  0.7172
 3495SOL     OW21943   3.003   4.240   6.420  0.0758 -0.0552 -0.1160
 3495SOL    HW121944   2.962   4.178   6.360  0.7010  0.0151 -0.6140
 3495SOL    HW221945   3.030   4.176   6.485  1.2737  0.5885  0.0324
 3496SOL     OW21946   3.338   1.455   9.445  0.0421 -0.3057 -0.1015
 3496SOL    HW121947   3.371   1.470   9.356 -0.4788  0.6508 -0.1421
 3496SOL    HW221948   3.332   1.360   9.443 -1.6725 -0.2434  3.8412
 3497SOL     OW21949   3.775   4.409  16.509 -0.3089  0.1619 -0.1306
 3497SOL    HW121950   3.729   4.449  16.436  1.1316 -0.0057 -1.1343
 3497SOL    HW221951   3.863   4.444  16.498  0.8722 -2.9075 -0.4230
 3498SOL     OW21952   4.514   3.789   9.842  0.3204 -0.6869  0.0649
 3498SOL    HW121953   4.421   3.769   9.856  0.0087 -0.0872 -1.0478
 3498SOL    HW221954   4.508   3.775   9.747 -1.8143 -1.4156  0.3066
 3499SOL     OW21955   2.577   2.079  16.104  0.3128  0.3594  0.3958
 3499SOL    HW121956   2.596   2.000  16.155 -1.4156 -0.6183 -0.4798
 3499SOL    HW221957   2.607   2.142  16.170 -1.1162  1.2413  0.2162
 3500SOL     OW21958   1.508   3.557  17.274 -0.6139 -0.2168  0.4843
 3500SOL    HW121959   1.456   3.637  17.266 -0.6067 -0.1943  0.6612
 3500SOL    HW221960   1.597   3.591  17.270 -0.4885 -0.9132 -2.7566
 3501SOL     OW21961   2.549   2.345   9.094  0.0286 -0.3179  0.5826
 3501SOL    HW121962   2.624   2.285   9.096 -0.9343 -1.4956  1.3686
 3501SOL    HW221963   2.510   2.309   9.015  0.5599  0.8741 -0.2303
 3502SOL     OW21964   3.960   3.999  14.422  0.3926  0.2772  0.8459
 3502SOL    HW121965   3.953   4.059  14.348  0.6094  1.6110  1.9094
 3502SOL    HW221966   4.053   4.018  14.433  0.6737 -0.8808  0.4917
 3503SOL     OW21967   0.216   3.805   7.692 -0.1337 -0.1117  0.5038
 3503SOL    HW121968   0.138   3.825   7.743  0.9674  1.1771  1.6761
 3503SOL    HW221969   0.183   3.821   7.604 -0.1639  0.4565  0.6225
 3504SOL     OW21970   3.919   1.526   2.327  0.1811 -0.3599  0.7723
 3504SOL    HW121971   3.992   1.517   2.267 -1.3583  0.5723 -1.2271
 3504SOL    HW221972   3.920   1.619   2.353  0.9057  0.1124 -0.9673
 3505SOL     OW21973   2.908   2.567   0.066 -0.5561 -0.1501  0.3079
 3505SOL    HW121974   2.848   2.566   0.141 -0.7158 -1.0634  0.1631
 3505SOL    HW221975   2.849   2.558  17.684 -0.6234 -2.4610  0.6602
 3506SOL     OW21976   0.350   1.577  16.457  0.5652  0.5986  0.4048
 3506SOL    HW121977   0.367   1.658  16.410  0.6567  0.9526  1.0520
 3506SOL    HW221978   0.290   1.526  16.402  0.9332  1.8620 -1.1645
 3507SOL     OW21979   2.603   1.677   7.043 -0.3754  0.9381 -0.2950
 3507SOL    HW121980   2.536   1.659   6.976  0.4204  2.3596 -1.4648
 3507SOL    HW221981   2.569   1.652   7.129 -0.3086  0.1609 -0.4906
 3508SOL     OW21982   1.394   0.534   7.999 -0.3174  0.2529  0.1971
 3508SOL    HW121983   1.325   0.467   7.999  1.4110 -1.5484 -0.0555
 3508SOL    HW221984   1.384   0.582   7.917  0.5851 -2.5736 -1.5758
 3509SOL     OW21985   4.222   4.264   2.897 -0.0955 -0.1364 -0.2045
 3509SOL    HW121986   4.137   4.233   2.866  0.3986 -0.2365 -1.4276
 3509SOL    HW221987   4.232   4.210   2.976  1.6662 -2.5383 -2.0745
 3510SOL     OW21988   2.962   3.404   6.081 -0.0355  0.0261 -0.4173
 3510SOL    HW121989   2.868   3.415   6.063  0.2618 -0.3108 -2.1689
 3510SOL    HW221990   2.981   3.357   6.000 -1.0911  0.9845 -1.2173
 3511SOL     OW21991   0.986   0.896   7.717 -0.0392  0.3188 -0.9794
 3511SOL    HW121992   1.071   0.919   7.755  0.5902  0.2165 -2.3122
 3511SOL    HW221993   1.021   0.843   7.646  0.2466  0.0079 -0.6086
 3512SOL     OW21994   1.014   4.701   8.416  0.1696  0.1743 -0.2483
 3512SOL    HW121995   0.979   4.626   8.464  1.4225  0.3150  0.8940
 3512SOL    HW221996   0.990   0.048   8.477  1.9445 -0.5335  1.2527
 3513SOL     OW21997   2.861   1.734   7.862  0.5946 -0.1047  0.7740
 3513SOL    HW121998   2.805   1.778   7.926 -1.0910 -0.6185 -0.3348
 3513SOL    HW221999   2.934   1.795   7.859 -1.3466  2.2191  0.5343
 3514SOL     OW22000   3.897   0.632   6.327 -0.1634  0.1482  0.5179
 3514SOL    HW122001   3.891   0.630   6.422  1.5805 -0.2486  0.6208
 3514SOL    HW222002   3.975   0.686   6.313  1.1509 -2.0163 -0.5589
 3515SOL     OW22003   0.710   2.731   8.307  0.5136 -0.1350  0.0006
 3515SOL    HW122004   0.678   2.723   8.396  0.8835 -0.9831  0.0602
 3515SOL    HW222005   0.782   2.668   8.308 -0.0341 -0.7491  0.5617
 3516SOL     OW22006   4.020   3.904   1.277 -0.3650  0.2618 -0.3444
 3516SOL    HW122007   3.947   3.896   1.216 -0.2676  2.4648 -0.7730
 3516SOL    HW222008   4.090   3.863   1.226 -0.2763 -2.7228  2.1990
 3517SOL     OW22009   3.407   0.321   0.001  0.6549  0.4240  0.3641
 3517SOL    HW122010   3.322   0.287  17.664 -0.3434  1.4063  2.1360
 3517SOL    HW222011   3.415   0.381  17.619  1.5507  0.0592  0.1566
 3518SOL     OW22012   0.531   3.506  11.181 -0.3748 -0.2718  0.4137
 3518SOL    HW122013   0.614   3.536  11.219 -0.1776 -1.4548  0.9232
 3518SOL    HW222014   0.464   3.548  11.235  0.7557  3.3639 -1.0279
 3519SOL     OW22015   3.833   1.646  12.492 -0.4431 -0.2583  0.1497
 3519SOL    HW122016   3.852   1.732  12.455 -0.2732 -0.0704  0.6607
 3519SOL    HW222017   3.793   1.592  12.425  0.0235 -1.9522  1.2378
 3520SOL     OW22018   3.282   0.183   3.962 -0.3018 -0.5157  0.1157
 3520SOL    HW122019   3.196   0.167   3.924  1.0667 -2.2490 -2.2633
 3520SOL    HW222020   3.268   0.117   4.029 -0.7440 -1.1124 -0.5679
 3521SOL     OW22021   1.881   1.059   1.026  0.4154  0.4237 -0.5057
 3521SOL    HW122022   1.820   1.099   1.087  2.0537 -0.1020  1.4604
 3521SOL    HW222023   1.868   1.117   0.950  0.5297 -0.8415 -1.4977
 3522SOL     OW22024   0.227   3.385   9.722 -0.2473 -0.0938 -0.3459
 3522SOL    HW122025   0.277   3.425   9.652 -2.5034  1.1612 -1.2099
 3522SOL    HW222026   0.141   3.401   9.684 -1.0155 -2.5421  0.2999
 3523SOL     OW22027   1.471   3.251  17.062 -0.4263  0.1768  0.5199
 3523SOL    HW122028   1.436   3.323  17.114 -0.3991  1.6498 -1.5016
 3523SOL    HW222029   1.399   3.188  17.062 -1.1460  0.9972 -0.1685
 3524SOL     OW22030   3.129   1.987   7.609 -0.5251  0.0298  0.1188
 3524SOL    HW122031   3.102   1.952   7.524  0.7941  0.4168 -0.4471
 3524SOL    HW222032   3.040   2.012   7.636  0.6615 -0.1591  4.2185
 3525SOL     OW22033   0.040   1.892   5.628  0.9932 -0.0662  0.2013
 3525SOL    HW122034   0.042   1.964   5.566  1.7890 -1.8909 -1.8954
 3525SOL    HW222035   4.679   1.904   5.674  0.5994 -1.0560 -0.2499
 3526SOL     OW22036   0.595   4.202   6.503 -0.1557  0.7066 -0.2071
 3526SOL    HW122037   0.662   4.189   6.436  1.1492 -2.6605  1.7641
 3526SOL    HW222038   0.643   4.279   6.536  0.9381 -0.2344  0.3982
 3527SOL     OW22039   3.649   2.869   4.131 -0.2712 -0.0072  0.5322
 3527SOL    HW122040   3.733   2.912   4.119 -0.1205 -0.2993  0.5387
 3527SOL    HW222041   3.658   2.841   4.222 -0.1349 -1.7133 -0.0004
 3528SOL     OW22042   0.737   2.301   8.249 -0.3993  0.2151  0.1625
 3528SOL    HW122043   0.652   2.326   8.287 -0.4057  0.2213  0.1438
 3528SOL    HW222044   0.782   2.385   8.255 -2.4288  1.3540 -0.4917
 3529SOL     OW22045   0.807   3.020   8.440 -0.3331 -0.2531  0.0506
 3529SOL    HW122046   0.847   3.107   8.430  1.3313 -1.3830 -3.0478
 3529SOL    HW222047   0.717   3.050   8.454  0.0137  1.2312 -0.8974
 3530SOL     OW22048   3.954   0.276   2.845 -0.0826  0.3020  0.4571
 3530SOL    HW122049   3.972   0.369   2.852 -0.7990  0.3016  2.3529
 3530SOL    HW222050   3.860   0.283   2.862 -0.0073 -0.1260  1.0832
 3531SOL     OW22051   4.035   2.272   4.120  0.0357  0.4738  0.6341
 3531SOL    HW122052   4.082   2.273   4.036  1.1437  0.1068  1.2518
 3531SOL    HW222053   3.960   2.324   4.092 -0.2938 -0.9646 -1.1412
 3532SOL     OW22054   3.812   3.566  14.691 -0.9274  0.1145  0.3942
 3532SOL    HW122055   3.831   3.621  14.615 -0.3645  0.3346  0.6962
 3532SOL    HW222056   3.851   3.485  14.659  0.2889  1.2439 -0.9840
 3533SOL     OW22057   4.524   4.027   4.446  0.3953 -0.0097 -0.3198
 3533SOL    HW122058   4.590   4.055   4.509  0.0453  2.5491 -1.0871
 3533SOL    HW222059   4.453   4.092   4.450 -1.0284 -1.5543 -0.4481
 3534SOL     OW22060   3.010   2.633   7.882 -0.0015  0.5237 -0.2496
 3534SOL    HW122061   3.094   2.667   7.914  0.7591 -1.4651 -0.1310
 3534SOL    HW222062   2.961   2.643   7.963 -0.5640 -1.5682 -0.3251
 3535SOL     OW22063   1.334   3.712   3.439 -0.1249 -0.1207  0.3430
 3535SOL    HW122064   1.375   3.797   3.455  0.5231 -0.3493 -0.1162
 3535SOL    HW222065   1.377   3.685   3.358 -1.0718  0.1588 -0.2507
 3536SOL     OW22066   2.603   2.728  15.250 -0.1983 -0.2116 -0.1817
 3536SOL    HW122067   2.564   2.813  15.271 -3.2225 -1.6375 -0.0055
 3536SOL    HW222068   2.694   2.747  15.270  0.5526 -2.5572 -1.3810
 3537SOL     OW22069   0.859   1.155   7.681  0.0226 -0.4455 -0.5001
 3537SOL    HW122070   0.891   1.066   7.697  1.5494 -0.0141 -1.1787
 3537SOL    HW222071   0.866   1.166   7.586 -1.9007  3.1628 -0.2174
 3538SOL     OW22072   1.140   1.238   9.696 -0.1154 -0.3103  0.5698
 3538SOL    HW122073   1.195   1.171   9.736 -2.1786 -1.3415  1.6986
 3538SOL    HW222074   1.066   1.242   9.757 -1.2777 -2.7162 -0.6859
 3539SOL     OW22075   3.670   1.622   7.935 -0.2863  0.1851  0.2326
 3539SOL    HW122076   3.646   1.560   8.004 -2.1230  1.3756  0.6481
 3539SOL    HW222077   3.765   1.611   7.940 -0.2230  0.4234 -0.4609
 3540SOL     OW22078   3.385   2.520   8.352  0.2698  0.1793 -0.2327
 3540SOL    HW122079   3.340   2.475   8.424  0.0378 -0.6280 -0.8897
 3540SOL    HW222080   3.422   2.451   8.297 -1.4501  0.9877 -2.4072
 3541SOL     OW22081   2.992   2.341   0.906  0.5075 -0.3295  0.5771
 3541SOL    HW122082   3.055   2.412   0.896  1.6489 -1.4255 -0.0189
 3541SOL    HW222083   2.912   2.390   0.926 -0.1106 -1.7097  1.4799
 3542SOL     OW22084   3.999   2.392  15.913 -0.7348  0.3121 -0.3821
 3542SOL    HW122085   3.962   2.325  15.857 -0.0342 -0.9532  0.6614
 3542SOL    HW222086   3.926   2.401  15.974 -2.0408 -1.8873 -1.6285
 3543SOL     OW22087   2.328   2.017   8.349 -0.2869  0.6673 -0.1921
 3543SOL    HW122088   2.407   2.001   8.297 -0.0503  0.8720  0.1045
 3543SOL    HW222089   2.320   2.112   8.336 -0.7234  0.5680 -0.6619
 3544SOL     OW22090   2.299   1.116   8.845 -0.4477 -0.1655  0.4094
 3544SOL    HW122091   2.380   1.088   8.801 -1.1031  0.7582 -1.3771
 3544SOL    HW222092   2.275   1.178   8.776  0.8772 -0.2400 -0.1261
 3545SOL     OW22093   0.845   3.657   5.548 -0.2080 -0.8727 -0.1664
 3545SOL    HW122094   0.902   3.732   5.563 -1.8933  0.4489 -0.4910
 3545SOL    HW222095   0.770   3.702   5.585  0.3220 -0.3997  0.3318
 3546SOL     OW22096   0.339   2.285   4.719 -0.1306 -0.1160 -0.4961
 3546SOL    HW122097   0.372   2.370   4.749  2.2860 -1.2786  0.1503
 3546SOL    HW222098   0.361   2.235   4.798 -0.1619  0.4619 -0.1190
 3547SOL     OW22099   3.906   1.782   2.737  0.7623  0.1128 -0.2500
 3547SOL    HW122100   3.907   1.688   2.724  2.9038 -0.1918  2.3723
 3547SOL    HW222101   4.001   1.786   2.723  0.5643 -1.6719 -2.0964
 3548SOL     OW22102   0.219   2.129  12.998 -0.1736  0.4558 -0.3039
 3548SOL    HW122103   0.233   2.222  12.978 -1.0623  0.4513 -0.9430
 3548SOL    HW222104   0.289   2.089  12.947 -1.6311 -2.2376 -0.2094
 3549SOL     OW22105   3.149   3.579   6.116  0.0203 -0.3327 -0.4415
 3549SOL    HW122106   3.201   3.548   6.043  0.2777 -0.8330 -0.0445
 3549SOL    HW222107   3.074   3.521   6.120  2.3075 -3.1576  1.5014
 3550SOL     OW22108   3.080   3.137   6.774  0.1338  0.0705 -0.4897
 3550SOL    HW122109   3.058   3.208   6.713  2.5145  1.0501 -0.2228
 3550SOL    HW222110   3.131   3.176   6.845 -0.1122  1.2049 -0.9301
 3551SOL     OW22111   4.577   1.439  17.154 -0.1468  0.3618 -0.4426
 3551SOL    HW122112   4.584   1.432  17.249 -1.8040  0.2556 -0.3300
 3551SOL    HW222113   4.643   1.371  17.139 -0.6949 -0.1014 -0.7603
 3552SOL     OW22114   3.171   1.897   8.206  0.0408  0.0779  0.2296
 3552SOL    HW122115   3.266   1.886   8.204  0.0938  0.2273  1.6219
 3552SOL    HW222116   3.135   1.829   8.263 -0.2759  1.0845  1.2246
 3553SOL     OW22117   4.551   3.223  12.447 -0.3511 -0.7247 -0.6008
 3553SOL    HW122118   4.594   3.183  12.371  0.6568 -0.6403 -0.0788
 3553SOL    HW222119   4.499   3.143  12.460 -0.3572 -0.5068  0.7034
 3554SOL     OW22120   1.426   0.209   4.684 -0.1066  0.4778  0.8975
 3554SOL    HW122121   1.475   0.136   4.644 -0.4588 -0.0163  1.3604
 3554SOL    HW222122   1.357   0.207   4.618  2.4324  1.2469 -1.7783
 3555SOL     OW22123   2.014   3.136   5.749 -0.3955  0.6589 -0.5791
 3555SOL    HW122124   1.983   3.086   5.674  1.7234 -0.8622 -0.4390
 3555SOL    HW222125   2.031   3.066   5.811  1.3251  1.6902  0.1228
 3556SOL     OW22126   1.935   0.258   5.765  0.2217 -0.2301  0.2933
 3556SOL    HW122127   1.943   0.246   5.859  1.6184 -0.5807  0.1319
 3556SOL    HW222128   1.984   0.339   5.750 -1.7713  1.0456  0.7355
 3557SOL     OW22129   4.473   0.278   5.160  0.7229 -0.2059  0.0107
 3557SOL    HW122130   4.542   0.295   5.095  1.9260  0.2832  1.4366
 3557SOL    HW222131   4.395   0.266   5.105  1.3526  0.8903 -1.1316
 3558SOL     OW22132   0.670   1.661   2.338 -0.4466  0.0160 -0.0149
 3558SOL    HW122133   0.642   1.571   2.354 -0.8427 -0.3765 -2.8813
 3558SOL    HW222134   0.588   1.705   2.316  0.3131  0.7535 -1.3852
 3559SOL     OW22135   0.845   2.621   7.451  0.1578 -0.4285 -0.0630
 3559SOL    HW122136   0.916   2.569   7.414 -0.8850 -0.8147 -1.5003
 3559SOL    HW222137   0.868   2.603   7.542  2.9038 -0.2891 -0.7446
 3560SOL     OW22138   2.207   0.049   3.501  0.0931  0.0570  0.1970
 3560SOL    HW122139   2.215   0.117   3.567  1.2322 -2.3106  2.4859
 3560SOL    HW222140   2.298   0.021   3.501 -0.1033 -0.5794  1.8593
 3561SOL     OW22141   3.918   0.280   7.495 -0.4519 -0.2764 -0.0888
 3561SOL    HW122142   3.824   0.265   7.487 -0.4001 -1.0452  0.7216
 3561SOL    HW222143   3.910   0.362   7.543  2.3793 -1.6716  2.7920
 3562SOL     OW22144   3.659   2.303   3.355  0.2437 -0.4317 -0.2312
 3562SOL    HW122145   3.647   2.213   3.325 -1.0611 -0.5494  0.6799
 3562SOL    HW222146   3.601   2.313   3.430  2.5645  0.0523  1.4989
 3563SOL     OW22147   4.251   2.115   7.215 -0.1458 -0.5183  0.0614
 3563SOL    HW122148   4.333   2.162   7.198 -1.4634  1.3797 -1.1043
 3563SOL    HW222149   4.285   2.043   7.269  0.3353  1.2690  2.1559
 3564SOL     OW22150   4.621   2.160  14.209 -0.1822  0.0609 -0.1771
 3564SOL    HW122151   4.624   2.114  14.125 -1.7236 -3.0102  1.4424
 3564SOL    HW222152   4.535   2.144  14.248 -1.3255  1.0478 -2.2836
 3565SOL     OW22153   3.948   3.165   4.485 -0.3531  0.0774  0.2141
 3565SOL    HW122154   3.890   3.184   4.412 -2.2094 -4.4900  0.4597
 3565SOL    HW222155   4.028   3.205   4.451  0.8677 -1.7462  0.9039
 3566SOL     OW22156   4.611   3.392   3.943  0.1373 -0.4152 -0.9756
 3566SOL    HW122157   4.605   3.454   3.870 -2.8746 -0.8632 -1.1056
 3566SOL    HW222158   4.562   3.315   3.916  2.4392 -1.6048 -1.8079
 3567SOL     OW22159   1.533   2.892   5.022  0.4363  0.2807 -0.0912
 3567SOL    HW122160   1.516   2.803   4.993 -0.5734  0.9269 -1.4974
 3567SOL    HW222161   1.450   2.918   5.064  1.3580  0.1638  1.7891
 3568SOL     OW22162   0.990   4.168   7.856  0.6869 -0.2267  0.2058
 3568SOL    HW122163   0.984   4.196   7.947 -0.1634  2.2528 -0.6179
 3568SOL    HW222164   0.922   4.225   7.819  0.1390  1.3299  3.6254
 3569SOL     OW22165   4.601   1.064   1.567  0.5183  0.1879  0.1233
 3569SOL    HW122166   4.544   1.015   1.507  0.1573 -0.5806  1.0977
 3569SOL    HW222167   4.612   1.150   1.527 -2.3264  0.9046  0.8865
 3570SOL     OW22168   3.705   3.992  16.979 -0.3402  0.6346  0.2805
 3570SOL    HW122169   3.756   3.963  17.054  0.8253  0.3824 -0.6113
 3570SOL    HW222170   3.614   3.980  17.008 -0.4128  0.8941  0.1550
 3571SOL     OW22171   3.162   3.130   1.324 -0.0356  0.2730 -0.3058
 3571SOL    HW122172   3.141   3.072   1.251  1.4903 -2.6298  1.5627
 3571SOL    HW222173   3.078   3.171   1.345 -0.4408 -1.0145  0.5516
 3572SOL     OW22174   2.883   3.839   0.041 -0.1628 -0.4011  0.1587
 3572SOL    HW122175   2.906   3.924   0.078  1.6916 -0.7947 -0.0658
 3572SOL    HW222176   2.827   3.864  17.660 -0.8656 -1.2643  0.3937
 3573SOL     OW22177   3.911   4.531   3.208 -0.2846 -0.6427 -0.2995
 3573SOL    HW122178   3.929   4.546   3.115  0.4138  0.2693 -0.0173
 3573SOL    HW222179   3.815   4.528   3.209 -0.3259  0.2409 -1.6291
 3574SOL     OW22180   4.444   3.953  10.507  0.3749  0.0239 -0.9465
 3574SOL    HW122181   4.506   4.004  10.560  1.2647  0.2811 -2.2296
 3574SOL    HW222182   4.413   3.878  10.557 -1.0550  3.3050  3.0999
 3575SOL     OW22183   4.587   1.283  10.264  0.2263  0.0258 -0.6572
 3575SOL    HW122184   4.635   1.363  10.244  2.2529 -0.5535  1.8404
 3575SOL    HW222185   4.520   1.295  10.197 -2.1062 -2.6525  1.1965
 3576SOL     OW22186   4.714   3.874   7.838 -0.5447  0.2525  0.3195
 3576SOL    HW122187   4.718   3.814   7.913 -1.9960  0.2323  0.3773
 3576SOL    HW222188   4.676   3.955   7.872  2.4192  0.6737  2.6567
 3577SOL     OW22189   0.950   2.187   6.360  0.8292 -0.1897 -0.3074
 3577SOL    HW122190   0.946   2.193   6.455 -0.7676 -0.2438 -0.3697
 3577SOL    HW222191   0.926   2.274   6.327 -0.9947 -1.1257 -1.4548
 3578SOL     OW22192   4.305   4.273   5.556 -0.8402 -0.1363  0.3930
 3578SOL    HW122193   4.377   4.320   5.513  0.4322 -1.9677  0.4754
 3578SOL    HW222194   4.349   4.188   5.563 -1.0115 -0.2303  0.3222
 3579SOL     OW22195   4.138   0.475   3.651  0.1638 -0.0738  0.1131
 3579SOL    HW122196   4.131   0.384   3.624  0.1031  0.2609 -0.9763
 3579SOL    HW222197   4.200   0.480   3.724  0.2962 -0.2725  0.0139
 3580SOL     OW22198   3.721   3.705   2.505 -0.0242  0.0653  0.0176
 3580SOL    HW122199   3.648   3.760   2.532  0.7732 -0.1195  2.5782
 3580SOL    HW222200   3.784   3.776   2.503 -0.0656  0.1570  1.9118
 3581SOL     OW22201   4.579   1.881   2.793 -0.6126 -0.4113 -0.4031
 3581SOL    HW122202   4.658   1.927   2.764 -0.5335 -1.4956 -1.9177
 3581SOL    HW222203   4.558   1.927   2.874  2.0131 -3.0201  1.7154
 3582SOL     OW22204   1.664   4.611   4.377 -0.0075 -1.0650  0.7384
 3582SOL    HW122205   1.592   4.551   4.397 -0.5182 -1.0684 -1.0849
 3582SOL    HW222206   1.729   4.592   4.444  0.6242  0.8280  0.6470
 3583SOL     OW22207   1.750   3.496   4.374  0.4590 -0.4654  0.0873
 3583SOL    HW122208   1.736   3.402   4.365  0.3965 -0.7388  2.8928
 3583SOL    HW222209   1.837   3.510   4.337  0.3801  1.6285  0.6929
 3584SOL     OW22210   2.261   3.144   9.162 -0.0982  0.5810  0.6679
 3584SOL    HW122211   2.218   3.208   9.105  2.1047  2.4439  1.0906
 3584SOL    HW222212   2.316   3.204   9.213  3.4356 -0.8886 -1.4030
 3585SOL     OW22213   3.416   3.844   5.030 -0.1056  0.0448  0.5456
 3585SOL    HW122214   3.375   3.914   4.981  0.5243 -0.2261 -0.3681
 3585SOL    HW222215   3.375   3.843   5.117 -0.7994 -1.3670  0.1915
 3586SOL     OW22216   1.089   2.462   6.493 -0.0557  0.2599  0.6656
 3586SOL    HW122217   1.173   2.428   6.461 -0.5603 -1.2423  0.9592
 3586SOL    HW222218   1.037   2.483   6.415  0.2321  4.9758  1.7281
 3587SOL     OW22219   0.864   2.652   3.646  0.2319 -0.6548 -0.2565
 3587SOL    HW122220   0.850   2.600   3.726 -1.1383 -0.5381 -0.4225
 3587SOL    HW222221   0.957   2.635   3.632  0.7938  2.5538 -0.4749
 3588SOL     OW22222   4.122   0.162   0.840  0.0601 -0.6101 -0.4426
 3588SOL    HW122223   4.037   0.137   0.877 -1.0605  0.9492 -1.9416
 3588SOL    HW222224   4.182   0.112   0.895 -1.6446 -1.9556  0.1893
 3589SOL     OW22225   1.250   0.327   3.235  0.0922  0.1688  0.6393
 3589SOL    HW122226   1.319   0.354   3.174 -0.8537  0.6159 -0.2212
 3589SOL    HW222227   1.177   0.386   3.217  0.7009  0.6333 -0.3431
 3590SOL     OW22228   3.129   4.114  15.229  0.0223 -0.0565 -1.0386
 3590SOL    HW122229   3.141   4.022  15.205 -0.0978 -0.7750  1.5932
 3590SOL    HW222230   3.120   4.157  15.144 -2.5729  0.4132 -0.5374
 3591SOL     OW22231   0.420   3.308  11.027 -0.2736  0.1104 -0.2163
 3591SOL    HW122232   0.450   3.370  11.093  0.4726 -0.0849 -0.3699
 3591SOL    HW222233   0.335   3.285  11.063  1.0792  0.5103  3.2715
 3592SOL     OW22234   2.308   0.327   1.552 -0.2594  0.3970 -0.2401
 3592SOL    HW122235   2.225   0.353   1.592  0.8134  1.4605  1.3082
 3592SOL    HW222236   2.295   0.353   1.461 -2.0777 -0.7482 -0.2976
 3593SOL     OW22237   3.004   3.523   8.585  0.1225 -0.5015 -0.2822
 3593SOL    HW122238   2.940   3.546   8.653 -1.1153  2.2906 -2.3981
 3593SOL    HW222239   3.061   3.599   8.592  1.0858 -1.2166 -0.3998
 3594SOL     OW22240   4.576   2.110   6.691  0.4419  0.3040 -0.1239
 3594SOL    HW122241   4.600   2.043   6.627  0.8517  1.0641 -0.7650
 3594SOL    HW222242   4.607   2.191   6.650 -0.5224  0.9663  0.4660
 3595SOL     OW22243   3.843   0.047  13.614  0.7876 -0.4522  0.0213
 3595SOL    HW122244   3.801   4.708  13.675 -0.0899 -0.1627 -0.2856
 3595SOL    HW222245   3.800   0.131  13.630 -1.2373 -1.3937 -0.4247
 3596SOL     OW22246   1.113   2.613   4.604 -0.0659  0.1904 -0.0419
 3596SOL    HW122247   1.062   2.694   4.605  1.2319  0.9698  2.5971
 3596SOL    HW222248   1.098   2.589   4.512  0.7950 -1.1400  0.1754
 3597SOL     OW22249   3.990   3.207   8.360  0.1666  0.3173 -0.3458
 3597SOL    HW122250   4.077   3.246   8.373  0.7294 -0.7505 -0.8685
 3597SOL    HW222251   3.932   3.228   8.433  1.0002  0.7360  0.2015
 3598SOL     OW22252   0.678   1.398   8.814  0.0854  0.1430 -0.1794
 3598SOL    HW122253   0.706   1.329   8.874  1.1278  0.8504  0.1517
 3598SOL    HW222254   0.687   1.481   8.862  1.0606  0.6713 -1.2888
 3599SOL     OW22255   3.318   3.003   7.472 -0.1536  0.5032 -0.0072
 3599SOL    HW122256   3.229   2.998   7.437 -0.2346 -1.1562  0.3931
 3599SOL    HW222257   3.317   3.085   7.521 -1.7258  0.5339 -0.0843
 3600SOL     OW22258   3.560   1.703   2.613 -0.2983 -0.1484  0.3101
 3600SOL    HW122259   3.478   1.702   2.562  1.1492 -1.1405 -2.0277
 3600SOL    HW222260   3.553   1.795   2.640 -0.1241 -0.0630  0.0716
 3601SOL     OW22261   1.520   2.539   7.159  0.0235  0.2296 -0.2918
 3601SOL    HW122262   1.540   2.566   7.248 -2.9319 -0.5016  0.6205
 3601SOL    HW222263   1.547   2.448   7.146 -0.2729 -0.0662  1.1625
 3602SOL     OW22264   4.631   1.579   1.794 -0.0049  0.4070  0.0159
 3602SOL    HW122265   4.562   1.516   1.817  0.0115  1.0492  1.7642
 3602SOL    HW222266   4.611   1.592   1.702 -0.2838  0.5905  0.1052
 3603SOL     OW22267   2.001   1.399  13.388  0.4998 -0.4894  0.2463
 3603SOL    HW122268   1.952   1.327  13.428  2.3157 -1.7358  0.2229
 3603SOL    HW222269   2.088   1.381  13.422  0.6729  1.2997  0.7633
 3604SOL     OW22270   4.040   0.225   4.029  0.2344  0.2628  0.5317
 3604SOL    HW122271   4.000   0.310   4.011 -0.0433  0.3140  1.4075
 3604SOL    HW222272   4.133   0.243   4.042  0.5996 -3.3641  2.7263
 3605SOL     OW22273   2.427   2.953   6.215  0.4334 -0.6413  0.0586
 3605SOL    HW122274   2.487   2.879   6.209  1.4936  0.2987 -0.9396
 3605SOL    HW222275   2.401   2.948   6.307  2.0996 -1.7044  0.4766
 3606SOL     OW22276   3.230   3.263  16.140 -0.0296 -0.6908  0.1474
 3606SOL    HW122277   3.208   3.170  16.130 -0.9145 -0.2185 -2.2944
 3606SOL    HW222278   3.152   3.304  16.103 -0.7365 -1.2766  0.9808
 3607SOL     OW22279   2.581   0.470  13.468  0.0350 -0.0865  0.8481
 3607SOL    HW122280   2.621   0.519  13.397 -0.1538  0.8557  1.3932
 3607SOL    HW222281   2.526   0.529  13.519  0.7144 -0.0513  1.5368
 3608SOL     OW22282   2.157   4.668  16.410 -0.0191  0.3074  0.7256
 3608SOL    HW122283   2.069   4.645  16.439 -0.0287 -1.5320 -0.7229
 3608SOL    HW222284   2.191   4.582  16.387  1.0699  1.3732 -1.6369
 3609SOL     OW22285   3.409   1.500   8.676 -0.1769  0.1734 -0.5274
 3609SOL    HW122286   3.388   1.430   8.614  2.1518 -0.6828 -0.3186
 3609SOL    HW222287   3.318   1.526   8.693 -0.7632 -1.1995 -1.5621
 3610SOL     OW22288   1.106   0.650   9.444 -0.0405 -0.3817 -0.1854
 3610SOL    HW122289   1.025   0.672   9.491 -0.1282  1.4271 -1.1869
 3610SOL    HW222290   1.082   0.563   9.410 -2.9085  0.0101  0.7709
 3611SOL     OW22291   0.614   1.965   7.723 -0.8918  0.2492 -0.4502
 3611SOL    HW122292   0.608   1.888   7.667  0.6693  0.8896 -1.5295
 3611SOL    HW222293   0.540   1.941   7.779 -1.1200 -2.2179 -1.8282
 3612SOL     OW22294   2.641   1.865   4.584 -1.0443  0.7035 -0.1055
 3612SOL    HW122295   2.693   1.939   4.554 -1.0021  0.7716  0.1355
 3612SOL    HW222296   2.628   1.900   4.672  0.1140 -0.7545  0.6386
 3613SOL     OW22297   0.864   0.401   4.586 -0.2183  0.1235  0.1834
 3613SOL    HW122298   0.894   0.490   4.566 -2.1736  1.1716  1.8991
 3613SOL    HW222299   0.912   0.382   4.667 -0.6875 -0.7394  0.2606
 3614SOL     OW22300   3.189   2.547  17.656 -0.1367  0.1668  0.0872
 3614SOL    HW122301   3.124   2.556   0.034  1.8108  1.0538  1.7665
 3614SOL    HW222302   3.148   2.572  17.574 -0.1236  1.2855  0.4164
 3615SOL     OW22303   3.742   0.220   8.505  0.2108 -0.2598  0.1835
 3615SOL    HW122304   3.681   0.249   8.573  0.7821 -0.2039  0.6710
 3615SOL    HW222305   3.690   0.237   8.427  1.1686 -1.5475 -0.7316
 3616SOL     OW22306   0.995   1.133   4.380 -0.3087  0.0594  0.2074
 3616SOL    HW122307   0.979   1.168   4.292  0.5494 -1.0425 -0.3974
 3616SOL    HW222308   1.083   1.172   4.382 -0.6925  1.0298 -2.0508
 3617SOL     OW22309   3.846   0.139  11.269 -0.2521  0.2880  0.4401
 3617SOL    HW122310   3.882   0.051  11.254 -0.9722 -0.0891  0.9072
 3617SOL    HW222311   3.923   0.195  11.277 -0.5179  0.4786  1.7026
 3618SOL     OW22312   0.834   0.179   2.091  0.5157  0.0926  0.1921
 3618SOL    HW122313   0.833   0.135   2.006 -0.5710  0.9723 -0.2336
 3618SOL    HW222314   0.739   0.174   2.102  0.6530 -2.3085  0.4146
 3619SOL     OW22315   2.380   2.433   5.110 -0.7919  0.1515  0.0228
 3619SOL    HW122316   2.356   2.344   5.087  0.3122  0.1084 -0.9829
 3619SOL    HW222317   2.388   2.432   5.206 -1.5516 -0.7880  0.0770
 3620SOL     OW22318   3.133   3.533   2.078 -0.2162 -0.2380  0.1610
 3620SOL    HW122319   3.164   3.506   2.165  1.3112  1.8628  0.2634
 3620SOL    HW222320   3.159   3.625   2.075 -2.0716  0.2723 -0.2386
 3621SOL     OW22321   4.245   2.184   1.022  0.2158  0.2875 -0.3526
 3621SOL    HW122322   4.271   2.267   0.982  2.7998 -0.7329 -0.7624
 3621SOL    HW222323   4.168   2.155   0.974  0.2445  0.4983 -0.5259
 3622SOL     OW22324   0.192   4.299   3.115 -0.0641 -0.5660 -0.1406
 3622SOL    HW122325   0.240   4.248   3.180 -0.3080 -0.3602  0.2008
 3622SOL    HW222326   0.115   4.244   3.107 -2.1473  2.1889  1.1359
 3623SOL     OW22327   1.690   2.659   3.311  0.2084  0.1944  0.2400
 3623SOL    HW122328   1.756   2.637   3.376  1.6056 -2.6276 -2.0929
 3623SOL    HW222329   1.641   2.578   3.325  2.7960 -1.6108 -1.0498
 3624SOL     OW22330   3.724   0.505   1.334 -0.4710  0.3090 -0.1282
 3624SOL    HW122331   3.756   0.568   1.399 -1.0002 -1.5816  1.9514
 3624SOL    HW222332   3.658   0.465   1.390  1.5258 -2.0185  0.5661
 3625SOL     OW22333   1.146   0.769   5.429 -0.1515 -0.5678  0.2060
 3625SOL    HW122334   1.146   0.828   5.353 -0.1803  1.7421  2.0295
 3625SOL    HW222335   1.115   0.686   5.393 -0.7531  0.0382 -0.6652
 3626SOL     OW22336   3.915   1.640  15.901 -0.1201  0.2809 -0.6309
 3626SOL    HW122337   3.911   1.723  15.947  0.8770  1.1504 -2.1226
 3626SOL    HW222338   3.933   1.583  15.976  2.1528  0.2635 -1.1877
 3627SOL     OW22339   3.941   1.719   0.277 -0.3608 -0.5250  0.1254
 3627SOL    HW122340   3.913   1.767   0.199  1.2367  1.0691  0.5565
 3627SOL    HW222341   4.036   1.730   0.287  0.0124 -3.6748  0.2238
 3628SOL     OW22342   2.300   0.459  17.164 -0.6154 -0.9383 -0.3722
 3628SOL    HW122343   2.286   0.397  17.093 -0.0940 -0.5808 -0.7913
 3628SOL    HW222344   2.324   0.532  17.106 -1.4452 -1.0550 -0.8510
 3629SOL     OW22345   0.902   0.134   3.263  0.6220 -0.3284  0.0713
 3629SOL    HW122346   0.836   0.162   3.200  1.8454 -3.7527 -2.7386
 3629SOL    HW222347   0.965   0.206   3.253 -0.7920  1.1441  1.6199
 3630SOL     OW22348   1.314   1.410   2.881  0.1955  0.7111 -0.2025
 3630SOL    HW122349   1.346   1.335   2.831 -0.3722 -0.0177  0.5375
 3630SOL    HW222350   1.352   1.479   2.825 -0.4166  1.3224  0.1371
 3631SOL     OW22351   3.051   1.374   4.624 -0.2887 -0.2430  0.5498
 3631SOL    HW122352   3.072   1.468   4.618 -0.1073 -0.3793 -0.8663
 3631SOL    HW222353   2.983   1.371   4.691 -0.8073  1.4835  0.1141
 3632SOL     OW22354   3.093   2.161   5.909  0.0501  0.1366  0.1773
 3632SOL    HW122355   3.035   2.219   5.858 -0.7432 -0.9426 -0.1535
 3632SOL    HW222356   3.151   2.224   5.952 -0.5349  1.3159 -0.7546
 3633SOL     OW22357   4.147   3.141   2.957 -0.3887 -0.3415 -0.1459
 3633SOL    HW122358   4.236   3.110   2.976 -1.5572 -2.8869  1.2488
 3633SOL    HW222359   4.172   3.215   2.901 -0.7559 -1.1417 -1.3731
 3634SOL     OW22360   4.671   2.815   7.304 -0.4050 -0.3284 -0.1242
 3634SOL    HW122361   4.672   2.729   7.263 -2.4609 -0.9966  1.2049
 3634SOL    HW222362   4.677   2.866   7.224 -2.7899  1.3044  0.7235
 3635SOL     OW22363   2.008   4.694   5.313  0.0359  0.6187 -0.7110
 3635SOL    HW122364   1.937   4.630   5.311 -0.0540  0.6889  0.3880
 3635SOL    HW222365   2.075   4.640   5.271  0.7892  0.4008  0.7612
 3636SOL     OW22366   1.884   3.347   5.928 -0.3260 -0.5376 -0.8416
 3636SOL    HW122367   1.847   3.298   6.001  1.8874  0.1644  0.7592
 3636SOL    HW222368   1.969   3.302   5.927 -0.0040  0.0566 -0.0715
 3637SOL     OW22369   1.815   2.297   2.783 -0.3078 -0.0748 -0.2242
 3637SOL    HW122370   1.838   2.319   2.873  0.6348  0.2811 -0.5443
 3637SOL    HW222371   1.897   2.327   2.743 -0.1848  1.5639  1.2418
 3638SOL     OW22372   1.792   2.308   4.360 -0.6243 -0.6734 -0.2133
 3638SOL    HW122373   1.809   2.358   4.439  0.8393  0.2318 -1.1158
 3638SOL    HW222374   1.882   2.305   4.328 -0.5307  0.3623 -0.0583
 3639SOL     OW22375   1.770   2.682  12.280  0.4322  0.1561 -0.0438
 3639SOL    HW122376   1.808   2.635  12.205 -0.0018 -1.1500  0.5503
 3639SOL    HW222377   1.767   2.617  12.349  0.3000  1.4999  1.2081
 3640SOL     OW22378   2.543   2.467   9.380  0.2923  0.3071  0.1396
 3640SOL    HW122379   2.462   2.518   9.384 -0.6527 -1.3578  2.3127
 3640SOL    HW222380   2.544   2.419   9.297  0.1127 -1.8404  1.3893
 3641SOL     OW22381   2.206   1.128   4.406  0.5699  0.4889 -0.1510
 3641SOL    HW122382   2.193   1.220   4.385  0.3353  0.4835 -0.0266
 3641SOL    HW222383   2.143   1.114   4.477 -1.8793  1.2666 -2.1476
 3642SOL     OW22384   2.867   2.365  10.123  0.8690  0.1802 -0.3978
 3642SOL    HW122385   2.931   2.399  10.061 -0.3119  1.0820 -1.1195
 3642SOL    HW222386   2.796   2.347  10.062  1.6804 -0.1817 -1.2296
 3643SOL     OW22387   2.505   0.832  10.894  0.3490  0.4454 -0.6453
 3643SOL    HW122388   2.428   0.779  10.914  0.8244  0.3596  0.9237
 3643SOL    HW222389   2.561   0.758  10.869  0.8135  0.3239  0.7551
 3644SOL     OW22390   3.243   3.893   5.252  0.1181  0.6257 -0.4719
 3644SOL    HW122391   3.194   3.922   5.329  0.3437  0.1105 -0.1269
 3644SOL    HW222392   3.325   3.859   5.289 -0.4392 -1.3878 -1.1153
 3645SOL     OW22393   1.883   4.625  16.541  0.3555  0.0632 -0.1247
 3645SOL    HW122394   1.901   4.627  16.635 -0.6393 -0.4047  0.0806
 3645SOL    HW222395   1.813   4.560  16.550  0.5910 -0.0649  0.7680
 3646SOL     OW22396   4.406   0.657   6.449  0.0549 -0.7280  0.4434
 3646SOL    HW122397   4.324   0.698   6.477 -0.7641 -2.2941  0.3704
 3646SOL    HW222398   4.479   0.715   6.469 -1.0119  0.6843  0.2686
 3647SOL     OW22399   0.664   4.612   2.063 -0.6269 -0.0510  0.1751
 3647SOL    HW122400   0.628   4.686   2.112 -2.1645 -1.9663  1.9110
 3647SOL    HW222401   0.607   4.604   1.987  0.1940  0.9457 -0.5439
 3648SOL     OW22402   3.417   4.648   5.417  0.4145 -0.0147 -0.1938
 3648SOL    HW122403   3.337   4.654   5.364 -0.9284 -1.4308  1.6429
 3648SOL    HW222404   3.468   4.574   5.384  0.6800  0.4323 -0.7919
 3649SOL     OW22405   1.370   4.115   3.132 -0.6310 -0.2032  0.0396
 3649SOL    HW122406   1.314   4.055   3.082  0.3843 -0.3003 -0.9802
 3649SOL    HW222407   1.453   4.089   3.091 -0.5401 -0.5066  0.4233
 3650SOL     OW22408   0.969   1.640  12.226 -0.1989 -0.1062 -0.1980
 3650SOL    HW122409   1.025   1.645  12.148  0.6879  1.1235  0.5193
 3650SOL    HW222410   0.904   1.706  12.200 -1.6591 -0.7130  1.8916
 3651SOL     OW22411   3.007   1.792   0.926 -0.1163  0.2934  0.0526
 3651SOL    HW122412   2.995   1.735   1.002  0.4192  0.0694 -0.0344
 3651SOL    HW222413   2.970   1.877   0.951  1.7080  1.0665  0.1156
 3652SOL     OW22414   3.341   3.666   6.367 -0.2403  0.2343  0.4927
 3652SOL    HW122415   3.347   3.702   6.278  2.9659  0.1462  0.7022
 3652SOL    HW222416   3.345   3.572   6.349  1.4565 -0.1874  3.1695
 3653SOL     OW22417   0.938   3.198   3.070  0.3688  0.2491  0.0336
 3653SOL    HW122418   0.975   3.110   3.076 -1.7495 -0.6840 -0.5420
 3653SOL    HW222419   1.019   3.248   3.070  1.0333 -0.8283 -0.4726
 3654SOL     OW22420   2.633   2.850   2.667 -0.1332  0.0970 -0.0402
 3654SOL    HW122421   2.624   2.755   2.668  1.7766 -0.0909  1.4266
 3654SOL    HW222422   2.714   2.860   2.718  0.6488 -1.4581 -0.9771
 3655SOL     OW22423   0.673   4.103  15.539  0.5481  0.7194  0.1706
 3655SOL    HW122424   0.721   4.165  15.484 -1.0532  1.3137 -0.5455
 3655SOL    HW222425   0.581   4.121  15.523  0.7579 -1.0573 -3.0239
 3656SOL     OW22426   1.394   3.666   2.877 -0.0820 -0.1646 -0.5737
 3656SOL    HW122427   1.306   3.700   2.861  0.3621  0.9985 -0.5696
 3656SOL    HW222428   1.437   3.749   2.853 -0.3954  0.0237 -0.4923
 3657SOL     OW22429   1.551   2.440  11.007  0.1522  0.0303  0.2904
 3657SOL    HW122430   1.554   2.400  11.094  0.3772 -1.9625 -0.6260
 3657SOL    HW222431   1.637   2.482  11.000  0.2903 -0.4240 -0.7500
 3658SOL     OW22432   1.293   2.766  10.150  0.3683  0.8141 -0.3264
 3658SOL    HW122433   1.286   2.825  10.226 -2.6054  0.6230 -0.4269
 3658SOL    HW222434   1.291   2.681  10.193  0.7867  0.2737 -1.3909
 3659SOL     OW22435   1.303   3.259  14.402  0.2003  0.2319 -0.2225
 3659SOL    HW122436   1.370   3.239  14.468 -2.3356  1.1426  2.6698
 3659SOL    HW222437   1.329   3.198  14.334  1.6677 -0.4393  0.9438
 3660SOL     OW22438   4.242   0.439   6.397 -0.0909  0.2636 -0.0022
 3660SOL    HW122439   4.299   0.508   6.430  2.8444 -1.7899 -0.8156
 3660SOL    HW222440   4.184   0.446   6.473  1.5982 -0.9374  1.4118
 3661SOL     OW22441   2.359   3.628   8.117 -0.3173  0.3466 -0.0733
 3661SOL    HW122442   2.326   3.602   8.203  1.3227  1.4498  0.8812
 3661SOL    HW222443   2.341   3.722   8.122 -0.7736  0.2899 -0.5998
 3662SOL     OW22444   1.954   0.362   2.376 -0.4823  0.0069  1.0666
 3662SOL    HW122445   1.984   0.344   2.465  3.0403  0.2542 -0.0939
 3662SOL    HW222446   2.017   0.428   2.346 -0.5222 -0.4978 -0.1280
 3663SOL     OW22447   4.334   0.989   0.505 -0.5131  0.2341 -0.1883
 3663SOL    HW122448   4.331   1.077   0.466 -0.7612 -0.6338 -2.1004
 3663SOL    HW222449   4.390   0.950   0.439 -0.2332 -1.3733  0.9991
 3664SOL     OW22450   0.094   3.854   0.072  0.0745 -0.5985  0.5299
 3664SOL    HW122451   0.047   3.775   0.097 -0.3604 -0.0529  1.4435
 3664SOL    HW222452   0.026   3.915   0.101 -1.5416 -1.5957 -1.1925
 3665SOL     OW22453   2.915   0.453   3.027 -0.0162  0.2829  0.3770
 3665SOL    HW122454   2.955   0.479   3.110 -1.2624 -0.5205  1.2211
 3665SOL    HW222455   2.866   0.375   3.051 -1.1062  0.6165 -0.7576
 3666SOL     OW22456   2.359   3.630   3.683  0.1791  0.1695 -0.1124
 3666SOL    HW122457   2.445   3.644   3.643  0.7074  0.8936  1.2797
 3666SOL    HW222458   2.347   3.536   3.668  0.7785 -0.0201  0.6030
 3667SOL     OW22459   1.893   3.048   9.562 -0.7352 -0.3390 -0.4495
 3667SOL    HW122460   1.835   2.978   9.535 -2.2244  0.8150 -0.2578
 3667SOL    HW222461   1.959   3.051   9.493  1.2345 -2.0627  1.3868
 3668SOL     OW22462   2.947   2.145   1.371  0.0074 -0.2162 -0.5072
 3668SOL    HW122463   2.933   2.097   1.453 -0.8787  1.5752  0.4012
 3668SOL    HW222464   2.923   2.233   1.399 -3.8599 -1.1215 -0.9903
 3669SOL     OW22465   1.478   2.597   1.424 -0.0473  0.3736  0.5586
 3669SOL    HW122466   1.536   2.545   1.368  0.3948 -0.4230  1.7636
 3669SOL    HW222467   1.532   2.590   1.503 -1.1309  1.3867  1.3870
 3670SOL     OW22468   3.587   4.657   4.631  0.1620 -0.2021 -0.0119
 3670SOL    HW122469   3.538   0.016   4.616 -0.6059 -0.7121 -0.2819
 3670SOL    HW222470   3.571   4.632   4.721  3.2086 -0.5771  0.4310
 3671SOL     OW22471   0.594   3.601   7.992  0.1530 -0.1900  0.2554
 3671SOL    HW122472   0.529   3.660   7.952 -1.1010 -0.5666  1.7640
 3671SOL    HW222473   0.670   3.613   7.936 -0.8734  2.4187 -0.5790
 3672SOL     OW22474   3.746   1.457   3.184  0.0448  0.2635  0.5324
 3672SOL    HW122475   3.807   1.507   3.131  1.1294 -0.2338  1.3253
 3672SOL    HW222476   3.666   1.509   3.184  0.7556  1.3285  2.8428
 3673SOL     OW22477   1.943   3.564   3.859 -1.0974  0.1188  0.3052
 3673SOL    HW122478   1.924   3.476   3.890 -0.2419  0.2257  1.1077
 3673SOL    HW222479   1.998   3.537   3.785 -0.7189  0.7178  0.3632
 3674SOL     OW22480   0.992   0.843   0.357  0.0014  0.5825 -0.7237
 3674SOL    HW122481   0.977   0.930   0.320  0.4659  1.1138  0.3583
 3674SOL    HW222482   1.076   0.808   0.328 -0.4473  0.5156 -1.9402
 3675SOL     OW22483   0.044   0.568  16.866 -0.3247  0.0543 -0.4699
 3675SOL    HW122484   4.702   0.600  16.803 -0.8444  1.7024  0.8852
 3675SOL    HW222485   0.077   0.492  16.819 -0.3241  0.0024 -0.3873
 3676SOL     OW22486   0.119   3.685   9.765  0.5884  0.3036  0.1217
 3676SOL    HW122487   0.039   3.633   9.761 -0.1484  1.4706 -0.2092
 3676SOL    HW222488   0.168   3.663   9.686  1.2580  0.3092  0.5356
 3677SOL     OW22489   0.278   0.660   6.275  0.0650 -0.2845  0.5933
 3677SOL    HW122490   0.230   0.730   6.233  0.7926 -0.8500 -1.1639
 3677SOL    HW222491   0.368   0.691   6.271 -0.4146  1.0879  0.3762
 3678SOL     OW22492   2.705   1.420   8.795 -0.5143 -0.2463  0.0205
 3678SOL    HW122493   2.657   1.443   8.716  0.6681 -0.4198 -0.7375
 3678SOL    HW222494   2.671   1.482   8.860  1.6640 -0.8671  1.7437
 3679SOL     OW22495   2.402   3.382   4.451  0.1099  0.0867 -0.6485
 3679SOL    HW122496   2.485   3.397   4.496 -0.6811 -0.0259  0.8651
 3679SOL    HW222497   2.430   3.392   4.360  0.5004  0.2842 -0.5054
 3680SOL     OW22498   0.642   2.755  11.645 -0.4781 -0.2124  0.2794
 3680SOL    HW122499   0.680   2.740  11.732  0.3428  0.2404 -0.0011
 3680SOL    HW222500   0.685   2.687  11.592  0.0857 -0.9854  1.7195
 3681SOL     OW22501   4.057   1.238  10.885 -0.4698 -0.1211 -0.9803
 3681SOL    HW122502   3.969   1.269  10.903 -0.1797  0.0047  0.2435
 3681SOL    HW222503   4.087   1.221  10.975 -1.0398  0.4653 -0.6811
 3682SOL     OW22504   3.535   0.627   3.792 -0.5546 -0.6125  0.4589
 3682SOL    HW122505   3.515   0.583   3.709  0.6946 -1.0426  0.3861
 3682SOL    HW222506   3.456   0.601   3.841 -0.2371 -1.2016  0.6582
 3683SOL     OW22507   1.860   1.032   6.076  0.2204  0.1593 -0.2414
 3683SOL    HW122508   1.839   1.057   5.986 -1.3089 -0.9777 -0.1920
 3683SOL    HW222509   1.858   1.115   6.123 -1.6187  0.0507 -0.1399
 3684SOL     OW22510   1.620   2.308   7.966 -0.0220  0.0461 -0.4091
 3684SOL    HW122511   1.563   2.259   7.905 -4.0905  1.3364  2.3598
 3684SOL    HW222512   1.636   2.250   8.040  2.3333  0.2887 -0.7364
 3685SOL     OW22513   0.452   0.632  12.362  0.1936 -0.5833  0.4601
 3685SOL    HW122514   0.434   0.634  12.456 -1.5287 -0.7192  0.1325
 3685SOL    HW222515   0.405   0.554  12.334  1.5892 -1.5805  0.9201
 3686SOL     OW22516   2.362   1.787   3.401  0.1818  0.3434  0.9387
 3686SOL    HW122517   2.283   1.841   3.406 -1.8157 -2.2831 -2.4303
 3686SOL    HW222518   2.377   1.774   3.307  0.3739  1.0642  0.8721
 3687SOL     OW22519   1.314   4.648  11.223 -0.2388 -0.4771  0.1075
 3687SOL    HW122520   1.343   4.718  11.282 -0.9800  0.9272 -1.1779
 3687SOL    HW222521   1.392   4.643  11.168 -1.6264  0.2755 -1.9400
 3688SOL     OW22522   1.975   3.950  11.641  0.4757 -0.5753 -0.0656
 3688SOL    HW122523   1.994   3.996  11.723  3.0741  0.0000 -0.9785
 3688SOL    HW222524   1.969   4.023  11.579 -0.5847 -0.6264 -0.0175
 3689SOL     OW22525   2.097   0.788   7.256  0.0143 -0.3238  0.2773
 3689SOL    HW122526   2.004   0.789   7.278  0.0237 -0.0412  0.3088
 3689SOL    HW222527   2.130   0.711   7.301  0.0678  0.6525  1.8771
 3690SOL     OW22528   1.298   4.397   3.095  0.0324 -0.3300 -0.2763
 3690SOL    HW122529   1.307   4.302   3.099  1.4930 -0.1346  0.9754
 3690SOL    HW222530   1.383   4.427   3.064 -0.9648  2.4969 -0.2850
 3691SOL     OW22531   4.149   2.350   0.079 -0.1329  0.7196 -0.0991
 3691SOL    HW122532   4.104   2.371   0.161  3.0796 -1.0159  2.1452
 3691SOL    HW222533   4.086   2.300   0.028  0.3941 -0.2894  0.2250
 3692SOL     OW22534   2.544   4.319   5.512 -0.2566  0.5194 -0.1121
 3692SOL    HW122535   2.616   4.380   5.495  0.4611 -0.5920 -1.0814
 3692SOL    HW222536   2.600   4.242   5.502 -3.0066 -1.3595 -1.0596
 3693SOL     OW22537   0.939   4.505   3.913  0.3786  0.2635  0.4146
 3693SOL    HW122538   1.007   4.506   3.980  0.4355 -1.8054  0.3819
 3693SOL    HW222539   0.898   4.590   3.896  0.5176  0.4362  0.9245
 3694SOL     OW22540   4.325   4.467   9.250 -0.2277  0.3152 -0.0723
 3694SOL    HW122541   4.295   4.553   9.282  0.0476 -0.6705  2.7888
 3694SOL    HW222542   4.251   4.406   9.258 -0.3501  0.4964  0.1923
 3695SOL     OW22543   1.438   0.082  11.396  0.3784 -0.1091 -0.6348
 3695SOL    HW122544   1.507   0.119  11.341  0.4686  1.4463  0.5232
 3695SOL    HW222545   1.470   0.080  11.486 -0.8105 -0.9851 -0.2267
 3696SOL     OW22546   2.749   0.819   2.695  0.6953 -0.5614  0.0864
 3696SOL    HW122547   2.837   0.795   2.668  1.2868 -0.1024  1.6254
 3696SOL    HW222548   2.762   0.887   2.760  0.7663 -1.7611  1.3290
 3697SOL     OW22549   3.625   0.203   7.443 -0.5583  0.0078 -0.0841
 3697SOL    HW122550   3.666   0.120   7.419  0.0496  0.7011 -1.4653
 3697SOL    HW222551   3.624   0.235   7.353 -0.0827  2.6087  0.8471
 3698SOL     OW22552   3.365   4.441   5.031 -0.0427  0.3433 -0.1038
 3698SOL    HW122553   3.270   4.440   5.042  0.1082 -0.5783  1.1584
 3698SOL    HW222554   3.387   4.348   5.037 -1.9766 -0.1285 -0.5249
 3699SOL     OW22555   0.341   4.495  15.493  0.1296  0.2641  0.0949
 3699SOL    HW122556   0.305   4.568  15.543 -0.9992  0.3790 -0.8970
 3699SOL    HW222557   0.315   4.425  15.553  0.5875  1.8993  2.2198
 3700SOL     OW22558   2.720   2.465   4.621 -0.1553  0.2113 -0.0408
 3700SOL    HW122559   2.742   2.518   4.544 -0.6235 -1.9961 -1.6933
 3700SOL    HW222560   2.625   2.474   4.626 -0.3088  0.1388 -2.6370
 3701SOL     OW22561   1.316   1.051   6.729  0.4408  0.1190  0.0668
 3701SOL    HW122562   1.244   1.095   6.774 -1.6096 -0.4537 -2.6314
 3701SOL    HW222563   1.284   1.015   6.645 -1.4800 -2.0371  1.7084
 3702SOL     OW22564   3.258   0.858   3.857 -0.3811  0.7090  0.2143
 3702SOL    HW122565   3.238   0.801   3.783  0.3140 -2.9818  2.8569
 3702SOL    HW222566   3.336   0.894   3.816 -0.8209  1.6756  0.2231
 3703SOL     OW22567   1.915   0.587   1.844  0.7983 -0.2221 -0.8644
 3703SOL    HW122568   1.905   0.503   1.890  0.7033  0.0511 -0.3885
 3703SOL    HW222569   1.828   0.628   1.843 -0.1449 -2.2329 -1.6845
 3704SOL     OW22570   4.481   2.660   6.354  0.3262 -0.0456 -0.0154
 3704SOL    HW122571   4.574   2.639   6.349 -0.1458 -2.5120  1.5408
 3704SOL    HW222572   4.479   2.753   6.334 -0.0064  0.2296  1.3068
 3705SOL     OW22573   1.989   1.378  15.501  0.8832  0.0329 -0.7317
 3705SOL    HW122574   2.008   1.394  15.593 -2.2443 -1.4688  0.1883
 3705SOL    HW222575   1.896   1.354  15.507  1.5013 -1.9862  0.6731
 3706SOL     OW22576   0.012   1.296   2.760  0.6073 -0.1945 -0.0884
 3706SOL    HW122577   4.711   1.209   2.792  0.4379  0.0634  0.4937
 3706SOL    HW222578   4.682   1.304   2.681  0.0030 -0.3452  0.2992
 3707SOL     OW22579   1.299   0.209   2.481  0.1350 -0.2379 -0.3106
 3707SOL    HW122580   1.308   0.134   2.423  1.6863  0.6405 -1.1961
 3707SOL    HW222581   1.296   0.270   2.408 -0.5005 -0.6029 -0.5864
 3708SOL     OW22582   0.338   1.579   4.347  0.3717 -0.4538 -0.2733
 3708SOL    HW122583   0.296   1.605   4.429 -1.7964 -0.8656 -1.2481
 3708SOL    HW222584   0.281   1.627   4.287  2.4047  1.2890 -0.7995
 3709SOL     OW22585   2.468   3.700   8.622  0.1926 -0.0266 -0.1710
 3709SOL    HW122586   2.462   3.796   8.621 -0.6155 -0.0835 -1.1823
 3709SOL    HW222587   2.381   3.683   8.657  0.8381  0.1610  1.5293
 3710SOL     OW22588   1.770   2.586   8.536  0.1724 -0.2145  0.9116
 3710SOL    HW122589   1.755   2.518   8.602 -1.0949 -0.8176  0.0187
 3710SOL    HW222590   1.684   2.591   8.494  1.8283 -1.6409 -2.6101
 3711SOL     OW22591   0.115   1.178   0.256 -0.3826  0.2234 -0.2380
 3711SOL    HW122592   0.129   1.211   0.168 -3.1343 -0.5834 -0.9884
 3711SOL    HW222593   0.155   1.091   0.246 -2.6198 -0.6227 -1.8290
 3712SOL     OW22594   2.539   1.052   3.257  0.8150 -0.3110  0.1835
 3712SOL    HW122595   2.481   0.994   3.306  1.4081 -1.4727 -0.4822
 3712SOL    HW222596   2.616   0.997   3.239  1.5232  0.4041  0.9910
 3713SOL     OW22597   4.267   3.670   9.861  0.1682 -0.4320  0.3320
 3713SOL    HW122598   4.213   3.749   9.852  1.5112  0.5559  0.9526
 3713SOL    HW222599   4.243   3.619   9.784 -2.9251  0.2619  0.8200
 3714SOL     OW22600   0.295   3.085  14.448  0.6064 -0.4042 -0.5648
 3714SOL    HW122601   0.259   3.079  14.359  2.0595 -1.6577 -1.0673
 3714SOL    HW222602   0.369   3.025  14.437  0.1825 -0.5648 -2.5661
 3715SOL     OW22603   1.307   4.232  13.812  0.0713 -0.3053  0.6464
 3715SOL    HW122604   1.233   4.184  13.776  1.4300 -3.7330  2.3907
 3715SOL    HW222605   1.284   4.320  13.781 -0.4808 -2.0317 -3.8035
 3716SOL     OW22606   0.050   1.105   6.285 -0.0920 -0.5092  0.0979
 3716SOL    HW122607   0.036   1.199   6.276  1.1372 -0.3669 -0.2184
 3716SOL    HW222608   0.089   1.100   6.372  1.9245  0.0794 -0.7734
 3717SOL     OW22609   2.733   0.737   1.887 -0.2299  0.8560 -0.1041
 3717SOL    HW122610   2.712   0.680   1.813 -1.2493  0.9554  0.1035
 3717SOL    HW222611   2.778   0.686   1.954 -1.0034 -0.6371 -0.7256
 3718SOL     OW22612   0.196   0.441   3.902  0.1092  0.2834 -0.0224
 3718SOL    HW122613   0.268   0.430   3.964 -0.7509  0.2672  0.9599
 3718SOL    HW222614   0.130   0.490   3.951 -0.7242 -1.1443  0.2863
 3719SOL     OW22615   2.119   0.285   2.596  0.8692 -0.1759  0.1920
 3719SOL    HW122616   2.134   0.345   2.669  3.0665 -0.8954  0.3291
 3719SOL    HW222617   2.207   0.262   2.564 -0.2571  0.7384 -3.6171
 3720SOL     OW22618   0.780   0.468   8.558 -0.3678  0.0503 -0.1187
 3720SOL    HW122619   0.829   0.549   8.568  1.5543 -1.3413  1.4607
 3720SOL    HW222620   0.711   0.477   8.492 -1.8643  1.6030  1.6371
 3721SOL     OW22621   4.462   0.232   4.677  0.7168  0.4499  0.5158
 3721SOL    HW122622   4.417   0.159   4.633  2.2810 -0.0680 -0.2542
 3721SOL    HW222623   4.385   0.277   4.710 -0.2607  0.2034 -1.4287
 3722SOL     OW22624   2.009   2.776  16.433  0.4110  0.4807  0.2867
 3722SOL    HW122625   2.017   2.681  16.426  2.8237  0.7322 -0.6414
 3722SOL    HW222626   2.033   2.784  16.525  1.1711 -0.8972  0.2251
 3723SOL     OW22627   4.515   1.501   9.826 -0.1036 -0.1927 -0.0226
 3723SOL    HW122628   4.478   1.582   9.863  0.0226 -0.6979  1.2243
 3723SOL    HW222629   4.496   1.439   9.896 -1.0433  0.4727  0.3137
 3724SOL     OW22630   3.391   1.349  12.766  0.0177  0.0022  0.3564
 3724SOL    HW122631   3.418   1.328  12.855  1.0165  1.1705  0.3377
 3724SOL    HW222632   3.309   1.393  12.789 -0.0633 -0.2775  0.5931
 3725SOL     OW22633   1.453   1.396  11.598 -0.2654 -0.3390 -0.0183
 3725SOL    HW122634   1.433   1.302  11.595 -1.1225 -0.1745  0.3586
 3725SOL    HW222635   1.445   1.412  11.504  1.6193  1.4162  0.1472
 3726SOL     OW22636   1.266   0.764   1.629 -0.5315 -0.2028  0.3887
 3726SOL    HW122637   1.187   0.740   1.580 -0.7908  1.9001 -0.2212
 3726SOL    HW222638   1.326   0.706   1.581 -0.0591  2.3262 -2.1388
 3727SOL     OW22639   0.419   1.683   0.682 -0.0782 -0.8841  0.1926
 3727SOL    HW122640   0.334   1.715   0.652  0.9582  0.3666 -1.4732
 3727SOL    HW222641   0.390   1.652   0.767  1.9430 -2.9546  0.1352
 3728SOL     OW22642   1.919   1.617   0.275  0.3189 -0.2041  0.0485
 3728SOL    HW122643   1.861   1.669   0.331 -1.0688 -3.4084  1.5933
 3728SOL    HW222644   2.001   1.639   0.320 -0.3928  1.0602  0.7312
 3729SOL     OW22645   1.836   0.807   0.962 -0.4417 -0.3582  0.6355
 3729SOL    HW122646   1.878   0.893   0.965 -4.0591  1.5359 -2.1466
 3729SOL    HW222647   1.763   0.831   0.904  0.7825  0.7306 -0.4619
 3730SOL     OW22648   3.836   3.972   6.175  0.2544 -0.6276  0.0273
 3730SOL    HW122649   3.929   3.977   6.198  0.0564 -2.7039  1.2418
 3730SOL    HW222650   3.807   3.883   6.194  1.6378 -1.1080 -0.1015
 3731SOL     OW22651   4.053   2.615   7.679  0.8873  0.0148  0.3405
 3731SOL    HW122652   4.044   2.701   7.721 -0.4809  0.5081 -0.9628
 3731SOL    HW222653   4.105   2.636   7.602 -0.4692  0.4777 -0.4548
 3732SOL     OW22654   0.341   2.004   9.676  0.5222  0.4171 -0.3229
 3732SOL    HW122655   0.415   2.045   9.721 -0.5122  2.7417 -0.7579
 3732SOL    HW222656   0.377   1.978   9.591 -0.2850  0.2244 -0.6042
 3733SOL     OW22657   3.063   3.211  10.065 -0.7525  0.3724  0.2736
 3733SOL    HW122658   2.981   3.225  10.017  0.4374 -1.5888 -2.2739
 3733SOL    HW222659   3.054   3.280  10.131 -0.8812  0.1272  0.5108
 3734SOL     OW22660   0.380   0.819   4.832  0.3320  0.2891 -0.1444
 3734SOL    HW122661   0.380   0.723   4.824  0.8167  0.2363  0.4904
 3734SOL    HW222662   0.464   0.838   4.873  0.0583 -2.8629  1.9256
 3735SOL     OW22663   2.196   0.618   8.334  0.0429  0.2537 -0.4889
 3735SOL    HW122664   2.245   0.684   8.286 -0.0254  0.1448 -0.7105
 3735SOL    HW222665   2.211   0.635   8.427  1.4473  1.2116 -0.9058
 3736SOL     OW22666   3.968   2.121  17.378  0.1352 -0.0400 -0.1773
 3736SOL    HW122667   3.967   2.214  17.399 -2.9268  0.2365 -1.4788
 3736SOL    HW222668   3.889   2.096  17.425  0.0585 -0.7787 -0.6880
 3737SOL     OW22669   3.144   1.496   0.972 -0.4596 -0.0022 -0.4709
 3737SOL    HW122670   3.224   1.531   1.012 -1.5642  0.1753  1.5702
 3737SOL    HW222671   3.082   1.559   1.008  0.5751  0.3548  0.7030
 3738SOL     OW22672   2.276   4.696  12.266 -0.4417 -0.0059  0.0856
 3738SOL    HW122673   2.350   0.013  12.221  0.7129 -0.9079  1.1735
 3738SOL    HW222674   2.308   4.686  12.356  1.8291  1.4476 -0.5576
 3739SOL     OW22675   0.441   1.217   8.932  0.9562 -0.1032 -0.3418
 3739SOL    HW122676   0.384   1.225   8.856  1.0885  0.4386 -0.3860
 3739SOL    HW222677   0.457   1.123   8.934  2.8085  0.2547  1.5444
 3740SOL     OW22678   4.509   2.233   7.241 -0.0868 -0.0250  0.1489
 3740SOL    HW122679   4.578   2.245   7.306 -0.0991  1.3618 -0.0924
 3740SOL    HW222680   4.473   2.321   7.235  0.0092 -0.0215 -0.3887
 3741SOL     OW22681   2.406   0.067   3.920 -0.1447  0.2114 -0.1774
 3741SOL    HW122682   2.432   0.014   3.995 -0.2110  1.2687  0.5954
 3741SOL    HW222683   2.334   0.114   3.961 -1.1169 -0.5326 -1.0256
 3742SOL     OW22684   1.248   3.585   8.200 -0.2211  0.5120  0.0552
 3742SOL    HW122685   1.322   3.591   8.261  0.1777  0.8569 -0.4671
 3742SOL    HW222686   1.298   3.571   8.120  0.5337  1.3421  0.3842
 3743SOL     OW22687   3.044   2.450   2.969  0.2039  0.1047  0.3431
 3743SOL    HW122688   2.956   2.417   2.948  1.1730 -1.4060 -1.3390
 3743SOL    HW222689   3.019   2.536   3.003  0.8848  0.7463 -0.8123
 3744SOL     OW22690   0.315   1.190   5.452 -0.6162  0.2382  0.0798
 3744SOL    HW122691   0.349   1.110   5.412 -1.7689 -0.0158 -0.3838
 3744SOL    HW222692   0.326   1.167   5.545 -0.3124 -1.4823 -0.3928
 3745SOL     OW22693   0.606   1.831   2.791  0.5383  0.7000 -0.0370
 3745SOL    HW122694   0.692   1.792   2.776  0.2731  0.0213  0.2223
 3745SOL    HW222695   0.599   1.913   2.742 -1.0133  0.4922 -0.1377
 3746SOL     OW22696   3.043   2.939  10.554  0.0316 -0.0715  0.2899
 3746SOL    HW122697   3.088   2.971  10.632  1.1360 -0.4475 -0.1956
 3746SOL    HW222698   3.093   2.981  10.484  1.8398  1.2366  2.3879
 3747SOL     OW22699   0.673   1.621   6.560 -0.3733 -0.0725 -0.1585
 3747SOL    HW122700   0.595   1.565   6.560 -0.7038  0.3923 -0.1161
 3747SOL    HW222701   0.667   1.650   6.469  0.7312 -0.2383 -0.2853
 3748SOL     OW22702   4.065   2.911   5.971 -0.5956  0.1904 -0.1333
 3748SOL    HW122703   4.105   2.849   5.910 -3.0638  0.6794 -2.2128
 3748SOL    HW222704   4.136   2.975   5.980  0.3087 -0.9184  0.5311
 3749SOL     OW22705   0.817   2.566  10.671 -0.2374 -0.9045  0.0071
 3749SOL    HW122706   0.788   2.629  10.737  1.4007 -0.7543  0.5830
 3749SOL    HW222707   0.765   2.593  10.595 -1.0205  1.3653  1.3325
 3750SOL     OW22708   3.249   2.157   6.549 -0.1899 -0.1255 -0.0188
 3750SOL    HW122709   3.298   2.080   6.519 -1.0276 -0.6159 -0.1367
 3750SOL    HW222710   3.161   2.134   6.519 -0.8288  0.0185  1.7703
 3751SOL     OW22711   2.265   0.319   5.152 -0.2033 -0.0849 -0.1021
 3751SOL    HW122712   2.237   0.235   5.116  1.7660 -0.6328 -0.3777
 3751SOL    HW222713   2.356   0.296   5.171 -0.2670 -0.8510 -0.7482
 3752SOL     OW22714   1.281   0.285  15.019 -0.0540 -0.0291  0.3218
 3752SOL    HW122715   1.277   0.301  14.925 -0.8921 -0.0851  0.3469
 3752SOL    HW222716   1.269   0.378  15.040  0.7717  0.7201 -2.5035
 3753SOL     OW22717   2.316   0.619   4.646 -0.1017 -0.9629  0.4444
 3753SOL    HW122718   2.260   0.689   4.679  0.5386 -0.0450 -0.3944
 3753SOL    HW222719   2.254   0.569   4.593 -1.5208  0.2002  1.0274
 3754SOL     OW22720   2.653   3.894   5.837 -0.2410  0.0194  0.4476
 3754SOL    HW122721   2.678   3.871   5.748 -1.2740  0.3719  0.0653
 3754SOL    HW222722   2.725   3.851   5.883  0.3637  1.4453  0.8237
 3755SOL     OW22723   3.881   1.752   3.645  0.2111  0.1291 -0.2873
 3755SOL    HW122724   3.971   1.721   3.660  0.2937  1.3484  1.7567
 3755SOL    HW222725   3.871   1.756   3.550 -0.3504 -2.1958 -0.3452
 3756SOL     OW22726   2.867   2.242  14.950 -0.6296 -0.7947 -0.1693
 3756SOL    HW122727   2.877   2.256  14.856  0.2578  2.7555  0.4444
 3756SOL    HW222728   2.905   2.154  14.957 -0.6420 -0.9126 -1.5504
 3757SOL     OW22729   2.861   0.568   8.160  0.3240 -0.0225 -0.2291
 3757SOL    HW122730   2.871   0.644   8.217 -0.3931  2.3704 -3.2715
 3757SOL    HW222731   2.925   0.505   8.191 -0.5241 -1.3632 -1.2061
 3758SOL     OW22732   0.905   1.174   1.700  0.0270  0.5767 -0.0971
 3758SOL    HW122733   0.890   1.085   1.668 -0.3162  1.2878 -1.9301
 3758SOL    HW222734   0.988   1.162   1.747 -0.4950 -2.8517 -0.0623
 3759SOL     OW22735   0.589   2.116   4.902 -0.3185  0.6575  0.0623
 3759SOL    HW122736   0.664   2.092   4.956 -0.8599 -0.2586  0.3915
 3759SOL    HW222737   0.523   2.064   4.946  1.5265 -1.9606 -0.2918
 3760SOL     OW22738   2.922   0.574   4.683  0.2181  0.0979  0.2688
 3760SOL    HW122739   3.006   0.588   4.640 -0.2149  1.1645 -0.2108
 3760SOL    HW222740   2.933   0.644   4.748  2.2495 -0.6613  0.7550
 3761SOL     OW22741   2.643   1.566  17.289  0.4849 -0.7796  0.8773
 3761SOL    HW122742   2.577   1.625  17.253  1.1518 -1.0925 -0.8701
 3761SOL    HW222743   2.700   1.631  17.331  0.7767 -1.1358  1.0276
 3762SOL     OW22744   0.998   1.106   2.487 -0.4525  0.4244 -0.1475
 3762SOL    HW122745   0.963   1.177   2.541  0.3106 -0.0410  0.9560
 3762SOL    HW222746   1.081   1.087   2.531 -0.4408  0.7779 -0.0226
 3763SOL     OW22747   3.179   1.732   3.491 -0.0385  0.5314 -0.0269
 3763SOL    HW122748   3.244   1.750   3.423  1.0509 -0.1792  0.8308
 3763SOL    HW222749   3.133   1.815   3.483 -3.0133 -1.3153 -2.2993
 3764SOL     OW22750   3.468   3.411   8.725  0.1693 -0.4846 -0.1176
 3764SOL    HW122751   3.493   3.319   8.728  0.5735 -0.3425  1.0012
 3764SOL    HW222752   3.384   3.400   8.682  2.0939 -1.0709 -3.7592
 3765SOL     OW22753   3.499   1.109   9.247  0.1214 -0.3135  0.0151
 3765SOL    HW122754   3.460   1.025   9.271  0.9469 -1.1571 -1.5604
 3765SOL    HW222755   3.426   1.166   9.271 -0.2301 -0.8270  0.1609
 3766SOL     OW22756   1.951   2.854   0.480  0.7275  0.0434 -0.9632
 3766SOL    HW122757   1.866   2.813   0.467  0.5456  0.0198  0.3627
 3766SOL    HW222758   1.947   2.860   0.575 -1.2893 -0.8730 -0.9919
 3767SOL     OW22759   3.983   3.580   7.598 -0.2426  0.0943  0.2671
 3767SOL    HW122760   4.018   3.500   7.559 -1.1401  0.5888 -1.5212
 3767SOL    HW222761   3.947   3.553   7.683 -0.1777 -1.5002 -0.2116
 3768SOL     OW22762   1.005   3.558   8.885  0.8144 -0.6893 -0.2423
 3768SOL    HW122763   0.950   3.503   8.830 -0.2037  0.8274 -0.7558
 3768SOL    HW222764   0.948   3.582   8.958  3.3120 -1.8745  2.0852
 3769SOL     OW22765   3.640   0.013   6.172  0.2271 -0.4593  0.0165
 3769SOL    HW122766   3.673   4.658   6.126  2.9006 -1.2477  3.2933
 3769SOL    HW222767   3.650   0.083   6.107  0.7061 -0.4438  0.1055
 3770SOL     OW22768   4.065   0.926   4.070  0.3257 -0.5502  0.2109
 3770SOL    HW122769   4.029   0.876   4.143 -1.2160  1.3006  0.7272
 3770SOL    HW222770   4.147   0.878   4.057 -0.2948 -1.2989 -0.9216
 3771SOL     OW22771   0.236   3.275   2.855 -0.3322  0.2217  0.5799
 3771SOL    HW122772   0.288   3.355   2.861 -0.8192  0.6571 -1.1202
 3771SOL    HW222773   0.218   3.248   2.765  1.1768  0.2370  0.2749
 3772SOL     OW22774   0.680   0.358   6.509  0.9558 -0.2149 -0.0019
 3772SOL    HW122775   0.606   0.402   6.467  0.2891 -0.9058  0.4417
 3772SOL    HW222776   0.631   0.294   6.561 -1.3007  1.0710 -0.5317
 3773SOL     OW22777   4.234   2.905   3.221  0.7056  0.1299  0.1742
 3773SOL    HW122778   4.235   2.810   3.211  2.0090  0.2547 -0.7887
 3773SOL    HW222779   4.325   2.935   3.224  0.0991  2.0144 -0.2437
 3774SOL     OW22780   3.479   0.597   8.145  0.0510  0.5018 -0.1282
 3774SOL    HW122781   3.390   0.626   8.163 -0.5479 -0.8190 -0.9987
 3774SOL    HW222782   3.456   0.506   8.165  2.6190 -0.0094  0.5005
 3775SOL     OW22783   4.043   1.924   8.704 -0.0424  0.4391  0.1857
 3775SOL    HW122784   3.991   1.916   8.784 -0.9453  0.5299 -0.3814
 3775SOL    HW222785   4.021   1.838   8.669 -1.2329  0.6712  0.3628
 3776SOL     OW22786   3.281   3.746   8.321  0.0211 -0.1375 -0.6759
 3776SOL    HW122787   3.216   3.725   8.254 -0.5281 -0.3908 -0.0695
 3776SOL    HW222788   3.352   3.693   8.284 -0.4242 -0.9725 -0.3548
 3777SOL     OW22789   2.368   2.956   3.562  0.1250 -0.0626 -0.4116
 3777SOL    HW122790   2.313   2.999   3.496 -2.8805 -1.4341  1.2043
 3777SOL    HW222791   2.329   2.869   3.566 -0.1690  0.1812  2.1035
 3778SOL     OW22792   4.628   2.324   2.524  0.5362 -0.1913 -0.3861
 3778SOL    HW122793   4.721   2.310   2.543  0.2125 -1.4555  0.2245
 3778SOL    HW222794   4.614   2.418   2.535  0.9380 -0.4909  2.7900
 3779SOL     OW22795   4.685   1.655   6.710 -0.7382 -0.2031 -0.1190
 3779SOL    HW122796   4.597   1.655   6.748 -0.2424  1.5250  1.0133
 3779SOL    HW222797   0.015   1.628   6.785  0.6842 -0.9862 -1.4142
 3780SOL     OW22798   3.863   4.098  12.308  0.0054  0.9095 -1.3173
 3780SOL    HW122799   3.898   4.022  12.355 -1.4493  1.2362  0.2877
 3780SOL    HW222800   3.769   4.091  12.325  0.7894 -2.8194  1.4226
 3781SOL     OW22801   0.786   3.737  11.912 -0.7899  0.3774  0.4215
 3781SOL    HW122802   0.847   3.810  11.900 -1.1722  0.3906 -1.3465
 3781SOL    HW222803   0.823   3.702  11.993  0.0566  2.2577  0.8536
 3782SOL     OW22804   3.872   3.539   7.258  0.2042  0.6224 -0.0658
 3782SOL    HW122805   3.947   3.481   7.248 -0.1047  0.2097 -0.0217
 3782SOL    HW222806   3.891   3.606   7.192 -1.3157  1.4135  0.3036
 3783SOL     OW22807   3.112   0.679   7.224 -0.6052  0.0579  0.3392
 3783SOL    HW122808   3.170   0.705   7.296 -1.0878 -0.0100  0.7530
 3783SOL    HW222809   3.106   0.584   7.237 -2.2111  0.3946  1.9225
 3784SOL     OW22810   2.067   1.258   7.846 -0.2706 -0.0329 -0.4239
 3784SOL    HW122811   2.128   1.291   7.912  1.3561 -0.6731 -1.5717
 3784SOL    HW222812   1.981   1.280   7.880 -0.5620 -1.6705 -0.0996
 3785SOL     OW22813   3.602   2.828   1.268 -0.6492  0.1136  0.6130
 3785SOL    HW122814   3.581   2.772   1.343 -2.4123 -0.7377 -0.5035
 3785SOL    HW222815   3.546   2.906   1.269 -1.4604 -0.4655  1.0324
 3786SOL     OW22816   0.015   0.269  11.320 -0.1924 -0.8085  0.3793
 3786SOL    HW122817   4.699   0.210  11.385 -0.5331 -2.4966 -1.3354
 3786SOL    HW222818   4.669   0.275  11.253  0.6170  0.5572 -0.3276
 3787SOL     OW22819   3.801   1.285  17.668 -0.0973  0.6897 -0.2826
 3787SOL    HW122820   3.765   1.339  17.597 -0.4892  1.9528  0.8877
 3787SOL    HW222821   3.825   1.356   0.034 -0.1884  0.1010  0.4666
 3788SOL     OW22822   0.747   2.146  12.359 -0.3119 -0.0272  0.7564
 3788SOL    HW122823   0.665   2.187  12.332  0.2228  1.1255  0.8527
 3788SOL    HW222824   0.745   2.173  12.451  0.4492  2.3950  0.0601
 3789SOL     OW22825   3.045   0.558   8.995  0.5954 -0.0497  0.7512
 3789SOL    HW122826   2.961   0.559   9.040  0.4804  0.7997  0.5117
 3789SOL    HW222827   3.080   0.471   9.016  2.1428  0.5606  0.6976
 3790SOL     OW22828   3.556   1.628   0.391 -0.1023 -0.1116  0.0919
 3790SOL    HW122829   3.475   1.613   0.441  0.2077  1.1683  0.9793
 3790SOL    HW222830   3.539   1.717   0.361 -0.6336  0.6772  2.6807
 3791SOL     OW22831   1.041   2.748   4.990  0.5041 -0.4193  0.5886
 3791SOL    HW122832   1.045   2.832   4.944  0.8931 -0.5724  0.3425
 3791SOL    HW222833   1.076   2.788   5.070 -1.3170 -0.2214  1.2776
 3792SOL     OW22834   4.409   2.023   8.185  0.3717  0.0992  0.0626
 3792SOL    HW122835   4.454   1.991   8.263 -1.4577  0.2458  1.1618
 3792SOL    HW222836   4.326   2.039   8.229  0.9268  2.0565  0.3811
 3793SOL     OW22837   3.784   4.687  16.070  0.0489  0.0283  0.4843
 3793SOL    HW122838   3.879   4.699  16.067 -0.1766  1.3995 -1.2651
 3793SOL    HW222839   3.762   4.673  15.977 -1.6586 -0.4942  0.9664
 3794SOL     OW22840   2.419   3.266   0.517  0.2984  0.0152  0.2419
 3794SOL    HW122841   2.341   3.212   0.511  0.5056 -0.1656 -0.8307
 3794SOL    HW222842   2.398   3.345   0.468  0.3290 -0.0028  0.1996
 3795SOL     OW22843   2.567   4.271   6.320 -0.0105  0.0765  0.2726
 3795SOL    HW122844   2.531   4.306   6.238  1.0759  0.3656 -0.0900
 3795SOL    HW222845   2.574   4.354   6.367  0.7984  1.6209 -2.5734
 3796SOL     OW22846   2.305   2.156   7.985  0.1054 -0.2306  0.1456
 3796SOL    HW122847   2.220   2.138   7.944  0.1245  0.8160 -0.3734
 3796SOL    HW222848   2.340   2.069   7.998 -2.0656 -0.9056  1.5840
 3797SOL     OW22849   3.217   2.617   8.826 -0.0546 -0.0232  0.0676
 3797SOL    HW122850   3.257   2.703   8.831  2.6702 -1.1075 -3.1338
 3797SOL    HW222851   3.293   2.562   8.808 -0.1022  0.4082 -1.4083
 3798SOL     OW22852   0.254   1.504   4.037 -0.0820  0.1765  0.0442
 3798SOL    HW122853   0.275   1.411   4.045 -1.8340 -0.3444 -1.4740
 3798SOL    HW222854   0.184   1.504   4.102 -0.8626 -1.2166 -0.7864
 3799SOL     OW22855   2.094   4.125  15.480 -0.6457 -0.3084 -0.3606
 3799SOL    HW122856   2.092   4.063  15.407 -2.0478 -1.8842  1.0244
 3799SOL    HW222857   2.182   4.161  15.470 -1.0518  0.5277 -0.9043
 3800SOL     OW22858   0.265   1.185   4.880  0.0136 -0.4256  0.0425
 3800SOL    HW122859   0.328   1.135   4.931 -1.5399 -1.1602  1.2458
 3800SOL    HW222860   0.324   1.231   4.820  1.7934 -1.0608  1.3301
 3801SOL     OW22861   2.947   1.945   5.956  0.5143 -0.2891 -0.5591
 3801SOL    HW122862   2.915   1.957   6.045  1.1104  0.4138 -0.4414
 3801SOL    HW222863   2.998   2.023   5.936  1.2717 -0.0874  2.1267
 3802SOL     OW22864   4.342   4.577   5.788 -0.2904  0.5938  0.1296
 3802SOL    HW122865   4.267   4.550   5.841  1.0595 -4.5950 -0.5541
 3802SOL    HW222866   4.417   4.540   5.834 -1.4273  1.6226  2.7943
 3803SOL     OW22867   4.493   3.140   4.953  0.1719  0.0593  0.5083
 3803SOL    HW122868   4.466   3.048   4.946  1.4514 -0.4541  2.4403
 3803SOL    HW222869   4.578   3.133   4.909 -0.9189 -0.1861 -1.5721
 3804SOL     OW22870   1.458   0.819  16.118 -0.5130  0.1522  0.2716
 3804SOL    HW122871   1.460   0.724  16.130  2.5568  0.1845 -0.0983
 3804SOL    HW222872   1.485   0.829  16.027 -1.1869  0.2092  0.0789
 3805SOL     OW22873   2.574   2.014   9.055  0.3199  0.6261  0.2160
 3805SOL    HW122874   2.516   2.039   9.126 -0.8255 -0.0408 -0.4812
 3805SOL    HW222875   2.659   2.029   9.096  0.1026  1.1617  0.4699
 3806SOL     OW22876   2.625   4.122   4.617 -0.6194 -0.1920  0.2372
 3806SOL    HW122877   2.639   4.157   4.705 -2.7168 -0.1353  0.5527
 3806SOL    HW222878   2.577   4.199   4.586 -0.1637  0.2570  0.6322
 3807SOL     OW22879   2.767   3.437  13.053 -0.6961  0.1560  0.5214
 3807SOL    HW122880   2.785   3.511  12.995  0.3321 -0.5476 -0.0512
 3807SOL    HW222881   2.700   3.468  13.115  0.4291  0.2488  1.6816
 3808SOL     OW22882   0.237   0.281   1.585  0.1223  0.0899  0.2289
 3808SOL    HW122883   0.165   0.330   1.627 -0.0503  1.4909 -1.7019
 3808SOL    HW222884   0.288   0.359   1.564 -1.3488  0.5932 -1.5108
 3809SOL     OW22885   3.500   2.334   7.949 -0.1825  0.4660  0.1854
 3809SOL    HW122886   3.585   2.308   7.914  0.7647  3.1354  0.4808
 3809SOL    HW222887   3.490   2.415   7.898 -0.4895 -0.1316 -0.6949
 3810SOL     OW22888   0.102   0.425   8.064 -0.4251 -0.8135  0.5492
 3810SOL    HW122889   0.140   0.435   8.151  0.3757  3.3529 -0.2467
 3810SOL    HW222890   0.031   0.490   8.064  1.9227  1.7171  1.2306
 3811SOL     OW22891   0.165   4.101   8.797  0.3768  0.4467  0.2049
 3811SOL    HW122892   0.195   4.184   8.760  0.2284 -0.4919 -2.0072
 3811SOL    HW222893   0.072   4.124   8.803 -0.6884 -3.2296 -2.2496
 3812SOL     OW22894   2.609   1.841   2.920  0.0567 -0.3649 -0.7487
 3812SOL    HW122895   2.601   1.810   2.830 -0.3692  1.4545 -1.3373
 3812SOL    HW222896   2.589   1.758   2.964 -0.5336  0.5303  0.6964
 3813SOL     OW22897   0.060   0.742   7.420  0.1192  0.8740  0.1922
 3813SOL    HW122898   0.055   0.660   7.371 -1.4650  0.7636  0.5553
 3813SOL    HW222899   4.702   0.784   7.389 -0.6879 -1.0106 -0.2635
 3814SOL     OW22900   2.136   0.785   5.172 -0.2202 -0.3516 -0.2226
 3814SOL    HW122901   2.129   0.793   5.077  1.2739  0.9645 -0.2273
 3814SOL    HW222902   2.151   0.691   5.182 -1.1508 -0.5159 -0.3243
 3815SOL     OW22903   0.065   1.288  13.682  0.4289 -0.0039 -0.3044
 3815SOL    HW122904   0.080   1.271  13.589  0.9422  0.1237 -0.2447
 3815SOL    HW222905   4.710   1.233  13.687  2.0307 -2.2033  0.2049
 3816SOL     OW22906   4.045   4.601  14.785  0.6622  0.2318 -0.1135
 3816SOL    HW122907   4.135   4.575  14.764  0.1011 -1.1526 -0.8257
 3816SOL    HW222908   4.035   4.673  14.723  1.0755 -1.3161 -1.9835
 3817SOL     OW22909   3.355   0.200   5.503  0.1484  0.3908  0.1967
 3817SOL    HW122910   3.364   0.114   5.462 -0.3329 -0.1542  1.2422
 3817SOL    HW222911   3.417   0.202   5.576 -0.3753  0.4182  0.6396
 3818SOL     OW22912   1.480   2.067   4.344  0.0772 -0.0297  0.7133
 3818SOL    HW122913   1.562   2.063   4.294 -1.7354 -1.8860 -2.1427
 3818SOL    HW222914   1.499   2.030   4.430 -1.6355 -0.2367  1.0005
 3819SOL     OW22915   4.592   1.546   7.036  0.1003 -0.3534 -0.1301
 3819SOL    HW122916   4.620   1.590   7.116  0.1806  3.1462 -2.0800
 3819SOL    HW222917   4.508   1.587   7.014 -0.0229 -1.0722 -0.9894
 3820SOL     OW22918   3.770   0.090   4.446 -0.7045  0.0060 -0.8675
 3820SOL    HW122919   3.715   0.018   4.476 -1.3853  0.7031 -0.4224
 3820SOL    HW222920   3.784   0.134   4.530 -0.4524 -0.8691 -0.4525
 3821SOL     OW22921   0.125   3.687   1.897  1.1202 -0.1565 -0.2540
 3821SOL    HW122922   0.044   3.710   1.942  0.9006  0.8240 -1.1484
 3821SOL    HW222923   0.190   3.747   1.933  0.5507  0.1105  0.3221
 3822SOL     OW22924   4.104   3.030  13.377 -0.1115  0.2988  0.3376
 3822SOL    HW122925   4.073   2.980  13.453  0.3632 -2.5568 -1.3680
 3822SOL    HW222926   4.099   2.962  13.310 -1.7684  1.6695 -0.9219
 3823SOL     OW22927   2.929   2.394   6.161  0.1375 -0.3298  0.8505
 3823SOL    HW122928   3.022   2.373   6.156  0.8704  3.0107  0.9445
 3823SOL    HW222929   2.902   2.360   6.246 -0.6438 -2.1540 -0.1116
 3824SOL     OW22930   1.798   0.553   7.519  0.3096  0.2935 -0.0410
 3824SOL    HW122931   1.823   0.475   7.469  0.8294 -0.1892  0.9833
 3824SOL    HW222932   1.715   0.525   7.557  1.0321  0.4871  1.6542
 3825SOL     OW22933   3.155   0.690   6.242  0.0368 -0.1785  0.3149
 3825SOL    HW122934   3.200   0.606   6.245  1.7537  0.6701 -2.1649
 3825SOL    HW222935   3.146   0.701   6.337  0.8809 -2.5004  0.6514
 3826SOL     OW22936   2.585   1.881  10.111  0.0233 -0.4126  0.1251
 3826SOL    HW122937   2.614   1.881  10.202 -0.4530 -0.8695  0.2791
 3826SOL    HW222938   2.659   1.874  10.052 -1.0651  2.6080 -1.5853
 3827SOL     OW22939   1.481   1.021  10.388  0.2324  0.1286 -0.8124
 3827SOL    HW122940   1.446   0.933  10.399  0.3241  0.3618  1.4335
 3827SOL    HW222941   1.407   1.070  10.352  0.8256  0.5027 -1.5308
 3828SOL     OW22942   2.800   4.221  11.565 -0.3837 -0.4137 -0.4077
 3828SOL    HW122943   2.766   4.236  11.477  1.4371 -0.2617 -1.0849
 3828SOL    HW222944   2.837   4.305  11.591 -0.1241 -0.1919 -1.5129
 3829SOL     OW22945   3.983   2.601   3.109  0.2386 -0.1416 -0.0353
 3829SOL    HW122946   3.928   2.544   3.163  0.9197  0.1672  0.9898
 3829SOL    HW222947   3.992   2.546   3.031 -0.4699  0.6868 -0.7044
 3830SOL     OW22948   3.401   3.257  14.359 -0.1084  0.1337 -0.2291
 3830SOL    HW122949   3.453   3.305  14.423  0.3976 -1.2173  0.3755
 3830SOL    HW222950   3.452   3.263  14.278 -1.0197  1.7330 -0.6939
 3831SOL     OW22951   0.431   3.044   2.933 -0.2841  0.2316 -0.8877
 3831SOL    HW122952   0.425   3.087   2.848 -0.6941 -0.9028 -1.4313
 3831SOL    HW222953   0.523   3.057   2.955 -0.3252 -0.2699 -0.3970
 3832SOL     OW22954   2.429   0.856  15.874  0.2930 -0.1017  0.3800
 3832SOL    HW122955   2.350   0.850  15.927 -0.8924  1.2120 -1.2432
 3832SOL    HW222956   2.459   0.942  15.903 -1.0110  0.1176  1.0497
 3833SOL     OW22957   1.549   3.058   0.634  0.2429  0.1717  0.0752
 3833SOL    HW122958   1.639   3.026   0.642  0.0510 -0.2683  0.4753
 3833SOL    HW222959   1.501   2.996   0.579 -2.1801  1.0609  1.1754
 3834SOL     OW22960   2.891   3.500   9.128  0.1910  0.1039  0.3340
 3834SOL    HW122961   2.893   3.546   9.212  1.3326 -1.6679  1.2724
 3834SOL    HW222962   2.800   3.470   9.117  0.7313 -0.6916 -2.0354
 3835SOL     OW22963   2.218   1.009   6.963  0.6651  0.4859 -0.6100
 3835SOL    HW122964   2.266   0.937   7.004  0.3932  0.4257 -0.3947
 3835SOL    HW222965   2.128   0.980   6.975 -0.1819  3.0222 -0.8936
 3836SOL     OW22966   0.065   1.551   3.828  0.4826  0.1135  0.1742
 3836SOL    HW122967   0.139   1.556   3.888  0.2754  0.1698  0.4267
 3836SOL    HW222968   0.014   1.627   3.854  0.0264 -0.5691  1.2727
 3837SOL     OW22969   2.876   2.407  15.177 -0.2636  0.2845 -0.0464
 3837SOL    HW122970   2.855   2.359  15.096 -3.5092 -1.4272  1.8482
 3837SOL    HW222971   2.887   2.335  15.239 -2.6551  0.4492  0.5418
 3838SOL     OW22972   1.295   3.936   5.024 -0.0956  0.3876  0.8410
 3838SOL    HW122973   1.271   3.911   4.935  0.8829  0.2580  0.6155
 3838SOL    HW222974   1.216   3.989   5.038 -0.1670  0.3030  0.7542
 3839SOL     OW22975   1.160   0.577   2.147 -0.2980  0.3382  0.4434
 3839SOL    HW122976   1.236   0.633   2.162  0.2104 -0.1628 -0.2340
 3839SOL    HW222977   1.166   0.588   2.052  0.0981 -1.8862  0.2057
 3840SOL     OW22978   4.050   0.735   4.752  0.3391  0.1896 -0.3673
 3840SOL    HW122979   4.138   0.773   4.745  1.0062 -1.0654  1.1807
 3840SOL    HW222980   4.033   0.737   4.846  1.6839 -3.5464 -0.0110
 3841SOL     OW22981   1.863   0.709  15.827 -0.4819 -0.2726  0.3225
 3841SOL    HW122982   1.824   0.793  15.852 -1.2715  0.3237 -2.9117
 3841SOL    HW222983   1.789   0.651  15.813 -1.2254  0.9562 -0.8129
 3842SOL     OW22984   0.932   1.753   6.364  0.2038  0.1113  0.6044
 3842SOL    HW122985   0.995   1.802   6.417 -1.3177  0.9681  1.6318
 3842SOL    HW222986   0.897   1.829   6.317  1.0329 -0.0291 -0.2411
 3843SOL     OW22987   0.278   2.115  11.798  0.0544 -0.5257 -0.1312
 3843SOL    HW122988   0.254   2.114  11.706 -2.5656 -2.1401  0.5784
 3843SOL    HW222989   0.202   2.068  11.832 -1.5944  1.5607 -0.9384
 3844SOL     OW22990   3.300   2.767  13.262 -0.2359  0.5135 -0.6955
 3844SOL    HW122991   3.273   2.778  13.170  0.7029  1.6166 -0.8306
 3844SOL    HW222992   3.300   2.856  13.297  2.0846  0.1022  0.2956
 3845SOL     OW22993   2.189   3.868  14.760 -0.1679 -0.4037  0.4551
 3845SOL    HW122994   2.096   3.888  14.766 -0.0940 -1.0486  3.5702
 3845SOL    HW222995   2.187   3.786  14.809  2.7998 -2.5675 -2.9738
 3846SOL     OW22996   4.661   0.685   5.631  0.4174  0.1204  0.6377
 3846SOL    HW122997   4.598   0.613   5.625  0.0167  0.5898 -0.6845
 3846SOL    HW222998   4.686   0.679   5.723 -1.5479 -2.3662  1.0057
 3847SOL     OW22999   3.541   3.697   3.496 -0.2145 -0.7344  0.3218
 3847SOL    HW123000   3.485   3.771   3.522 -0.3226 -0.9772  0.7710
 3847SOL    HW223001   3.508   3.684   3.407  0.2605  0.7665 -0.0838
 3848SOL     OW23002   1.012   4.450   6.467  0.1393 -0.0525  0.4508
 3848SOL    HW123003   0.972   4.531   6.498  0.1651 -0.3739  1.3118
 3848SOL    HW223004   1.095   4.474   6.510 -0.0491  0.4695  0.5287
 3849SOL     OW23005   0.579   0.573   6.693 -0.1981 -0.0038 -0.4864
 3849SOL    HW123006   0.565   0.565   6.598  2.2272  0.2177 -0.8727
 3849SOL    HW223007   0.590   0.479   6.709 -0.3279  0.3813  1.7964
 3850SOL     OW23008   1.704   2.936   7.203 -0.1085 -0.4765  0.6416
 3850SOL    HW123009   1.659   2.919   7.120  2.2651 -1.4761 -0.4421
 3850SOL    HW223010   1.722   2.847   7.232  0.8282 -0.3011  0.5862
 3851SOL     OW23011   4.127   2.080   5.728 -0.4348  0.2226 -0.4972
 3851SOL    HW123012   4.042   2.060   5.689 -0.0791 -1.9815 -0.1677
 3851SOL    HW223013   4.138   2.170   5.696 -1.8809  0.5900  0.0343
 3852SOL     OW23014   4.624   4.555  14.368 -0.5068 -0.0010  0.7610
 3852SOL    HW123015   4.591   4.640  14.397 -1.4654  0.4707 -1.7009
 3852SOL    HW223016   4.674   4.535  14.447 -1.4822  2.9469  2.0975
 3853SOL     OW23017   2.688   4.324   8.411  0.4470  0.7022  0.7249
 3853SOL    HW123018   2.620   4.358   8.470 -1.1196  0.7004 -1.0875
 3853SOL    HW223019   2.762   4.369   8.453 -0.6555  2.2918  0.9860
 3854SOL     OW23020   0.091   1.239  17.677 -0.0128 -0.2207 -0.0236
 3854SOL    HW123021   0.100   1.170  17.612  1.5874  1.2943 -1.3853
 3854SOL    HW223022   4.718   1.237  17.684 -0.1152 -0.4932 -1.6678
 3855SOL     OW23023   3.690   3.435   4.498 -0.1805  0.2205  0.2351
 3855SOL    HW123024   3.722   3.482   4.575  3.5624 -0.2595 -1.0099
 3855SOL    HW223025   3.646   3.366   4.548 -1.3365  0.5412 -0.3339
 3856SOL     OW23026   2.260   2.042   4.049  0.7854  1.1491 -0.1714
 3856SOL    HW123027   2.226   2.022   4.136  1.3713  1.3565  0.1046
 3856SOL    HW223028   2.344   2.083   4.069  1.7748 -0.8823 -0.1921
 3857SOL     OW23029   1.134   4.647   2.516  0.4817 -0.2509 -0.2887
 3857SOL    HW123030   1.159   4.681   2.430 -0.6003 -1.4890 -1.0796
 3857SOL    HW223031   1.205   4.587   2.538  1.2912  0.1066 -1.9535
 3858SOL     OW23032   3.774   0.007  17.619 -0.0847  0.6467  0.7367
 3858SOL    HW123033   3.850   4.704  17.566 -1.1463 -1.2619  0.1641
 3858SOL    HW223034   3.716   0.054  17.558 -1.1566 -0.7531  0.6956
 3859SOL     OW23035   4.089   1.029  11.815  0.3254 -0.2226 -0.3386
 3859SOL    HW123036   4.171   0.980  11.810  0.5310  0.0838  0.0414
 3859SOL    HW223037   4.064   1.040  11.724 -1.7287  0.4263  0.3077
 3860SOL     OW23038   4.103   3.173   0.675 -0.3520  0.5751  0.3874
 3860SOL    HW123039   4.080   3.231   0.603 -1.9419 -0.1101  0.3503
 3860SOL    HW223040   4.198   3.185   0.683 -0.0202 -2.3078  0.4694
 3861SOL     OW23041   1.063   3.534   5.428 -0.0707 -0.8023  1.0696
 3861SOL    HW123042   1.117   3.558   5.504  2.2741  0.5340 -1.0042
 3861SOL    HW223043   0.982   3.550   5.476  1.4050  4.5403  1.8365
 3862SOL     OW23044   0.676   0.556   1.743 -0.0299  0.0450 -0.2750
 3862SOL    HW123045   0.693   0.476   1.792 -0.6637 -0.9130 -1.6108
 3862SOL    HW223046   0.641   0.620   1.805 -1.0488 -1.3651  0.5855
 3863SOL     OW23047   3.416   3.816   1.256  0.3075  0.0019  0.8314
 3863SOL    HW123048   3.500   3.770   1.247 -0.3999 -1.3319  0.9577
 3863SOL    HW223049   3.392   3.823   1.349 -3.3476  1.3600 -0.2166
 3864SOL     OW23050   4.179   2.700   8.008 -0.5798 -0.3678 -0.3239
 3864SOL    HW123051   4.254   2.702   7.949 -0.9937 -1.3698 -0.8920
 3864SOL    HW223052   4.175   2.610   8.040 -0.5362 -0.2395  0.0455
 3865SOL     OW23053   0.843   1.558   9.735  0.2038  0.3782  0.0002
 3865SOL    HW123054   0.907   1.572   9.805  0.9591 -5.1793  0.3609
 3865SOL    HW223055   0.893   1.591   9.661  2.1965  0.6415  1.4770
 3866SOL     OW23056   3.293   2.894   8.589  0.5071 -0.0798 -0.1131
 3866SOL    HW123057   3.318   2.984   8.566  1.3952 -0.6006 -1.1422
 3866SOL    HW223058   3.351   2.862   8.657  2.7013  2.0758 -0.9467
 3867SOL     OW23059   0.040   3.724  13.960 -0.1034 -0.1996  0.6789
 3867SOL    HW123060   0.017   3.679  14.041  1.7092 -2.7117 -0.2011
 3867SOL    HW223061   0.056   3.814  13.988  0.4568  0.1432 -0.7469
 3868SOL     OW23062   1.617   0.250   7.687  0.0838 -0.0700  0.2805
 3868SOL    HW123063   1.653   0.257   7.775  0.5490  0.4854  0.0477
 3868SOL    HW223064   1.684   0.229   7.622 -0.3262  0.4571 -0.3173
 3869SOL     OW23065   0.444   0.620  12.696 -0.4391 -0.3085 -0.3778
 3869SOL    HW123066   0.418   0.700  12.651  0.0732  0.2650  0.3566
 3869SOL    HW223067   0.534   0.645  12.719 -0.2508 -0.4445 -0.9586
 3870SOL     OW23068   2.998   2.053   6.974 -0.4217  0.5092  0.0246
 3870SOL    HW123069   2.922   2.106   6.997 -1.4482 -1.1503  0.4866
 3870SOL    HW223070   3.065   2.100   7.024  0.3249  2.1255 -2.5150
 3871SOL     OW23071   3.346   3.430   8.380 -0.0320 -0.2713 -0.0228
 3871SOL    HW123072   3.377   3.519   8.363  1.1532 -1.0238 -1.8329
 3871SOL    HW223073   3.431   3.387   8.387 -0.6524 -0.9829  3.1161
 3872SOL     OW23074   2.405   0.308  12.701  0.2798 -0.0853 -0.3693
 3872SOL    HW123075   2.445   0.391  12.676 -0.1694  0.5205  0.8967
 3872SOL    HW223076   2.313   0.317  12.678  0.6536 -0.7723 -2.1150
 3873SOL     OW23077   4.157   2.481   1.615 -0.9899 -0.3841 -0.0989
 3873SOL    HW123078   4.140   2.392   1.584 -0.3649 -0.3768 -0.4718
 3873SOL    HW223079   4.136   2.531   1.536 -2.4888 -1.4600 -0.3870
 3874SOL     OW23080   3.166   2.477  16.166 -0.2814  0.4578  0.3750
 3874SOL    HW123081   3.216   2.550  16.202 -2.8251  2.5250 -0.2837
 3874SOL    HW223082   3.225   2.439  16.101 -1.1985 -0.6836  0.2096
 3875SOL     OW23083   4.613   1.025   7.257  0.0944  0.1858  0.0143
 3875SOL    HW123084   4.587   1.077   7.333  0.8563  0.5676  0.0094
 3875SOL    HW223085   4.533   0.972   7.256 -1.0657  1.9142  0.9937
 3876SOL     OW23086   3.521   3.990   7.417 -0.4698 -0.1137  0.1618
 3876SOL    HW123087   3.540   3.922   7.480  0.9847 -2.2053 -2.5293
 3876SOL    HW223088   3.426   3.988   7.403  0.1160  0.3848 -4.0442
 3877SOL     OW23089   3.708   1.304   1.717 -0.1603  0.0361 -0.1793
 3877SOL    HW123090   3.690   1.236   1.652 -2.2998 -0.8695  1.3910
 3877SOL    HW223091   3.639   1.367   1.695 -1.3001 -0.9586  0.5939
 3878SOL     OW23092   4.370   1.050  11.427 -0.2940  0.0996  0.5541
 3878SOL    HW123093   4.370   1.088  11.515 -0.3307 -0.0341  0.6118
 3878SOL    HW223094   4.398   1.121  11.370  0.9732 -0.2665  0.7045
 3879SOL     OW23095   2.185   3.491   4.564 -0.3434 -0.0302  0.4209
 3879SOL    HW123096   2.266   3.452   4.532 -0.2740 -0.3234  0.9630
 3879SOL    HW223097   2.186   3.569   4.508 -1.4773  0.9019  1.7173
 3880SOL     OW23098   1.808   0.505   6.300  0.0093 -0.7646  0.3186
 3880SOL    HW123099   1.768   0.581   6.257  0.3004 -1.3931 -1.0935
 3880SOL    HW223100   1.898   0.530   6.320 -0.2499 -0.5330  1.1633
 3881SOL     OW23101   2.287   4.173   3.572 -0.3639 -0.1849  0.7471
 3881SOL    HW123102   2.262   4.232   3.643 -1.7031  0.6945 -0.4668
 3881SOL    HW223103   2.323   4.227   3.502  1.5027  0.1097  1.9166
 3882SOL     OW23104   4.465   3.758  15.271  0.2994 -0.3705 -0.9269
 3882SOL    HW123105   4.548   3.740  15.227  1.2044  1.9467 -0.1212
 3882SOL    HW223106   4.468   3.696  15.344 -0.3554  1.0054  0.2644
 3883SOL     OW23107   4.263   0.240  14.197 -0.0850 -0.6307 -0.0695
 3883SOL    HW123108   4.249   0.178  14.269 -0.7830  0.9057  1.1270
 3883SOL    HW223109   4.226   0.191  14.123 -1.8885  0.9243 -0.1824
 3884SOL     OW23110   3.091   0.567   3.312  0.3691 -0.1679  0.4174
 3884SOL    HW123111   3.098   0.651   3.358 -2.0907 -0.4131  1.2579
 3884SOL    HW223112   3.132   0.586   3.228  0.7027  0.9326  0.8280
 3885SOL     OW23113   4.520   1.276   3.550 -0.1282  0.0104 -0.2275
 3885SOL    HW123114   4.574   1.262   3.627 -0.7028 -0.0642  0.1610
 3885SOL    HW223115   4.468   1.196   3.542 -0.0576  0.1635 -2.1604
 3886SOL     OW23116   2.064   2.025  12.539 -0.0852  0.1210  0.3099
 3886SOL    HW123117   2.103   2.087  12.601  1.6901 -2.8178  2.1151
 3886SOL    HW223118   2.106   1.947  12.576  0.3136  0.6714  1.0239
 3887SOL     OW23119   2.515   2.402   2.046 -0.7904  0.0480 -0.0260
 3887SOL    HW123120   2.443   2.449   2.004 -1.5972 -1.3529 -0.1807
 3887SOL    HW223121   2.492   2.317   2.011  0.7589 -0.9237  1.2907
 3888SOL     OW23122   1.808   1.202  15.248 -0.1624  0.0314  0.1766
 3888SOL    HW123123   1.796   1.209  15.343  0.8858  1.2918  0.2146
 3888SOL    HW223124   1.877   1.266  15.230 -0.9432  0.8524  0.1294
 3889SOL     OW23125   3.343   4.652   0.861 -0.0205 -0.3149  0.4207
 3889SOL    HW123126   3.310   4.708   0.932 -2.0376 -0.0925 -0.6936
 3889SOL    HW223127   3.338   4.576   0.918  0.1105 -0.2426  0.5279
 3890SOL     OW23128   0.085   0.692   8.673 -0.3206 -0.1916 -0.4714
 3890SOL    HW123129   0.093   0.619   8.734  3.4640  1.3589  0.8882
 3890SOL    HW223130   0.013   0.736   8.717  0.5296  0.3255  0.4099
 3891SOL     OW23131   4.068   0.253   8.884  0.6269 -0.1223 -0.1070
 3891SOL    HW123132   3.988   0.275   8.835 -0.0596  0.1218  1.1150
 3891SOL    HW223133   4.029   0.210   8.960  0.8755 -0.0148  0.0797
 3892SOL     OW23134   1.770   3.950  13.735 -0.1359 -0.9888 -0.1803
 3892SOL    HW123135   1.717   3.904  13.670  0.9521 -0.1273 -1.6941
 3892SOL    HW223136   1.700   4.010  13.758 -0.4205 -1.4811  0.2105
 3893SOL     OW23137   3.939   0.028   8.515  0.0693  0.2649  0.2433
 3893SOL    HW123138   3.875   0.100   8.509  1.3888  1.4774  0.9153
 3893SOL    HW223139   3.919   4.718   8.602 -2.3416  0.3506 -0.2532
 3894SOL     OW23140   2.814   2.694   7.471  0.1958  0.3091  0.8723
 3894SOL    HW123141   2.792   2.762   7.407 -1.1100 -0.3553  0.6339
 3894SOL    HW223142   2.740   2.704   7.531 -0.0681 -0.2715  0.6416
 3895SOL     OW23143   0.031   3.194   4.870 -0.3132  0.3582  0.0323
 3895SOL    HW123144   0.020   3.251   4.794  1.9149 -0.4785 -0.9238
 3895SOL    HW223145   0.094   3.128   4.841  1.1917  1.0227  1.7331
 3896SOL     OW23146   4.145   4.147  15.184  0.8651  0.0238  0.0719
 3896SOL    HW123147   4.191   4.063  15.186 -0.1293 -0.5301 -0.3861
 3896SOL    HW223148   4.173   4.164  15.094 -1.0121  1.1119 -0.3120
 3897SOL     OW23149   3.115   3.994   4.284  0.2486 -0.5095 -0.0467
 3897SOL    HW123150   3.182   3.940   4.326  2.1077  1.4982 -0.4618
 3897SOL    HW223151   3.037   3.966   4.334  0.0736  0.9797  0.5001
 3898SOL     OW23152   2.256   3.728   4.439  0.3717 -0.3973 -0.6157
 3898SOL    HW123153   2.182   3.774   4.477 -0.5538 -2.0170 -0.4795
 3898SOL    HW223154   2.329   3.785   4.465  1.0362 -1.7590  0.5379
 3899SOL     OW23155   1.589   1.925  16.710 -0.0485  1.1648  0.2921
 3899SOL    HW123156   1.670   1.972  16.692 -0.3300  1.0583 -1.2202
 3899SOL    HW223157   1.613   1.837  16.682 -1.0790  1.6349 -2.0528
 3900SOL     OW23158   4.159   1.813  16.161  0.4365 -0.2990 -0.1979
 3900SOL    HW123159   4.242   1.801  16.114  0.7996 -0.6349  0.5323
 3900SOL    HW223160   4.137   1.904  16.142  1.4119 -0.2266 -0.9702
 3901SOL     OW23161   4.076   2.980   7.033 -0.0448 -0.4386 -0.3669
 3901SOL    HW123162   4.028   2.919   6.976 -0.0215 -0.8747  0.0800
 3901SOL    HW223163   4.017   2.959   7.106  0.7053 -1.5984 -0.0851
 3902SOL     OW23164   2.497   2.043   3.535  0.2004 -0.3832  0.0049
 3902SOL    HW123165   2.579   2.083   3.566 -1.0237 -1.1259  4.2512
 3902SOL    HW223166   2.532   1.989   3.464  0.8592 -1.3509  1.0516
 3903SOL     OW23167   1.306   2.886   3.022 -0.0895 -0.1127 -0.1415
 3903SOL    HW123168   1.370   2.942   2.979  0.2550  0.1077  0.6505
 3903SOL    HW223169   1.365   2.816   3.050  0.1086  0.1164  0.0144
 3904SOL     OW23170   2.654   3.154   7.732 -0.2736 -0.5213  0.6519
 3904SOL    HW123171   2.558   3.158   7.731 -0.2446  0.0423 -0.2484
 3904SOL    HW223172   2.666   3.184   7.641  0.0182 -0.5681  0.6756
 3905SOL     OW23173   3.598   2.062   8.965  0.6731 -0.3754  0.5481
 3905SOL    HW123174   3.586   1.967   8.971  0.2452 -0.3204  0.5244
 3905SOL    HW223175   3.593   2.086   9.057  1.3926 -0.4308  0.6049
 3906SOL     OW23176   0.478   0.132   9.795 -0.5347 -0.2129 -0.2962
 3906SOL    HW123177   0.552   0.172   9.841 -1.1928  0.7095 -0.0320
 3906SOL    HW223178   0.410   0.162   9.856 -0.8018  1.6365 -1.5046
 3907SOL     OW23179   0.448   0.767   0.426  0.4291 -0.3212  0.5881
 3907SOL    HW123180   0.543   0.761   0.418  0.4886  0.8618  0.4310
 3907SOL    HW223181   0.442   0.679   0.464 -0.1278 -0.6196 -0.1786
 3908SOL     OW23182   0.432   1.865  13.837  0.1151  0.3056  0.4344
 3908SOL    HW123183   0.421   1.793  13.775 -3.3954 -0.7048  2.2378
 3908SOL    HW223184   0.371   1.924  13.792 -0.2528 -1.2240 -1.0984
 3909SOL     OW23185   1.900   0.092   2.534  0.1156  0.2193  0.1293
 3909SOL    HW123186   1.979   0.127   2.576 -1.8305  1.6299  2.6475
 3909SOL    HW223187   1.934   0.028   2.471 -2.5283 -0.4449 -0.6314
 3910SOL     OW23188   2.409   2.948   7.299  0.3579  0.0875 -0.0759
 3910SOL    HW123189   2.405   3.002   7.378 -1.1425 -1.2667  0.7910
 3910SOL    HW223190   2.446   2.865   7.329  0.6583 -0.3417 -1.6176
 3911SOL     OW23191   1.489   0.192  10.302  0.2765  0.3632  0.3440
 3911SOL    HW123192   1.579   0.175  10.329  0.1861 -0.0840  0.3714
 3911SOL    HW223193   1.454   0.252  10.367  0.4708  0.3503  0.4599
 3912SOL     OW23194   3.503   1.448   8.939 -0.2051 -0.2590 -0.3200
 3912SOL    HW123195   3.477   1.470   8.849 -1.3546  1.0939  0.3498
 3912SOL    HW223196   3.508   1.354   8.923 -0.3509  0.2810 -3.5762
 3913SOL     OW23197   2.663   0.576   2.487  0.3753 -0.0704 -0.6557
 3913SOL    HW123198   2.599   0.555   2.556 -0.1809  0.8426 -0.8990
 3913SOL    HW223199   2.649   0.669   2.471 -1.0729 -0.3967 -1.2485
 3914SOL     OW23200   2.350   3.792   1.882  0.1530  0.2008  0.6362
 3914SOL    HW123201   2.299   3.751   1.812  0.3900  0.6253  0.2156
 3914SOL    HW223202   2.396   3.857   1.829  1.4809 -1.4201 -0.2177
 3915SOL     OW23203   0.413   1.950  11.548 -0.2707 -0.4471  0.4828
 3915SOL    HW123204   0.391   1.889  11.477  0.6144 -1.5609  1.1769
 3915SOL    HW223205   0.401   1.887  11.618 -1.9423  1.2295  1.6920
 3916SOL     OW23206   2.074   1.462   1.315  0.0157  0.3116 -0.6348
 3916SOL    HW123207   2.164   1.430   1.314 -0.5028 -1.1648 -0.0125
 3916SOL    HW223208   2.057   1.455   1.409  0.1507 -0.2565 -0.6518
 3917SOL     OW23209   3.188   0.251  13.271  0.2170 -0.1475 -0.0286
 3917SOL    HW123210   3.266   0.295  13.307 -1.1060  2.1095  0.0845
 3917SOL    HW223211   3.237   0.185  13.223 -0.0554 -0.2554 -0.1501
 3918SOL     OW23212   4.161   2.262   3.889  0.9380  0.5836 -0.0983
 3918SOL    HW123213   4.192   2.265   3.799  1.0248 -1.3257 -0.1443
 3918SOL    HW223214   4.127   2.172   3.888  3.4727 -0.3485 -1.1976
 3919SOL     OW23215   1.754   1.730   8.062 -0.2197 -0.2835 -0.5457
 3919SOL    HW123216   1.699   1.724   7.984 -2.4304  3.1279  0.7742
 3919SOL    HW223217   1.842   1.754   8.032 -0.4964  1.0078 -0.3010
 3920SOL     OW23218   1.549   1.709   4.227 -0.3267  0.7326 -0.0888
 3920SOL    HW123219   1.461   1.693   4.193 -1.0150  2.6615  0.7811
 3920SOL    HW223220   1.601   1.674   4.154  1.4681  1.4914  0.8241
 3921SOL     OW23221   1.694   3.762   7.990 -0.3867 -0.2149  0.1417
 3921SOL    HW123222   1.687   3.768   8.086  1.1856  3.7573 -0.0174
 3921SOL    HW223223   1.785   3.736   7.983 -0.7412 -2.1257  2.4942
 3922SOL     OW23224   3.656   4.325   7.658 -0.0115  0.3436 -0.4904
 3922SOL    HW123225   3.683   4.253   7.715  3.5502  0.7404 -1.6701
 3922SOL    HW223226   3.586   4.285   7.606  0.2861 -1.2568  0.3344
 3923SOL     OW23227   3.410   1.906   5.411 -0.0070 -0.2204 -0.0317
 3923SOL    HW123228   3.398   1.848   5.486 -0.1935 -1.7400 -1.2295
 3923SOL    HW223229   3.428   1.850   5.335 -0.3463 -0.0079 -0.2722
 3924SOL     OW23230   2.766   2.640  11.725 -0.2035  0.8791 -0.1442
 3924SOL    HW123231   2.751   2.640  11.631  1.4803 -2.5004 -0.4247
 3924SOL    HW223232   2.680   2.646  11.766 -0.5547 -4.3937 -0.1295
 3925SOL     OW23233   0.496   3.804   0.355  0.4173  0.4062 -0.5604
 3925SOL    HW123234   0.572   3.859   0.338 -0.5203  1.7760 -0.2826
 3925SOL    HW223235   0.472   3.771   0.268  0.3773 -2.0897  0.3915
 3926SOL     OW23236   4.530   1.893  10.589 -0.2211 -0.7377 -0.9646
 3926SOL    HW123237   4.444   1.937  10.590 -0.4783 -1.2980  2.6382
 3926SOL    HW223238   4.590   1.966  10.601 -1.3324  0.1268 -0.6220
 3927SOL     OW23239   0.093   0.189  14.470  0.0140 -0.3722 -0.7623
 3927SOL    HW123240   0.073   0.229  14.554  0.1810 -1.7338 -0.0742
 3927SOL    HW223241   0.016   0.206  14.416 -0.2972 -1.5773 -0.6976
 3928SOL     OW23242   2.014   4.235   8.542  0.1767  0.2861  0.0598
 3928SOL    HW123243   1.925   4.213   8.516  0.9477 -2.0365 -0.5911
 3928SOL    HW223244   2.037   4.293   8.469  0.4428 -0.0743 -0.1417
 3929SOL     OW23245   0.016   3.136   5.183 -0.0143 -0.0483 -1.0187
 3929SOL    HW123246   4.680   3.083   5.128  0.2549  0.1517 -1.4903
 3929SOL    HW223247   0.039   3.082   5.259  1.6290  2.0045 -0.0602
 3930SOL     OW23248   4.310   3.489   7.449  0.2346 -0.0615 -0.4624
 3930SOL    HW123249   4.380   3.423   7.443  1.1849  1.0563 -1.6171
 3930SOL    HW223250   4.234   3.435   7.470 -1.4406  2.0702 -1.1479
 3931SOL     OW23251   1.901   3.264  16.313  0.4899 -0.8201 -0.1181
 3931SOL    HW123252   1.875   3.229  16.228  1.0819  2.3099 -1.5943
 3931SOL    HW223253   1.930   3.190  16.366 -0.3782 -0.3130  1.0583
 3932SOL     OW23254   1.728   4.693   5.083  0.3031 -0.4459  0.0630
 3932SOL    HW123255   1.712   4.699   5.177  0.4777 -2.7032  0.2249
 3932SOL    HW223256   1.776   4.612   5.069  0.6489 -0.0025 -1.3247
 3933SOL     OW23257   0.203   2.809  15.451  0.3881 -0.2497 -0.1974
 3933SOL    HW123258   0.210   2.854  15.367  0.7136 -0.1490 -0.1167
 3933SOL    HW223259   0.260   2.732  15.448 -1.6068 -1.6290 -2.1998
 3934SOL     OW23260   4.102   4.223   1.788  0.3843 -0.2063  0.1946
 3934SOL    HW123261   4.165   4.233   1.860  1.3731  0.1888 -0.7290
 3934SOL    HW223262   4.106   4.128   1.777  0.6605 -0.1207 -0.4330
 3935SOL     OW23263   1.235   3.594   7.722 -0.4188  0.2451 -0.3219
 3935SOL    HW123264   1.280   3.510   7.726  0.4988  0.6645 -2.1592
 3935SOL    HW223265   1.280   3.640   7.651  0.3885  1.5662  1.0340
 3936SOL     OW23266   4.708   4.080   7.596 -0.2986 -0.2737  0.6672
 3936SOL    HW123267   0.048   4.086   7.668  0.1953  0.4387  0.1685
 3936SOL    HW223268   4.626   4.111   7.635 -0.4200 -1.1822  1.1418
 3937SOL     OW23269   3.634   0.942   1.328 -0.0562 -0.1367 -0.2176
 3937SOL    HW123270   3.700   0.910   1.389  0.4760  0.8117 -0.2946
 3937SOL    HW223271   3.648   0.871   1.265  0.8282 -1.1754  1.1578
 3938SOL     OW23272   2.126   1.781  16.240  0.1477 -0.2961  0.1451
 3938SOL    HW123273   2.163   1.834  16.311  0.0802  0.8173 -0.6428
 3938SOL    HW223274   2.062   1.729  16.289 -0.0504 -1.4238 -1.3397
 3939SOL     OW23275   3.153   0.740   2.255  0.0802 -1.0272 -0.7068
 3939SOL    HW123276   3.099   0.819   2.248  0.4582 -0.8192 -1.2990
 3939SOL    HW223277   3.174   0.723   2.163 -1.5946  0.3141 -1.3373
 3940SOL     OW23278   3.499   2.291   8.241  0.1930  0.1350  0.0116
 3940SOL    HW123279   3.474   2.199   8.248 -2.2983  0.6016 -2.6513
 3940SOL    HW223280   3.517   2.296   8.147 -1.9157 -1.1290 -0.4443
 3941SOL     OW23281   3.541   4.440  13.787  0.1369  0.0740  0.8255
 3941SOL    HW123282   3.589   4.420  13.706 -1.7091  2.2422 -0.8025
 3941SOL    HW223283   3.478   4.370  13.799  0.3245 -0.3850 -0.8217
 3942SOL     OW23284   3.691   4.108   5.590  0.2694  0.5155  0.0529
 3942SOL    HW123285   3.677   4.155   5.673 -1.6560  1.5025 -0.8263
 3942SOL    HW223286   3.608   4.127   5.546  0.4490 -0.2832 -0.6175
 3943SOL     OW23287   0.109   0.728   5.906 -0.2436 -0.1238  0.3475
 3943SOL    HW123288   0.164   0.663   5.950 -0.3644 -1.2749 -1.2192
 3943SOL    HW223289   0.025   0.721   5.952 -1.0068  3.6693 -0.4631
 3944SOL     OW23290   0.424   4.488   6.623 -0.3054 -0.4128 -0.4249
 3944SOL    HW123291   0.516   4.464   6.616 -0.1383  0.2760 -0.5813
 3944SOL    HW223292   0.392   4.448   6.542 -0.9110 -0.6753 -0.0538
 3945SOL     OW23293   4.655   2.586   7.141 -0.2480 -0.2463  0.1957
 3945SOL    HW123294   4.658   2.516   7.076  0.9865  2.0947 -2.2611
 3945SOL    HW223295   4.576   2.556   7.185  0.7739 -2.1223  0.7496
 3946SOL     OW23296   1.606   1.607   8.864 -0.2543  0.6356  0.2914
 3946SOL    HW123297   1.533   1.663   8.890 -0.9047 -0.3939  0.7069
 3946SOL    HW223298   1.602   1.595   8.769 -0.3554  0.3330  0.3321
 3947SOL     OW23299   2.509   2.811   6.927  0.4779 -0.2109  0.2885
 3947SOL    HW123300   2.455   2.843   6.999  1.9102 -2.4930  2.3817
 3947SOL    HW223301   2.539   2.724   6.954  1.0185  0.5082  2.0076
 3948SOL     OW23302   3.463   3.283   3.893 -0.1956  0.5312  0.0167
 3948SOL    HW123303   3.474   3.215   3.826 -4.0799  0.5572 -0.6853
 3948SOL    HW223304   3.475   3.224   3.967  1.7340  1.2741  0.2867
 3949SOL     OW23305   2.859   2.460   3.451 -0.4156 -0.0823  0.1124
 3949SOL    HW123306   2.799   2.431   3.521  0.0899 -1.1077  0.1204
 3949SOL    HW223307   2.796   2.469   3.380  1.7255  0.3626 -1.7108
 3950SOL     OW23308   3.960   2.602   7.211  0.6620 -0.1684 -0.3064
 3950SOL    HW123309   4.041   2.644   7.242  0.8089  0.2441 -1.2561
 3950SOL    HW223310   3.905   2.664   7.258  1.0132 -1.0572  1.2748
 3951SOL     OW23311   2.570   2.857   9.123  0.4618 -0.3255  0.2686
 3951SOL    HW123312   2.661   2.884   9.124  0.7909 -1.4598  0.7610
 3951SOL    HW223313   2.574   2.828   9.215 -0.5546 -0.2416  0.3481
 3952SOL     OW23314   1.176   0.195   8.354  0.5651  0.1995 -0.1715
 3952SOL    HW123315   1.151   0.267   8.295 -0.9315 -2.9151 -3.2977
 3952SOL    HW223316   1.098   0.140   8.362 -1.2570  2.8184  0.1222
 3953SOL     OW23317   3.385   2.162   2.726 -1.0516 -0.7754 -0.0497
 3953SOL    HW123318   3.324   2.106   2.678 -2.2096  2.4474 -2.3345
 3953SOL    HW223319   3.330   2.235   2.753  0.8583  0.6175  0.0914
 3954SOL     OW23320   1.519   0.538   5.112 -0.6027 -0.3499  0.7332
 3954SOL    HW123321   1.598   0.489   5.133 -1.4554 -2.4074 -0.8954
 3954SOL    HW223322   1.466   0.522   5.190  0.4020 -1.7280  1.1281
 3955SOL     OW23323   0.065   4.291   5.559 -0.2083 -0.0204  0.4889
 3955SOL    HW123324   0.144   4.346   5.551 -0.1567 -0.4071 -1.6309
 3955SOL    HW223325   0.106   4.205   5.569 -0.8831 -0.6026 -1.8550
 3956SOL     OW23326   0.026   0.130   2.989  0.0117  0.3745  0.0809
 3956SOL    HW123327   4.674   0.191   2.991 -0.6620 -0.3729 -2.1095
 3956SOL    HW223328   0.050   0.140   2.896 -0.7851 -1.1191 -0.2790
 3957SOL     OW23329   4.364   4.163   2.385 -0.7590 -0.2593  0.0568
 3957SOL    HW123330   4.362   4.146   2.479 -2.2392 -1.0831 -0.1236
 3957SOL    HW223331   4.436   4.111   2.348 -1.1990 -1.2585  0.5970
 3958SOL     OW23332   1.906   2.102   8.868  0.2692 -0.6214  0.5938
 3958SOL    HW123333   1.961   2.057   8.805 -1.6267  1.0238 -2.2383
 3958SOL    HW223334   1.822   2.100   8.822  0.4455 -0.2775  0.2633
 3959SOL     OW23335   0.564   3.944   7.040 -0.3862 -0.2203 -0.0850
 3959SOL    HW123336   0.506   3.873   7.015  1.9037 -2.1868  0.2406
 3959SOL    HW223337   0.516   4.022   7.010 -1.4441 -1.2117 -0.9384
 3960SOL     OW23338   0.086   4.524   7.983 -0.3406  0.1354  0.3131
 3960SOL    HW123339   0.146   4.461   8.023 -0.2091 -0.2031 -0.4147
 3960SOL    HW223340   0.014   4.548   8.042 -1.7283  0.0942 -1.3486
 3961SOL     OW23341   0.144   0.856   0.057  0.0669 -0.3562  0.3746
 3961SOL    HW123342   0.218   0.875   0.115  0.0433 -0.3813  0.4132
 3961SOL    HW223343   0.077   0.833   0.122  0.6794 -0.0714  1.1068
 3962SOL     OW23344   1.219   1.582   8.476  0.1420 -0.3652 -0.1706
 3962SOL    HW123345   1.195   1.584   8.569  3.0456 -2.0119  0.6273
 3962SOL    HW223346   1.312   1.561   8.487 -0.3017 -1.7777  0.9091
 3963SOL     OW23347   4.104   2.059  12.395 -0.1231 -0.6676  0.0013
 3963SOL    HW123348   4.087   2.141  12.349  1.4073 -0.7672 -0.7448
 3963SOL    HW223349   4.200   2.052  12.391 -0.0633  0.5663 -0.9596
 3964SOL     OW23350   3.038   0.785   4.243  0.3536  0.0525  0.4176
 3964SOL    HW123351   3.122   0.788   4.288  1.4906  0.6374 -1.7516
 3964SOL    HW223352   2.980   0.769   4.318  0.5476  0.3006  0.6220
 3965SOL     OW23353   1.043   0.902   9.837  0.4275 -0.0869 -0.0459
 3965SOL    HW123354   1.014   0.954   9.911  3.0503  0.7662  0.3638
 3965SOL    HW223355   1.066   0.818   9.876 -0.5297  0.2540  1.2613
 3966SOL     OW23356   4.190   4.624   0.273 -0.0360  0.1982 -0.8123
 3966SOL    HW123357   4.252   4.551   0.265 -0.5123 -0.5231  1.8320
 3966SOL    HW223358   4.144   4.585   0.348 -2.1950  0.1450 -2.1790
 3967SOL     OW23359   2.199   4.398   7.697  0.0564  0.2302 -0.0448
 3967SOL    HW123360   2.273   4.455   7.721  0.5950  0.0955 -1.4082
 3967SOL    HW223361   2.124   4.452   7.721  0.3732  0.6770 -0.0429
 3968SOL     OW23362   4.101   1.254   7.345  0.6686 -0.1422 -0.2541
 3968SOL    HW123363   4.060   1.170   7.329  0.0087  0.0690  0.3268
 3968SOL    HW223364   4.075   1.307   7.269  0.8707 -0.8655 -0.8197
 3969SOL     OW23365   0.661   3.981  16.007  0.2739 -0.2829  0.3448
 3969SOL    HW123366   0.748   3.998  16.043  1.0498 -1.3280 -1.0150
 3969SOL    HW223367   0.688   3.928  15.931  0.4412  3.4896 -2.2237
 3970SOL     OW23368   3.760   1.678   1.305 -0.2119  0.6149  0.3027
 3970SOL    HW123369   3.761   1.583   1.320 -0.7291  0.8348  1.8380
 3970SOL    HW223370   3.687   1.694   1.365 -0.2007  0.3538  0.3872
 3971SOL     OW23371   0.960   2.083  11.505  0.3582  0.2739 -0.8444
 3971SOL    HW123372   1.054   2.095  11.513 -0.0621  2.6869  0.3175
 3971SOL    HW223373   0.959   2.041  11.419  0.6843 -0.9374 -0.2618
 3972SOL     OW23374   3.203   3.072   6.103  0.8051 -0.2980  0.1897
 3972SOL    HW123375   3.178   3.156   6.141  0.3825  0.2237 -1.2181
 3972SOL    HW223376   3.262   3.039   6.170  1.3032 -1.1914 -0.6961
 3973SOL     OW23377   1.965   0.678   3.396 -0.1547 -0.5536  0.8267
 3973SOL    HW123378   1.979   0.652   3.305  1.9906  3.0601  0.1449
 3973SOL    HW223379   2.056   0.682   3.422  0.3604  1.6967 -1.2253
 3974SOL     OW23380   2.004   1.098  17.055 -0.1535  0.0168  0.1068
 3974SOL    HW123381   2.008   1.187  17.091 -0.0372 -0.3271  0.9241
 3974SOL    HW223382   2.003   1.037  17.129 -0.3909 -2.1789 -1.7112
 3975SOL     OW23383   1.736   1.470   4.965  0.3986 -0.6873 -0.0915
 3975SOL    HW123384   1.681   1.525   4.910  0.8281 -0.1294  0.0448
 3975SOL    HW223385   1.673   1.397   4.968 -0.6757  0.2870  1.0726
 3976SOL     OW23386   0.019   2.527   7.963  0.4648  0.2593 -0.2409
 3976SOL    HW123387   0.012   2.500   7.871 -1.3498 -0.1292  0.0114
 3976SOL    HW223388   0.102   2.575   7.965 -0.2742  1.5473 -0.5860
 3977SOL     OW23389   4.627   3.417   8.896 -0.0505  0.2952 -0.2006
 3977SOL    HW123390   4.582   3.431   8.813 -0.1471 -1.8537 -0.5092
 3977SOL    HW223391   4.610   3.325   8.915 -0.1828  0.5592  0.9328
 3978SOL     OW23392   0.427   1.538  15.164 -0.0286 -0.4101 -0.0063
 3978SOL    HW123393   0.432   1.556  15.070  1.1695 -3.0889 -0.4363
 3978SOL    HW223394   0.340   1.499  15.175  0.0843 -0.2493  1.5339
 3979SOL     OW23395   4.334   4.077  17.209 -0.3455 -0.1056  0.0266
 3979SOL    HW123396   4.385   4.103  17.285 -3.3681 -1.5461  2.5211
 3979SOL    HW223397   4.345   3.982  17.211 -0.8101 -0.2159 -2.1287
 3980SOL     OW23398   4.061   0.325  10.472  0.0058  0.3314 -0.6233
 3980SOL    HW123399   4.006   0.340  10.396  1.5866  0.9441 -1.6437
 3980SOL    HW223400   3.998   0.322  10.543  0.2361 -0.5730 -0.4552
 3981SOL     OW23401   1.989   4.575   8.809 -0.2562  0.8469  0.3521
 3981SOL    HW123402   1.959   4.653   8.857  1.5432  1.3725  0.6364
 3981SOL    HW223403   1.930   4.506   8.840  1.4714 -0.1645  1.3592
 3982SOL     OW23404   0.696   3.698  10.364  0.2621 -0.2151 -0.0165
 3982SOL    HW123405   0.612   3.736  10.340 -0.7714 -2.2968  0.3477
 3982SOL    HW223406   0.726   3.761  10.430  0.6259  0.3636 -0.7385
 3983SOL     OW23407   3.960   2.960   7.266  0.2488 -0.9686 -0.0237
 3983SOL    HW123408   3.969   3.026   7.334  0.9028  1.1325 -2.1348
 3983SOL    HW223409   3.899   2.901   7.310  1.1481 -0.3337  2.0751
 3984SOL     OW23410   0.289   2.756  14.865  0.2658 -0.0752  0.4628
 3984SOL    HW123411   0.242   2.752  14.949  0.1485 -1.5950  0.3224
 3984SOL    HW223412   0.352   2.828  14.871  0.0958  0.3944 -3.2289
 3985SOL     OW23413   4.104   2.319  12.309 -0.3325 -0.3731  0.0159
 3985SOL    HW123414   4.099   2.385  12.240 -0.4384 -0.6338 -0.2287
 3985SOL    HW223415   4.050   2.361  12.375 -0.5603 -1.2025  0.3550
 3986SOL     OW23416   1.395   4.434  11.919 -0.6703 -0.6656  0.3870
 3986SOL    HW123417   1.488   4.450  11.937 -1.1435 -0.2695  2.4376
 3986SOL    HW223418   1.407   4.401  11.830 -1.3833 -0.9475  0.3981
 3987SOL     OW23419   2.862   0.613   7.070 -0.5263  0.4616 -0.2875
 3987SOL    HW123420   2.948   0.623   7.111 -0.4805 -1.1744  0.0282
 3987SOL    HW223421   2.875   0.534   7.017 -0.8665 -0.2757  0.7259
 3988SOL     OW23422   3.214   2.585   2.540 -0.0778  0.0188 -0.5878
 3988SOL    HW123423   3.205   2.492   2.522  2.2124 -0.0655 -1.2759
 3988SOL    HW223424   3.263   2.613   2.463 -1.6410  1.1752 -1.1833
 3989SOL     OW23425   0.632   1.485   8.212 -0.3962  0.1661  0.0507
 3989SOL    HW123426   0.639   1.570   8.167 -0.5025  0.5403  0.7361
 3989SOL    HW223427   0.581   1.439   8.146  3.0764 -2.7676 -0.5966
 3990SOL     OW23428   4.068   4.670  16.118  0.5554  0.3240  0.3061
 3990SOL    HW123429   4.058   4.686  16.212 -0.8374 -0.9989  0.3814
 3990SOL    HW223430   4.147   4.721  16.101  3.0187 -3.4419  0.6059
 3991SOL     OW23431   3.872   4.679   8.778 -0.1824 -0.1715  0.3105
 3991SOL    HW123432   3.814   4.657   8.852 -0.3332 -0.4995  0.0933
 3991SOL    HW223433   3.954   4.641   8.808  0.1588  0.4798  0.2069
 3992SOL     OW23434   2.544   2.954   4.365  0.0727 -0.2996  0.4073
 3992SOL    HW123435   2.475   2.986   4.307  0.2002  2.9938  2.0910
 3992SOL    HW223436   2.622   2.939   4.310  0.4334 -2.4480  1.5056
 3993SOL     OW23437   2.371   1.968   9.263 -0.4833 -0.1450 -0.2935
 3993SOL    HW123438   2.331   1.947   9.178 -1.6463  1.6627 -0.1982
 3993SOL    HW223439   2.431   1.897   9.284  0.3347  0.1245 -1.7475
 3994SOL     OW23440   3.569   0.470   5.159 -0.3004 -0.3410 -0.3173
 3994SOL    HW123441   3.484   0.450   5.199 -0.4221 -0.0771 -0.4394
 3994SOL    HW223442   3.576   0.555   5.204  0.7635 -1.4098  1.5648
 3995SOL     OW23443   3.080   0.638   5.253 -0.0147  0.1977  0.4483
 3995SOL    HW123444   3.044   0.550   5.243  1.8576 -0.5776  0.4600
 3995SOL    HW223445   3.081   0.644   5.348  2.8987 -0.1820  0.4562
 3996SOL     OW23446   2.375   2.394   4.014 -0.0656 -0.0376 -0.4055
 3996SOL    HW123447   2.306   2.367   3.953  0.3616 -3.2468  0.5905
 3996SOL    HW223448   2.411   2.307   4.028 -0.8112  0.1108  2.3624
 3997SOL     OW23449   2.322   0.049   1.805  0.4480  0.1704  0.2362
 3997SOL    HW123450   2.360   0.067   1.891 -0.0105  0.2334  0.4276
 3997SOL    HW223451   2.231   0.075   1.821 -0.3933 -2.2698 -0.4602
 3998SOL     OW23452   0.186   4.275   5.848  0.5906 -0.2552 -0.2919
 3998SOL    HW123453   0.092   4.260   5.848  0.4816  0.4258  1.1266
 3998SOL    HW223454   0.202   4.213   5.776  0.7160  1.1876 -1.4956
 3999SOL     OW23455   4.445   0.388   3.377  0.2809 -0.2357 -0.0901
 3999SOL    HW123456   4.461   0.361   3.286 -1.6073 -0.9596 -0.2101
 3999SOL    HW223457   4.494   0.469   3.391 -0.4224 -0.3265  2.8352
 4000SOL     OW23458   4.597   0.748  15.497 -0.1669 -0.0734  0.0032
 4000SOL    HW123459   4.562   0.732  15.409  0.5067 -0.4580 -0.1958
 4000SOL    HW223460   4.561   0.833  15.522  2.9059  0.9365  0.9700
 4001SOL     OW23461   3.541   1.599   3.268 -0.0050  0.2127  0.2659
 4001SOL    HW123462   3.600   1.671   3.245 -1.0298  0.6642 -0.9723
 4001SOL    HW223463   3.460   1.650   3.265 -0.3109 -0.3118 -0.4913
 4002SOL     OW23464   1.442   2.674   0.681 -0.2336 -0.2087  0.4610
 4002SOL    HW123465   1.502   2.741   0.648 -1.2028 -0.9862 -2.8507
 4002SOL    HW223466   1.368   2.674   0.620 -0.3174  0.4882  0.5620
 4003SOL     OW23467   2.061   1.178   1.272 -0.9857 -0.2678 -0.7779
 4003SOL    HW123468   2.074   1.228   1.192 -0.0998 -0.4016 -0.7216
 4003SOL    HW223469   2.125   1.107   1.260 -1.0435 -0.2911 -0.9478
 4004SOL     OW23470   3.570   3.974   8.690  0.2426 -0.2800  0.6323
 4004SOL    HW123471   3.544   3.983   8.782  0.3169 -1.4960  0.7749
 4004SOL    HW223472   3.610   4.058   8.671  0.2915 -0.2084  1.0465
 4005SOL     OW23473   2.004   3.580   2.708  0.3437  0.5473  0.1600
 4005SOL    HW123474   2.018   3.674   2.696 -1.6053  0.3409 -3.7573
 4005SOL    HW223475   2.093   3.545   2.699  0.5946  0.8625  1.4260
 4006SOL     OW23476   1.893   0.044   9.015  0.0514  0.0433 -0.4839
 4006SOL    HW123477   1.932   0.101   8.949  1.7932 -0.1973  0.3409
 4006SOL    HW223478   1.960   0.023   9.080 -0.1757  1.3113  0.1453
 4007SOL     OW23479   1.092   4.104   5.167  0.3754 -0.2604 -0.8206
 4007SOL    HW123480   1.017   4.059   5.127 -1.0321  1.6632 -0.3415
 4007SOL    HW223481   1.081   4.181   5.111 -3.2645 -0.7078 -0.7141
 4008SOL     OW23482   4.697   3.656   7.396  0.4717  0.0354  0.3683
 4008SOL    HW123483   0.040   3.724   7.411 -0.9609  1.1863  1.3733
 4008SOL    HW223484   4.634   3.699   7.454  0.1425 -0.1682  0.1613
 4009SOL     OW23485   4.543   4.066   3.496 -0.0763 -0.4275 -0.1588
 4009SOL    HW123486   4.519   4.082   3.587 -1.0999  0.4069 -0.5798
 4009SOL    HW223487   4.466   4.028   3.455 -0.9892 -0.8552  1.9977
 4010SOL     OW23488   1.017   3.722   0.939  0.6233  0.1260 -0.6380
 4010SOL    HW123489   1.097   3.740   0.890  0.3529  0.4832 -0.9486
 4010SOL    HW223490   0.965   3.802   0.942  0.6393  0.1069 -0.0223
 4011SOL     OW23491   4.679   3.386   7.454  0.1810  0.0129 -0.2385
 4011SOL    HW123492   4.678   3.471   7.409 -1.9976  0.7574  1.1689
 4011SOL    HW223493   0.027   3.335   7.415 -0.3123 -0.6527 -0.2637
 4012SOL     OW23494   4.045   3.668   3.522 -0.3740 -0.3156 -0.0968
 4012SOL    HW123495   4.115   3.610   3.552 -1.2873 -1.6477 -0.5123
 4012SOL    HW223496   3.970   3.610   3.505  0.3308 -0.6441 -2.0583
 4013SOL     OW23497   0.422   2.462   6.127 -0.5569 -0.2016  0.0189
 4013SOL    HW123498   0.438   2.494   6.038 -2.0013  2.1033  0.6083
 4013SOL    HW223499   0.433   2.368   6.111 -0.8154 -0.2952  0.3952
 4014SOL     OW23500   1.247   4.696   6.514 -0.2073 -0.8755  0.2910
 4014SOL    HW123501   1.204   0.053   6.544  0.6721 -0.5855  0.8103
 4014SOL    HW223502   1.252   4.715   6.420  0.6050  0.6916  0.6436
 4015SOL     OW23503   4.259   2.758   2.270 -0.0626 -0.3788 -0.5899
 4015SOL    HW123504   4.245   2.836   2.324 -0.2772 -0.8699  0.0691
 4015SOL    HW223505   4.352   2.752   2.250 -0.5494 -3.4289 -1.8588
 4016SOL     OW23506   2.805   1.187  10.497  0.2564 -0.5002  0.4520
 4016SOL    HW123507   2.866   1.247  10.540  0.4968 -1.1030  0.9529
 4016SOL    HW223508   2.722   1.214  10.536  1.3413  0.9417  1.7658
 4017SOL     OW23509   4.233   4.709   7.853 -0.1952  0.1344  0.0449
 4017SOL    HW123510   4.237   0.077   7.824 -0.2589  0.4656  1.0675
 4017SOL    HW223511   4.145   4.682   7.827 -0.2912 -1.3497  1.8680
 4018SOL     OW23512   3.077   2.064   4.342 -0.0841 -0.1763 -0.2164
 4018SOL    HW123513   3.171   2.062   4.323  0.0751  1.1190  0.4076
 4018SOL    HW223514   3.035   2.081   4.258  0.6737 -2.3817 -1.0606
 4019SOL     OW23515   3.356   3.484   2.922  0.2632 -0.5211 -0.1673
 4019SOL    HW123516   3.433   3.435   2.953  0.1800 -1.2193 -1.0795
 4019SOL    HW223517   3.394   3.548   2.863  0.4050  1.1239  1.7032
 4020SOL     OW23518   3.356   4.194   3.193  0.1584  0.0996  0.2078
 4020SOL    HW123519   3.404   4.263   3.148  0.0245 -0.8125 -1.3332
 4020SOL    HW223520   3.423   4.158   3.252 -0.4154  0.3305  1.0009
 4021SOL     OW23521   2.122   1.032  13.803  0.3443  0.1732 -0.0758
 4021SOL    HW123522   2.164   1.054  13.886  2.0728 -0.1572 -0.8483
 4021SOL    HW223523   2.053   1.099  13.801 -1.7358 -2.0538 -2.2726
 4022SOL     OW23524   0.471   3.763   7.790  0.0674  0.1168 -0.1069
 4022SOL    HW123525   0.376   3.771   7.778  0.2031 -0.9343 -1.8451
 4022SOL    HW223526   0.475   3.695   7.723  0.1124 -1.6820  1.7230
 4023SOL     OW23527   1.337   1.403   4.292  0.3235  0.2092  0.5050
 4023SOL    HW123528   1.354   1.339   4.224 -3.6903  0.2355 -0.5389
 4023SOL    HW223529   1.366   1.473   4.234  0.8187 -0.0082  0.4919
 4024SOL     OW23530   3.342   0.495  17.501 -0.0358 -0.4678  0.5021
 4024SOL    HW123531   3.301   0.513  17.416  0.7555  1.0534  0.4271
 4024SOL    HW223532   3.318   0.574  17.550  3.1174  1.0963 -0.3975
 4025SOL     OW23533   0.033   0.779   5.161  0.1199  0.3043 -0.4671
 4025SOL    HW123534   0.056   0.687   5.142 -2.3089 -0.6231  1.1168
 4025SOL    HW223535   4.702   0.768   5.239  2.4900  0.0981  1.1337
 4026SOL     OW23536   1.740   4.653  11.349 -0.0194  0.6944 -0.0448
 4026SOL    HW123537   1.759   0.015  11.308  1.7673  0.1234 -0.3772
 4026SOL    HW223538   1.818   4.603  11.324 -0.2815 -0.4204  1.3444
 4027SOL     OW23539   3.664   3.291   3.513 -0.2932  0.3172 -0.4226
 4027SOL    HW123540   3.634   3.259   3.428  3.4914  0.3782 -1.7994
 4027SOL    HW223541   3.660   3.222   3.579 -1.0210  0.9002  0.1437
 4028SOL     OW23542   3.782   3.926   5.173 -0.2395 -0.3331 -0.3423
 4028SOL    HW123543   3.873   3.899   5.167 -0.1592 -0.7528  2.6966
 4028SOL    HW223544   3.733   3.847   5.150 -0.2116 -0.8506  1.4307
 4029SOL     OW23545   2.823   3.941   4.748 -0.4079  0.1035  0.4154
 4029SOL    HW123546   2.861   4.015   4.700  1.6829 -1.1913  0.0919
 4029SOL    HW223547   2.732   3.972   4.746  0.6474  3.2570  1.5901
 4030SOL     OW23548   0.003   1.059   6.894 -0.0219 -0.0636 -0.5160
 4030SOL    HW123549   4.669   1.136   6.889  1.9557  1.4160  0.3461
 4030SOL    HW223550   0.085   1.098   6.866  0.0226 -0.0517 -0.3675
 4031SOL     OW23551   1.740   4.601   7.653  0.4753  0.0617 -0.0358
 4031SOL    HW123552   1.671   4.543   7.687  0.5974 -1.3114 -2.0955
 4031SOL    HW223553   1.736   4.585   7.559 -2.6480 -2.3807  0.5066
 4032SOL     OW23554   1.641   1.561   5.914 -0.0781  0.5229 -0.2281
 4032SOL    HW123555   1.639   1.515   5.830  0.8292  2.7699 -1.4917
 4032SOL    HW223556   1.566   1.514   5.949 -0.3218 -0.0749 -1.5394
 4033SOL     OW23557   4.243   4.202  15.439  0.4638 -0.1706  0.3784
 4033SOL    HW123558   4.245   4.106  15.440 -1.6948 -0.2496 -1.0606
 4033SOL    HW223559   4.217   4.220  15.348  0.7476  1.2838  0.5932
 4034SOL     OW23560   2.805   0.542   5.502 -0.1914 -0.5935 -0.0546
 4034SOL    HW123561   2.894   0.573   5.517 -0.2912  0.2693 -1.2506
 4034SOL    HW223562   2.768   0.592   5.574 -1.4499 -0.7376 -0.6009
 4035SOL     OW23563   0.492   0.894   2.622  0.2720  0.3570  0.2952
 4035SOL    HW123564   0.479   0.827   2.555 -0.4382 -0.2286  1.0271
 4035SOL    HW223565   0.583   0.924   2.614  0.8917 -1.8305 -0.8491
 4036SOL     OW23566   4.512   3.563  11.848  0.2395  0.2668 -0.8184
 4036SOL    HW123567   4.566   3.630  11.806  0.8572  1.5370  1.9863
 4036SOL    HW223568   4.433   3.613  11.869  0.2659  0.0818 -0.2733
 4037SOL     OW23569   2.092   1.369   6.246  0.0780  0.4553  0.0163
 4037SOL    HW123570   2.117   1.325   6.327 -1.4367 -0.3759  0.0286
 4037SOL    HW223571   2.162   1.330   6.194  0.0656 -1.0482  1.1158
 4038SOL     OW23572   2.816   3.702   3.028 -0.3476 -0.0321 -0.2324
 4038SOL    HW123573   2.883   3.707   2.959  0.3362  1.4661  0.5546
 4038SOL    HW223574   2.741   3.734   2.977  1.2870  1.4013 -1.7761
 4039SOL     OW23575   4.699   4.457   4.269  0.8448 -0.0438  0.1727
 4039SOL    HW123576   0.064   4.497   4.271  0.6985  0.4578 -2.7100
 4039SOL    HW223577   4.666   4.509   4.342 -0.3404  0.9660 -1.0926
 4040SOL     OW23578   0.601   3.844  11.255  0.1043  0.8552  0.5907
 4040SOL    HW123579   0.620   3.753  11.276  0.2289  0.8167  0.3120
 4040SOL    HW223580   0.535   3.871  11.318 -0.2194  0.9694  0.2077
 4041SOL     OW23581   4.488   4.656   9.060 -0.1608  0.0784 -0.2182
 4041SOL    HW123582   4.448   4.574   9.090  0.7968  0.2278  1.4814
 4041SOL    HW223583   4.494   4.698   9.146  0.2432 -0.7693  0.1710
 4042SOL     OW23584   2.643   3.507   4.506 -0.4443 -0.5038 -0.1284
 4042SOL    HW123585   2.601   3.584   4.468  1.5110  0.2244 -0.8642
 4042SOL    HW223586   2.729   3.535   4.475  0.7183 -2.2937  1.4539
 4043SOL     OW23587   0.023   2.297   6.325  0.4178 -0.2045 -0.3424
 4043SOL    HW123588   4.709   2.324   6.241  0.1929  0.5355 -0.0124
 4043SOL    HW223589   0.083   2.228   6.298 -2.3154 -1.7416 -2.5460
 4044SOL     OW23590   3.781   0.070   3.634 -0.1406  0.8808 -0.4358
 4044SOL    HW123591   3.873   0.090   3.618  0.5117 -0.5307  1.5786
 4044SOL    HW223592   3.780   0.090   3.727 -1.1344 -1.7100  0.0949
 4045SOL     OW23593   4.291   1.528   5.610 -0.2894 -0.5820  0.3659
 4045SOL    HW123594   4.353   1.544   5.538 -0.0638 -0.6349  0.5476
 4045SOL    HW223595   4.275   1.438   5.582 -0.5811 -1.1730  2.4453
 4046SOL     OW23596   1.342   4.150   4.381  0.4001  0.5695  0.2622
 4046SOL    HW123597   1.317   4.058   4.372  2.2270 -0.1752  2.8924
 4046SOL    HW223598   1.393   4.146   4.462  0.5620  2.6179  0.2640
 4047SOL     OW23599   3.721   1.422   1.332  0.1779  0.1167 -0.7156
 4047SOL    HW123600   3.647   1.404   1.275  0.0127  1.1932 -0.8355
 4047SOL    HW223601   3.713   1.349   1.394  3.6259  0.1119 -0.2447
 4048SOL     OW23602   3.684   4.088   3.882 -0.0854  0.3368  0.6664
 4048SOL    HW123603   3.594   4.113   3.862  0.5055  1.9163 -0.0474
 4048SOL    HW223604   3.712   4.138   3.959  1.1371  0.3049  0.2583
 4049SOL     OW23605   0.059   0.112   3.986 -0.0155  0.7072 -0.2624
 4049SOL    HW123606   4.722   0.151   3.921 -1.0302  2.2859  1.6167
 4049SOL    HW223607   0.147   0.128   3.953  0.6612  1.5134  1.9633
 4050SOL     OW23608   4.325   2.425   2.533  0.2695  0.1144  0.3563
 4050SOL    HW123609   4.337   2.500   2.475 -3.7032 -1.1722 -2.1265
 4050SOL    HW223610   4.385   2.360   2.495  0.4951 -1.0725  2.7246
 4051SOL     OW23611   1.430   2.317   1.454 -0.2990  0.4138 -0.1475
 4051SOL    HW123612   1.370   2.293   1.525  0.5978  1.2675  0.9090
 4051SOL    HW223613   1.371   2.379   1.411  2.5672  2.0867 -1.6852
 4052SOL     OW23614   2.353   4.226   1.616 -0.2351  0.0368 -0.2359
 4052SOL    HW123615   2.334   4.319   1.624  0.2099  0.1214 -0.1366
 4052SOL    HW223616   2.375   4.198   1.705  4.2032  0.9734 -1.0235
 4053SOL     OW23617   1.764   4.079   2.075 -0.1746  0.4041 -0.3033
 4053SOL    HW123618   1.733   4.110   1.990  2.8100 -0.1820 -1.6297
 4053SOL    HW223619   1.829   4.015   2.045  0.3186 -0.5421  2.7588
 4054SOL     OW23620   3.056   2.710   7.610  0.1146  0.1560 -0.3152
 4054SOL    HW123621   2.966   2.713   7.576  0.0185 -0.8403 -0.1486
 4054SOL    HW223622   3.041   2.679   7.700 -1.4318  0.4766 -0.4481
 4055SOL     OW23623   2.118   4.407   6.420 -0.1186 -0.4686  0.3790
 4055SOL    HW123624   2.054   4.476   6.404  0.9097  0.6578  1.0924
 4055SOL    HW223625   2.174   4.444   6.488 -0.1475 -1.0184  0.7067
 4056SOL     OW23626   1.516   1.845   5.612  0.8199  0.0905 -0.4525
 4056SOL    HW123627   1.514   1.908   5.684  2.6879 -1.0706  0.5916
 4056SOL    HW223628   1.585   1.786   5.641  0.4102 -0.0108  0.3210
 4057SOL     OW23629   3.288   1.421  17.594 -0.1554  0.0624  0.0319
 4057SOL    HW123630   3.207   1.461  17.626  0.3387  0.4550  0.8118
 4057SOL    HW223631   3.281   1.331  17.623 -2.3963 -0.1952 -1.3429
 4058SOL     OW23632   1.570   4.221   2.364  0.2719  0.2101 -0.4047
 4058SOL    HW123633   1.523   4.224   2.447 -0.1100  0.8862 -0.6401
 4058SOL    HW223634   1.509   4.265   2.305 -0.4779  0.5009  0.5978
 4059SOL     OW23635   2.132   1.759   3.024  0.4379 -0.5859  0.2612
 4059SOL    HW123636   2.085   1.713   2.954  1.5102 -2.1320  0.5514
 4059SOL    HW223637   2.131   1.850   2.994  1.5026 -0.5803  0.2248
 4060SOL     OW23638   3.865   4.383   8.087  0.0961 -0.4759  0.2655
 4060SOL    HW123639   3.775   4.394   8.056  0.3232  1.0012  0.1075
 4060SOL    HW223640   3.879   4.438   8.164 -0.5404  1.9721 -1.3481
 4061SOL     OW23641   0.948   2.435   6.245 -0.1577 -0.1292  0.3140
 4061SOL    HW123642   0.902   2.423   6.163  0.9635  0.0304 -0.3477
 4061SOL    HW223643   1.025   2.479   6.208 -0.0239  1.0528  1.9810
 4062SOL     OW23644   0.289   3.673  15.738  0.1209 -0.7760  0.9874
 4062SOL    HW123645   0.363   3.620  15.707 -0.9235 -1.9208  0.4460
 4062SOL    HW223646   0.324   3.692  15.825  0.7580  1.5397  0.2118
 4063SOL     OW23647   0.869   1.829  10.757 -0.2247 -0.7844 -0.6196
 4063SOL    HW123648   0.901   1.785  10.679 -0.7580  1.4172 -2.0838
 4063SOL    HW223649   0.827   1.912  10.733  0.8481 -0.5469 -1.6379
 4064SOL     OW23650   0.859   1.162  16.479 -0.1286 -0.4935 -0.4287
 4064SOL    HW123651   0.874   1.241  16.531  0.7381 -1.2244  0.4418
 4064SOL    HW223652   0.925   1.110  16.526  1.5992 -0.0709 -2.3885
 4065SOL     OW23653   2.721   3.106   6.269  0.4023  0.3090  0.1496
 4065SOL    HW123654   2.739   3.083   6.360  0.0286  0.0176  0.1495
 4065SOL    HW223655   2.632   3.140   6.270 -0.8864 -3.0085 -1.0201
 4066SOL     OW23656   4.575   3.096  14.843  0.0547 -0.2388 -0.7344
 4066SOL    HW123657   4.661   3.055  14.843  0.6408  1.0015  0.0422
 4066SOL    HW223658   4.539   3.072  14.757 -1.9333  0.5854 -0.1330
 4067SOL     OW23659   1.882   0.185   4.468  0.2675  0.3261 -0.5392
 4067SOL    HW123660   1.918   0.132   4.539  0.6510  2.1257  0.5913
 4067SOL    HW223661   1.855   0.268   4.507  0.5353  0.0501  0.2346
 4068SOL     OW23662   3.236   3.601   5.430  0.3726 -0.2218 -0.6799
 4068SOL    HW123663   3.177   3.640   5.494  0.5167  0.9660 -1.2745
 4068SOL    HW223664   3.277   3.537   5.488 -1.8425 -0.0477  1.1002
 4069SOL     OW23665   1.873   1.655   6.020 -0.5477 -0.1151 -0.4504
 4069SOL    HW123666   1.785   1.619   6.015 -1.3944  1.7406  1.1349
 4069SOL    HW223667   1.856   1.708   6.097  0.1963 -0.8218  0.2043
 4070SOL     OW23668   2.890   3.795   5.260  0.1667 -0.5118  0.9918
 4070SOL    HW123669   2.957   3.750   5.209 -0.1714  0.9095 -0.7205
 4070SOL    HW223670   2.867   3.724   5.320  0.9203 -1.5992 -0.0100
 4071SOL     OW23671   0.362   3.893  17.222 -0.2066 -0.2074 -0.2987
 4071SOL    HW123672   0.426   3.859  17.160  0.0865 -1.8490  0.9017
 4071SOL    HW223673   0.297   3.932  17.163  0.4562  2.6997  0.8660
 4072SOL     OW23674   4.001   3.552   5.923 -0.2029 -0.7488 -0.1942
 4072SOL    HW123675   3.926   3.603   5.953  0.7155 -0.5171  1.6705
 4072SOL    HW223676   4.007   3.482   5.988 -2.1954 -1.6580 -0.9852
 4073SOL     OW23677   0.020   4.651  10.865  0.2915 -0.7291 -0.3406
 4073SOL    HW123678   0.096   4.617  10.817  0.5705  1.0854 -1.1976
 4073SOL    HW223679   4.710   4.568  10.899  2.4844 -1.4225  0.0575
 4074SOL     OW23680   3.265   3.131  11.437  0.2823  0.0663 -0.0496
 4074SOL    HW123681   3.267   3.094  11.349  3.0062 -2.5141  1.0927
 4074SOL    HW223682   3.332   3.200  11.428  0.1365 -0.0033 -1.6605
 4075SOL     OW23683   2.089   1.681   8.988  0.0044  0.1180  0.5200
 4075SOL    HW123684   2.012   1.646   8.943  1.6810 -1.6132 -1.0034
 4075SOL    HW223685   2.152   1.615   8.958 -0.5680 -0.7291  1.1704
 4076SOL     OW23686   3.529   2.382   7.353 -0.0224 -0.1422 -0.3374
 4076SOL    HW123687   3.480   2.312   7.397  0.9859  0.3637  1.5907
 4076SOL    HW223688   3.582   2.343   7.283  0.0111  1.5999 -1.2620
 4077SOL     OW23689   4.036   2.113   0.817 -0.2105 -0.2327 -0.0936
 4077SOL    HW123690   4.047   2.018   0.807  1.0528 -0.0204 -0.7742
 4077SOL    HW223691   4.035   2.134   0.724 -0.4727 -2.0318 -0.4913
 4078SOL     OW23692   2.141   4.067   1.743 -0.4112 -0.2001 -0.3037
 4078SOL    HW123693   2.202   4.017   1.689 -0.3960 -1.4897  0.9119
 4078SOL    HW223694   2.164   4.151   1.703 -0.9087 -0.3097 -0.8150
 4079SOL     OW23695   2.054   2.138   5.783 -0.3667 -0.2756  0.0902
 4079SOL    HW123696   2.028   2.093   5.863  0.6594 -1.5908 -0.3055
 4079SOL    HW223697   2.091   2.061   5.740  0.6026  0.0280  0.3797
 4080SOL     OW23698   2.597   0.629  16.500 -0.4273 -0.2009 -0.0548
 4080SOL    HW123699   2.562   0.709  16.461 -0.2874  0.0381  0.3089
 4080SOL    HW223700   2.669   0.660  16.555 -0.5312 -1.1236  0.5948
 4081SOL     OW23701   1.732   1.449   8.088 -0.3970 -0.3438  0.1808
 4081SOL    HW123702   1.741   1.542   8.106 -1.5776 -0.0519 -0.6947
 4081SOL    HW223703   1.639   1.433   8.071 -0.0513 -0.7710 -1.3107
 4082SOL     OW23704   1.263   0.263   5.242 -0.0303 -0.0162  0.2376
 4082SOL    HW123705   1.300   0.190   5.291 -0.3213  0.1797  0.7485
 4082SOL    HW223706   1.348   0.301   5.220 -1.0315  2.4572  0.7151
 4083SOL     OW23707   3.154   2.240  15.834  0.2761  0.2964 -0.1416
 4083SOL    HW123708   3.202   2.243  15.917 -0.4962  0.0943  0.3069
 4083SOL    HW223709   3.199   2.305  15.779  0.6368  0.5007  0.4004
 4084SOL     OW23710   2.961   0.114   5.159 -0.1875  0.3769 -0.2080
 4084SOL    HW123711   2.951   0.112   5.064  0.5031 -0.9530 -0.2632
 4084SOL    HW223712   2.906   0.038   5.179 -1.3262  0.7584 -1.9214
 4085SOL     OW23713   1.618   4.391   8.136 -0.0850  0.2160  1.2473
 4085SOL    HW123714   1.552   4.386   8.205 -1.1445 -0.2906  0.2058
 4085SOL    HW223715   1.689   4.442   8.176  0.0470 -1.6626  3.3757
 4086SOL     OW23716   0.608   1.116   3.883 -0.2604  0.2036 -0.4851
 4086SOL    HW123717   0.629   1.082   3.796  0.1510  1.3453 -0.8303
 4086SOL    HW223718   0.513   1.126   3.890 -0.4040 -1.6078  0.1157
 4087SOL     OW23719   0.138   3.171   1.280 -0.6181  0.1186 -0.5204
 4087SOL    HW123720   0.212   3.231   1.289 -0.4747  0.3641 -3.4907
 4087SOL    HW223721   0.161   3.112   1.352 -0.8761  3.2442  2.0823
 4088SOL     OW23722   4.702   2.431  11.270 -0.3104 -0.2185  0.0009
 4088SOL    HW123723   4.622   2.433  11.217  0.4902 -0.9279 -1.2293
 4088SOL    HW223724   0.027   2.492  11.214  1.1536 -0.9551  0.4531
 4089SOL     OW23725   4.501   4.085   5.625  0.5889  0.2902 -0.8190
 4089SOL    HW123726   4.447   4.039   5.560 -0.0873 -0.2772  0.1370
 4089SOL    HW223727   4.589   4.071   5.590  0.3652  1.2263 -1.7563
 4090SOL     OW23728   3.971   2.734   4.170  0.2268  0.6086  0.1723
 4090SOL    HW123729   3.945   2.823   4.145  0.5104  0.7471  0.3740
 4090SOL    HW223730   3.982   2.762   4.261 -0.8848  0.2945  0.4135
 4091SOL     OW23731   3.867   3.526   1.717  0.2918  0.9119  0.2942
 4091SOL    HW123732   3.890   3.613   1.686  1.9517  0.1679 -0.5481
 4091SOL    HW223733   3.814   3.497   1.643  2.0321  0.1716 -0.6641
 4092SOL     OW23734   2.902   4.710   5.438 -0.2710 -0.0551  0.0508
 4092SOL    HW123735   2.997   4.696   5.434 -0.0266  1.2854  1.2840
 4092SOL    HW223736   2.913   0.078   5.466 -2.9354 -0.0786  1.2021
 4093SOL     OW23737   1.244   1.363   6.651 -0.5943 -0.4836 -0.5855
 4093SOL    HW123738   1.200   1.411   6.722  2.0222 -2.8225  2.6246
 4093SOL    HW223739   1.174   1.299   6.635 -0.3615 -1.0144  0.4493
 4094SOL     OW23740   0.184   1.354  11.528  0.0952 -0.0194  0.0655
 4094SOL    HW123741   0.198   1.391  11.441 -0.5193 -0.3514 -0.1760
 4094SOL    HW223742   0.260   1.399  11.566 -1.7124  0.8256  2.6902
 4095SOL     OW23743   4.450   1.577   6.109 -0.0022  0.5572 -0.2113
 4095SOL    HW123744   4.461   1.669   6.133 -3.2107  1.2400 -1.3547
 4095SOL    HW223745   4.427   1.591   6.017 -0.7947 -0.1855 -0.1235
 4096SOL     OW23746   0.456   1.258   2.200  0.1111  0.0213 -0.2252
 4096SOL    HW123747   0.444   1.244   2.294  1.2588  0.4399 -0.0161
 4096SOL    HW223748   0.373   1.222   2.169 -1.9712  2.0035  3.0533
 4097SOL     OW23749   2.603   2.423   3.311  0.0294  0.0869  0.4106
 4097SOL    HW123750   2.510   2.409   3.327 -0.7383  2.5706 -1.7786
 4097SOL    HW223751   2.594   2.470   3.228  0.7644  0.6634  0.6534
 4098SOL     OW23752   3.795   0.649   7.467 -0.2688 -0.0435 -0.3368
 4098SOL    HW123753   3.788   0.582   7.535 -0.5258 -0.7690 -1.0691
 4098SOL    HW223754   3.843   0.714   7.518  0.8277 -1.4590  0.4199
 4099SOL     OW23755   4.588   1.140   9.931  0.0583  0.2331  0.0401
 4099SOL    HW123756   4.634   1.222   9.948  1.8908 -0.6185 -0.8059
 4099SOL    HW223757   4.655   1.076   9.953 -1.3453 -1.6096 -1.0363
 4100SOL     OW23758   1.568   2.071   5.394 -0.2277 -0.3297  0.0708
 4100SOL    HW123759   1.629   2.047   5.323  1.1799  0.9682  0.8271
 4100SOL    HW223760   1.577   2.001   5.458 -1.4845  0.6637  1.3262
 4101SOL     OW23761   2.985   2.585   1.076  0.0970 -0.0408 -0.3987
 4101SOL    HW123762   3.080   2.587   1.090 -0.0038 -0.4434  0.2947
 4101SOL    HW223763   2.953   2.622   1.158  0.7335  0.9550 -0.5937
 4102SOL     OW23764   3.862   0.853   4.234  0.6080 -0.3398  0.5418
 4102SOL    HW123765   3.834   0.763   4.222  0.9492 -0.2477 -0.8980
 4102SOL    HW223766   3.782   0.905   4.227  0.4690 -0.6378 -0.0546
 4103SOL     OW23767   2.671   4.178   7.971 -0.3840  0.6896  1.0564
 4103SOL    HW123768   2.738   4.200   8.036  0.7474 -0.5213  0.2980
 4103SOL    HW223769   2.599   4.180   8.034  0.5726  0.8346  2.1402
 4104SOL     OW23770   1.403   1.172  12.869 -0.1446  0.0546 -0.4771
 4104SOL    HW123771   1.452   1.254  12.869  0.0348 -0.0621  2.1222
 4104SOL    HW223772   1.390   1.163  12.963 -1.1111  1.4717 -0.4832
 4105SOL     OW23773   1.480   1.476   4.653 -0.5016 -0.2566  0.3264
 4105SOL    HW123774   1.537   1.456   4.579 -1.2054  0.0271 -0.2906
 4105SOL    HW223775   1.503   1.565   4.679 -0.1673 -0.0443 -0.6833
 4106SOL     OW23776   3.391   0.913   7.199 -0.7650  0.0838  0.8333
 4106SOL    HW123777   3.382   0.818   7.212 -1.1461  0.1402  0.9635
 4106SOL    HW223778   3.467   0.930   7.255 -0.3037 -1.6095  0.7478
 4107SOL     OW23779   1.924   4.435  17.670 -0.3347  0.4787  0.6997
 4107SOL    HW123780   1.856   4.501  17.686 -2.1946 -1.4898  0.8010
 4107SOL    HW223781   1.991   4.491  17.631 -0.4445 -1.3793 -2.1518
 4108SOL     OW23782   0.020   0.526  12.273  0.5097  0.2890 -0.0262
 4108SOL    HW123783   0.096   0.567  12.315  1.0265 -0.7091  0.0213
 4108SOL    HW223784   4.667   0.544  12.329 -1.3188 -1.5564 -1.9180
 4109SOL     OW23785   1.459   0.277   5.033 -0.0626 -0.5135  0.2807
 4109SOL    HW123786   1.370   0.311   5.023  0.7064  0.3524 -3.5416
 4109SOL    HW223787   1.503   0.346   4.983  1.5786 -0.1554  2.2012
 4110SOL     OW23788   3.912   1.910  17.182  0.2374 -0.4903 -0.0953
 4110SOL    HW123789   3.840   1.965  17.152  1.2545 -0.1420 -1.8974
 4110SOL    HW223790   3.969   1.981  17.211 -0.0798 -0.0712 -0.5003
 4111SOL     OW23791   3.856   1.429   1.886  0.3709  0.3223 -0.0205
 4111SOL    HW123792   3.801   1.364   1.842 -0.3482  0.8711  0.0760
 4111SOL    HW223793   3.812   1.416   1.970  0.3324 -0.1048 -0.1069
 4112SOL     OW23794   3.157   2.720  13.504  0.3628 -0.3809  0.3086
 4112SOL    HW123795   3.200   2.765  13.432 -2.3647  1.7831  0.0429
 4112SOL    HW223796   3.074   2.683  13.473  0.2909  1.5586 -1.7688
 4113SOL     OW23797   2.650   1.235   6.089  0.0256 -0.2048  0.3547
 4113SOL    HW123798   2.662   1.304   6.153 -1.2173  1.1333 -0.8501
 4113SOL    HW223799   2.736   1.217   6.053  0.2254  0.6505  0.4041
 4114SOL     OW23800   0.389   2.621   6.834  0.1546 -0.0747 -0.0815
 4114SOL    HW123801   0.346   2.646   6.916  0.3558  0.9677 -0.2982
 4114SOL    HW223802   0.312   2.602   6.779 -0.0565 -0.5728  0.3807
 4115SOL     OW23803   2.761   3.101  17.600 -0.1327  0.1896  0.1918
 4115SOL    HW123804   2.831   3.048  17.562  0.1238  2.5164 -2.5571
 4115SOL    HW223805   2.772   3.077   0.000  1.7617  0.4224  0.0331
 4116SOL     OW23806   2.521   2.633  12.338 -0.0538  0.3947  0.0607
 4116SOL    HW123807   2.524   2.581  12.257  3.6348 -1.6160  1.4641
 4116SOL    HW223808   2.508   2.722  12.307 -2.0352  1.4980  3.9875
 4117SOL     OW23809   3.937   4.591   0.105  0.5226  0.2503  0.6440
 4117SOL    HW123810   4.027   4.566   0.083  0.8528  1.7621  0.2152
 4117SOL    HW223811   3.914   4.506   0.141 -0.4638 -1.0500 -2.9970
 4118SOL     OW23812   2.673   4.597  12.864  0.2031 -0.0702 -0.1353
 4118SOL    HW123813   2.621   4.655  12.807 -0.7006 -2.0392 -1.3133
 4118SOL    HW223814   2.760   4.619  12.831  0.7895 -4.0182 -1.2155
 4119SOL     OW23815   1.363   2.109   9.329  0.0447  0.3892 -0.5817
 4119SOL    HW123816   1.414   2.094   9.408 -0.6500  1.5264  0.0938
 4119SOL    HW223817   1.412   2.188   9.306 -1.4671  1.7882  1.0070
 4120SOL     OW23818   0.608   0.475   9.744  0.5825 -0.2227  0.0478
 4120SOL    HW123819   0.636   0.399   9.795 -0.6803  0.4518  1.7513
 4120SOL    HW223820   0.646   0.547   9.794 -0.9660  0.2593  0.5324
 4121SOL     OW23821   4.450   2.968  12.413  0.4166  0.0029  0.0534
 4121SOL    HW123822   4.356   2.979  12.420  0.6572 -0.1461  3.6700
 4121SOL    HW223823   4.443   2.881  12.373  0.3782  0.3737 -0.7478
 4122SOL     OW23824   2.496   2.403   5.357  0.1728 -0.5728 -0.5133
 4122SOL    HW123825   2.475   2.364   5.441 -0.2667  2.7875  0.9440
 4122SOL    HW223826   2.588   2.422   5.372 -0.3188  0.9367  0.5950
 4123SOL     OW23827   2.819   1.367   9.892  0.5727  0.6319  0.4685
 4123SOL    HW123828   2.841   1.382   9.984 -0.8923 -0.6136  1.0264
 4123SOL    HW223829   2.800   1.457   9.868 -1.0832  0.6057  1.6864
 4124SOL     OW23830   2.576   0.170   1.947 -0.3334 -0.2315 -0.3666
 4124SOL    HW123831   2.613   0.145   1.863  0.3634  2.2927 -0.8009
 4124SOL    HW223832   2.513   0.239   1.924  1.1212  0.9129 -0.8875
 4125SOL     OW23833   4.320   2.258   5.588  0.6122 -0.3434  0.0960
 4125SOL    HW123834   4.348   2.298   5.670 -0.7007  1.1164 -0.1745
 4125SOL    HW223835   4.359   2.324   5.531  1.3959  1.3779  2.6293
 4126SOL     OW23836   4.010   0.930  14.028 -0.4219  0.3727  0.2241
 4126SOL    HW123837   3.974   0.845  14.053  0.9893 -0.2587  0.1088
 4126SOL    HW223838   3.988   0.923  13.935 -1.4884 -0.7697  0.5658
 4127SOL     OW23839   1.639   1.356   5.319 -0.2901  0.4558  0.4128
 4127SOL    HW123840   1.719   1.346   5.370 -0.5290 -0.9571  0.5003
 4127SOL    HW223841   1.595   1.430   5.361  1.0238  1.4350  0.0408
 4128SOL     OW23842   0.206   3.981   8.550  0.2549 -0.0712  0.1842
 4128SOL    HW123843   0.178   3.889   8.547 -1.4456  0.5098 -1.4978
 4128SOL    HW223844   0.175   4.004   8.637 -1.2844 -0.0797 -0.3686
 4129SOL     OW23845   0.930   2.520   0.373  0.0409 -0.5720 -0.0270
 4129SOL    HW123846   0.967   2.604   0.399 -0.4010 -0.0589 -1.0842
 4129SOL    HW223847   0.851   2.518   0.427  0.5347  1.2264  0.7438
 4130SOL     OW23848   2.206   4.000  11.081 -0.6175  0.4337  0.2505
 4130SOL    HW123849   2.241   4.058  11.013 -0.8002  0.4666  0.1840
 4130SOL    HW223850   2.293   3.985  11.118 -0.9932  1.7932  1.7470
 4131SOL     OW23851   1.133   0.554  10.482  0.2257  0.3690  0.1636
 4131SOL    HW123852   1.153   0.563  10.575 -1.8687 -1.2378  0.7586
 4131SOL    HW223853   1.058   0.494  10.476 -0.6206  1.1839  2.4481
 4132SOL     OW23854   2.277   3.908  12.928  0.1887  0.6460 -0.7958
 4132SOL    HW123855   2.269   3.959  13.009 -0.4386  2.0004 -1.7096
 4132SOL    HW223856   2.190   3.869  12.922  1.3423 -1.8718 -0.9833
 4133SOL     OW23857   4.667   2.682   4.882  0.1904  0.1798 -0.6787
 4133SOL    HW123858   4.707   2.650   4.801  0.2540  0.8387 -0.9105
 4133SOL    HW223859   4.649   2.596   4.920  0.2816  0.3020 -0.3619
 4134SOL     OW23860   2.458   0.123   5.862 -0.0974 -0.1666  0.0089
 4134SOL    HW123861   2.469   0.202   5.808  2.1397  0.3589  1.2297
 4134SOL    HW223862   2.367   0.105   5.840 -0.2146 -1.0444  1.2878
 4135SOL     OW23863   3.493   4.553   4.247 -0.1917 -0.8034 -0.3419
 4135SOL    HW123864   3.551   4.570   4.173 -1.1993  0.1830 -0.9129
 4135SOL    HW223865   3.423   4.511   4.197  0.0243  2.4872 -3.4528
 4136SOL     OW23866   2.029   3.638  14.360 -0.1384 -0.4842 -0.3489
 4136SOL    HW123867   2.072   3.709  14.408 -2.2557 -0.7417  1.9717
 4136SOL    HW223868   2.017   3.567  14.423  3.2383 -1.1868 -0.5125
 4137SOL     OW23869   1.971   2.709   8.141  0.3123  0.1036  0.0260
 4137SOL    HW123870   1.900   2.651   8.170  0.0476 -0.0767 -1.0013
 4137SOL    HW223871   2.044   2.647   8.145 -0.0478 -0.1360  3.1345
 4138SOL     OW23872   0.336   1.804   4.578 -0.2495 -0.2379  0.3953
 4138SOL    HW123873   0.244   1.776   4.569 -0.3572  0.0664  0.5691
 4138SOL    HW223874   0.329   1.892   4.543  1.5887 -0.1102  0.3679
 4139SOL     OW23875   3.742   4.068   4.313  0.0408 -0.2973 -0.2392
 4139SOL    HW123876   3.745   3.973   4.300  0.5929 -0.3086 -0.0324
 4139SOL    HW223877   3.767   4.069   4.406  0.6957  0.3506 -0.4230
 4140SOL     OW23878   1.227   3.810   7.121 -0.3215  0.3667  0.0930
 4140SOL    HW123879   1.279   3.766   7.054 -2.2417 -1.1820 -0.3919
 4140SOL    HW223880   1.198   3.734   7.171 -0.6846  0.9256  0.7354
 4141SOL     OW23881   2.248   0.306  12.386 -0.4007 -0.2396 -0.2016
 4141SOL    HW123882   2.165   0.308  12.338  1.4206 -0.4612 -3.3524
 4141SOL    HW223883   2.231   0.358  12.465  1.2790  0.7288 -0.4833
 4142SOL     OW23884   2.305   0.722   3.431 -0.5496  0.4429 -0.0687
 4142SOL    HW123885   2.286   0.752   3.342 -1.4129 -2.1374 -0.7666
 4142SOL    HW223886   2.395   0.746   3.449  0.1999 -2.6508  0.4348
 4143SOL     OW23887   3.996   2.138  11.468 -0.1042 -0.1587  0.3386
 4143SOL    HW123888   3.941   2.206  11.507  0.2565  1.5855 -2.2287
 4143SOL    HW223889   3.941   2.062  11.491 -0.8191 -0.0489 -0.9994
 4144SOL     OW23890   1.087   0.818  14.760 -0.2025 -0.4837 -0.0262
 4144SOL    HW123891   1.048   0.730  14.756 -0.9853 -0.1378  0.0301
 4144SOL    HW223892   1.127   0.815  14.847 -0.5575 -0.4937  0.1365
 4145SOL     OW23893   0.664   0.728   4.515 -0.5088 -0.2698 -0.2564
 4145SOL    HW123894   0.658   0.633   4.520 -0.2568 -0.3301 -1.0471
 4145SOL    HW223895   0.575   0.760   4.531  0.0785  0.8094  0.8956
 4146SOL     OW23896   4.233   1.583   3.663  0.0595 -0.0795  0.1144
 4146SOL    HW123897   4.205   1.493   3.677 -0.8898 -0.0743 -1.7757
 4146SOL    HW223898   4.286   1.571   3.585 -2.9075  1.3253 -2.1016
 4147SOL     OW23899   0.303   4.404   5.503  0.5045 -0.4490 -0.3796
 4147SOL    HW123900   0.389   4.369   5.480  1.4587  1.3103  0.4643
 4147SOL    HW223901   0.297   4.472   5.436  0.3996  1.0735  1.1440
 4148SOL     OW23902   1.844   0.434   4.614 -0.2684 -0.0053  0.2403
 4148SOL    HW123903   1.757   0.473   4.623 -0.5258 -0.8835  1.5888
 4148SOL    HW223904   1.852   0.395   4.701 -2.4740  0.5040  0.6569
 4149SOL     OW23905   1.326   2.735   6.884 -0.0746  0.7207 -0.0405
 4149SOL    HW123906   1.287   2.800   6.941  0.0309  0.2047  0.6132
 4149SOL    HW223907   1.411   2.766   6.852  0.0620 -0.3015 -0.6745
 4150SOL     OW23908   4.284   4.130   1.505  0.4528 -0.1541 -0.0648
 4150SOL    HW123909   4.297   4.133   1.600 -2.2753  0.0386  0.3179
 4150SOL    HW223910   4.376   4.107   1.494  0.7420  0.7686  0.4809
 4151SOL     OW23911   0.739   0.224  15.221  0.3640  0.6666 -0.1006
 4151SOL    HW123912   0.658   0.183  15.252  0.5872 -0.4754 -1.0379
 4151SOL    HW223913   0.711   0.315  15.214  1.3111  0.6239 -4.4903
 4152SOL     OW23914   3.083   4.477   9.150 -0.8542 -0.0087 -0.4165
 4152SOL    HW123915   3.178   4.467   9.158 -0.8629 -0.8787 -1.3663
 4152SOL    HW223916   3.068   4.478   9.245 -0.1500  1.2396 -0.3191
 4153SOL     OW23917   1.193   3.329   5.261  0.3718  0.6521  0.2422
 4153SOL    HW123918   1.144   3.403   5.297  0.3425  0.3809  0.7732
 4153SOL    HW223919   1.207   3.282   5.343  0.8584 -0.0701 -0.2532
 4154SOL     OW23920   1.968   1.535  13.983 -0.2763 -0.3665  0.4339
 4154SOL    HW123921   2.050   1.555  14.029  0.5815 -0.3035 -1.1050
 4154SOL    HW223922   1.991   1.528  13.890 -1.9091  1.3708 -0.1012
 4155SOL     OW23923   2.754   2.877   7.275 -0.0860 -0.2379  0.3386
 4155SOL    HW123924   2.660   2.870   7.256 -0.4721 -4.0244  3.6324
 4155SOL    HW223925   2.786   2.960   7.240 -0.2406  0.5854  2.1638
 4156SOL     OW23926   3.950   2.088   5.320 -0.8115  0.3129  0.1629
 4156SOL    HW123927   4.043   2.089   5.339 -0.8894 -0.6716  0.5756
 4156SOL    HW223928   3.944   1.993   5.319  2.5335  0.0887  2.7828
 4157SOL     OW23929   3.411   0.377  13.883  0.6349 -0.4403 -0.1593
 4157SOL    HW123930   3.364   0.347  13.961 -0.9054 -1.4933 -1.4868
 4157SOL    HW223931   3.489   0.325  13.900 -0.3902 -1.6408  0.8514
 4158SOL     OW23932   2.480   3.916   4.139  0.1916  0.2052  0.6849
 4158SOL    HW123933   2.413   3.852   4.162 -0.9669  0.9649 -0.5515
 4158SOL    HW223934   2.491   3.893   4.046  1.5855  0.5993  0.7475
 4159SOL     OW23935   4.036   1.188  14.202  0.0795 -0.3614 -0.1014
 4159SOL    HW123936   3.958   1.169  14.254 -0.0101  0.0685 -0.0772
 4159SOL    HW223937   4.029   1.281  14.179 -0.5490 -0.3349  0.1977
 4160SOL     OW23938   3.382   4.717  17.087  0.1956  0.6221  0.0520
 4160SOL    HW123939   3.398   0.072  17.034  0.3887  1.4254  1.2977
 4160SOL    HW223940   3.383   4.647  17.021  1.5929 -0.0562  0.8051
 4161SOL     OW23941   0.337   2.683   2.168 -0.4974  0.3553  0.1588
 4161SOL    HW123942   0.414   2.674   2.225  0.2706  0.6352 -0.8385
 4161SOL    HW223943   0.261   2.669   2.224 -1.2484 -1.3921 -1.3264
 4162SOL     OW23944   2.894   3.028   8.727  0.5201 -0.2317 -0.3377
 4162SOL    HW123945   2.938   2.976   8.795  0.8671  0.4383 -0.0564
 4162SOL    HW223946   2.921   3.117   8.746  0.1938  0.3964 -2.7562
 4163SOL     OW23947   0.060   3.939  15.463 -0.4041  0.1391  0.0178
 4163SOL    HW123948   4.701   3.964  15.418  0.2126 -0.2285 -1.3099
 4163SOL    HW223949   0.111   3.890  15.399  0.4494 -0.8749  1.5015
 4164SOL     OW23950   2.497   2.097   2.342 -0.2318 -0.1691  0.0141
 4164SOL    HW123951   2.424   2.158   2.338  1.6180  2.1020  0.9106
 4164SOL    HW223952   2.523   2.092   2.434  1.9896  0.2084 -0.5845
 4165SOL     OW23953   3.658   2.411   4.033  0.6468  0.0118  0.3928
 4165SOL    HW123954   3.744   2.453   4.039  1.0705 -0.9041  0.7629
 4165SOL    HW223955   3.665   2.361   3.952 -3.0703  0.3196 -0.0938
 4166SOL     OW23956   2.713   1.321  17.561  0.2746  0.3548  0.2746
 4166SOL    HW123957   2.776   1.323  17.634 -0.2698  1.9027  0.7044
 4166SOL    HW223958   2.749   1.241  17.523 -1.3906 -0.6345  0.7812
 4167SOL     OW23959   1.440   2.699   2.630 -0.0371 -0.4853  0.0058
 4167SOL    HW123960   1.516   2.704   2.572 -0.9592  1.2414 -1.0436
 4167SOL    HW223961   1.371   2.748   2.585  0.5267 -0.3806 -0.7391
 4168SOL     OW23962   4.349   0.746   7.606 -0.0119  0.1822 -0.3308
 4168SOL    HW123963   4.444   0.741   7.619  0.5631 -0.3747 -4.7338
 4168SOL    HW223964   4.346   0.840   7.626 -0.0975  0.4125 -1.3978
 4169SOL     OW23965   4.512   1.190   7.822  0.4167 -0.5155 -0.3927
 4169SOL    HW123966   4.480   1.254   7.758 -0.9601 -0.1308  0.6986
 4169SOL    HW223967   4.592   1.217   7.867 -0.4461 -0.2166  0.9612
 4170SOL     OW23968   2.826   3.865   2.373  0.2317 -0.6722 -0.0591
 4170SOL    HW123969   2.897   3.928   2.363 -0.2481  0.0140  0.9238
 4170SOL    HW223970   2.849   3.810   2.298  2.1150 -0.3751  0.2878
 4171SOL     OW23971   4.256   0.573   5.901 -0.0480 -0.0290  0.1615
 4171SOL    HW123972   4.172   0.575   5.947 -0.8449 -0.6841 -1.2772
 4171SOL    HW223973   4.306   0.517   5.961 -1.9166 -0.7949  0.9877
 4172SOL     OW23974   1.115   3.090   5.673  0.0974  0.4516  0.0294
 4172SOL    HW123975   1.170   3.158   5.633  1.1548 -0.0958  0.5411
 4172SOL    HW223976   1.037   3.087   5.617  0.4569  0.1283 -0.4589
 4173SOL     OW23977   0.876   0.967   2.070 -0.2841 -0.3727 -0.4455
 4173SOL    HW123978   0.868   0.907   1.996  0.9070 -1.0632 -0.0209
 4173SOL    HW223979   0.788   1.002   2.080  0.1316  0.9290 -1.2787
 4174SOL     OW23980   3.322   3.875   2.346 -0.1187 -0.4991  0.4514
 4174SOL    HW123981   3.344   3.806   2.408 -2.0178 -0.9248  0.6472
 4174SOL    HW223982   3.407   3.903   2.313 -0.7892  1.6660  0.5473
 4175SOL     OW23983   2.228   2.449  11.820 -0.2726 -0.2963 -0.1996
 4175SOL    HW123984   2.206   2.358  11.805 -1.9396  0.7395 -3.8958
 4175SOL    HW223985   2.150   2.487  11.781  0.5862 -0.5287 -2.1354
 4176SOL     OW23986   1.887   0.388   7.314 -0.7158  0.4170  0.2358
 4176SOL    HW123987   1.859   0.364   7.226  0.0622 -1.1487  0.4125
 4176SOL    HW223988   1.979   0.365   7.300 -0.5235  0.8340  0.8166
 4177SOL     OW23989   4.196   0.873  10.184 -0.5687 -0.3205 -0.2981
 4177SOL    HW123990   4.157   0.852  10.269  0.2013  0.3956  0.2378
 4177SOL    HW223991   4.157   0.959  10.170  2.7992  1.2911  0.1283
 4178SOL     OW23992   3.944   3.703   9.876  0.5783  0.3248 -0.1066
 4178SOL    HW123993   3.965   3.650   9.798 -0.7801  0.0606 -0.2934
 4178SOL    HW223994   3.972   3.646   9.947  0.8061  0.0391 -0.4216
 4179SOL     OW23995   4.059   0.608   8.031 -0.3885  0.5059 -0.5427
 4179SOL    HW123996   3.964   0.619   8.031 -0.2750  1.4741 -3.4103
 4179SOL    HW223997   4.072   0.549   7.957  1.1576 -2.6537  2.2699
 4180SOL     OW23998   1.557   4.252   3.892 -0.1663 -0.9237  0.4799
 4180SOL    HW123999   1.541   4.328   3.948  0.0390 -0.0740 -0.6022
 4180SOL    HW224000   1.651   4.245   3.910 -0.0593 -0.0319  0.2524
 4181SOL     OW24001   0.762   1.295   4.050  0.0689  0.1321  0.4528
 4181SOL    HW124002   0.724   1.262   3.968  1.4776 -0.4364  0.0337
 4181SOL    HW224003   0.736   1.229   4.115 -2.2820 -0.4436 -1.0701
 4182SOL     OW24004   4.413   3.340  16.921  0.5378 -0.1110  0.0206
 4182SOL    HW124005   4.480   3.384  16.973  1.0906 -0.4794 -0.3721
 4182SOL    HW224006   4.458   3.303  16.845  2.0001  0.9493  0.3893
 4183SOL     OW24007   3.498   1.348   1.149 -0.4029 -0.2435  0.2247
 4183SOL    HW124008   3.470   1.434   1.118  1.2656  0.1618 -0.1422
 4183SOL    HW224009   3.503   1.305   1.063  2.7740  0.6154 -0.0349
 4184SOL     OW24010   4.603   3.752  12.350  0.0296  0.4616 -0.3008
 4184SOL    HW124011   4.531   3.807  12.320  0.3525  2.7073  3.0212
 4184SOL    HW224012   4.587   3.674  12.297 -1.0905 -0.7383  1.8255
 4185SOL     OW24013   0.815   2.577   6.677 -0.0492 -0.6697  0.0300
 4185SOL    HW124014   0.784   2.609   6.592  0.3966 -3.7935 -1.3084
 4185SOL    HW224015   0.891   2.521   6.663  1.1825  1.2255 -0.9255
 4186SOL     OW24016   4.676   1.975  16.010  0.8741  0.0114 -0.4087
 4186SOL    HW124017   4.690   2.007  15.921  0.6227 -0.6001 -0.6687
 4186SOL    HW224018   4.675   2.055  16.063  0.2467  0.9545 -1.8504
 4187SOL     OW24019   2.706   3.420   2.585 -0.4774 -0.1371 -0.1737
 4187SOL    HW124020   2.770   3.379   2.644 -1.1062 -1.9847 -0.7614
 4187SOL    HW224021   2.709   3.509   2.619 -2.3655 -0.2744  0.3445
 4188SOL     OW24022   4.107   1.217   0.134  0.3329 -0.0757 -0.3415
 4188SOL    HW124023   4.099   1.121   0.128  0.3702 -0.2936  2.6948
 4188SOL    HW224024   4.156   1.222   0.216  0.3092  0.0694 -0.3374
 4189SOL     OW24025   1.522   2.193  15.454  0.2381 -0.2927 -0.0782
 4189SOL    HW124026   1.507   2.135  15.529 -1.3847  0.1499 -0.0462
 4189SOL    HW224027   1.507   2.280  15.493 -0.7272 -0.4390 -0.1170
 4190SOL     OW24028   1.898   2.374   6.237  0.0908  0.3117 -0.4504
 4190SOL    HW124029   1.830   2.318   6.276  0.4677  0.6367  0.6685
 4190SOL    HW224030   1.868   2.377   6.146  1.3692 -0.2982 -0.8791
 4191SOL     OW24031   1.363   2.929  13.902 -0.1165  0.4286 -0.0069
 4191SOL    HW124032   1.453   2.909  13.876 -0.7126 -1.8015 -0.3689
 4191SOL    HW224033   1.377   2.960  13.991  2.8105  0.5900 -0.5151
 4192SOL     OW24034   0.097   2.927  10.109  0.1750 -0.3192 -0.0550
 4192SOL    HW124035   0.164   2.875  10.065 -1.9516 -3.2574  0.1057
 4192SOL    HW224036   0.141   2.927  10.194  2.0553 -2.3997 -1.0471
 4193SOL     OW24037   2.221   2.183   6.949  0.2684 -0.5863 -0.1525
 4193SOL    HW124038   2.261   2.269   6.942 -0.3542 -0.3440 -0.7598
 4193SOL    HW224039   2.136   2.205   6.988  0.6894  0.3499  0.2173
 4194SOL     OW24040   1.109   0.358   9.640  0.0364  0.1055 -0.4190
 4194SOL    HW124041   1.188   0.311   9.617  0.6727  0.3318  1.2887
 4194SOL    HW224042   1.082   0.392   9.555  2.3883  2.9410 -0.0157
 4195SOL     OW24043   1.858   4.680  11.070 -0.1288  0.0714  0.3059
 4195SOL    HW124044   1.887   4.701  10.981  0.1236 -0.5618  0.2421
 4195SOL    HW224045   1.904   4.596  11.073  2.9719  1.7885  1.1125
 4196SOL     OW24046   4.604   3.318  17.556  0.6798 -0.0963 -0.0180
 4196SOL    HW124047   4.672   3.287  17.496 -0.2056 -0.3506 -0.8954
 4196SOL    HW224048   4.620   3.265  17.633  2.8960  1.3372  0.4943
 4197SOL     OW24049   0.813   3.815   7.452 -0.2426 -0.5217  0.6962
 4197SOL    HW124050   0.763   3.851   7.525 -1.7723  0.0996 -0.6687
 4197SOL    HW224051   0.871   3.759   7.504  0.7864  0.0239  0.1374
 4198SOL     OW24052   1.190   3.168  15.022 -0.4132  0.3353  0.4733
 4198SOL    HW124053   1.263   3.214  14.981  0.0232 -1.5887 -0.9381
 4198SOL    HW224054   1.217   3.076  15.022  1.6210  0.9146 -1.4780
 4199SOL     OW24055   4.286   3.417  15.504  0.2421 -0.3953 -0.5093
 4199SOL    HW124056   4.206   3.442  15.459  0.1199 -1.3610 -0.8183
 4199SOL    HW224057   4.331   3.501  15.513  0.4383 -0.5460 -0.0602
 4200SOL     OW24058   2.097   3.037   9.358 -0.0669  0.3433 -0.0205
 4200SOL    HW124059   2.169   2.973   9.362 -0.9909 -0.6420  1.1367
 4200SOL    HW224060   2.141   3.088   9.290 -1.9155 -0.3146 -1.7052
 4201SOL     OW24061   4.603   3.538   3.725 -0.7433  0.2386  0.5148
 4201SOL    HW124062   4.571   3.628   3.718  1.2031  0.8996  0.2519
 4201SOL    HW224063   4.546   3.485   3.669 -0.6859  1.2458 -0.5034
 4202SOL     OW24064   1.226   2.512   5.145 -0.2695 -0.7105  0.1135
 4202SOL    HW124065   1.228   2.497   5.051  0.4791  1.9057 -0.2871
 4202SOL    HW224066   1.135   2.518   5.173 -0.2422  0.0724  0.0224
 4203SOL     OW24067   1.246   0.540  15.050  0.0730 -0.0187  0.3031
 4203SOL    HW124068   1.243   0.636  15.050 -1.1257 -0.0590  0.5043
 4203SOL    HW224069   1.250   0.522  14.956  0.5627  1.0567  0.1165
 4204SOL     OW24070   3.834   2.976   2.481  0.1459 -0.3495  0.0525
 4204SOL    HW124071   3.904   3.004   2.541  0.7209  0.2481 -0.9063
 4204SOL    HW224072   3.858   2.888   2.452 -1.2722 -1.6420  2.7347
 4205SOL     OW24073   0.930   3.324   6.147 -0.2720  0.0942  0.3883
 4205SOL    HW124074   0.993   3.334   6.218 -1.6296 -0.2532  1.6290
 4205SOL    HW224075   0.943   3.233   6.120  1.3574  0.4207  0.0663
 4206SOL     OW24076   3.679   4.390  14.317 -0.3519 -0.0667 -0.8813
 4206SOL    HW124077   3.738   4.428  14.251  0.3606  0.0655 -0.1716
 4206SOL    HW224078   3.737   4.362  14.388  1.0925  0.2614 -1.9276
 4207SOL     OW24079   0.857   0.065   3.867 -0.1178  0.0864  0.4304
 4207SOL    HW124080   0.937   0.070   3.919  0.2684  3.8428 -0.4975
 4207SOL    HW224081   0.869   0.120   3.789 -0.7722 -0.5455 -0.1062
 4208SOL     OW24082   3.828   1.677   3.004  0.8942  0.1051  0.5392
 4208SOL    HW124083   3.807   1.656   2.913  2.8245  1.0805 -0.1387
 4208SOL    HW224084   3.909   1.728   2.999  0.4562  0.8051  0.6138
 4209SOL     OW24085   2.906   1.658   1.840  0.4223  0.1833  0.7190
 4209SOL    HW124086   2.849   1.730   1.866 -2.6794 -1.5789 -1.2190
 4209SOL    HW224087   2.856   1.584   1.876 -1.6138  0.4197 -1.6266
 4210SOL     OW24088   4.549   4.266   4.152  0.7214 -0.6841  0.6024
 4210SOL    HW124089   4.596   4.187   4.179 -0.8516 -0.9923  2.4088
 4210SOL    HW224090   4.589   4.329   4.212  0.4504 -0.4722  0.5591
 4211SOL     OW24091   3.707   4.417   9.203 -0.0356  0.7457  0.5911
 4211SOL    HW124092   3.721   4.509   9.225 -1.8507  1.2507 -0.3087
 4211SOL    HW224093   3.657   4.433   9.122 -0.5831  2.2985  1.2327
 4212SOL     OW24094   4.540   4.354   5.450  0.4597 -0.0018  0.4922
 4212SOL    HW124095   4.607   4.333   5.515 -0.6005 -2.0058  0.9180
 4212SOL    HW224096   4.582   4.411   5.386 -0.8942  0.7783  0.2957
 4213SOL     OW24097   1.592   1.008   7.104 -0.9746  0.9534 -0.5635
 4213SOL    HW124098   1.531   1.074   7.071  0.3296  2.7257  0.5637
 4213SOL    HW224099   1.649   0.996   7.028 -0.3413 -0.9381  0.2276
 4214SOL     OW24100   2.564   4.468   5.144 -0.0650 -0.4420 -0.2968
 4214SOL    HW124101   2.504   4.406   5.102 -1.3548  1.6614 -1.5609
 4214SOL    HW224102   2.632   4.404   5.165  1.2280  0.4761 -1.6948
 4215SOL     OW24103   1.806   4.466   6.074  0.4570 -0.0387  0.3885
 4215SOL    HW124104   1.756   4.543   6.048 -0.4532 -0.1413  1.8011
 4215SOL    HW224105   1.848   4.449   5.990  2.5734 -2.4856  1.9325
 4216SOL     OW24106   1.281   3.096   4.139 -0.0963  0.4863  0.0287
 4216SOL    HW124107   1.210   3.063   4.084  0.3227  0.6594 -0.6071
 4216SOL    HW224108   1.358   3.100   4.082  1.0115 -0.5848  1.4365
 4217SOL     OW24109   3.674   1.815   9.631  0.3955 -0.5729  0.2453
 4217SOL    HW124110   3.708   1.839   9.717 -0.3278  1.0245  0.0942
 4217SOL    HW224111   3.582   1.814   9.657  0.6958  1.0443  1.3313
 4218SOL     OW24112   1.166   0.275  10.252  0.4806  0.0433 -0.0139
 4218SOL    HW124113   1.179   0.183  10.230 -1.7337 -0.3210  0.1725
 4218SOL    HW224114   1.093   0.273  10.314  1.0727 -1.1914  0.6370
 4219SOL     OW24115   4.597   4.272   5.811  0.0536  0.2337 -0.4928
 4219SOL    HW124116   4.504   4.250   5.813  0.2137 -0.2053  2.4602
 4219SOL    HW224117   4.630   4.193   5.768 -2.1330  0.5989 -2.7780
 4220SOL     OW24118   0.249   0.877   7.553  0.3098 -0.3870  0.4542
 4220SOL    HW124119   0.325   0.876   7.495 -0.0930 -1.1909 -0.0616
 4220SOL    HW224120   0.177   0.840   7.503  0.4388 -1.4709  1.0549
 4221SOL     OW24121   1.455   2.889   9.954 -0.3282  0.1583 -0.8502
 4221SOL    HW124122   1.458   2.978   9.989 -3.2883 -0.5663  1.2534
 4221SOL    HW224123   1.399   2.856  10.024  0.3604 -0.1905 -0.4660
 4222SOL     OW24124   4.408   4.517   9.856  0.4452  0.1877  0.6469
 4222SOL    HW124125   4.381   4.554   9.940 -1.2777  1.3919 -0.4293
 4222SOL    HW224126   4.336   4.462   9.825  0.9226 -0.6552  1.0413
 4223SOL     OW24127   0.228   4.072   3.259  0.0434 -0.2326 -0.0174
 4223SOL    HW124128   0.187   4.008   3.317  0.2637  1.2463  1.7459
 4223SOL    HW224129   0.319   4.043   3.266  0.7518  1.8345 -0.4943
 4224SOL     OW24130   3.812   3.639  15.920 -0.7982 -0.4789 -0.1157
 4224SOL    HW124131   3.879   3.622  15.853 -1.2857 -3.0341  0.0700
 4224SOL    HW224132   3.832   3.727  15.951 -2.0683 -0.0936 -0.4209
 4225SOL     OW24133   1.731   0.204   4.039 -0.3673 -0.5132 -0.8617
 4225SOL    HW124134   1.744   0.156   3.957 -1.7920 -0.4332 -1.1439
 4225SOL    HW224135   1.718   0.292   4.003  0.3487 -0.3944 -0.8160
 4226SOL     OW24136   3.312   4.658   8.354  0.1174 -0.4152  1.0729
 4226SOL    HW124137   3.227   4.680   8.391  0.7079  1.7944  1.1192
 4226SOL    HW224138   3.291   4.581   8.301 -0.3897  0.6320 -0.2536
 4227SOL     OW24139   3.811   0.525   4.050  0.1372  0.1247  0.0636
 4227SOL    HW124140   3.838   0.581   3.978  1.8832 -3.2651 -1.9539
 4227SOL    HW224141   3.774   0.452   4.000 -3.2387  3.0136 -1.6251
 4228SOL     OW24142   1.057   3.234   7.664  0.5180  0.0368 -0.2197
 4228SOL    HW124143   1.054   3.229   7.759 -0.6193  0.2387 -0.2428
 4228SOL    HW224144   1.117   3.309   7.661 -2.1137  2.2570  2.4925
 4229SOL     OW24145   2.634   4.609   3.833 -0.4112  0.1867  0.0590
 4229SOL    HW124146   2.653   4.583   3.744  1.7751 -1.8878  1.1550
 4229SOL    HW224147   2.662   4.536   3.887  2.8513  2.8073  1.9211
 4230SOL     OW24148   1.011   4.074   0.007  0.3706 -0.1343 -0.1610
 4230SOL    HW124149   0.923   4.106   0.028  1.1736  0.0974  2.9370
 4230SOL    HW224150   1.036   4.161  17.667  1.2229  0.5014  2.1897
 4231SOL     OW24151   2.523   4.407  16.106  0.0825 -0.1918  0.4436
 4231SOL    HW124152   2.615   4.428  16.119  0.1132 -0.9365  1.4112
 4231SOL    HW224153   2.527   4.436  16.015  1.8253 -0.6712  0.3644
 4232SOL     OW24154   2.523   2.213   7.800  0.4110  0.3905  0.1266
 4232SOL    HW124155   2.479   2.190   7.883  1.9900 -1.7291  0.3792
 4232SOL    HW224156   2.475   2.163   7.734  0.7101  0.7025 -0.3198
 4233SOL     OW24157   0.841   0.846   4.698  0.0327 -0.0264  0.4735
 4233SOL    HW124158   0.772   0.903   4.731  1.7512  1.9141  0.6950
 4233SOL    HW224159   0.800   0.823   4.614 -1.9340 -0.1047  1.4593
 4234SOL     OW24160   3.623   0.944   3.075  0.2484  0.0868 -0.5007
 4234SOL    HW124161   3.537   0.901   3.079  1.3541 -2.0185  0.6684
 4234SOL    HW224162   3.585   1.023   3.037  0.6545  0.7698  0.5330
 4235SOL     OW24163   3.162   3.742  14.659 -0.4070 -0.4964  0.5038
 4235SOL    HW124164   3.125   3.705  14.579  0.5081 -0.3683  0.0132
 4235SOL    HW224165   3.083   3.763  14.709 -0.9052 -0.2928 -0.3762
 4236SOL     OW24166   4.608   3.172   1.382 -0.1251 -0.0683 -0.3648
 4236SOL    HW124167   4.690   3.188   1.335  0.6138  1.1005  1.3092
 4236SOL    HW224168   4.561   3.111   1.325 -0.3777 -1.6212  1.5090
 4237SOL     OW24169   3.205   1.039   5.381  0.6576 -0.2544  0.1194
 4237SOL    HW124170   3.159   1.015   5.461 -1.9733  1.0284 -1.0211
 4237SOL    HW224171   3.294   1.024   5.415  0.1169 -2.1883  0.6575
 4238SOL     OW24172   1.200   1.702   3.551  0.4365 -0.2523 -0.0839
 4238SOL    HW124173   1.132   1.749   3.599 -1.0358 -0.9187 -1.5284
 4238SOL    HW224174   1.237   1.658   3.628  0.0234  1.5473  1.1474
 4239SOL     OW24175   4.652   1.336   6.294 -0.0126 -0.3632  0.1159
 4239SOL    HW124176   4.640   1.381   6.378 -2.5366 -1.0764  0.1115
 4239SOL    HW224177   4.580   1.371   6.243  0.6855  1.3175  0.2797
 4240SOL     OW24178   3.671   2.270  13.255  0.0781 -0.4842  0.3481
 4240SOL    HW124179   3.693   2.197  13.314 -2.1126 -0.1394  1.5513
 4240SOL    HW224180   3.605   2.312  13.309 -0.4087  0.2710 -0.8414
 4241SOL     OW24181   3.086   2.617   5.843  0.3993  0.4186  0.5887
 4241SOL    HW124182   3.078   2.521   5.843 -1.1572  0.5489 -1.4395
 4241SOL    HW224183   3.181   2.628   5.844  0.4343  0.2186 -0.2413
 4242SOL     OW24184   3.954   2.959  11.510 -0.2983 -0.1923 -0.2123
 4242SOL    HW124185   3.974   2.865  11.504  1.1994  0.0876  0.5031
 4242SOL    HW224186   3.898   2.961  11.587 -0.4085 -1.2578 -0.2656
 4243SOL     OW24187   1.706   3.132  17.058  0.0706 -0.2146  0.5467
 4243SOL    HW124188   1.671   3.050  17.023  0.4306  0.0066 -0.3198
 4243SOL    HW224189   1.637   3.197  17.041  0.0347 -0.3135  0.3143
 4244SOL     OW24190   4.263   3.517   4.294  0.1478  0.3985 -0.0190
 4244SOL    HW124191   4.195   3.547   4.234 -1.6049 -3.5951  0.0138
 4244SOL    HW224192   4.209   3.481   4.364  0.8462  0.7709  0.7059
 4245SOL     OW24193   4.719   2.909  14.445 -0.3642  0.1790 -0.2056
 4245SOL    HW124194   0.053   2.893  14.521 -0.1405  0.6917 -0.2645
 4245SOL    HW224195   0.068   2.918  14.382  0.0744  0.3658  0.3251
 4246SOL     OW24196   1.160   4.282  10.093 -0.2702  0.1530 -0.2072
 4246SOL    HW124197   1.163   4.240  10.007  1.2510  1.3213 -0.7269
 4246SOL    HW224198   1.111   4.219  10.145  0.1292  0.6531  0.7773
 4247SOL     OW24199   1.378   4.534   8.704 -0.2451  0.0026  1.1029
 4247SOL    HW124200   1.346   4.614   8.661  0.8059 -0.5165 -0.6243
 4247SOL    HW224201   1.308   4.522   8.769  0.0069  0.6932  1.5119
 4248SOL     OW24202   2.753   2.820  11.216  0.6807  0.2573  0.2871
 4248SOL    HW124203   2.835   2.866  11.201  0.2267  0.5937 -1.1941
 4248SOL    HW224204   2.741   2.773  11.133  0.5969 -0.6160  0.7954
 4249SOL     OW24205   1.093   3.217  10.824  0.2773 -0.0509  0.8620
 4249SOL    HW124206   1.111   3.242  10.915  0.3075  0.5462  0.6856
 4249SOL    HW224207   1.125   3.127  10.834  2.7726  0.7531  0.0948
 4250SOL     OW24208   4.586   4.069   0.013  0.0911  0.4475 -0.0919
 4250SOL    HW124209   4.561   4.111   0.096 -0.6597 -1.9799  0.9364
 4250SOL    HW224210   4.501   4.038  17.674  0.0212 -2.0370  2.4603
 4251SOL     OW24211   2.447   0.803   5.821  0.1420 -0.1577  0.2781
 4251SOL    HW124212   2.367   0.834   5.862 -0.7027 -0.7050 -0.9649
 4251SOL    HW224213   2.486   0.773   5.903 -1.4576  1.5313  1.6624
 4252SOL     OW24214   2.792   3.049   1.204  0.0917  0.0284  0.0927
 4252SOL    HW124215   2.798   3.068   1.298 -1.1106 -0.7339  0.3289
 4252SOL    HW224216   2.719   3.108   1.185 -1.2139 -1.5516  0.1079
 4253SOL     OW24217   2.513   1.095  15.019 -0.4788 -0.7265  0.2323
 4253SOL    HW124218   2.502   1.028  15.087 -0.6484 -1.9121 -0.9614
 4253SOL    HW224219   2.579   1.147  15.065 -1.0187 -0.0421  0.2158
 4254SOL     OW24220   4.360   2.104  12.530 -0.5047  0.5267  0.1839
 4254SOL    HW124221   4.421   2.177  12.520 -0.6112  0.2705 -2.2491
 4254SOL    HW224222   4.300   2.138  12.596 -1.4637  0.9687 -0.9144
 4255SOL     OW24223   0.910   3.468   5.093 -0.2657 -0.3495 -0.3864
 4255SOL    HW124224   0.949   3.455   5.007  0.5130  4.6110 -0.8002
 4255SOL    HW224225   0.820   3.445   5.068 -0.2044 -0.6070 -0.3689
 4256SOL     OW24226   2.016   2.285   9.886 -0.2201  0.0620 -0.0604
 4256SOL    HW124227   1.935   2.251   9.847 -1.1275 -0.5465  2.3539
 4256SOL    HW224228   2.076   2.277   9.812  0.3044 -0.3194  0.4087
 4257SOL     OW24229   2.925   1.646   8.710 -0.0871 -0.5060  0.1802
 4257SOL    HW124230   2.835   1.679   8.711  0.1859  0.2014  0.6626
 4257SOL    HW224231   2.981   1.722   8.697 -0.1558 -0.5922 -0.6175
 4258SOL     OW24232   4.429   0.666  10.501 -0.3358 -0.0532  0.4187
 4258SOL    HW124233   4.508   0.684  10.451 -0.5842 -2.0659 -0.7078
 4258SOL    HW224234   4.421   0.746  10.552  0.8717  0.6772 -0.5394
 4259SOL     OW24235   1.027   4.189   7.247 -0.0624  0.2956  0.0437
 4259SOL    HW124236   0.934   4.163   7.247  0.1494 -0.4732 -1.3983
 4259SOL    HW224237   1.040   4.259   7.183  1.7118 -0.2719 -0.2120
 4260SOL     OW24238   2.360   3.378  13.192 -0.1373  0.7299  0.1587
 4260SOL    HW124239   2.312   3.421  13.262  0.2395  1.1570  0.1573
 4260SOL    HW224240   2.432   3.440  13.184  1.0010 -0.4689  1.0649
 4261SOL     OW24241   3.451   2.036   8.227 -0.1121 -0.3846  0.0291
 4261SOL    HW124242   3.462   1.984   8.307 -0.1551 -0.0147  0.2727
 4261SOL    HW224243   3.472   1.974   8.157  0.9516  0.5203 -0.4489
 4262SOL     OW24244   2.878   0.449   7.714 -0.1517 -0.0685  0.1101
 4262SOL    HW124245   2.824   0.516   7.673 -0.0702 -0.2008 -0.2093
 4262SOL    HW224246   2.807   0.416   7.769  1.0561 -2.3420  0.3076
 4263SOL     OW24247   3.422   2.358   0.844 -0.1927 -0.2367 -0.8961
 4263SOL    HW124248   3.360   2.290   0.870  0.2745 -0.1417  0.4366
 4263SOL    HW224249   3.479   2.349   0.920 -2.6679 -1.0032  0.8786
 4264SOL     OW24250   2.445   2.669   2.881 -0.0532 -0.5776 -0.9168
 4264SOL    HW124251   2.442   2.765   2.877  1.0504 -0.5348 -0.6120
 4264SOL    HW224252   2.441   2.659   2.786  1.4888  1.7140 -1.2313
 4265SOL     OW24253   2.988   1.377   3.738  0.8386  0.6485 -0.2939
 4265SOL    HW124254   3.008   1.345   3.650  1.6801  1.4368 -0.3833
 4265SOL    HW224255   2.959   1.466   3.717 -2.3079  0.2045  2.1714
 4266SOL     OW24256   0.926   3.337   6.551 -0.1735  0.2641  0.6674
 4266SOL    HW124257   0.926   3.242   6.534  0.7982  0.1860  1.1362
 4266SOL    HW224258   1.018   3.360   6.551 -0.2429  0.5460  1.0962
 4267SOL     OW24259   1.329   1.840   7.153 -0.7291  0.0931 -0.0091
 4267SOL    HW124260   1.252   1.893   7.172  0.1712  1.0313  1.0410
 4267SOL    HW224261   1.346   1.874   7.065  0.8012 -0.5608  0.0342
 4268SOL     OW24262   4.354   3.312   4.146 -0.2589  0.2267 -0.5379
 4268SOL    HW124263   4.325   3.388   4.196 -2.8920  0.1454 -1.9711
 4268SOL    HW224264   4.380   3.353   4.063  2.4836  2.0492  1.2099
 4269SOL     OW24265   3.407   4.458  12.131 -0.0437 -0.3618 -0.0718
 4269SOL    HW124266   3.403   4.420  12.219 -0.4224  0.3540  0.2159
 4269SOL    HW224267   3.489   4.419  12.100  0.8095  1.2040  0.2426
 4270SOL     OW24268   3.426   1.944   5.876 -0.1749 -0.3242  0.1328
 4270SOL    HW124269   3.375   1.972   5.800 -0.7434 -2.0625 -0.1137
 4270SOL    HW224270   3.363   1.964   5.946  0.5622 -0.9445  0.9761
 4271SOL     OW24271   0.620   1.022   6.335  1.3374 -0.8911 -0.8719
 4271SOL    HW124272   0.676   0.969   6.391  1.1508 -1.6465 -1.3987
 4271SOL    HW224273   0.677   1.095   6.308 -0.3493  0.6127 -0.3614
 4272SOL     OW24274   3.435   4.309   3.958 -0.1681  0.4201  0.0589
 4272SOL    HW124275   3.460   4.243   4.023 -0.8383  0.4858  0.3845
 4272SOL    HW224276   3.383   4.261   3.894  0.3735 -1.5679  1.1209
 4273SOL     OW24277   1.817   3.595   5.839  0.5322  0.2182  0.4935
 4273SOL    HW124278   1.818   3.506   5.874 -0.5758 -0.0645 -0.2020
 4273SOL    HW224279   1.861   3.644   5.910 -0.5244 -0.4426  1.6052
 4274SOL     OW24280   0.596   3.721   4.167 -0.3817 -0.0016  0.4011
 4274SOL    HW124281   0.672   3.724   4.227  0.7581 -3.1502 -0.9255
 4274SOL    HW224282   0.560   3.636   4.192  0.2357 -0.4066 -0.1073
 4275SOL     OW24283   2.628   1.887  14.827  0.2723  0.0348 -0.3919
 4275SOL    HW124284   2.612   1.980  14.845 -1.8807 -0.5378  0.5858
 4275SOL    HW224285   2.572   1.851  14.895  0.2897  1.4639  0.3887
 4276SOL     OW24286   1.063   2.290   5.875  0.1822  0.0317 -0.8031
 4276SOL    HW124287   1.146   2.319   5.913  0.1721  1.8159 -2.1771
 4276SOL    HW224288   1.006   2.343   5.931 -1.6711 -3.7522  0.8732
 4277SOL     OW24289   3.388   0.834  15.459  0.6890 -0.2609 -0.2417
 4277SOL    HW124290   3.382   0.764  15.524 -0.8578 -1.8022 -2.0534
 4277SOL    HW224291   3.334   0.901  15.500  0.4004 -0.1348 -0.8437
 4278SOL     OW24292   1.262   2.623   7.443 -0.0364 -0.7485 -0.1350
 4278SOL    HW124293   1.254   2.712   7.477  0.8396 -1.1611  1.1253
 4278SOL    HW224294   1.212   2.635   7.362 -0.1339 -3.0132 -0.4021
 4279SOL     OW24295   2.293   3.983   7.974 -0.2522 -0.0918 -0.3112
 4279SOL    HW124296   2.258   3.947   8.055  0.3586 -1.5708 -0.6957
 4279SOL    HW224297   2.235   3.951   7.904  0.3884  0.7165 -1.2135
 4280SOL     OW24298   2.568   0.023  17.269  0.3829 -0.6272  0.0703
 4280SOL    HW124299   2.491   4.697  17.296 -0.9397  1.3102 -0.2009
 4280SOL    HW224300   2.534   0.059  17.187  1.7312 -3.2128 -1.6032
 4281SOL     OW24301   3.976   2.190   8.637  0.3185 -0.2689 -0.2918
 4281SOL    HW124302   4.006   2.104   8.669 -1.0383 -0.7510 -0.3393
 4281SOL    HW224303   3.890   2.191   8.678  0.7907 -0.2864  0.6884
 4282SOL     OW24304   3.314   0.117   8.920  0.3875 -0.3604  0.4302
 4282SOL    HW124305   3.263   0.155   8.849  0.9517 -0.7896 -0.2154
 4282SOL    HW224306   3.319   0.026   8.890  0.5914  0.2108 -1.2924
 4283SOL     OW24307   1.031   2.292   5.570  0.4780  0.1589 -0.4270
 4283SOL    HW124308   1.042   2.350   5.645  0.8066 -1.8245  1.0565
 4283SOL    HW224309   1.088   2.336   5.506 -0.5051  1.0286 -0.7154
 4284SOL     OW24310   0.364   4.141   4.996  0.2863 -0.1966  0.3066
 4284SOL    HW124311   0.395   4.160   5.084 -2.1819 -0.5548  1.2619
 4284SOL    HW224312   0.440   4.096   4.960  0.9691 -1.7083  3.7509
 4285SOL     OW24313   2.096   4.343   8.282  0.0569  0.3246 -0.0973
 4285SOL    HW124314   2.067   4.431   8.305  2.6118  1.4278 -1.1674
 4285SOL    HW224315   2.069   4.339   8.191 -3.9368 -1.2194  1.1794
 4286SOL     OW24316   2.182   3.131   7.813 -0.7467  0.2992 -0.7349
 4286SOL    HW124317   2.188   3.080   7.732  1.9138  0.6242 -0.7633
 4286SOL    HW224318   2.271   3.163   7.827 -0.7157  0.4171 -1.1796
 4287SOL     OW24319   0.392   0.021  15.021 -0.3282 -0.0934 -0.9563
 4287SOL    HW124320   0.382   4.671  15.083 -1.1404 -1.1979 -2.3500
 4287SOL    HW224321   0.333   0.090  15.050  0.7103 -0.4497  1.9078
 4288SOL     OW24322   0.890   0.554   2.201  0.0576  0.9461 -0.3415
 4288SOL    HW124323   0.872   0.648   2.189 -1.4169  0.2920 -3.4344
 4288SOL    HW224324   0.985   0.552   2.191  0.2366  1.1914  1.3053
 4289SOL     OW24325   1.637   0.658   8.489 -0.2026  0.1295  0.6671
 4289SOL    HW124326   1.549   0.688   8.510  0.3090  1.7669  0.4379
 4289SOL    HW224327   1.619   0.564   8.479  2.7527 -0.2436 -1.3468
 4290SOL     OW24328   1.174   3.208  11.071  0.2648  0.7289  0.1512
 4290SOL    HW124329   1.201   3.122  11.103  0.4969  0.6369 -0.2971
 4290SOL    HW224330   1.132   3.234  11.153 -1.2974  1.2751 -0.8309
 4291SOL     OW24331   4.705   2.458   3.507 -0.2332  0.4673 -0.2312
 4291SOL    HW124332   0.029   2.447   3.424  0.8183  1.2479  0.2627
 4291SOL    HW224333   4.693   2.553   3.504  0.3548  0.6161  2.1200
 4292SOL     OW24334   2.540   1.183   6.360 -0.1037  0.1347 -0.0164
 4292SOL    HW124335   2.502   1.242   6.425  1.2187  1.8118 -0.7537
 4292SOL    HW224336   2.621   1.232   6.340 -0.8206  1.4241  0.2152
 4293SOL     OW24337   1.088   0.096   6.708  0.3228  0.3324 -0.6016
 4293SOL    HW124338   1.075   0.107   6.802  1.0910  3.4649 -0.8680
 4293SOL    HW224339   1.147   0.165   6.678  0.4950 -0.1175 -1.2944
 4294SOL     OW24340   2.074   2.674   0.243  0.2007  0.0694  0.3237
 4294SOL    HW124341   2.137   2.602   0.242  0.2853  0.1304  1.2865
 4294SOL    HW224342   1.997   2.633   0.202  0.3679  0.3554 -0.2666
 4295SOL     OW24343   1.964   2.590   5.832 -0.5289 -0.5464 -0.0024
 4295SOL    HW124344   1.880   2.628   5.806 -0.2368 -1.0107 -1.6380
 4295SOL    HW224345   1.931   2.511   5.876  0.2052 -1.2450 -0.7151
 4296SOL     OW24346   4.595   1.108   3.304 -0.2196  0.3579 -0.2832
 4296SOL    HW124347   4.588   1.055   3.383  0.3840 -1.3107 -1.3700
 4296SOL    HW224348   4.517   1.164   3.312  0.6447  1.5758 -0.2577
 4297SOL     OW24349   0.385   2.534   3.046 -0.2817  0.3245  0.3244
 4297SOL    HW124350   0.388   2.620   3.003 -0.2873  0.2019  0.0772
 4297SOL    HW224351   0.459   2.491   3.003  0.3030 -0.9395  2.6439
 4298SOL     OW24352   3.055   2.665  11.315  0.3366 -0.2352  0.3209
 4298SOL    HW124353   3.111   2.694  11.387  1.7983 -1.3921 -0.3270
 4298SOL    HW224354   3.083   2.728  11.249  0.1654 -1.0123 -0.4963
 4299SOL     OW24355   4.636   1.422   6.549 -0.2337  0.0248  0.1670
 4299SOL    HW124356   4.659   1.379   6.632 -2.0231 -1.7819 -0.2792
 4299SOL    HW224357   4.617   1.513   6.574  0.4032  0.5011 -1.1259
 4300SOL     OW24358   3.101   1.069   6.594 -0.6361 -0.3811  0.0597
 4300SOL    HW124359   3.024   1.059   6.650 -0.9774 -0.0764 -0.3499
 4300SOL    HW224360   3.146   1.142   6.636  1.6443 -1.6013 -0.2932
 4301SOL     OW24361   1.185   2.651  10.671  0.0976  0.2251  0.3562
 4301SOL    HW124362   1.100   2.610  10.655  0.7389 -0.9668  0.0154
 4301SOL    HW224363   1.209   2.619  10.758 -0.0415 -0.0477  0.2934
 4302SOL     OW24364   0.618   3.290  13.938  0.1048  0.0161  0.1732
 4302SOL    HW124365   0.688   3.231  13.963  1.2478  1.4144  0.2877
 4302SOL    HW224366   0.666   3.368  13.909 -1.0268  1.4347  2.1018
 4303SOL     OW24367   3.850   3.685  13.083  0.3499 -0.5417  0.4010
 4303SOL    HW124368   3.889   3.598  13.073  1.0229 -0.4768  2.5251
 4303SOL    HW224369   3.762   3.672  13.120 -1.8856  1.9054 -4.0599
 4304SOL     OW24370   2.776   4.045   5.161  0.4176 -0.2756 -0.3413
 4304SOL    HW124371   2.847   3.988   5.192 -0.4928  0.3699  2.8588
 4304SOL    HW224372   2.708   3.989   5.125  0.2146 -0.6412  0.6325
 4305SOL     OW24373   1.635   4.470   9.109  0.2183 -0.2199  0.6507
 4305SOL    HW124374   1.648   4.537   9.176  2.2779 -0.7249  0.7396
 4305SOL    HW224375   1.544   4.441   9.123 -0.2169  0.8205 -0.0793
 4306SOL     OW24376   2.916   1.087   1.604 -0.4348  0.2747  0.4513
 4306SOL    HW124377   2.885   1.110   1.517  1.2957  1.9672  0.2825
 4306SOL    HW224378   2.913   1.170   1.652  0.2256  1.4507 -1.5700
 4307SOL     OW24379   4.251   3.067   7.563  0.3104  0.5527  0.0314
 4307SOL    HW124380   4.341   3.097   7.553  0.5682 -0.5631 -0.9692
 4307SOL    HW224381   4.213   3.092   7.479 -0.1147  3.4737  1.0647
 4308SOL     OW24382   4.186   4.415  14.502 -0.8528  0.2313  0.1629
 4308SOL    HW124383   4.211   4.322  14.509 -0.0552  0.5479  1.5552
 4308SOL    HW224384   4.213   4.450  14.587 -0.1928 -0.8454  0.4003
 4309SOL     OW24385   3.818   4.337   4.598 -0.3060  0.4975 -0.2309
 4309SOL    HW124386   3.833   4.243   4.589 -0.8509  0.3795  0.1057
 4309SOL    HW224387   3.744   4.360   4.542 -0.4767  0.5608  0.0215
 4310SOL     OW24388   3.060   2.085   8.072 -0.2211  0.5782 -0.1781
 4310SOL    HW124389   3.082   2.023   8.141  2.0104  0.5648 -0.9253
 4310SOL    HW224390   3.110   2.167   8.074  1.7354 -0.6390 -0.0391
 4311SOL     OW24391   1.313   1.174   9.979  0.1050  0.2375  0.0924
 4311SOL    HW124392   1.360   1.194   9.898  1.1144 -2.3644  0.0408
 4311SOL    HW224393   1.352   1.089  10.000 -1.1160 -0.4199 -0.2645
 4312SOL     OW24394   2.726   1.888   8.045 -0.3443  0.0600 -0.6204
 4312SOL    HW124395   2.720   1.857   8.136 -1.5575 -1.3815 -1.1788
 4312SOL    HW224396   2.769   1.973   8.048 -0.7256  0.2436 -0.3709
 4313SOL     OW24397   3.830   4.075   5.934  0.6336  0.1019  0.5609
 4313SOL    HW124398   3.829   4.028   6.018 -3.3380  2.8250  2.0702
 4313SOL    HW224399   3.914   4.039   5.905 -0.7262 -0.4623 -2.5661
 4314SOL     OW24400   1.191   4.106   1.825  0.0464 -0.1286  0.2242
 4314SOL    HW124401   1.183   4.201   1.814 -1.6808 -0.3758 -0.6329
 4314SOL    HW224402   1.101   4.077   1.837 -0.9811  2.3413 -1.5590
 4315SOL     OW24403   3.112   4.087   6.647 -0.0255 -0.0547  0.2754
 4315SOL    HW124404   3.154   4.001   6.649  1.1323  0.5209  0.7959
 4315SOL    HW224405   3.168   4.137   6.707  1.8162  1.2445 -2.5119
 4316SOL     OW24406   1.546   1.498   1.115  0.0195  0.7767  0.6152
 4316SOL    HW124407   1.552   1.579   1.064  2.2935  2.1732  3.1331
 4316SOL    HW224408   1.621   1.448   1.082 -0.4245 -0.5299  1.5791
 4317SOL     OW24409   4.431   0.961  10.539 -0.8283 -0.0905  0.0658
 4317SOL    HW124410   4.439   0.972  10.444  0.8039  0.0391  0.2109
 4317SOL    HW224411   4.423   1.053  10.564  0.9079 -0.4546  1.9715
 4318SOL     OW24412   4.047   1.982   6.277  0.4817  0.6575  0.9865
 4318SOL    HW124413   3.991   2.037   6.222  1.6546 -0.6978 -1.5545
 4318SOL    HW224414   3.989   1.913   6.311  0.2399  0.7047  0.6745
 4319SOL     OW24415   0.981   4.647  10.374  0.0274  0.4486  0.4273
 4319SOL    HW124416   0.978   4.557  10.340  2.1503  0.2434  0.7496
 4319SOL    HW224417   1.005   4.630  10.465  1.4367  0.2633  0.0306
 4320SOL     OW24418   3.337   0.803   4.106  0.0394  0.0343  0.5173
 4320SOL    HW124419   3.422   0.783   4.067 -1.3713 -1.4494 -1.8052
 4320SOL    HW224420   3.303   0.846   4.027 -0.3548 -1.3279 -0.0546
 4321SOL     OW24421   2.670   4.225  13.289 -0.0533  1.2481 -0.0223
 4321SOL    HW124422   2.577   4.211  13.304  0.0755  0.6981  0.2878
 4321SOL    HW224423   2.673   4.262  13.201  1.2991  0.8465 -0.1416
 4322SOL     OW24424   0.218   3.353   8.333  0.1591 -0.0090  0.4484
 4322SOL    HW124425   0.145   3.306   8.293 -0.8557  1.1470  0.9220
 4322SOL    HW224426   0.224   3.425   8.270  2.1734  0.3245  0.9960
 4323SOL     OW24427   1.043   3.978   5.487 -0.2202 -0.2531 -0.0917
 4323SOL    HW124428   0.960   4.026   5.482 -0.9965 -1.5116  0.8739
 4323SOL    HW224429   1.076   4.005   5.402 -2.4312  1.7523 -0.3227
 4324SOL     OW24430   3.769   3.349   9.115 -0.2634  0.0884  0.1266
 4324SOL    HW124431   3.836   3.297   9.160  0.5246  2.3382  1.5378
 4324SOL    HW224432   3.778   3.436   9.153  1.8833  0.6555 -1.6787
 4325SOL     OW24433   0.358   1.548   4.714  0.1564 -0.0536 -0.0529
 4325SOL    HW124434   0.265   1.550   4.734  0.0379 -0.6587 -0.5441
 4325SOL    HW224435   0.382   1.624   4.662  0.3301 -1.0124 -1.3685
 4326SOL     OW24436   1.545   2.317  13.214  0.0377 -0.0638  0.5167
 4326SOL    HW124437   1.460   2.355  13.193 -0.4727 -1.8479 -0.7021
 4326SOL    HW224438   1.521   2.241  13.267  0.0731 -0.3816  0.0809
 4327SOL     OW24439   0.205   0.853   0.576 -0.5899 -0.1409 -0.3889
 4327SOL    HW124440   0.278   0.822   0.523  1.5645  0.5442  2.1416
 4327SOL    HW224441   0.236   0.860   0.667 -0.8342  0.2285 -0.3301
 4328SOL     OW24442   3.646   0.642   2.403 -0.3733 -1.0080 -0.0940
 4328SOL    HW124443   3.586   0.712   2.427  1.4832  0.2981  0.7264
 4328SOL    HW224444   3.692   0.683   2.330 -0.9521 -1.0911 -0.5088
 4329SOL     OW24445   3.232   3.476   6.807 -0.8392  0.2272 -1.1856
 4329SOL    HW124446   3.242   3.475   6.902  0.0677 -1.0078 -1.2867
 4329SOL    HW224447   3.305   3.417   6.787  0.1602  0.9477  0.3015
 4330SOL     OW24448   1.987   3.879  14.228 -0.3023 -0.0030  0.0742
 4330SOL    HW124449   2.037   3.877  14.147 -1.0967 -1.0369 -0.3720
 4330SOL    HW224450   1.978   3.788  14.255  1.3395 -0.0520  0.4925
 4331SOL     OW24451   4.121   3.043  16.031  0.2213 -0.1597 -0.0646
 4331SOL    HW124452   4.171   3.019  15.952 -0.3408 -2.2430  0.1966
 4331SOL    HW224453   4.033   3.015  16.004  0.0229  1.0839 -0.7261
 4332SOL     OW24454   1.957   1.738   3.264  0.3121  0.0924  0.1284
 4332SOL    HW124455   1.876   1.701   3.230 -1.6046  2.2205  2.3940
 4332SOL    HW224456   2.005   1.747   3.181  0.2485  0.3717  0.1202
 4333SOL     OW24457   3.612   3.746  13.957 -0.1829  0.3772 -0.0092
 4333SOL    HW124458   3.679   3.735  13.890  1.2041 -0.7272  1.5691
 4333SOL    HW224459   3.641   3.683  14.023 -1.3404 -0.0208  0.1158
 4334SOL     OW24460   3.665   1.090   7.293 -0.0348 -0.5015 -0.5400
 4334SOL    HW124461   3.602   1.096   7.221 -0.2442 -0.5650 -0.3622
 4334SOL    HW224462   3.688   1.182   7.307 -3.5866  0.5333 -1.3636
 4335SOL     OW24463   4.316   4.184  17.509 -0.0277 -0.0771  0.7651
 4335SOL    HW124464   4.224   4.210  17.501 -0.1501 -0.6147  0.4309
 4335SOL    HW224465   4.307   4.152  17.599  1.8533 -1.5728  0.4244
 4336SOL     OW24466   3.440   3.486   4.706  0.3755 -0.2128  0.2602
 4336SOL    HW124467   3.383   3.496   4.782 -0.1954  1.4207 -0.3749
 4336SOL    HW224468   3.513   3.432   4.737  0.4861 -1.6714 -2.5939
 4337SOL     OW24469   3.202   1.465   5.868  0.0964  0.3556  0.6541
 4337SOL    HW124470   3.159   1.431   5.947 -2.4360  1.8763 -0.0612
 4337SOL    HW224471   3.171   1.556   5.867  0.4176  0.4494 -1.6218
 4338SOL     OW24472   3.512   0.946   5.794  0.4982  0.4736  0.0529
 4338SOL    HW124473   3.438   0.888   5.777  0.5013  1.5007 -3.5320
 4338SOL    HW224474   3.485   1.036   5.777 -0.4888  0.3542  1.0010
 4339SOL     OW24475   1.200   1.189  14.494  0.0967  0.0493  0.1159
 4339SOL    HW124476   1.232   1.144  14.572 -0.8569  0.4743  0.7454
 4339SOL    HW224477   1.202   1.283  14.513  0.2621 -0.2904  1.8354
 4340SOL     OW24478   1.963   2.179   7.112  0.1826  0.5165 -0.1810
 4340SOL    HW124479   1.947   2.113   7.045 -0.2466  0.6378 -0.2015
 4340SOL    HW224480   1.947   2.137   7.196  1.3578 -2.3494 -1.3848
 4341SOL     OW24481   4.179   1.951  17.440  0.3326 -0.2948 -0.0394
 4341SOL    HW124482   4.130   1.891  17.496 -0.2294  0.0058 -0.2027
 4341SOL    HW224483   4.107   2.006  17.409  1.0575  2.3529  2.9623
 4342SOL     OW24484   1.770   1.049  10.674  0.3152 -0.5382 -1.1918
 4342SOL    HW124485   1.832   1.092  10.733 -2.7860 -1.3218  2.6610
 4342SOL    HW224486   1.752   0.972  10.727  3.0518  0.3970  1.0717
 4343SOL     OW24487   2.928   0.078   2.816 -0.2532  0.3962  0.2445
 4343SOL    HW124488   3.003   0.060   2.872 -0.2387  3.2069  1.1271
 4343SOL    HW224489   2.851   0.053   2.867 -0.1261  0.2643  0.3686
 4344SOL     OW24490   1.121   2.059   3.216 -0.0712 -0.0594  0.1225
 4344SOL    HW124491   1.086   1.975   3.186  0.1703 -0.2444  0.3553
 4344SOL    HW224492   1.042   2.087   3.262  0.4612  0.8940  0.4658
 4345SOL     OW24493   1.813   2.700   9.348  0.5699 -0.3858  0.1170
 4345SOL    HW124494   1.754   2.759   9.394 -0.8714 -2.2298  0.6262
 4345SOL    HW224495   1.846   2.751   9.274  0.0560  0.9529  0.8187
 4346SOL     OW24496   0.215   1.326  14.617 -0.0489 -0.3038  0.3787
 4346SOL    HW124497   0.139   1.349  14.564  0.0634 -0.2148  0.2544
 4346SOL    HW224498   0.268   1.282  14.550  1.3900  0.7427  0.8306
 4347SOL     OW24499   1.748   4.226   2.676  0.2051  0.4177 -0.5064
 4347SOL    HW124500   1.713   4.315   2.682  2.4004  1.1296  1.9514
 4347SOL    HW224501   1.837   4.245   2.705  0.6836  0.8609 -2.2701
 4348SOL     OW24502   0.893   2.973  13.121 -0.1521 -0.2069 -0.7521
 4348SOL    HW124503   0.904   2.923  13.202  1.4829 -1.1451 -1.5523
 4348SOL    HW224504   0.985   2.982  13.095 -1.0892  0.2150 -3.9010
 4349SOL     OW24505   2.465   3.404   5.990 -0.4498  0.4290 -0.7043
 4349SOL    HW124506   2.459   3.310   5.973 -2.5380 -0.1449  3.2344
 4349SOL    HW224507   2.438   3.441   5.907  0.5389 -1.7381 -2.0014
 4350SOL     OW24508   0.974   2.660   3.114  0.3668 -0.1684  0.5262
 4350SOL    HW124509   1.064   2.630   3.102  1.1977  2.1613  0.8889
 4350SOL    HW224510   0.923   2.629   3.039  1.2039  0.7352 -0.4075
 4351SOL     OW24511   4.693   3.569  15.786  0.1980  0.4011  0.2908
 4351SOL    HW124512   0.035   3.602  15.723  0.9211  1.6862  1.7119
 4351SOL    HW224513   4.677   3.479  15.758  1.8582  0.1896  0.0321
 4352SOL     OW24514   0.994   2.897   7.643 -0.1185  0.2944 -0.2950
 4352SOL    HW124515   0.929   2.966   7.632 -0.7005 -0.6888 -2.9513
 4352SOL    HW224516   0.934   2.823   7.651 -0.9529  1.1646  1.5576
 4353SOL     OW24517   1.348   0.352  10.462 -0.5190  0.1128  0.4721
 4353SOL    HW124518   1.327   0.442  10.486 -1.7805 -0.5154  1.7810
 4353SOL    HW224519   1.296   0.336  10.384  0.6700  0.4001 -0.3746
 4354SOL     OW24520   2.117   3.668   5.569 -0.1299 -1.2357  0.2209
 4354SOL    HW124521   2.084   3.585   5.603 -0.5589 -1.0430  0.2724
 4354SOL    HW224522   2.082   3.733   5.630 -2.0451 -0.9871 -1.1291
 4355SOL     OW24523   3.293   2.267   6.793 -0.4070 -0.4991  0.2435
 4355SOL    HW124524   3.240   2.347   6.800  0.6450  0.4430 -2.6449
 4355SOL    HW224525   3.276   2.231   6.706  1.6851 -1.9385  0.4263
 4356SOL     OW24526   3.539   4.321   2.992  0.0619  0.3901 -0.3618
 4356SOL    HW124527   3.618   4.274   3.020  0.1752  2.3318  2.5719
 4356SOL    HW224528   3.568   4.340   2.903  0.8572 -1.0278 -0.4043
 4357SOL     OW24529   4.052   1.522   5.915  0.4385 -0.1627 -0.1512
 4357SOL    HW124530   3.971   1.563   5.886  0.1524 -0.7302 -0.1371
 4357SOL    HW224531   4.105   1.602   5.928 -0.2586 -0.1666  2.6495
 4358SOL     OW24532   4.021   2.069   4.831 -0.5426  0.0392  0.2595
 4358SOL    HW124533   3.968   2.148   4.831 -0.2371  0.2496  1.9854
 4358SOL    HW224534   4.021   2.042   4.739 -0.0071 -1.2347  0.6215
 4359SOL     OW24535   1.149   3.887  16.005  0.3911  0.4392  0.0547
 4359SOL    HW124536   1.185   3.839  15.930 -1.0306 -0.4759 -0.0499
 4359SOL    HW224537   1.230   3.934  16.026 -0.3502  1.8542 -0.2524
 4360SOL     OW24538   0.587   3.473   3.499 -0.8339 -0.7759 -0.1771
 4360SOL    HW124539   0.637   3.407   3.547  0.2271 -0.5026 -0.9291
 4360SOL    HW224540   0.643   3.468   3.422  1.4238  3.0784  1.2389
 4361SOL     OW24541   4.645   3.530  17.337 -0.5656  0.4122  0.0666
 4361SOL    HW124542   4.639   3.479  17.256 -0.1291 -0.6472  0.7007
 4361SOL    HW224543   4.707   3.599  17.314  1.4228 -1.6920 -0.8888
 4362SOL     OW24544   1.619   1.646   2.391  0.4643 -0.3400  0.3456
 4362SOL    HW124545   1.532   1.637   2.351 -0.5372 -1.8925  2.8418
 4362SOL    HW224546   1.656   1.558   2.382 -2.0213 -1.4153  0.7006
 4363SOL     OW24547   0.068   0.884   2.660  0.3085 -0.1852 -0.3885
 4363SOL    HW124548   0.003   0.886   2.590 -0.7075 -0.2872  0.5591
 4363SOL    HW224549   0.058   0.791   2.681 -0.1067  0.2703  1.3721
 4364SOL     OW24550   0.500   3.876   8.840  0.7039  0.0159  0.2496
 4364SOL    HW124551   0.447   3.855   8.917  0.3318  0.2010  0.0478
 4364SOL    HW224552   0.502   3.971   8.844  1.3180  0.0795 -1.3367
 4365SOL     OW24553   4.141   1.032   4.887 -0.0638  0.8315 -0.4705
 4365SOL    HW124554   4.206   1.101   4.876 -1.6247  2.1170 -1.6974
 4365SOL    HW224555   4.203   0.964   4.913 -2.9621 -1.8594 -0.5372
 4366SOL     OW24556   1.730   3.299  10.203  0.1075  0.0600 -0.0344
 4366SOL    HW124557   1.742   3.391  10.226 -0.6994  0.8089 -2.6241
 4366SOL    HW224558   1.680   3.266  10.277  1.0675  0.5636  0.8334
 4367SOL     OW24559   2.757   4.574   4.848  0.1000  0.7796  0.4846
 4367SOL    HW124560   2.809   4.653   4.866  0.8277  0.2764  0.5555
 4367SOL    HW224561   2.814   4.532   4.784 -2.0493  0.3803 -1.1755
 4368SOL     OW24562   3.518   3.468   6.892  0.9600  0.1565 -0.2773
 4368SOL    HW124563   3.521   3.564   6.896  1.8530  0.0717  1.3424
 4368SOL    HW224564   3.516   3.447   6.986 -0.8645 -5.0689 -1.5009
 4369SOL     OW24565   2.783   1.212   5.685  0.5260 -0.4163 -0.4054
 4369SOL    HW124566   2.707   1.158   5.705  1.4361  0.2586  4.7269
 4369SOL    HW224567   2.740   1.283   5.637 -0.4096 -0.0255  1.0205
 4370SOL     OW24568   1.140   2.929   7.013 -0.1424 -0.3854 -0.2648
 4370SOL    HW124569   1.117   2.942   7.105 -0.4335 -1.6338 -0.1518
 4370SOL    HW224570   1.052   2.908   6.981  0.3754  0.5686 -2.3183
 4371SOL     OW24571   0.750   4.118   7.326 -0.4092  0.2124 -0.1256
 4371SOL    HW124572   0.655   4.121   7.338 -0.2936  0.4151  0.7875
 4371SOL    HW224573   0.778   4.151   7.412 -1.1147  2.5573 -0.7825
 4372SOL     OW24574   0.890   2.972   2.061  0.7369 -0.1399  0.2523
 4372SOL    HW124575   0.813   2.997   2.010 -0.2579  0.0518  1.8755
 4372SOL    HW224576   0.955   2.943   1.997  1.8148 -2.7764  2.5449
 4373SOL     OW24577   0.061   4.157   2.743  0.4723 -0.4128  0.1437
 4373SOL    HW124578   0.142   4.207   2.749  0.6428 -0.7714  0.9105
 4373SOL    HW224579   0.030   4.166   2.833  1.0902 -3.2557  0.6597
 4374SOL     OW24580   4.475   1.202   6.995  0.5753 -0.0107  0.3366
 4374SOL    HW124581   4.407   1.249   7.043  1.4578  0.1236  1.4429
 4374SOL    HW224582   4.491   1.134   7.060  0.2098 -0.0237  0.4128
 4375SOL     OW24583   0.531   2.728   7.748  0.3585 -0.6156  0.5752
 4375SOL    HW124584   0.557   2.653   7.802  1.7237 -1.1258 -0.7957
 4375SOL    HW224585   0.529   2.679   7.666  2.3031 -1.3498  0.9793
 4376SOL     OW24586   1.313   3.579   7.269 -0.2639  0.2891  0.3279
 4376SOL    HW124587   1.315   3.488   7.300 -1.1068  0.0437 -0.3323
 4376SOL    HW224588   1.331   3.633   7.346  1.2392  0.6989 -0.3177
 4377SOL     OW24589   2.254   4.444  15.286  0.2931  0.1562  0.6157
 4377SOL    HW124590   2.228   4.526  15.243 -0.8598 -0.6235 -0.1692
 4377SOL    HW224591   2.344   4.467  15.307 -0.0801  1.7230  0.4843
 4378SOL     OW24592   1.616   1.252  13.253 -0.0793 -0.6454  0.0553
 4378SOL    HW124593   1.567   1.300  13.319  1.6319  1.1077  0.0403
 4378SOL    HW224594   1.646   1.171  13.294  1.0881  0.6685  1.7798
 4379SOL     OW24595   0.067   1.332   6.997  0.2748  0.0889 -0.3008
 4379SOL    HW124596   0.017   1.413   7.010 -1.2383 -0.9711  0.5452
 4379SOL    HW224597   0.047   1.300   7.085 -1.0094 -1.8312 -1.3061
 4380SOL     OW24598   0.883   4.175   6.783  0.1026  0.4624 -0.2158
 4380SOL    HW124599   0.859   4.129   6.864  3.3087 -2.5331 -0.9442
 4380SOL    HW224600   0.850   4.259   6.814  0.9062  1.0865 -1.0574
 4381SOL     OW24601   4.665   4.589   1.549 -0.2297  0.3057 -0.2239
 4381SOL    HW124602   4.628   4.510   1.509 -2.0169  0.9104  0.2356
 4381SOL    HW224603   4.675   4.644   1.471 -1.3314  1.8816  0.7403
 4382SOL     OW24604   1.562   2.237  12.301 -0.4258  0.6679 -0.0880
 4382SOL    HW124605   1.653   2.215  12.325 -1.0927 -0.2062  1.6365
 4382SOL    HW224606   1.535   2.267  12.388 -1.2583 -3.3138  1.0182
 4383SOL     OW24607   2.805   0.355   6.553  0.4635  0.8942 -0.1551
 4383SOL    HW124608   2.869   0.319   6.614  0.5750  1.2497 -0.0630
 4383SOL    HW224609   2.767   0.424   6.607 -1.2652 -1.2220  1.3697
 4384SOL     OW24610   3.187   4.439   7.251  0.3321  0.1250  0.2105
 4384SOL    HW124611   3.262   4.415   7.306  0.3877  0.0189  0.0898
 4384SOL    HW224612   3.127   4.466   7.321  0.3876  0.4941  0.1146
 4385SOL     OW24613   0.015   1.253  17.074  0.5792  0.1714 -0.1039
 4385SOL    HW124614   0.053   1.183  17.019  0.5512  1.1734 -1.4052
 4385SOL    HW224615   0.088   1.314  17.080  1.8414 -1.5949  2.3923
 4386SOL     OW24616   0.077   3.612   8.774 -0.2518 -0.0902 -0.1954
 4386SOL    HW124617   0.123   3.639   8.854  1.0795  0.6593 -1.1928
 4386SOL    HW224618   0.044   3.524   8.788 -2.5732  0.2247 -3.6179
 4387SOL     OW24619   3.070   4.122   8.999  0.0362 -0.0698  0.1202
 4387SOL    HW124620   3.055   4.149   8.909 -0.0080 -0.4628  0.0091
 4387SOL    HW224621   2.999   4.058   9.003 -0.1898  0.1848  0.0929
 4388SOL     OW24622   2.694   3.266   7.989 -0.6598 -0.6827 -0.6916
 4388SOL    HW124623   2.627   3.244   8.054 -1.4635  0.9716 -0.9470
 4388SOL    HW224624   2.659   3.245   7.902 -1.4418  1.2976 -0.8534
 4389SOL     OW24625   3.443   0.920  14.138  0.0760  0.3332  0.4434
 4389SOL    HW124626   3.528   0.962  14.155  1.1627 -1.8861  0.5154
 4389SOL    HW224627   3.425   0.967  14.056 -1.8975  1.6026  1.6151
 4390SOL     OW24628   3.186   1.728   9.878  0.2372  0.5318  0.1016
 4390SOL    HW124629   3.185   1.708   9.972 -0.0018  1.0406  0.2091
 4390SOL    HW224630   3.103   1.776   9.878 -1.3227 -2.2224 -0.9276
 4391SOL     OW24631   0.865   3.652  16.435 -0.0969 -0.0070 -0.8905
 4391SOL    HW124632   0.932   3.708  16.396 -0.0535  0.1755 -0.5584
 4391SOL    HW224633   0.872   3.578  16.375  2.1794  1.2984 -2.2862
 4392SOL     OW24634   3.998   3.729   5.357  0.1640  0.1401  0.0910
 4392SOL    HW124635   4.088   3.717   5.387  1.0935 -0.2526 -2.8398
 4392SOL    HW224636   3.986   3.819   5.388  3.7658  0.4232  0.6468
 4393SOL     OW24637   0.627   3.691   3.026  0.0837  0.2095  0.2800
 4393SOL    HW124638   0.674   3.609   3.041 -0.4279 -0.4903 -1.9692
 4393SOL    HW224639   0.680   3.743   2.966  0.3376  0.5572  0.7996
 4394SOL     OW24640   4.644   4.328   5.040  0.4105 -0.0877 -0.2655
 4394SOL    HW124641   0.003   4.329   5.090  0.6864 -0.8990 -0.6999
 4394SOL    HW224642   4.590   4.275   5.099 -0.9170  0.7858 -0.6937
 4395SOL     OW24643   3.493   2.161  11.560 -0.2383 -0.4289 -0.2539
 4395SOL    HW124644   3.518   2.125  11.645  2.1882 -0.8282 -1.1525
 4395SOL    HW224645   3.515   2.085  11.505  1.5990  0.5024 -0.7807
 4396SOL     OW24646   0.813   0.331  12.029  0.4381 -0.2792 -0.4323
 4396SOL    HW124647   0.877   0.333  12.100  0.5514 -0.0269 -0.5431
 4396SOL    HW224648   0.841   0.247  11.994 -0.8535 -0.9180  0.0403
 4397SOL     OW24649   1.190   2.721   2.838  0.2710 -0.3010  0.2375
 4397SOL    HW124650   1.279   2.745   2.815 -0.0833  1.1119  0.3790
 4397SOL    HW224651   1.185   2.770   2.920  2.0123 -0.5010  0.4557
 4398SOL     OW24652   0.989   1.714   0.773 -0.3631 -0.5767  0.5726
 4398SOL    HW124653   1.000   1.636   0.827  1.8966  1.0133  2.4107
 4398SOL    HW224654   0.895   1.713   0.754 -0.7020 -2.1585  2.3935
 4399SOL     OW24655   1.752   1.386  13.841  0.3036  0.1483  0.7066
 4399SOL    HW124656   1.663   1.360  13.863  0.1695 -0.6912 -0.8154
 4399SOL    HW224657   1.766   1.451  13.910 -2.9028 -0.3112  1.7509
 4400SOL     OW24658   0.062   4.604  11.796  0.3650  0.0234  0.3819
 4400SOL    HW124659   0.105   4.553  11.864  1.0077  1.2557  0.8919
 4400SOL    HW224660   4.722   4.646  11.856  0.7720 -1.1776  1.6503
 4401SOL     OW24661   3.422   2.607  15.247  0.7099 -0.3024 -0.2428
 4401SOL    HW124662   3.402   2.669  15.177  0.0011 -0.0984  0.1455
 4401SOL    HW224663   3.517   2.618  15.251  0.7323  0.3867 -2.6684
 4402SOL     OW24664   0.313   0.262   8.160 -0.2591  0.3631 -0.1767
 4402SOL    HW124665   0.247   0.230   8.099 -0.5469 -0.6723  0.6757
 4402SOL    HW224666   0.263   0.270   8.242 -0.9515  1.5531 -0.7054
 4403SOL     OW24667   3.937   2.774   6.353 -0.3174  0.1898 -0.4117
 4403SOL    HW124668   3.863   2.764   6.414  0.0739  0.9887  0.1926
 4403SOL    HW224669   3.894   2.809   6.275 -2.2973  2.2271  1.5841
 4404SOL     OW24670   2.395   3.955   2.946 -0.3196 -0.3575 -0.9016
 4404SOL    HW124671   2.316   3.992   2.906 -0.9548  0.6162  1.2636
 4404SOL    HW224672   2.415   4.031   3.001 -0.1613 -1.4747  0.5899
 4405SOL     OW24673   1.431   3.386   2.889  0.1372  0.1320  0.6122
 4405SOL    HW124674   1.441   3.478   2.915  0.4508  0.7366 -1.5899
 4405SOL    HW224675   1.394   3.405   2.803  1.4214 -0.0977  0.0026
 4406SOL     OW24676   2.389   2.096  14.308 -0.0390  0.4920  0.0478
 4406SOL    HW124677   2.440   2.021  14.278 -1.2997  0.2883 -1.5942
 4406SOL    HW224678   2.318   2.048  14.351 -0.6482  1.9192  0.6610
 4407SOL     OW24679   4.413   1.495   3.452  0.3234 -0.4700 -0.2450
 4407SOL    HW124680   4.454   1.415   3.483  1.9631 -0.3936 -2.2145
 4407SOL    HW224681   4.438   1.494   3.359  0.1860 -1.5832 -0.2639
 4408SOL     OW24682   3.012   3.206   4.208 -0.6413 -0.0705  0.6888
 4408SOL    HW124683   2.919   3.189   4.226 -0.6986  1.1668  1.6380
 4408SOL    HW224684   3.058   3.123   4.216  1.2119  1.0010  1.1434
 4409SOL     OW24685   0.229   0.237   6.107  0.4067 -0.3736 -0.1431
 4409SOL    HW124686   0.205   0.149   6.078  2.7970 -1.0873  0.0204
 4409SOL    HW224687   0.325   0.230   6.102  0.3054 -2.6521  0.9183
 4410SOL     OW24688   1.389   0.248   9.648 -0.4867  0.8974  0.0208
 4410SOL    HW124689   1.347   0.188   9.586 -0.7669 -0.1045  1.1768
 4410SOL    HW224690   1.457   0.289   9.594  1.4736 -0.8019  1.1979
 4411SOL     OW24691   2.301   2.382  12.286 -0.2008  0.2850 -0.0511
 4411SOL    HW124692   2.211   2.416  12.289  0.1455  1.0447  1.9003
 4411SOL    HW224693   2.308   2.371  12.381 -0.6927  1.7994  0.1615
 4412SOL     OW24694   1.305   2.273   4.460 -0.2759  0.3865  0.2739
 4412SOL    HW124695   1.348   2.202   4.411  1.6687  0.0381  2.4996
 4412SOL    HW224696   1.361   2.340   4.421 -1.1383  2.0412  1.9360
 4413SOL     OW24697   4.396   4.292   1.726 -0.3683 -0.6952 -0.0388
 4413SOL    HW124698   4.360   4.282   1.814 -1.9585 -0.5745 -0.6635
 4413SOL    HW224699   4.347   4.365   1.688 -1.8007 -0.9138  1.3596
 4414SOL     OW24700   0.976   3.750   3.321 -0.2322 -0.8006 -0.1021
 4414SOL    HW124701   0.917   3.678   3.340  0.8210 -2.3735 -2.7870
 4414SOL    HW224702   1.023   3.720   3.243  0.3332 -0.2693  0.0285
 4415SOL     OW24703   2.955   2.686   2.637 -1.1267 -0.4867  0.1632
 4415SOL    HW124704   3.041   2.657   2.606 -1.3375  0.4517 -1.3051
 4415SOL    HW224705   2.896   2.631   2.586 -2.8241  0.9800  0.5614
 4416SOL     OW24706   3.336   0.737   1.766  0.2208 -0.5676 -0.7598
 4416SOL    HW124707   3.429   0.742   1.743  0.2163 -0.1151 -0.6731
 4416SOL    HW224708   3.328   0.644   1.786  1.8406 -0.3544  0.8629
 4417SOL     OW24709   1.605   0.606   3.224 -0.7811 -0.0613 -0.3023
 4417SOL    HW124710   1.646   0.591   3.309  1.5630 -0.9814 -1.5836
 4417SOL    HW224711   1.681   0.625   3.168 -0.7870  0.3135 -0.1859
 4418SOL     OW24712   3.842   2.220   0.977  0.0802  0.0345 -0.1812
 4418SOL    HW124713   3.900   2.167   0.922  0.2186  1.5597 -1.5259
 4418SOL    HW224714   3.870   2.310   0.960  0.5424 -0.7651 -3.7999
 4419SOL     OW24715   3.769   3.475   3.263  0.5597 -1.1491  0.0086
 4419SOL    HW124716   3.745   3.475   3.170 -0.7044  3.1629  0.3321
 4419SOL    HW224717   3.705   3.410   3.292 -0.0663 -0.0886  1.0181
 4420SOL     OW24718   0.038   3.855   9.207 -0.2781  0.2729 -0.6709
 4420SOL    HW124719   0.031   3.760   9.207 -0.5880  0.2953 -0.7501
 4420SOL    HW224720   0.070   3.870   9.118 -1.2642 -0.9300 -1.2227
 4421SOL     OW24721   3.082   1.557   4.074  0.1078  0.0608 -0.2069
 4421SOL    HW124722   3.141   1.484   4.092  0.6054 -0.0309 -2.2236
 4421SOL    HW224723   3.018   1.538   4.142  1.2000 -0.0785  0.7934
 4422SOL     OW24724   1.492   1.352   4.903 -0.2020  0.2261 -0.1460
 4422SOL    HW124725   1.458   1.418   4.843  0.1681 -1.2147 -1.9467
 4422SOL    HW224726   1.539   1.285   4.855 -3.5008 -2.1052 -0.1525
 4423SOL     OW24727   3.088   2.384   5.638 -0.2413 -0.6314 -0.2545
 4423SOL    HW124728   3.018   2.335   5.681 -0.9145  0.0778 -0.5425
 4423SOL    HW224729   3.039   2.432   5.572  2.2708 -1.6839 -2.9141
 4424SOL     OW24730   3.299   2.969  11.729  0.1784 -0.7286  0.7740
 4424SOL    HW124731   3.366   3.018  11.681 -0.7039 -0.0001  0.2713
 4424SOL    HW224732   3.353   2.910  11.781  1.7826 -0.6032 -0.7681
 4425SOL     OW24733   0.283   2.919  15.210 -0.1437 -0.2934  0.5418
 4425SOL    HW124734   0.243   2.844  15.167 -0.0977 -0.3825  0.6549
 4425SOL    HW224735   0.317   2.962  15.131  0.4645 -1.6787  0.0559
 4426SOL     OW24736   0.431   2.450   5.159 -0.1559 -0.0094 -0.0080
 4426SOL    HW124737   0.360   2.414   5.105 -0.4333 -0.2570  0.5236
 4426SOL    HW224738   0.453   2.535   5.120  0.9180  0.5274  1.7705
 4427SOL     OW24739   1.630   2.880  13.901  0.3603 -0.1118 -0.9625
 4427SOL    HW124740   1.684   2.923  13.967  1.1618 -1.0717 -1.0061
 4427SOL    HW224741   1.616   2.790  13.930 -0.5021  0.5793  0.7996
 4428SOL     OW24742   4.427   0.308   1.254 -0.2553  0.1525  0.3954
 4428SOL    HW124743   4.452   0.216   1.265  2.0558  1.1047  3.1998
 4428SOL    HW224744   4.511   0.344   1.225  0.4034  1.0033  3.3595
 4429SOL     OW24745   0.507   3.103   5.876  0.0863  0.4196  0.3299
 4429SOL    HW124746   0.562   3.178   5.899 -1.3785  1.1552  1.3764
 4429SOL    HW224747   0.461   3.100   5.959  2.6989 -3.4772  1.6715
 4430SOL     OW24748   3.420   4.263   9.378  0.0927  0.2723 -0.1490
 4430SOL    HW124749   3.405   4.215   9.459 -0.1384 -0.9405 -0.9163
 4430SOL    HW224750   3.353   4.225   9.322 -2.3498 -1.1496  3.7666
 4431SOL     OW24751   0.382   0.104   0.446  0.6169 -0.4119 -0.0736
 4431SOL    HW124752   0.348   0.035   0.389  0.5536 -0.2866 -0.1878
 4431SOL    HW224753   0.400   0.173   0.382  1.8638 -0.7221 -0.0685
 4432SOL     OW24754   1.309   1.449  14.561  0.4985  0.4827 -0.0033
 4432SOL    HW124755   1.404   1.454  14.558  0.6170 -0.6467  1.5963
 4432SOL    HW224756   1.284   1.462  14.653 -2.0942 -0.7796 -0.5126
 4433SOL     OW24757   4.469   2.539   7.994 -0.1379 -0.4357  0.1074
 4433SOL    HW124758   4.563   2.549   7.984 -0.0315 -0.3475  1.1853
 4433SOL    HW224759   4.459   2.444   7.996  2.6412 -0.7043  0.4399
 4434SOL     OW24760   4.199   3.358  10.195 -0.0427 -0.0131  0.6871
 4434SOL    HW124761   4.246   3.427  10.149 -0.1966 -0.5309 -0.2507
 4434SOL    HW224762   4.254   3.338  10.271 -0.0884 -0.1787  0.6765
 4435SOL     OW24763   4.293   0.557   0.739 -0.3522 -0.1234  0.0030
 4435SOL    HW124764   4.307   0.466   0.767  3.6590  0.9593  1.5703
 4435SOL    HW224765   4.358   0.557   0.668  0.2328  0.3677  0.5361
 4436SOL     OW24766   0.495   4.522  14.865  0.7338 -0.4680  0.1892
 4436SOL    HW124767   0.443   4.594  14.902  0.7033 -0.5133  0.2349
 4436SOL    HW224768   0.563   4.519  14.932  0.2815 -0.0178  0.6754
 4437SOL     OW24769   2.417   2.316   6.482  0.5278 -0.2282  0.0736
 4437SOL    HW124770   2.475   2.352   6.414  1.6912  0.5804  1.5051
 4437SOL    HW224771   2.333   2.326   6.436 -0.0682  1.2721  1.4988
 4438SOL     OW24772   2.191   4.427   5.228 -0.1602  0.4901 -0.7410
 4438SOL    HW124773   2.201   4.358   5.293 -1.2479 -0.0660 -1.1712
 4438SOL    HW224774   2.234   4.505   5.263  1.2150 -0.6898  0.2115
 4439SOL     OW24775   1.874   0.653   4.796 -0.3473 -0.2664  0.3906
 4439SOL    HW124776   1.891   0.696   4.880 -0.9766  1.6599 -0.4658
 4439SOL    HW224777   1.863   0.563   4.825  1.7240 -0.3491  0.9295
 4440SOL     OW24778   0.269   2.670   3.733 -0.3288  0.1554  0.3020
 4440SOL    HW124779   0.272   2.765   3.733 -1.2655  0.1857 -1.3123
 4440SOL    HW224780   0.305   2.665   3.644 -0.3494 -1.8468  0.4124
 4441SOL     OW24781   0.658   0.952   0.251  0.2249  0.8820 -0.0479
 4441SOL    HW124782   0.689   0.890   0.185 -0.2128  2.3271 -1.5984
 4441SOL    HW224783   0.690   0.909   0.331 -3.1155 -0.8743  0.3164
 4442SOL     OW24784   0.876   2.072  14.915 -0.1067  0.1389  0.1213
 4442SOL    HW124785   0.836   2.144  14.964 -1.6446 -0.4920 -0.2150
 4442SOL    HW224786   0.828   2.072  14.832  1.8968  1.4180 -1.0384
 4443SOL     OW24787   2.066   4.193   6.630 -0.1073  0.5294 -0.6614
 4443SOL    HW124788   2.095   4.270   6.581  0.2454  0.1181 -1.0944
 4443SOL    HW224789   1.971   4.196   6.615 -0.1532 -2.5316 -0.9996
 4444SOL     OW24790   0.193   0.321  15.316 -0.4116 -0.2955  0.1207
 4444SOL    HW124791   0.264   0.368  15.359 -1.9446  1.7884  0.3767
 4444SOL    HW224792   0.215   0.233  15.346  1.3275 -1.6495 -5.2381
 4445SOL     OW24793   2.922   1.232   6.018 -0.3335 -0.5380  0.0700
 4445SOL    HW124794   2.970   1.155   5.987  1.2465  0.9984 -1.3665
 4445SOL    HW224795   2.992   1.276   6.067 -2.6603 -0.1925  3.0558
 4446SOL     OW24796   1.875   1.458   5.500 -0.4481  0.4406 -0.4072
 4446SOL    HW124797   1.930   1.379   5.503 -0.8882  0.1642  0.4088
 4446SOL    HW224798   1.898   1.508   5.421  1.6858  0.0938 -0.0097
 4447SOL     OW24799   1.444   0.771  17.246  0.2068  0.3907  0.1134
 4447SOL    HW124800   1.428   0.775  17.152  0.8731 -0.5716 -0.0340
 4447SOL    HW224801   1.511   0.840  17.248  0.9314 -0.3693  1.9871
 4448SOL     OW24802   2.116   4.200  11.221 -0.3490  0.1230  0.0330
 4448SOL    HW124803   2.205   4.235  11.214 -1.1273  1.6794 -2.2150
 4448SOL    HW224804   2.127   4.124  11.163 -1.9072  0.5543 -0.8418
 4449SOL     OW24805   0.707   3.454  13.385 -0.1476  0.0762  0.2543
 4449SOL    HW124806   0.722   3.513  13.312  0.9176  0.6330  0.9266
 4449SOL    HW224807   0.691   3.511  13.460  0.2335 -1.2367  1.3363
 4450SOL     OW24808   4.321   3.850  16.334  0.3544  0.5623 -0.7496
 4450SOL    HW124809   4.342   3.757  16.326 -2.4906 -0.3578  2.2103
 4450SOL    HW224810   4.264   3.840  16.411 -0.7478  1.7656 -1.4137
 4451SOL     OW24811   0.625   0.982   2.949  0.1478  0.9396 -0.1138
 4451SOL    HW124812   0.535   1.006   2.971 -0.3813 -0.1810 -1.0562
 4451SOL    HW224813   0.648   1.060   2.899  1.2403  0.0420 -1.0193
 4452SOL     OW24814   2.903   4.462  15.718 -0.1288 -0.0028 -0.2107
 4452SOL    HW124815   2.892   4.523  15.645  0.1384  1.5831  1.0628
 4452SOL    HW224816   2.963   4.511  15.775  1.1350 -0.5539 -1.0734
 4453SOL     OW24817   1.080   2.127   7.726  0.2969  0.0200  0.0059
 4453SOL    HW124818   1.092   2.214   7.764  1.5175  0.1019 -0.5368
 4453SOL    HW224819   0.999   2.092   7.762  0.7948 -1.8044 -0.6485
 4454SOL     OW24820   0.536   0.792   2.262  0.3065  0.0951 -0.7217
 4454SOL    HW124821   0.490   0.722   2.215 -0.1803  0.1848 -0.3740
 4454SOL    HW224822   0.608   0.745   2.304 -1.8035 -1.4220  1.1695
 4455SOL     OW24823   3.504   0.673   7.679  0.6276  0.0929  0.7315
 4455SOL    HW124824   3.555   0.631   7.748 -1.5189 -2.3028  0.8468
 4455SOL    HW224825   3.413   0.667   7.705 -0.2582  3.7826 -1.5952
 4456SOL     OW24826   2.396   4.244  11.206 -0.4656 -0.6840  0.1925
 4456SOL    HW124827   2.411   4.337  11.186 -1.6696 -0.9220 -1.7127
 4456SOL    HW224828   2.400   4.203  11.120  0.4388  0.6082 -0.3844
 4457SOL     OW24829   0.261   1.779  13.450 -0.5795  0.1348 -0.0439
 4457SOL    HW124830   0.295   1.759  13.362  0.5434  0.9704  0.1903
 4457SOL    HW224831   0.338   1.749  13.498 -2.1586 -0.0462  2.3920
 4458SOL     OW24832   1.346   1.191   5.406 -0.2716 -0.8780  0.0579
 4458SOL    HW124833   1.272   1.229   5.360 -0.2069 -2.2185 -1.1913
 4458SOL    HW224834   1.309   1.139   5.477  0.4247 -0.0154  1.0470
 4459SOL     OW24835   4.554   1.519   0.317 -0.1686 -0.1783 -0.3814
 4459SOL    HW124836   4.634   1.470   0.335  1.0464  2.7580  2.2376
 4459SOL    HW224837   4.499   1.485   0.388 -0.4897 -0.2780 -0.6793
 4460SOL     OW24838   4.517   3.585   6.799 -0.1613 -0.1721 -0.1400
 4460SOL    HW124839   4.570   3.635   6.860 -0.6616  1.0865 -0.7452
 4460SOL    HW224840   4.491   3.656   6.741  0.5938 -1.0854 -1.6132
 4461SOL     OW24841   2.173   0.335   8.348  0.1216 -0.1965  0.5722
 4461SOL    HW124842   2.260   0.349   8.311 -0.0303 -1.1043 -0.1007
 4461SOL    HW224843   2.142   0.425   8.361 -2.0934 -0.8505 -0.2997
 4462SOL     OW24844   2.981   4.193   3.396 -0.0223  0.1851 -0.5657
 4462SOL    HW124845   2.923   4.149   3.459  1.6882  0.7692  1.4323
 4462SOL    HW224846   3.065   4.180   3.440 -0.0447  1.8998 -0.0038
 4463SOL     OW24847   4.322   0.082  11.808  0.0786 -0.7800  0.1499
 4463SOL    HW124848   4.360   0.145  11.748 -0.2322 -1.5252 -0.8377
 4463SOL    HW224849   4.353   0.110  11.894  0.2775 -2.4057  0.6242
 4464SOL     OW24850   0.724   2.528   4.020  0.0321 -0.3108  0.1869
 4464SOL    HW124851   0.791   2.494   4.079  1.5531 -0.5698 -1.7025
 4464SOL    HW224852   0.757   2.488   3.940  2.4597  2.9578 -0.4423
 4465SOL     OW24853   2.932   2.964   2.647  0.1938 -0.2328  0.1432
 4465SOL    HW124854   2.947   2.871   2.637 -1.0138 -0.4721  0.4630
 4465SOL    HW224855   2.938   3.003   2.560 -0.3527  1.0849  0.6892
 4466SOL     OW24856   0.961   0.668   8.559  0.3625 -0.5897 -0.5552
 4466SOL    HW124857   0.976   0.762   8.567  0.4026 -0.9673  3.9815
 4466SOL    HW224858   1.035   0.638   8.506 -0.2797 -2.1634 -0.5618
 4467SOL     OW24859   2.008   4.127   3.919  0.4394 -0.3197  0.3179
 4467SOL    HW124860   2.020   4.042   3.961 -1.5414 -0.7602  0.0110
 4467SOL    HW224861   1.939   4.113   3.855 -1.6746  1.1709  2.2518
 4468SOL     OW24862   1.250   0.903   3.492 -0.0092  0.1118 -0.6906
 4468SOL    HW124863   1.256   0.992   3.458 -1.9058 -0.1258 -1.6749
 4468SOL    HW224864   1.231   0.849   3.415 -0.4792 -0.1192 -0.4155
 4469SOL     OW24865   3.975   3.817  17.542  0.5304 -0.0138 -0.4986
 4469SOL    HW124866   4.018   3.734  17.519  0.9519  0.3355 -0.9731
 4469SOL    HW224867   3.914   3.790  17.610 -0.9764  1.8120 -1.1416
 4470SOL     OW24868   4.247   0.340  13.931 -0.3309 -0.1330  0.2901
 4470SOL    HW124869   4.259   0.317  14.023  1.6611 -0.3812 -0.0272
 4470SOL    HW224870   4.165   0.298  13.907 -0.6217  0.9555 -0.6225
 4471SOL     OW24871   3.569   3.237   7.899 -0.3464  0.0658 -0.4235
 4471SOL    HW124872   3.511   3.221   7.973 -1.3841 -0.6175 -1.3991
 4471SOL    HW224873   3.559   3.153   7.856  0.7625  0.4131 -1.3586
 4472SOL     OW24874   2.240   3.491  11.685 -0.1234  0.4769  0.6175
 4472SOL    HW124875   2.175   3.547  11.643  1.0394  2.5384  1.5444
 4472SOL    HW224876   2.270   3.545  11.758  1.4283  1.3965 -0.6958
 4473SOL     OW24877   4.371   1.900  13.768  0.1962  0.7969 -0.0246
 4473SOL    HW124878   4.403   1.985  13.736 -0.9036  0.7435 -1.2632
 4473SOL    HW224879   4.400   1.845  13.695  1.1217  3.2054 -1.4884
 4474SOL     OW24880   0.077   3.381   5.303 -0.0943  0.3063 -0.7908
 4474SOL    HW124881   0.051   3.289   5.301 -0.9556  0.5417 -0.5980
 4474SOL    HW224882   0.166   3.372   5.270  0.0130  1.0317 -0.6949
 4475SOL     OW24883   0.409   3.463  15.384  0.2284  0.1550 -0.0093
 4475SOL    HW124884   0.411   3.392  15.320  1.1171  0.1880 -0.0194
 4475SOL    HW224885   0.443   3.535  15.332  0.0613  0.0951 -0.2010
 4476SOL     OW24886   0.364   2.046  12.749  0.2378 -0.9520 -0.1384
 4476SOL    HW124887   0.300   2.025  12.682 -1.4642 -0.8087  1.4601
 4476SOL    HW224888   0.343   2.136  12.774  0.4991 -0.9428  0.0504
 4477SOL     OW24889   1.338   0.109   4.149 -0.2721 -0.2474 -0.2122
 4477SOL    HW124890   1.409   0.058   4.111 -0.5661 -0.1950 -0.8292
 4477SOL    HW224891   1.369   0.199   4.155 -2.4763  0.5312 -0.3226
 4478SOL     OW24892   1.749   3.275   7.908 -0.0865 -0.2602 -0.7435
 4478SOL    HW124893   1.844   3.269   7.901  0.1230  1.8312  0.1979
 4478SOL    HW224894   1.728   3.226   7.829  0.8861  1.7193 -2.2183
 4479SOL     OW24895   3.454   1.762   8.645  0.3486  0.3537  0.2507
 4479SOL    HW124896   3.477   1.765   8.552  0.7132  0.1404  0.3334
 4479SOL    HW224897   3.440   1.670   8.667  1.2236 -0.2571 -1.7366
 4480SOL     OW24898   0.562   4.095   4.775 -0.0331  0.1771 -0.3221
 4480SOL    HW124899   0.641   4.042   4.782  0.3635  0.7573 -0.4770
 4480SOL    HW224900   0.500   4.022   4.766  1.4938 -0.9642 -1.7291
 4481SOL     OW24901   0.820   3.387  15.842  0.2407  0.1460  1.0276
 4481SOL    HW124902   0.777   3.374  15.758  1.4296  1.0167  0.2770
 4481SOL    HW224903   0.752   3.444  15.879  0.2324  0.1129  1.0622
 4482SOL     OW24904   0.599   4.188   5.667  0.6164 -0.0629  0.2653
 4482SOL    HW124905   0.574   4.123   5.733 -1.5428  1.8005  1.2879
 4482SOL    HW224906   0.578   4.271   5.710 -1.5759 -1.3359  1.6499
 4483SOL     OW24907   3.980   4.317   9.902 -0.1169 -0.2073  0.5784
 4483SOL    HW124908   3.915   4.364   9.849  0.7291  0.6563  0.3059
 4483SOL    HW224909   4.008   4.386   9.962 -1.1902  2.2304 -1.6656
 4484SOL     OW24910   0.741   2.809  16.953  0.4553 -0.2983 -0.1079
 4484SOL    HW124911   0.782   2.809  16.866 -0.5119 -1.4562 -0.5746
 4484SOL    HW224912   0.808   2.802  17.021 -2.4095  2.0994  2.9050
 4485SOL     OW24913   1.936   2.894  15.592 -0.2350 -0.2824  0.1072
 4485SOL    HW124914   1.920   2.827  15.526 -0.7519  0.6956 -0.7687
 4485SOL    HW224915   1.943   2.973  15.538  2.3052  0.7570  1.9492
 4486SOL     OW24916   3.133   0.093   1.447 -0.0367  0.2578 -0.9865
 4486SOL    HW124917   3.220   0.096   1.408 -0.1923  1.6646 -1.2238
 4486SOL    HW224918   3.104   0.182   1.427  1.6919  1.1676  0.5164
 4487SOL     OW24919   3.060   0.054   9.919 -0.0145  0.2404 -0.3264
 4487SOL    HW124920   3.033   0.135   9.961  1.1824  0.7133 -0.4757
 4487SOL    HW224921   3.139   0.031   9.968  1.2163  1.0474 -1.9354
 4488SOL     OW24922   0.689   0.467   5.412  0.3113  1.2445  0.3165
 4488SOL    HW124923   0.701   0.462   5.506  1.3765 -1.2013  0.0507
 4488SOL    HW224924   0.759   0.412   5.376  0.6171  0.9851  1.3224
 4489SOL     OW24925   2.146   2.644  11.461 -0.0814 -0.0038  0.4316
 4489SOL    HW124926   2.187   2.558  11.472  0.5117  0.5282  2.4867
 4489SOL    HW224927   2.179   2.666  11.374  0.1766  1.5155  0.9208
 4490SOL     OW24928   4.657   3.519  15.488  0.0876  0.2777 -0.2089
 4490SOL    HW124929   0.022   3.558  15.497 -1.5934  4.4888 -1.9290
 4490SOL    HW224930   4.689   3.431  15.471 -3.2721 -1.1457  0.8190
 4491SOL     OW24931   3.084   2.543   3.589 -0.4012  0.0889  0.3373
 4491SOL    HW124932   3.040   2.565   3.672 -1.9163  1.7144 -0.8831
 4491SOL    HW224933   3.006   2.507   3.548  1.3752  0.4733 -3.3144
 4492SOL     OW24934   0.732   3.314  17.518 -0.3365  0.3118 -0.4696
 4492SOL    HW124935   0.697   3.400  17.543 -0.7386  1.0278 -3.5200
 4492SOL    HW224936   0.733   3.270  17.603  3.3053  2.8455  0.7916
 4493SOL     OW24937   1.112   0.934   6.554  0.1249 -0.3292  0.4266
 4493SOL    HW124938   1.102   0.898   6.465  2.5612 -0.7093  0.3275
 4493SOL    HW224939   1.099   1.027   6.534 -0.9481 -0.6141 -0.2481
 4494SOL     OW24940   3.299   2.909   3.985  0.4294  0.5804  0.1729
 4494SOL    HW124941   3.359   2.979   4.012  0.3754  0.3105  0.9891
 4494SOL    HW224942   3.346   2.828   4.005 -2.2923 -0.9720  0.3485
 4495SOL     OW24943   1.472   1.564   9.433 -0.5093  0.7332 -0.1701
 4495SOL    HW124944   1.435   1.571   9.345  1.0620  1.2161 -0.7879
 4495SOL    HW224945   1.404   1.507   9.472 -1.1469  0.9596 -0.9614
 4496SOL     OW24946   2.741   3.722   6.792  0.0687 -0.9416 -0.2806
 4496SOL    HW124947   2.791   3.700   6.713 -0.0157  0.7777 -0.8103
 4496SOL    HW224948   2.816   3.718   6.852  1.4648  2.7035 -1.7207
 4497SOL     OW24949   1.260   0.716   8.862  0.2018 -0.0714  0.2170
 4497SOL    HW124950   1.354   0.711   8.842 -0.0588  0.5883 -1.1660
 4497SOL    HW224951   1.260   0.786   8.927  2.1923  0.2029 -0.0750
 4498SOL     OW24952   3.234   2.742   8.261 -0.4927  0.3351 -0.7166
 4498SOL    HW124953   3.278   2.663   8.291  0.4883  1.5778  1.0706
 4498SOL    HW224954   3.149   2.735   8.304  0.8797 -1.7852  1.7010
 4499SOL     OW24955   4.024   0.165   7.097  0.1767  0.4771  0.8072
 4499SOL    HW124956   3.966   0.164   7.020  0.5780  2.0322  0.4963
 4499SOL    HW224957   4.023   0.076   7.133  0.9822  0.2468  0.2497
 4500SOL     OW24958   0.168   4.371   7.378 -0.6297 -0.0661  0.0452
 4500SOL    HW124959   0.123   4.358   7.295  1.6227 -0.3964 -1.1159
 4500SOL    HW224960   0.096   4.410   7.428 -0.7880 -0.6476  0.2807
 4501SOL     OW24961   2.219   2.485   2.563 -0.2525 -0.4318 -0.1850
 4501SOL    HW124962   2.256   2.481   2.651  1.2544  1.4891 -0.6993
 4501SOL    HW224963   2.125   2.479   2.577 -0.2837  0.3639 -0.0328
 4502SOL     OW24964   4.483   0.369   8.980 -0.1271  0.1771  0.3591
 4502SOL    HW124965   4.460   0.431   8.911  2.8559  0.0941 -0.7325
 4502SOL    HW224966   4.560   0.332   8.937 -1.5539 -1.4724 -0.7791
 4503SOL     OW24967   4.539   1.355   8.464  0.1986  0.4241 -0.3702
 4503SOL    HW124968   4.487   1.276   8.457  1.5669 -0.5788  0.8667
 4503SOL    HW224969   4.514   1.403   8.385  0.8311  0.9363 -0.2628
 4504SOL     OW24970   4.317   1.206   1.735 -0.0545 -0.2674 -0.1684
 4504SOL    HW124971   4.286   1.296   1.746 -0.5789 -0.2258 -2.0108
 4504SOL    HW224972   4.370   1.212   1.656 -1.5293  0.1203 -1.1293
 4505SOL     OW24973   0.071   1.936  14.684 -0.2713  0.0602 -0.2080
 4505SOL    HW124974   0.159   1.939  14.646  0.1739 -2.5359  0.5637
 4505SOL    HW224975   0.045   1.851  14.647 -0.1366 -0.7740  1.6113
 4506SOL     OW24976   4.700   0.915  16.562  0.1432  0.3624 -0.4725
 4506SOL    HW124977   4.640   0.840  16.563  0.6606 -0.0662 -1.7146
 4506SOL    HW224978   0.007   0.917  16.653  1.7496  0.7501 -0.9990
 4507SOL     OW24979   1.326   3.622  10.768 -0.9550  0.3819  0.0844
 4507SOL    HW124980   1.412   3.644  10.805 -0.6986 -1.1467  0.3698
 4507SOL    HW224981   1.297   3.544  10.814 -1.4906  0.0293 -0.8669
 4508SOL     OW24982   1.559   3.297   3.748 -0.0542 -0.0797  0.4310
 4508SOL    HW124983   1.574   3.272   3.657 -1.0656 -2.3638  0.8948
 4508SOL    HW224984   1.520   3.383   3.728  0.5866  0.3349  0.9868
 4509SOL     OW24985   3.108   4.008   8.547  0.5889  0.0372  0.2023
 4509SOL    HW124986   3.120   4.033   8.455 -1.2652 -0.6497 -0.2378
 4509SOL    HW224987   3.177   4.062   8.586 -0.4987  1.9183 -0.4989
 4510SOL     OW24988   4.387   0.886   4.290  0.4492  0.1267 -0.5567
 4510SOL    HW124989   4.388   0.962   4.231  0.0335  0.3798 -0.2367
 4510SOL    HW224990   4.455   0.834   4.246  1.7471  1.5398 -0.2377
 4511SOL     OW24991   1.433   3.994   7.461 -0.9698 -0.2117  0.3552
 4511SOL    HW124992   1.441   4.079   7.506  0.3387 -0.1817  0.0692
 4511SOL    HW224993   1.347   4.006   7.422 -1.0454 -1.7297  0.0623
 4512SOL     OW24994   4.190   0.344   1.399 -0.0483 -0.6006  0.2045
 4512SOL    HW124995   4.176   0.249   1.404 -0.6071 -0.4536  1.3856
 4512SOL    HW224996   4.274   0.335   1.354 -0.2308 -2.2220  0.1730
 4513SOL     OW24997   2.760   3.997   1.749  0.0179  0.0700 -0.0853
 4513SOL    HW124998   2.850   3.977   1.724 -0.1894 -0.2999 -0.5226
 4513SOL    HW224999   2.759   3.968   1.840 -1.2744 -0.5467 -0.3083
 4514SOL     OW25000   4.532   0.388   0.864 -0.2108  0.1870  0.2246
 4514SOL    HW125001   4.502   0.298   0.854 -0.1479  0.3383 -1.3402
 4514SOL    HW225002   4.459   0.415   0.919 -0.6656 -0.7136  0.0554
 4515SOL     OW25003   3.199   2.792   9.207 -0.1575  0.3816 -0.4654
 4515SOL    HW125004   3.129   2.849   9.241  1.1950  1.8992 -0.2385
 4515SOL    HW225005   3.272   2.822   9.260 -3.2708  0.6906  3.6155
 4516SOL     OW25006   0.526   0.675  10.980  0.6581  0.4151 -0.2452
 4516SOL    HW125007   0.564   0.740  11.039  1.6166 -4.3360  4.3848
 4516SOL    HW225008   0.601   0.624  10.950  0.5280  0.0747  0.0047
 4517SOL     OW25009   3.505   0.757  15.170  0.1826  0.3229 -0.0923
 4517SOL    HW125010   3.445   0.719  15.106  0.9254  1.2887 -1.3921
 4517SOL    HW225011   3.593   0.763  15.132  0.1626 -1.3742 -0.4029
 4518SOL     OW25012   4.417   2.596   4.561  0.0513 -0.2801  0.0310
 4518SOL    HW125013   4.447   2.533   4.496 -1.4542  0.7813 -1.7010
 4518SOL    HW225014   4.399   2.540   4.637 -0.1776 -0.7011 -0.3390
 4519SOL     OW25015   0.170   0.716  15.366 -0.2143 -0.1791 -1.1284
 4519SOL    HW125016   0.248   0.663  15.381 -0.0905  0.1859 -0.4822
 4519SOL    HW225017   0.161   0.770  15.445  0.6911 -0.2205 -0.9941
 4520SOL     OW25018   0.374   2.104   7.231  0.4230 -0.0927  0.4883
 4520SOL    HW125019   0.397   2.174   7.291  2.3860 -0.0501 -0.3121
 4520SOL    HW225020   0.334   2.142   7.152  0.7201 -1.1858 -0.1865
 4521SOL     OW25021   0.045   2.952  12.789  0.4140  0.0668 -0.2880
 4521SOL    HW125022   0.008   3.033  12.825  0.4494 -0.8923  1.9323
 4521SOL    HW225023   4.697   2.890  12.807 -2.0530  3.1299  0.5435
 4522SOL     OW25024   3.805   3.733   5.935 -0.2994 -0.2599  0.3250
 4522SOL    HW125025   3.881   3.788   5.917 -1.3850  1.0809 -0.2514
 4522SOL    HW225026   3.750   3.774   5.867  2.2776 -0.3317 -1.8048
 4523SOL     OW25027   3.068   4.636   7.979  0.4089  0.3246  0.0934
 4523SOL    HW125028   2.983   4.593   7.979  2.0084 -2.9162  0.2762
 4523SOL    HW225029   3.113   4.556   7.952  1.2836  0.8365  0.0382
 4524SOL     OW25030   0.639   4.191   7.554 -0.1029 -0.4430  0.0299
 4524SOL    HW125031   0.545   4.187   7.538 -0.1217  3.2780 -0.8676
 4524SOL    HW225032   0.650   4.116   7.612 -2.1271 -0.3414  0.5278
 4525SOL     OW25033   1.564   1.742   7.242  0.0261 -0.2429 -0.0373
 4525SOL    HW125034   1.554   1.715   7.334 -0.2890  0.3014  0.0886
 4525SOL    HW225035   1.478   1.782   7.228 -0.0990  0.0539  1.5742
 4526SOL     OW25036   2.620   1.656   8.933 -0.1937 -0.7765  0.4264
 4526SOL    HW125037   2.627   1.653   9.029  3.9681 -0.1738  0.1573
 4526SOL    HW225038   2.554   1.721   8.910 -0.4604 -1.3478 -0.3826
 4527SOL     OW25039   3.354   1.066  10.116  0.2045 -0.1484 -0.1290
 4527SOL    HW125040   3.425   1.109  10.164 -0.2899 -2.1124  2.3889
 4527SOL    HW225041   3.413   0.992  10.099  1.2654  0.1885  2.1154
 4528SOL     OW25042   3.660   2.586   6.194  0.4011  0.4213  0.3402
 4528SOL    HW125043   3.719   2.579   6.119  0.0082  1.7854 -0.0887
 4528SOL    HW225044   3.633   2.677   6.181 -0.2380  0.1666 -0.1128
 4529SOL     OW25045   3.918   1.431   9.540  0.1824  0.0785 -0.3805
 4529SOL    HW125046   3.875   1.361   9.590  3.0076 -1.2425  0.2076
 4529SOL    HW225047   3.851   1.499   9.549 -0.0736 -0.5547  2.5333
 4530SOL     OW25048   0.564   2.605   7.500  0.0917 -0.3619 -0.6553
 4530SOL    HW125049   0.643   2.647   7.467 -0.4326 -0.0613 -1.5167
 4530SOL    HW225050   0.531   2.556   7.425 -0.2623 -0.3894 -0.4819
 4531SOL     OW25051   1.551   4.303   0.330 -0.2358 -0.1903 -0.4597
 4531SOL    HW125052   1.456   4.310   0.342 -0.3251 -0.1952 -1.1519
 4531SOL    HW225053   1.591   4.384   0.361 -0.8905 -0.0840  0.1224
 4532SOL     OW25054   2.845   3.146   6.911  0.0369 -0.0187 -0.4096
 4532SOL    HW125055   2.918   3.118   6.856 -0.6343 -3.6881  0.5543
 4532SOL    HW225056   2.780   3.087   6.872  0.2467 -0.9076  0.5930
 4533SOL     OW25057   3.704   2.533   0.218 -0.5683 -0.2762  0.0235
 4533SOL    HW125058   3.644   2.608   0.221 -1.8094 -1.2751  0.1621
 4533SOL    HW225059   3.646   2.465   0.183  0.0660 -0.4408 -0.7000
 4534SOL     OW25060   4.590   0.290  14.727 -0.0264 -0.3041  0.8662
 4534SOL    HW125061   4.539   0.315  14.649 -2.0914 -0.7550  2.0636
 4534SOL    HW225062   4.571   0.368  14.779  0.0151  0.5516 -0.3934
 4535SOL     OW25063   2.282   3.345   5.101  0.5017  0.0167 -0.1630
 4535SOL    HW125064   2.230   3.363   5.023  0.1077  1.3368  0.3923
 4535SOL    HW225065   2.213   3.375   5.161  0.5716 -0.2561  0.0539
 4536SOL     OW25066   2.712   2.054  11.331  0.7032 -0.5642 -0.1420
 4536SOL    HW125067   2.766   2.133  11.327 -1.7294  1.0012 -1.8150
 4536SOL    HW225068   2.759   2.010  11.261 -0.4928 -0.3528 -1.0771
 4537SOL     OW25069   1.033   3.524   8.037  0.5620 -0.3239  0.0604
 4537SOL    HW125070   1.085   3.536   8.116  3.1376  1.4474 -1.8901
 4537SOL    HW225071   1.034   3.603   7.982 -1.3638  1.5725  2.7772
 4538SOL     OW25072   0.523   2.979  15.302  0.3659 -0.7013  0.4012
 4538SOL    HW125073   0.443   2.933  15.275 -0.6651 -0.5655  3.1515
 4538SOL    HW225074   0.579   2.955  15.228 -0.1331 -1.7887  0.3641
 4539SOL     OW25075   2.089   0.110   8.219 -0.4035  0.2956 -0.3597
 4539SOL    HW125076   2.120   0.195   8.249  1.9816 -0.6978 -0.0120
 4539SOL    HW225077   2.121   0.112   8.129  0.6628  3.8653  0.1089
 4540SOL     OW25078   4.202   3.326   5.743 -0.1909 -0.0931  0.0719
 4540SOL    HW125079   4.248   3.244   5.727 -1.3787 -0.5381 -1.0728
 4540SOL    HW225080   4.279   3.369   5.782 -1.2552  1.9258 -0.0507
 4541SOL     OW25081   2.822   2.926   9.142  0.1754  0.5877  0.0751
 4541SOL    HW125082   2.853   3.008   9.105  2.7441 -1.0036 -1.2515
 4541SOL    HW225083   2.884   2.921   9.215 -1.4706  0.0301  1.4540
 4542SOL     OW25084   2.328   2.365   3.398 -0.3041  0.3960 -0.4908
 4542SOL    HW125085   2.297   2.318   3.475 -0.3765  1.0797 -0.0984
 4542SOL    HW225086   2.277   2.320   3.330 -0.5977  0.0849 -0.0676
 4543SOL     OW25087   0.172   1.782   0.587 -0.4848 -0.3152 -0.1317
 4543SOL    HW125088   0.197   1.819   0.502  0.4673  1.6466  1.0068
 4543SOL    HW225089   0.150   1.861   0.636 -0.4911 -1.3144  1.4689
 4544SOL     OW25090   3.995   0.592  11.784 -0.0403  0.6682  0.2155
 4544SOL    HW125091   4.063   0.548  11.733  0.2750  1.7963 -0.3379
 4544SOL    HW225092   3.978   0.534  11.858  3.1880  0.8510  1.0687
 4545SOL     OW25093   0.984   2.274   7.153  0.7530  0.3946  0.2634
 4545SOL    HW125094   0.989   2.360   7.194  1.0345 -0.0790  1.2044
 4545SOL    HW225095   0.889   2.257   7.156  0.6797  0.7021 -0.2079
 4546SOL     OW25096   2.402   2.280  16.254  0.3478 -0.2495  0.3056
 4546SOL    HW125097   2.479   2.270  16.310  1.1079  0.0659 -0.6836
 4546SOL    HW225098   2.424   2.337  16.180  0.5641 -0.1617  0.4358
 4547SOL     OW25099   0.234   0.504   5.983 -0.2674 -0.3973  0.4818
 4547SOL    HW125100   0.329   0.494   5.977 -0.2846 -0.5690  0.4901
 4547SOL    HW225101   0.207   0.448   6.055 -0.2383  2.0270  2.3674
 4548SOL     OW25102   0.886   3.655  12.167  0.2732  0.3049 -0.4097
 4548SOL    HW125103   0.822   3.584  12.160 -2.4004  2.8773 -2.4818
 4548SOL    HW225104   0.892   3.665  12.262 -2.6118  1.4090 -0.3243
 4549SOL     OW25105   0.087   1.664   4.490 -0.1662  0.7549 -0.2366
 4549SOL    HW125106   0.023   1.711   4.543  2.6401  2.2549  1.8164
 4549SOL    HW225107   0.094   1.592   4.553  1.1432  0.4034 -0.7809
 4550SOL     OW25108   1.538   2.426   4.449 -0.3191 -0.5113 -0.3710
 4550SOL    HW125109   1.606   2.389   4.393 -1.2441 -0.5597 -1.4610
 4550SOL    HW225110   1.488   2.489   4.397 -0.6474 -0.7361 -0.3265
 4551SOL     OW25111   2.254   3.493   2.703 -0.0333  0.9343  0.1806
 4551SOL    HW125112   2.292   3.494   2.791  3.7199 -0.1236 -1.4077
 4551SOL    HW225113   2.309   3.421   2.673 -1.2322  0.2320 -0.3088
 4552SOL     OW25114   1.092   2.552   2.664  0.1807  0.4252 -0.2912
 4552SOL    HW125115   1.120   2.624   2.720  0.2582  2.2970 -2.7314
 4552SOL    HW225116   1.177   2.511   2.650 -1.4188 -2.6762 -0.9867
 4553SOL     OW25117   0.148   1.125   1.727 -0.0513  0.0101  0.0421
 4553SOL    HW125118   0.101   1.133   1.644  1.3205  0.7996 -0.6737
 4553SOL    HW225119   0.164   1.219   1.741 -0.7374  0.2540 -0.8057
 4554SOL     OW25120   1.233   2.421   8.611  0.4585  0.6105  0.0699
 4554SOL    HW125121   1.268   2.340   8.648 -0.2539  0.2348 -0.0601
 4554SOL    HW225122   1.284   2.491   8.650 -0.2993  0.4101  1.4629
 4555SOL     OW25123   0.306   2.692   7.403  0.4257  0.3749  0.1307
 4555SOL    HW125124   0.222   2.679   7.447 -0.6160  0.3411 -1.8420
 4555SOL    HW225125   0.370   2.647   7.458  3.2346  2.6562 -1.2746
 4556SOL     OW25126   2.416   1.906   4.815 -0.6422  0.2614  0.2895
 4556SOL    HW125127   2.338   1.853   4.831  0.3859 -1.6544 -0.9838
 4556SOL    HW225128   2.380   1.989   4.784  1.5243  0.8046 -0.7821
 4557SOL     OW25129   2.237   2.593   4.531  0.2625  0.0028 -0.3348
 4557SOL    HW125130   2.161   2.587   4.589 -0.5377  0.0907 -1.3618
 4557SOL    HW225131   2.230   2.670   4.475 -1.9587  1.2465  1.6503
 4558SOL     OW25132   3.781   1.988   6.032  0.0939  0.1139  0.1382
 4558SOL    HW125133   3.826   2.068   6.061  0.0911  0.5678 -1.0794
 4558SOL    HW225134   3.693   1.988   6.069 -0.2389 -0.9673 -0.6497
 4559SOL     OW25135   0.346   2.165  15.287  0.0573 -0.3815  0.2494
 4559SOL    HW125136   0.255   2.164  15.258  0.1630 -1.5822 -0.0394
 4559SOL    HW225137   0.346   2.119  15.372 -1.2854  2.7600  1.9622
 4560SOL     OW25138   4.128   3.334   3.853 -0.0659  0.7302  0.0420
 4560SOL    HW125139   4.121   3.303   3.763  2.3524 -0.1782  0.1772
 4560SOL    HW225140   4.147   3.424   3.826  0.1383 -0.0822 -2.4649
 4561SOL     OW25141   0.128   4.224  15.355 -0.2630  0.3370 -0.2355
 4561SOL    HW125142   0.075   4.145  15.358  3.8279 -2.4600 -2.1996
 4561SOL    HW225143   0.136   4.242  15.449 -1.5403  0.4392 -0.1457
 4562SOL     OW25144   3.511   4.342   4.701  0.2730 -0.3374  0.3182
 4562SOL    HW125145   3.430   4.382   4.671  0.0878 -0.3675  0.7739
 4562SOL    HW225146   3.571   4.368   4.631 -1.2891  0.7613 -0.6134
 4563SOL     OW25147   0.849   2.434   2.588  0.2070 -0.0373  0.1463
 4563SOL    HW125148   0.893   2.358   2.550  3.1400  3.0990 -2.7571
 4563SOL    HW225149   0.922   2.491   2.612  1.2879 -1.9769  1.4694
 4564SOL     OW25150   3.723   4.539   6.009 -0.4720 -0.3635  0.5807
 4564SOL    HW125151   3.812   4.531   5.974 -0.6521 -0.8879  0.2394
 4564SOL    HW225152   3.673   4.465   5.975  0.6001 -1.3737  1.2398
 4565SOL     OW25153   4.488   4.599   6.433 -0.2026  0.2057  0.2436
 4565SOL    HW125154   4.429   4.660   6.477 -0.4198  0.6219 -0.6298
 4565SOL    HW225155   4.526   4.550   6.506  1.8300  1.1199 -0.2126
 4566SOL     OW25156   0.105   1.612  15.414 -0.0196  0.0672  0.2503
 4566SOL    HW125157   0.159   1.691  15.414  1.3375 -0.8703 -1.5496
 4566SOL    HW225158   0.147   1.544  15.466 -1.7587 -0.9995  0.2670
 4567SOL     OW25159   0.571   0.124   2.169  0.0427 -0.3629  0.1689
 4567SOL    HW125160   0.580   0.146   2.262  1.4078  2.6324 -0.6864
 4567SOL    HW225161   0.487   0.164   2.145  0.5185  0.6744  0.2237
 4568SOL     OW25162   1.759   4.545   5.724  0.3521 -0.2407 -0.0983
 4568SOL    HW125163   1.774   4.637   5.701 -1.3758 -0.4899 -2.3310
 4568SOL    HW225164   1.758   4.508   5.636  1.4934  2.3507 -1.1951
 4569SOL     OW25165   1.824   1.617   2.001 -0.3520  1.2746  0.3481
 4569SOL    HW125166   1.740   1.570   2.003 -0.3800  1.3311  0.5063
 4569SOL    HW225167   1.814   1.676   2.075 -1.3223 -0.6627  1.7793
 4570SOL     OW25168   3.795   3.198   8.582  0.0823 -0.4167  0.1680
 4570SOL    HW125169   3.791   3.226   8.673  0.7168  3.4544 -0.9897
 4570SOL    HW225170   3.749   3.115   8.589  1.0517 -1.1658 -2.0598
 4571SOL     OW25171   2.583   2.452  13.449  0.3051  0.3296  0.0761
 4571SOL    HW125172   2.656   2.490  13.497  0.8742  0.0331 -0.5463
 4571SOL    HW225173   2.508   2.492  13.492  1.3523  0.9721  1.2853
 4572SOL     OW25174   4.002   3.568   0.467  0.5694 -0.2359 -0.5783
 4572SOL    HW125175   3.926   3.532   0.512  0.5559 -1.5633 -1.6436
 4572SOL    HW225176   3.975   3.657   0.445  0.0121 -1.3276 -4.4184
 4573SOL     OW25177   3.605   0.124   6.779  0.4239  0.0882 -0.1905
 4573SOL    HW125178   3.538   0.085   6.837 -0.7185  3.1901  0.6000
 4573SOL    HW225179   3.607   0.055   6.713 -0.1107  1.8201 -2.0259
 4574SOL     OW25180   3.518   1.488  16.454 -0.0730 -0.7201 -0.2171
 4574SOL    HW125181   3.475   1.416  16.408 -0.6535  0.2401 -1.1621
 4574SOL    HW225182   3.570   1.527  16.384  1.4133  0.3078  1.4461
 4575SOL     OW25183   1.771   1.298   9.019 -0.5984 -0.2275  0.3736
 4575SOL    HW125184   1.814   1.301   9.104  1.4731  0.9531 -0.7079
 4575SOL    HW225185   1.829   1.240   8.969  0.0327  0.5563  0.2009
 4576SOL     OW25186   2.636   4.123  10.830  0.2251  0.0469 -0.1895
 4576SOL    HW125187   2.548   4.153  10.854 -0.5968 -2.0296 -0.6111
 4576SOL    HW225188   2.647   4.145  10.737  0.8897  1.3860  0.2078
 4577SOL     OW25189   2.850   3.364  10.532 -0.7942 -0.0123  0.1079
 4577SOL    HW125190   2.938   3.360  10.568 -0.5409  0.4013 -0.4674
 4577SOL    HW225191   2.834   3.458  10.531 -1.3683 -0.1300 -3.2263
 4578SOL     OW25192   2.150   0.357   0.941 -0.0534  0.6932  0.1213
 4578SOL    HW125193   2.242   0.347   0.919  0.0528 -2.3057  1.8767
 4578SOL    HW225194   2.128   0.409   0.864  3.0436  0.7616 -0.7245
 4579SOL     OW25195   1.429   4.075  15.403 -0.3346  0.2326 -0.0538
 4579SOL    HW125196   1.360   4.083  15.469 -0.7514  2.4359 -0.7413
 4579SOL    HW225197   1.442   4.169  15.388  1.7624  0.1199  1.1565
 4580SOL     OW25198   3.671   1.620  15.572 -0.3915 -0.7082 -0.1081
 4580SOL    HW125199   3.625   1.661  15.499 -0.8028 -1.2782 -0.1693
 4580SOL    HW225200   3.694   1.535  15.534  1.3505 -0.3238  0.0608
 4581SOL     OW25201   3.008   1.425   6.599  0.6482  0.4083 -0.0152
 4581SOL    HW125202   2.916   1.431   6.624  0.8878  0.3201  0.8900
 4581SOL    HW225203   3.049   1.418   6.685  0.5404  3.6969  0.3300
 4582SOL     OW25204   0.855   2.311   0.218  0.6045 -0.4561 -0.6777
 4582SOL    HW125205   0.861   2.324   0.123  2.2933 -2.4495 -0.8565
 4582SOL    HW225206   0.897   2.385   0.261 -0.6722 -0.7797  1.1314
 4583SOL     OW25207   2.169   1.702   2.575 -0.8580  0.0219  0.7624
 4583SOL    HW125208   2.263   1.689   2.561 -0.9454 -1.3036  1.3824
 4583SOL    HW225209   2.143   1.699   2.483  0.2287 -0.7003  0.4814
 4584SOL     OW25210   4.143   4.722   6.165 -0.0578  0.1058 -0.8689
 4584SOL    HW125211   4.106   0.087   6.180 -1.5231 -0.6301 -0.2357
 4584SOL    HW225212   4.088   4.665   6.219  1.0825 -1.1599 -1.0533
 4585SOL     OW25213   1.668   4.312  16.839  0.1863 -0.0097 -0.3578
 4585SOL    HW125214   1.678   4.343  16.750  2.5071  0.2288  0.0043
 4585SOL    HW225215   1.612   4.380  16.875  0.5050  1.4098 -2.5660
 4586SOL     OW25216   2.806   1.621   4.509 -0.3936 -0.1342 -0.6871
 4586SOL    HW125217   2.759   1.541   4.534 -0.4428 -0.4171 -1.6972
 4586SOL    HW225218   2.727   1.675   4.505 -0.0191  0.5893  1.8451
 4587SOL     OW25219   1.790   2.535   8.251 -0.1977 -0.1900 -0.0245
 4587SOL    HW125220   1.782   2.569   8.340 -1.9073  1.1972 -0.7000
 4587SOL    HW225221   1.806   2.442   8.267  0.1197 -0.2270 -0.5509
 4588SOL     OW25222   2.176   3.269   4.121 -0.1091  0.5461  0.5382
 4588SOL    HW125223   2.248   3.293   4.064 -0.0652 -1.2436 -0.1495
 4588SOL    HW225224   2.217   3.221   4.194 -1.8359 -1.7392  0.0236
 4589SOL     OW25225   1.851   4.222  15.545 -0.3593 -0.0319  0.5415
 4589SOL    HW125226   1.942   4.195  15.528 -0.1488  0.6763  0.5392
 4589SOL    HW225227   1.869   4.316  15.540  1.6245 -0.3680  1.3200
 4590SOL     OW25228   1.346   3.288   7.302 -0.4496  0.3129  0.4632
 4590SOL    HW125229   1.267   3.247   7.338  0.7427 -1.6391  0.8348
 4590SOL    HW225230   1.401   3.293   7.380 -1.8258  1.4715  1.3740
 4591SOL     OW25231   2.791   4.696  17.082 -0.2136  0.4948  0.2973
 4591SOL    HW125232   2.735   0.004  17.153  0.5783  4.1416 -0.6781
 4591SOL    HW225233   2.868   0.027  17.101  0.4957 -0.3122 -0.2928
 4592SOL     OW25234   0.625   0.297   1.871  0.3851 -0.3440 -1.0844
 4592SOL    HW125235   0.697   0.236   1.853  0.8281 -0.2196  0.2981
 4592SOL    HW225236   0.551   0.243   1.845  0.0434 -1.4291  2.2043
 4593SOL     OW25237   2.877   4.610   3.124 -0.5134 -0.2238 -0.1938
 4593SOL    HW125238   2.954   4.581   3.075 -0.4571 -0.3743 -0.0182
 4593SOL    HW225239   2.802   4.598   3.066 -0.7792  1.2887 -0.1539
 4594SOL     OW25240   1.006   1.406   7.413 -0.8452  0.0477 -0.0731
 4594SOL    HW125241   0.938   1.351   7.373 -0.2117  0.8653 -2.2253
 4594SOL    HW225242   1.082   1.370   7.367 -0.5905 -0.8590  1.0345
 4595SOL     OW25243   4.255   2.904   8.398 -0.0176  0.1469  0.4968
 4595SOL    HW125244   4.249   2.951   8.315 -1.4398 -0.8432  0.0402
 4595SOL    HW225245   4.284   2.818   8.370  1.8023  0.6239  0.8764
 4596SOL     OW25246   4.006   3.880   5.830  0.2914  0.0579  0.0700
 4596SOL    HW125247   3.974   3.890   5.740  3.5069 -2.2945 -1.3401
 4596SOL    HW225248   4.101   3.872   5.819  0.2663 -0.9019  0.4864
 4597SOL     OW25249   1.654   3.173   9.928 -0.1275 -0.5010 -0.3164
 4597SOL    HW125250   1.570   3.189   9.971 -0.5453  1.0319 -1.6676
 4597SOL    HW225251   1.710   3.219   9.991  1.0847  0.3869 -2.0444
 4598SOL     OW25252   2.356   4.407  16.718  0.1898  0.4625 -0.6202
 4598SOL    HW125253   2.394   4.393  16.631 -0.1058  0.0391 -0.6800
 4598SOL    HW225254   2.269   4.371  16.703 -0.7069  2.8371 -1.0358
 4599SOL     OW25255   2.409   4.354   6.899  0.4064  0.3437  0.1521
 4599SOL    HW125256   2.487   4.326   6.947  1.0490 -2.8178 -2.6810
 4599SOL    HW225257   2.399   4.443   6.933  1.9158 -0.4981  2.8354
 4600SOL     OW25258   3.422   3.285   6.714 -0.2565  0.4309  0.2312
 4600SOL    HW125259   3.497   3.267   6.658  0.8343  0.0285  1.8086
 4600SOL    HW225260   3.464   3.318   6.794 -1.6495 -1.8079  1.9159
 4601SOL     OW25261   2.430   3.217   9.767 -0.8764  0.2195  0.0855
 4601SOL    HW125262   2.357   3.190   9.711  1.2927 -1.2024 -2.0594
 4601SOL    HW225263   2.492   3.148   9.743 -0.3514  0.9174 -0.5538
 4602SOL     OW25264   1.968   0.199   6.013 -0.3563  0.1116 -0.0887
 4602SOL    HW125265   1.904   0.215   6.082 -0.1561  2.0467 -0.3477
 4602SOL    HW225266   2.049   0.239   6.046  0.7189 -1.4689 -0.7913
 4603SOL     OW25267   3.791   4.139  11.875  0.4214  0.6560  0.6819
 4603SOL    HW125268   3.865   4.151  11.816  0.7746 -0.1901  0.9487
 4603SOL    HW225269   3.735   4.083  11.820 -0.4440  1.9962  0.2076
 4604SOL     OW25270   1.622   3.002   4.267  0.4457 -0.0085  0.4542
 4604SOL    HW125271   1.595   2.965   4.183  2.1952 -1.9849  0.7621
 4604SOL    HW225272   1.613   3.093   4.238  1.0510 -0.1980 -0.3076
 4605SOL     OW25273   0.318   0.580   8.567 -0.2245 -0.1451 -0.1043
 4605SOL    HW125274   0.243   0.601   8.623 -0.5972  2.9417 -1.7420
 4605SOL    HW225275   0.283   0.601   8.480  1.0039 -0.6112 -0.7049
 4606SOL     OW25276   3.239   0.048  14.213  0.5898 -0.0963 -0.3179
 4606SOL    HW125277   3.169   4.709  14.235  0.2270  1.5437  3.0540
 4606SOL    HW225278   3.304   0.040  14.283 -0.4918  1.0248  0.8076
 4607SOL     OW25279   3.495   4.290   8.387  0.1444  0.3011  0.0332
 4607SOL    HW125280   3.423   4.227   8.390  0.4626  0.0453  2.1846
 4607SOL    HW225281   3.497   4.316   8.479  0.9968 -1.6571  0.5696
 4608SOL     OW25282   1.885   0.559   5.651 -0.0236  0.1866  0.6208
 4608SOL    HW125283   1.969   0.532   5.688  0.6792  0.6417 -0.6651
 4608SOL    HW225284   1.902   0.630   5.591  3.6311 -1.3297 -0.1248
 4609SOL     OW25285   3.073   2.770  10.150 -0.6314 -0.3902  0.3407
 4609SOL    HW125286   3.054   2.739  10.061  1.1785 -0.2741 -0.0716
 4609SOL    HW225287   3.114   2.693  10.190  0.2918 -0.7541 -1.3215
 4610SOL     OW25288   1.235   3.657  17.477 -0.1990 -0.2022 -0.0050
 4610SOL    HW125289   1.254   3.730  17.536  2.7612 -0.2059 -0.9371
 4610SOL    HW225290   1.161   3.609  17.514 -0.4844  2.1685  2.5321
 4611SOL     OW25291   1.610   0.239   3.345  0.5586 -0.1246 -0.6481
 4611SOL    HW125292   1.529   0.198   3.376  2.2319 -2.4046  0.7079
 4611SOL    HW225293   1.611   0.327   3.383 -2.1066 -0.6909  0.7050
 4612SOL     OW25294   3.783   2.291   5.634  0.2596  0.0110  0.5242
 4612SOL    HW125295   3.847   2.302   5.563 -1.5179  1.3773 -0.8847
 4612SOL    HW225296   3.809   2.200   5.652 -0.9556 -0.6016 -0.7171
 4613SOL     OW25297   3.411   2.688   5.110  0.2453 -0.5756 -0.4611
 4613SOL    HW125298   3.316   2.698   5.123 -0.0845 -1.0962 -2.4444
 4613SOL    HW225299   3.449   2.774   5.130  0.7806 -0.5990 -1.3650
 4614SOL     OW25300   0.321   3.755   8.066 -0.5696  0.0307 -0.0086
 4614SOL    HW125301   0.329   3.694   8.140  1.0559  0.3477  0.0792
 4614SOL    HW225302   0.395   3.812   8.089  0.5937 -0.0972 -3.3081
 4615SOL     OW25303   1.704   0.825   8.296  0.0908 -0.5191 -0.8379
 4615SOL    HW125304   1.782   0.773   8.277  1.0351 -0.0477  1.7509
 4615SOL    HW225305   1.651   0.760   8.343  1.4388  0.0342  1.4439
 4616SOL     OW25306   4.504   0.378  17.197  0.6640 -0.1786  0.0586
 4616SOL    HW125307   4.509   0.291  17.158 -1.1223 -1.7862  3.3535
 4616SOL    HW225308   4.592   0.407  17.171  1.0491 -0.0257  1.4714
 4617SOL     OW25309   1.640   2.841   2.901  0.5413  0.0814 -0.0911
 4617SOL    HW125310   1.711   2.797   2.853  0.8856 -0.2151  0.6872
 4617SOL    HW225311   1.576   2.857   2.832  0.5231  0.5353  0.0355
 4618SOL     OW25312   3.237   3.244   7.007 -0.3086  0.2933 -0.0426
 4618SOL    HW125313   3.231   3.332   7.045  0.8417  0.1351  0.4863
 4618SOL    HW225314   3.217   3.194   7.087 -1.6722  1.4742  0.3568
 4619SOL     OW25315   2.903   3.197   2.005 -0.4028  0.4043  0.0473
 4619SOL    HW125316   2.911   3.107   1.974 -0.4162  0.2807  0.4039
 4619SOL    HW225317   2.994   3.220   1.990 -1.5128  3.3024 -2.2001
 4620SOL     OW25318   2.079   1.756  10.836 -0.3206 -0.0267  0.0757
 4620SOL    HW125319   2.035   1.747  10.921 -0.3369 -0.8901 -0.0182
 4620SOL    HW225320   2.164   1.715  10.857 -0.2429  0.5226  0.8372
 4621SOL     OW25321   2.608   4.328   3.769  0.2562 -0.1922  0.0189
 4621SOL    HW125322   2.557   4.271   3.827  0.4368 -2.2233 -1.8440
 4621SOL    HW225323   2.601   4.268   3.696  1.4230 -0.0926 -0.1823
 4622SOL     OW25324   3.861   3.879   9.092 -0.2946 -0.8833  0.1484
 4622SOL    HW125325   3.906   3.959   9.067  0.2581 -0.4544  2.5396
 4622SOL    HW225326   3.911   3.823   9.032  0.2663 -0.2597  0.0355
 4623SOL     OW25327   0.416   2.892   8.859 -1.0962 -0.0573  0.2936
 4623SOL    HW125328   0.390   2.976   8.821 -0.8780  0.3525  1.0449
 4623SOL    HW225329   0.464   2.844   8.791  0.9134 -1.7007  2.8965
 4624SOL     OW25330   1.187   3.782   2.462  0.2185  0.1100 -0.0245
 4624SOL    HW125331   1.230   3.854   2.508  2.8030 -0.3800 -1.6742
 4624SOL    HW225332   1.254   3.769   2.395 -0.6006  0.3237 -0.8817
 4625SOL     OW25333   3.846   3.572   2.278 -0.0800  0.0858 -0.0454
 4625SOL    HW125334   3.815   3.486   2.309  0.4230 -1.2067 -3.1484
 4625SOL    HW225335   3.794   3.633   2.331 -1.1311  0.8217 -1.9209
 4626SOL     OW25336   1.508   3.100   3.958  0.0576  0.2508  0.3638
 4626SOL    HW125337   1.447   3.134   3.892  0.2510  1.0217  0.5822
 4626SOL    HW225338   1.571   3.171   3.956 -0.1551  0.4084 -0.9720
 4627SOL     OW25339   3.414   2.302   1.624  0.2188  0.0545  0.0556
 4627SOL    HW125340   3.472   2.262   1.689  1.0666  1.3459  0.0964
 4627SOL    HW225341   3.326   2.283   1.657  0.0365  2.6696  1.0834
 4628SOL     OW25342   3.777   0.274   6.346  0.0771 -0.6266 -0.3463
 4628SOL    HW125343   3.741   0.275   6.257 -0.7182  0.4264 -0.0062
 4628SOL    HW225344   3.711   0.323   6.395  0.7017  0.5573 -0.6801
 4629SOL     OW25345   0.338   0.711   3.647 -0.8025  0.5079  0.2195
 4629SOL    HW125346   0.297   0.760   3.576  0.7402 -0.2557 -1.1977
 4629SOL    HW225347   0.291   0.746   3.723 -1.0504 -1.7356  1.1243
 4630SOL     OW25348   0.064   2.157   6.047 -0.1189 -0.0574  0.3957
 4630SOL    HW125349   0.013   2.083   6.013 -1.4050  0.9661  0.1157
 4630SOL    HW225350   0.137   2.155   5.985 -0.4793  1.5250 -0.0760
 4631SOL     OW25351   2.740   0.868  12.360 -0.5709 -0.6324  0.5615
 4631SOL    HW125352   2.825   0.840  12.328 -1.0919 -2.0123  0.4008
 4631SOL    HW225353   2.760   0.854  12.452  1.5648 -0.7428  0.0706
 4632SOL     OW25354   3.519   2.574   4.616  0.2469  0.3143  0.2471
 4632SOL    HW125355   3.538   2.487   4.580 -1.8854  0.2081 -0.5996
 4632SOL    HW225356   3.456   2.557   4.686  1.6966  1.4536  1.8291
 4633SOL     OW25357   3.491   3.744  12.066 -0.0649  0.4381 -0.2696
 4633SOL    HW125358   3.419   3.741  12.004  0.3838  1.5856 -0.8248
 4633SOL    HW225359   3.539   3.824  12.045  2.8169 -1.5834 -1.4280
 4634SOL     OW25360   1.741   4.336  11.145  0.3385  0.0070 -0.4068
 4634SOL    HW125361   1.700   4.384  11.073 -2.3764 -1.0978  0.3920
 4634SOL    HW225362   1.663   4.292  11.181  0.2354  0.7382  0.2827
 4635SOL     OW25363   4.394   4.688  12.390 -0.2315  0.1320 -0.4900
 4635SOL    HW125364   4.385   4.720  12.480  2.8207  0.9063 -0.4307
 4635SOL    HW225365   4.475   4.637  12.397 -1.1395 -1.4348 -1.2711
 4636SOL     OW25366   0.048   4.518   2.052  0.2207  0.0769  0.0968
 4636SOL    HW125367   0.013   4.597   2.011  1.0853  0.0460 -0.6928
 4636SOL    HW225368   0.001   4.459   1.994 -2.2052 -0.5639  2.7144
 4637SOL     OW25369   2.272   2.855   4.450  0.1059  0.2429  0.1820
 4637SOL    HW125370   2.325   2.796   4.397  0.7906  1.8816 -0.9562
 4637SOL    HW225371   2.288   2.942   4.414 -1.8533 -0.6154 -2.7541
 4638SOL     OW25372   4.703   2.943   2.892 -0.0837  0.0617  0.4889
 4638SOL    HW125373   0.051   2.993   2.932 -0.4078 -0.8489  2.2098
 4638SOL    HW225374   0.030   2.872   2.852 -2.1560 -0.4423 -1.1704
 4639SOL     OW25375   4.306   1.523   2.578  0.2209  0.3171 -0.5520
 4639SOL    HW125376   4.395   1.557   2.586  0.3215  0.0392 -0.4830
 4639SOL    HW225377   4.277   1.578   2.505  1.1298  1.4807 -0.0312
 4640SOL     OW25378   1.477   1.353   5.959  0.1016  0.2609 -0.1987
 4640SOL    HW125379   1.511   1.299   6.030 -3.5995  0.5245  1.7355
 4640SOL    HW225380   1.481   1.293   5.884  0.2293  1.8662 -1.4906
 4641SOL     OW25381   3.150   4.442   8.282 -0.3584 -0.5205 -0.5902
 4641SOL    HW125382   3.130   4.387   8.207  0.8891 -0.4779 -0.9600
 4641SOL    HW225383   3.129   4.391   8.360  1.8084 -0.5476 -0.0270
 4642SOL     OW25384   3.764   3.318   8.189 -0.4127  0.7435  0.0405
 4642SOL    HW125385   3.830   3.260   8.226 -2.4516  0.0074  2.4893
 4642SOL    HW225386   3.803   3.405   8.199  1.8124 -0.1632 -0.7242
 4643SOL     OW25387   0.751   1.438   5.235 -0.5645 -0.1169  0.0018
 4643SOL    HW125388   0.731   1.531   5.246  1.2355  0.4343 -1.2685
 4643SOL    HW225389   0.698   1.395   5.302 -1.0190 -0.1204 -0.3680
 4644SOL     OW25390   2.410   3.289   2.606  0.0373  0.0357 -0.1472
 4644SOL    HW125391   2.455   3.338   2.537 -0.4595 -1.6899 -1.7019
 4644SOL    HW225392   2.482   3.253   2.657  1.5015 -1.0295 -2.9379
 4645SOL     OW25393   0.918   0.100   4.499  0.1526  0.1856  0.0574
 4645SOL    HW125394   0.874   0.185   4.504  1.4851  0.6794  3.3752
 4645SOL    HW225395   0.844   0.040   4.508 -0.5582  1.3387  1.7733
 4646SOL     OW25396   1.882   0.707   6.811 -0.3451 -0.1617  0.5907
 4646SOL    HW125397   1.881   0.733   6.903 -0.1459 -1.2229  0.9013
 4646SOL    HW225398   1.790   0.694   6.788  0.1084 -1.4357 -0.5412
 4647SOL     OW25399   0.531   4.009  16.228 -0.2792  0.0868 -0.2184
 4647SOL    HW125400   0.547   4.001  16.134 -0.1400 -0.7983 -0.1167
 4647SOL    HW225401   0.601   3.952  16.259 -1.3107  0.5806  2.9651
 4648SOL     OW25402   4.645   1.476   1.189  0.5482  0.3212 -0.4010
 4648SOL    HW125403   4.704   1.494   1.262 -1.4238  1.2875  0.9409
 4648SOL    HW225404   4.560   1.512   1.215  0.6449  1.0395 -1.0593
 4649SOL     OW25405   4.009   3.402  13.794  0.2858 -0.3753 -0.0972
 4649SOL    HW125406   4.090   3.418  13.843  0.1832  4.4190 -1.5240
 4649SOL    HW225407   4.024   3.315  13.758  0.5404 -0.7768  0.9852
 4650SOL     OW25408   2.504   0.861   1.967 -0.5795 -0.0558 -0.6691
 4650SOL    HW125409   2.544   0.948   1.960 -1.4831  0.4295  0.1726
 4650SOL    HW225410   2.575   0.807   1.934 -0.0111 -0.7113  1.6518
 4651SOL     OW25411   4.476   2.293   1.651  0.2453 -0.4165 -0.1343
 4651SOL    HW125412   4.442   2.380   1.629 -1.6278 -1.3607 -0.9765
 4651SOL    HW225413   4.406   2.256   1.705 -0.1879  2.2050  1.0762
 4652SOL     OW25414   1.580   0.826  11.397  0.0859  0.3764  0.1085
 4652SOL    HW125415   1.572   0.737  11.362  1.7565 -0.1024  0.9573
 4652SOL    HW225416   1.491   0.861  11.399 -0.3973 -0.8778  0.5851
 4653SOL     OW25417   1.509   3.214  13.862  0.0473 -0.5999 -0.2348
 4653SOL    HW125418   1.556   3.247  13.786 -0.2855 -0.4020 -0.3551
 4653SOL    HW225419   1.423   3.254  13.848  0.6707  0.6380 -0.5281
 4654SOL     OW25420   4.524   0.184  10.602 -0.3279 -0.3161  0.6077
 4654SOL    HW125421   4.464   0.258  10.591  1.5537  1.0802 -0.1906
 4654SOL    HW225422   4.553   0.199  10.692  0.3980  1.0763  0.1414
 4655SOL     OW25423   2.151   3.524   6.938  0.0598  0.5156  0.2251
 4655SOL    HW125424   2.063   3.557   6.956  0.1802 -0.3177  2.3009
 4655SOL    HW225425   2.169   3.596   6.878 -1.1442 -0.1026 -0.8812
 4656SOL     OW25426   3.012   3.115  11.817 -0.0593 -0.4122  0.0677
 4656SOL    HW125427   2.932   3.070  11.791  0.6110 -1.2785 -0.4617
 4656SOL    HW225428   3.049   3.067  11.891  0.4647  3.1689  2.1236
 4657SOL     OW25429   0.259   3.478   7.371 -0.0206 -0.3594  0.0397
 4657SOL    HW125430   0.317   3.403   7.386  2.4904  1.8732  1.5769
 4657SOL    HW225431   0.192   3.462   7.438  0.8802 -0.0550  1.0283
 4658SOL     OW25432   4.530   3.372   0.952 -0.0484 -0.3807 -0.0423
 4658SOL    HW125433   4.486   3.373   1.038 -0.3022 -0.1436 -0.1755
 4658SOL    HW225434   4.615   3.338   0.978  0.5260 -0.1679 -1.6425
 4659SOL     OW25435   1.160   2.273   9.469  0.0050 -0.2044  0.3616
 4659SOL    HW125436   1.211   2.351   9.491  0.4103  0.2241 -2.0877
 4659SOL    HW225437   1.224   2.223   9.419 -0.0614 -0.6952  0.7785
 4660SOL     OW25438   0.551   0.013  16.757  0.1864  0.4156 -0.7065
 4660SOL    HW125439   0.646   0.016  16.746  0.3092 -0.3485  0.2586
 4660SOL    HW225440   0.551   0.087  16.818  2.3200 -0.3662  0.2276
 4661SOL     OW25441   1.568   3.703   1.200  0.6086  0.0105  0.6331
 4661SOL    HW125442   1.646   3.701   1.256  1.0186 -2.4053 -0.0012
 4661SOL    HW225443   1.515   3.773   1.237  1.1155  1.1329 -0.8042
 4662SOL     OW25444   0.068   0.585   2.791 -0.2514  1.0806  0.0322
 4662SOL    HW125445   0.015   0.602   2.869 -0.5900  2.5507 -0.5213
 4662SOL    HW225446   0.032   0.509   2.744 -0.4215  1.1373  0.0704
 4663SOL     OW25447   1.096   2.637   6.123 -0.4335  0.2828 -0.6770
 4663SOL    HW125448   1.097   2.719   6.172 -0.5614 -0.8578  1.2179
 4663SOL    HW225449   1.019   2.648   6.067 -2.1268  1.6493  1.9090
 4664SOL     OW25450   3.338   2.019   8.527  0.8850 -0.2856  0.3326
 4664SOL    HW125451   3.341   1.925   8.547  1.7994 -0.4756 -0.7263
 4664SOL    HW225452   3.428   2.045   8.544  0.2734  2.3763 -0.5189
 4665SOL     OW25453   1.077   3.052  14.089  0.1820 -0.2296 -0.0082
 4665SOL    HW125454   1.040   2.968  14.063 -2.7948  1.2375 -0.5278
 4665SOL    HW225455   1.061   3.043  14.183 -1.2866  0.7362 -0.1636
 4666SOL     OW25456   2.357   3.954   8.676  0.8500  0.1274  0.0857
 4666SOL    HW125457   2.273   3.913   8.696 -0.4009  1.9035 -1.4838
 4666SOL    HW225458   2.356   4.018   8.748 -1.8603  0.4810 -0.2621
 4667SOL     OW25459   2.874   1.632  11.071  0.1655 -0.1451 -0.1946
 4667SOL    HW125460   2.850   1.720  11.041  1.7356 -0.2441 -1.7390
 4667SOL    HW225461   2.934   1.657  11.141  0.0513 -0.0096 -0.1443
 4668SOL     OW25462   1.108   1.347   8.321  0.4424  0.4375 -0.1811
 4668SOL    HW125463   1.131   1.416   8.383  0.5899 -0.3433  0.6287
 4668SOL    HW225464   1.082   1.401   8.246 -1.9976  0.4688  0.6779
 4669SOL     OW25465   4.237   4.251   7.950  0.1533  0.5900  0.2293
 4669SOL    HW125466   4.171   4.312   7.919 -0.2156  0.4980  0.8395
 4669SOL    HW225467   4.201   4.166   7.925  2.0950 -0.0479 -0.4547
 4670SOL     OW25468   1.653   2.806  11.037 -0.0352  0.2247 -0.2710
 4670SOL    HW125469   1.743   2.776  11.048 -0.3259 -0.7723 -0.6513
 4670SOL    HW225470   1.612   2.759  11.109  0.1051  0.1211 -0.2573
 4671SOL     OW25471   0.282   1.575   2.079 -0.4882  0.1790 -0.5682
 4671SOL    HW125472   0.256   1.485   2.063  0.9173  0.0926 -2.3716
 4671SOL    HW225473   0.201   1.626   2.083  0.1283  1.0400  1.0992
 4672SOL     OW25474   1.182   1.331   2.583 -0.0476 -0.5133  0.1129
 4672SOL    HW125475   1.263   1.285   2.604 -0.9696 -1.9037  0.6473
 4672SOL    HW225476   1.186   1.347   2.489  3.6541 -0.5190  0.2602
 4673SOL     OW25477   3.733   3.146   5.315  0.2335  0.2528 -0.6549
 4673SOL    HW125478   3.777   3.077   5.365 -0.1110 -1.0665 -2.1878
 4673SOL    HW225479   3.786   3.214   5.356 -1.6795  0.6319  1.1719
 4674SOL     OW25480   2.634   1.429   5.609  0.2711  0.2580  1.0492
 4674SOL    HW125481   2.644   1.478   5.528  1.2900 -0.5309  0.6909
 4674SOL    HW225482   2.567   1.472   5.662 -1.4411 -0.9030 -0.1746
 4675SOL     OW25483   4.378   1.551   0.119 -0.2612 -0.4068 -0.2082
 4675SOL    HW125484   4.463   1.511   0.101  1.1188  2.2433  0.4587
 4675SOL    HW225485   4.393   1.575   0.211 -1.9775  0.5793 -0.1734
 4676SOL     OW25486   4.674   4.647   4.812  0.5459  0.3687  0.3865
 4676SOL    HW125487   4.700   0.005   4.858  2.1863 -0.9665  1.7635
 4676SOL    HW225488   4.672   4.673   4.719  0.4542  1.0619  0.5831
 4677SOL     OW25489   2.113   3.216   4.595 -0.1732 -0.1626 -0.1533
 4677SOL    HW125490   2.201   3.234   4.629 -0.2336 -0.6366  0.2515
 4677SOL    HW225491   2.067   3.297   4.618  3.0602  2.1926 -1.9312
 4678SOL     OW25492   4.181   3.441   5.289  0.1139  0.2106  0.1187
 4678SOL    HW125493   4.174   3.355   5.247  0.1352  0.5075 -0.4987
 4678SOL    HW225494   4.182   3.496   5.211 -0.3205 -0.0044 -0.0377
 4679SOL     OW25495   2.681   2.205  10.006  0.2674  0.0607  0.4033
 4679SOL    HW125496   2.626   2.161  10.071  1.7415 -2.2327  0.0997
 4679SOL    HW225497   2.628   2.196   9.926  2.9556  0.6563 -1.4373
 4680SOL     OW25498   2.961   1.331   7.490  0.5268 -0.0849 -0.0930
 4680SOL    HW125499   3.014   1.411   7.483  0.4598 -0.1711 -1.4957
 4680SOL    HW225500   3.027   1.272   7.453  0.7353  0.3840 -0.4735
 4681SOL     OW25501   1.379   2.620   8.745  0.2826 -0.0752  0.2654
 4681SOL    HW125502   1.469   2.592   8.762 -0.0528 -0.1720  1.8942
 4681SOL    HW225503   1.387   2.709   8.712  1.9379 -0.3772 -0.1469
 4682SOL     OW25504   2.783   3.710   6.064  0.3969  0.4067 -0.0948
 4682SOL    HW125505   2.746   3.625   6.088 -2.2586  2.0592  1.6157
 4682SOL    HW225506   2.739   3.763   6.130  1.0301  0.6966  0.0989
 4683SOL     OW25507   3.321   0.691   4.347  0.1382  0.4869  0.0814
 4683SOL    HW125508   3.313   0.739   4.264 -0.5041 -0.2747 -0.2923
 4683SOL    HW225509   3.374   0.618   4.318  0.6294  0.9738 -0.2497
 4684SOL     OW25510   4.465   1.363   7.601 -0.4083 -0.0340  0.7554
 4684SOL    HW125511   4.494   1.447   7.636 -0.7068 -0.3962  1.8705
 4684SOL    HW225512   4.370   1.375   7.608 -0.5117  0.6406 -1.9534
 4685SOL     OW25513   2.626   2.767  17.654  0.2770 -0.0402  0.3280
 4685SOL    HW125514   2.683   2.844  17.644  1.0137 -0.9956 -2.8673
 4685SOL    HW225515   2.685   2.694  17.634  0.2663 -0.6760  2.6131
 4686SOL     OW25516   4.612   4.051   6.011 -0.4378  0.4884  0.7005
 4686SOL    HW125517   4.528   4.061   5.967 -0.8845 -0.4923  1.3295
 4686SOL    HW225518   4.641   3.965   5.981  0.2965  2.0356 -2.9716
 4687SOL     OW25519   3.175   1.768   7.210  0.3975  0.1176 -0.2355
 4687SOL    HW125520   3.171   1.800   7.120  1.6228  1.2568  0.1218
 4687SOL    HW225521   3.253   1.713   7.212 -0.3521 -1.0729 -4.0866
 4688SOL     OW25522   4.564   4.617   2.814 -0.1079 -0.0589 -0.1211
 4688SOL    HW125523   4.591   4.688   2.755  0.6909 -0.6211 -0.4337
 4688SOL    HW225524   4.511   4.669   2.874  1.1947  2.1295 -0.8200
 4689SOL     OW25525   3.556   3.333  15.727  0.1344  0.0807 -0.2051
 4689SOL    HW125526   3.533   3.299  15.814 -1.4261  0.9170 -0.2930
 4689SOL    HW225527   3.559   3.255  15.673 -1.5023 -0.2008  0.1209
 4690SOL     OW25528   3.414   0.244   2.340  0.5278 -0.3317  0.6626
 4690SOL    HW125529   3.358   0.314   2.373  0.3649 -1.7160  3.2977
 4690SOL    HW225530   3.465   0.296   2.278 -1.4981  1.9879  0.9518
 4691SOL     OW25531   1.113   0.500   9.146 -0.1565 -0.3383  0.5441
 4691SOL    HW125532   1.093   0.426   9.088 -1.5154  1.0620 -0.7674
 4691SOL    HW225533   1.116   0.561   9.073 -2.2658 -1.1191 -0.2197
 4692SOL     OW25534   4.342   3.752  11.363  0.1659  0.3660  0.2314
 4692SOL    HW125535   4.405   3.823  11.353 -0.2763  0.3579 -2.5782
 4692SOL    HW225536   4.395   3.684  11.322  1.7181  0.1835  2.5145
 4693SOL     OW25537   4.217   1.534   7.959  0.6777  0.7325  0.4276
 4693SOL    HW125538   4.291   1.578   7.999  0.2435  0.8864  1.0668
 4693SOL    HW225539   4.214   1.450   8.005 -2.6990  0.0161 -1.0357
 4694SOL     OW25540   3.471   0.567  10.072 -0.8732 -0.8821 -0.6544
 4694SOL    HW125541   3.482   0.473  10.061 -0.0712 -0.5816 -2.3629
 4694SOL    HW225542   3.444   0.570  10.164  0.4282  0.8853 -0.3079
 4695SOL     OW25543   2.661   2.733   9.375  0.1129 -0.2157  0.4970
 4695SOL    HW125544   2.645   2.640   9.357  3.3846 -0.8127  0.5723
 4695SOL    HW225545   2.746   2.725   9.419 -0.7404  0.7197  2.3257
 4696SOL     OW25546   0.087   1.265   5.720 -0.0251  0.4881 -0.2345
 4696SOL    HW125547   0.150   1.326   5.680  0.2829 -2.1058 -3.7274
 4696SOL    HW225548   0.148   1.197   5.748  0.3916  1.1134  0.3737
 4697SOL     OW25549   2.573   0.367  14.265 -0.3254  0.3850  0.8911
 4697SOL    HW125550   2.557   0.394  14.175  0.1185 -2.0615  0.1061
 4697SOL    HW225551   2.491   0.383  14.312 -0.2991 -0.1432  1.1140
 4698SOL     OW25552   1.250   2.412   5.433 -0.3309 -0.2789  0.2621
 4698SOL    HW125553   1.230   2.463   5.354 -3.3296  2.5867  2.9079
 4698SOL    HW225554   1.312   2.466   5.482 -0.6892 -0.6248  1.0851
 4699SOL     OW25555   2.466   0.284  16.751  0.3430 -0.1004  0.2416
 4699SOL    HW125556   2.479   0.291  16.657 -1.3563  2.4141  0.1978
 4699SOL    HW225557   2.556   0.263  16.777  0.0738 -1.3434  0.1811
 4700SOL     OW25558   3.981   2.369   1.293 -0.4669 -0.3161  0.4632
 4700SOL    HW125559   3.948   2.458   1.277  0.9330  0.0611 -0.3378
 4700SOL    HW225560   3.899   2.325   1.272 -2.1293  1.9598  2.1742
 4701SOL     OW25561   1.582   1.467  14.934 -0.1204 -0.1554 -0.6454
 4701SOL    HW125562   1.650   1.440  14.872  1.2851 -0.6643  1.1082
 4701SOL    HW225563   1.555   1.554  14.904  2.1747  0.7938 -0.0301
 4702SOL     OW25564   3.431   1.942   3.537 -0.1017  0.1899  0.6259
 4702SOL    HW125565   3.483   1.896   3.604  0.1730 -0.3713  0.0301
 4702SOL    HW225566   3.480   2.024   3.543 -1.5047  1.0666  0.2093
 4703SOL     OW25567   3.768   2.015  17.587 -0.4538 -0.4390 -0.1524
 4703SOL    HW125568   3.677   2.008  17.617 -0.3923 -0.9549 -0.0784
 4703SOL    HW225569   3.768   1.939  17.528  0.7204 -0.3016 -0.3155
 4704SOL     OW25570   2.780   0.342   5.712 -0.5133  0.0729  0.0613
 4704SOL    HW125571   2.780   0.377   5.801  1.3514  1.4498 -0.4712
 4704SOL    HW225572   2.730   0.398   5.653  1.7750  1.1634 -0.8568
 4705SOL     OW25573   3.786   1.540   6.956  0.1073 -0.7875 -0.2979
 4705SOL    HW125574   3.864   1.493   6.986 -1.4921 -3.0375  0.3646
 4705SOL    HW225575   3.762   1.497   6.874 -3.1989  1.5881 -0.5659
 4706SOL     OW25576   3.850   3.173   7.943  0.0568 -0.5550 -0.1026
 4706SOL    HW125577   3.776   3.217   7.985 -0.5340  1.2010 -2.9488
 4706SOL    HW225578   3.894   3.124   8.012 -0.4498  1.9105  1.9496
 4707SOL     OW25579   2.946   3.778   4.929  0.5754  0.1362  0.0458
 4707SOL    HW125580   2.880   3.821   4.875 -1.1637 -2.5558  0.0317
 4707SOL    HW225581   2.908   3.690   4.935 -0.2863  0.4304 -1.2144
 4708SOL     OW25582   3.546   0.667  11.865  0.0315  0.4630  0.4242
 4708SOL    HW125583   3.478   0.682  11.800  1.9221  1.2110 -1.3833
 4708SOL    HW225584   3.615   0.616  11.823 -1.5053 -0.0491 -1.4939
 4709SOL     OW25585   3.862   2.744   5.370 -0.1185  0.3418 -0.2309
 4709SOL    HW125586   3.907   2.794   5.302  1.3311  1.3394  1.4620
 4709SOL    HW225587   3.859   2.805   5.443 -1.2764  0.0331 -0.0195
 4710SOL     OW25588   3.505   1.820   1.811 -0.4439  0.1405 -0.4861
 4710SOL    HW125589   3.449   1.880   1.860 -1.3222 -1.1104  0.0625
 4710SOL    HW225590   3.583   1.805   1.865 -0.4231  0.8703 -0.3185
 4711SOL     OW25591   4.344   3.994  14.720  0.2740 -0.3027  0.3984
 4711SOL    HW125592   4.379   3.908  14.743  0.2911 -0.4835 -0.2932
 4711SOL    HW225593   4.398   4.011  14.643 -1.0635 -3.1764 -1.1995
 4712SOL     OW25594   0.881   4.648  11.488 -0.4375 -0.3698 -0.0807
 4712SOL    HW125595   0.885   4.563  11.532 -1.5919  0.9821  2.6122
 4712SOL    HW225596   0.966   4.677  11.519  0.2769 -0.8170 -1.6446
 4713SOL     OW25597   4.642   2.096  17.343  0.1124 -0.2341  0.4568
 4713SOL    HW125598   4.667   2.016  17.388 -0.0993 -1.9756 -2.5086
 4713SOL    HW225599   4.554   2.102  17.380 -0.0595 -1.1584  0.1904
 4714SOL     OW25600   2.061   1.794   6.788 -0.0978  0.5701  0.1293
 4714SOL    HW125601   1.967   1.815   6.791 -0.0634  0.3398  3.3061
 4714SOL    HW225602   2.047   1.707   6.751 -2.9530 -0.1197  2.7817
 4715SOL     OW25603   3.176   3.021  16.049  0.4742 -0.2961  0.0878
 4715SOL    HW125604   3.215   2.934  16.043  3.5869  0.9694  1.4890
 4715SOL    HW225605   3.110   3.023  15.980  2.1848 -0.8112 -1.5912
 4716SOL     OW25606   4.069   1.398   9.306 -1.0214  0.7256 -0.8011
 4716SOL    HW125607   3.982   1.357   9.310 -0.5204 -0.2545  0.0217
 4716SOL    HW225608   4.129   1.325   9.296 -1.2073  0.4447  0.0812
 4717SOL     OW25609   2.064   1.678   2.329 -0.4213 -0.2667  0.0388
 4717SOL    HW125610   1.986   1.721   2.294 -1.3061  0.1871  2.5739
 4717SOL    HW225611   2.077   1.603   2.271 -0.9106 -0.6848  0.4775
 4718SOL     OW25612   2.139   2.885   5.594  0.0784  0.3462  0.3279
 4718SOL    HW125613   2.118   2.829   5.519  0.4454 -1.2603  1.4360
 4718SOL    HW225614   2.202   2.947   5.557  0.3298  0.8392  1.5980
 4719SOL     OW25615   4.625   0.835   2.446 -0.1778 -0.7041  0.4574
 4719SOL    HW125616   4.540   0.799   2.471  0.1599 -0.6310  1.7280
 4719SOL    HW225617   4.654   0.778   2.375  1.3855 -0.9189  1.2702
 4720SOL     OW25618   1.684   2.738   2.506  0.1647 -0.2359  0.3956
 4720SOL    HW125619   1.675   2.717   2.412  3.3712 -1.4647  0.3910
 4720SOL    HW225620   1.645   2.825   2.511 -0.7405 -0.4877 -2.1938
 4721SOL     OW25621   0.323   2.782   4.327  0.0663 -0.3982  0.5335
 4721SOL    HW125622   0.270   2.845   4.279  0.4891 -0.5175 -0.0831
 4721SOL    HW225623   0.405   2.775   4.278  0.5413  3.3695  0.7642
 4722SOL     OW25624   4.287   0.061   2.246  0.0484  0.1911  0.0326
 4722SOL    HW125625   4.206   0.106   2.225 -0.1169 -0.0985  0.0469
 4722SOL    HW225626   4.351   0.074   2.176 -0.8495 -2.9325 -1.3784
 4723SOL     OW25627   3.875   2.295   0.120  0.0309 -0.1653  0.3890
 4723SOL    HW125628   3.803   2.314   0.060  0.8701  0.7602 -0.3351
 4723SOL    HW225629   3.862   2.350   0.197  0.2271  1.9792 -1.1120
 4724SOL     OW25630   4.347   0.624   8.532  0.2347  0.1225 -0.1675
 4724SOL    HW125631   4.406   0.696   8.555  2.0696 -1.6006  0.4839
 4724SOL    HW225632   4.273   0.675   8.499 -0.3781 -0.7487 -0.1350
 4725SOL     OW25633   3.892   0.819   4.555 -0.1217  0.0740 -0.0866
 4725SOL    HW125634   3.933   0.766   4.623 -0.7599 -3.4632 -2.5066
 4725SOL    HW225635   3.970   0.841   4.504  0.3642 -1.8627 -0.1454
 4726SOL     OW25636   0.774   2.605  13.836 -0.3024 -0.4582 -0.5028
 4726SOL    HW125637   0.761   2.694  13.801  0.3068 -0.4238 -0.6313
 4726SOL    HW225638   0.846   2.569  13.785  0.8201  1.2508 -0.1172
 4727SOL     OW25639   0.682   4.440   6.566 -0.0836  0.1386 -0.2595
 4727SOL    HW125640   0.766   4.444   6.612 -0.0485  1.7460 -0.4485
 4727SOL    HW225641   0.701   4.491   6.487  3.8069  0.2986  0.7809
 4728SOL     OW25642   2.790   2.341   2.972 -0.3834  0.1808  0.1059
 4728SOL    HW125643   2.781   2.283   3.047 -0.8856  1.9704  1.4467
 4728SOL    HW225644   2.755   2.283   2.904 -1.3137  1.1626 -0.2556
 4729SOL     OW25645   0.663   2.996   5.635 -0.0300  0.4877 -0.1660
 4729SOL    HW125646   0.684   2.979   5.727 -0.3650 -1.7569 -0.5123
 4729SOL    HW225647   0.623   3.083   5.633 -3.3499 -1.0207  0.2760
 4730SOL     OW25648   3.391   0.250  13.569 -0.3022 -0.8105  0.5314
 4730SOL    HW125649   3.471   0.204  13.594 -0.1661 -0.2508  1.1237
 4730SOL    HW225650   3.331   0.184  13.533  1.5180 -2.4742  0.6063
 4731SOL     OW25651   0.811   3.086   5.870  0.3609  0.0119 -0.3208
 4731SOL    HW125652   0.754   3.147   5.917  2.3082  0.7352  1.1220
 4731SOL    HW225653   0.871   3.077   5.944  0.2954  1.6561 -0.0607
 4732SOL     OW25654   0.005   3.340   3.337  0.3686  0.6241 -0.0692
 4732SOL    HW125655   0.063   3.412   3.362 -1.6429  1.6941  1.6022
 4732SOL    HW225656   4.657   3.349   3.401  0.3528  1.6621 -0.2353
 4733SOL     OW25657   2.146   3.033   3.896  0.2967 -0.5001  0.7771
 4733SOL    HW125658   2.140   2.977   3.974  1.7308  0.1061  1.3245
 4733SOL    HW225659   2.222   2.993   3.853  0.5346  2.1231 -1.1950
 4734SOL     OW25660   3.424   1.394  11.480 -0.9078 -0.0449  0.3002
 4734SOL    HW125661   3.369   1.361  11.409 -1.3630  2.8245 -0.6888
 4734SOL    HW225662   3.404   1.327  11.545  0.9439 -0.5677  0.3397
 4735SOL     OW25663   0.523   0.316   6.852 -0.0678  0.4025 -0.1843
 4735SOL    HW125664   0.509   0.247   6.917  2.9759  0.0747  0.1125
 4735SOL    HW225665   0.489   0.395   6.895 -2.9114 -0.9278 -0.0078
 4736SOL     OW25666   1.713   3.882  14.925 -0.4599 -0.4620 -0.0118
 4736SOL    HW125667   1.680   3.967  14.957  2.5672  0.9760 -0.7132
 4736SOL    HW225668   1.645   3.817  14.942  0.3539 -1.4914 -0.6944
 4737SOL     OW25669   3.608   1.472   3.802  0.0992 -0.1192 -0.0794
 4737SOL    HW125670   3.635   1.386   3.770  0.8864  0.1801 -0.2142
 4737SOL    HW225671   3.515   1.458   3.788 -0.3105  1.5317  0.9253
 4738SOL     OW25672   2.504   2.452  14.883  0.5060  0.0225  0.2178
 4738SOL    HW125673   2.575   2.494  14.932  0.9653 -1.3713  0.7497
 4738SOL    HW225674   2.526   2.485  14.795 -0.3594 -1.7945 -0.6725
 4739SOL     OW25675   3.825   2.826   6.104  0.0966  0.8603 -0.3836
 4739SOL    HW125676   3.811   2.754   6.042  0.2096  2.3005 -2.0982
 4739SOL    HW225677   3.899   2.865   6.058 -0.8684  2.7771 -0.3193
 4740SOL     OW25678   1.297   2.979  11.131 -0.6773  0.3473 -0.4230
 4740SOL    HW125679   1.383   3.003  11.164  0.8488 -0.9946 -3.3978
 4740SOL    HW225680   1.269   2.899  11.175  1.1882 -1.4188 -2.4747
 4741SOL     OW25681   2.184   1.625   8.233  0.1976  0.1600  0.1547
 4741SOL    HW125682   2.142   1.541   8.251 -0.2731  0.7872  2.0163
 4741SOL    HW225683   2.122   1.691   8.267  2.4125  1.4241  1.7042
 4742SOL     OW25684   4.298   4.707  12.128  0.3563 -0.1990  0.2402
 4742SOL    HW125685   4.333   4.637  12.072  2.2091  0.9277 -0.0085
 4742SOL    HW225686   4.309   4.677  12.218 -0.6339 -0.8338  0.1477
 4743SOL     OW25687   1.854   0.738   7.333 -0.0528 -0.0741  0.5794
 4743SOL    HW125688   1.771   0.744   7.287  0.4100  2.1075  0.0217
 4743SOL    HW225689   1.838   0.674   7.403  0.2892 -0.0330  0.6983
 4744SOL     OW25690   3.212   0.007   0.102 -0.4964  0.7029  0.1246
 4744SOL    HW125691   3.237   0.100   0.102 -0.3191  0.6458 -1.2613
 4744SOL    HW225692   3.142   4.707   0.041  0.1717  1.0742 -0.7716
 4745SOL     OW25693   2.523   3.329   6.311  0.1235  0.1513  0.4613
 4745SOL    HW125694   2.444   3.361   6.267 -0.2678 -1.0148  0.3232
 4745SOL    HW225695   2.487   3.282   6.387  0.5707  0.7442  1.0408
 4746SOL     OW25696   0.029   0.116   5.024  0.3101  0.4638  0.2487
 4746SOL    HW125697   4.694   0.044   5.050  0.2375 -0.3014 -2.0293
 4746SOL    HW225698   0.095   0.110   5.093 -0.4428 -0.8094  0.8553
 4747SOL     OW25699   0.749   1.108  14.537 -0.2748  0.1844 -0.3892
 4747SOL    HW125700   0.786   1.045  14.598 -0.4911  1.3270  0.9092
 4747SOL    HW225701   0.791   1.081  14.455  0.5655 -0.1008  0.1320
 4748SOL     OW25702   4.400   1.318   2.215 -0.8648  0.0537 -0.0068
 4748SOL    HW125703   4.427   1.284   2.300 -1.0598 -1.1918 -0.4423
 4748SOL    HW225704   4.405   1.236   2.166  1.2456 -0.8504  1.6953
 4749SOL     OW25705   4.333   1.200   0.324  0.0916 -0.2301  0.1190
 4749SOL    HW125706   4.328   1.281   0.374 -0.6118 -1.5955  2.2908
 4749SOL    HW225707   4.423   1.189   0.295  0.8137  3.4779  0.9382
 4750SOL     OW25708   1.725   0.360   9.665 -0.0878 -0.1584  0.1510
 4750SOL    HW125709   1.701   0.333   9.577 -1.5653  0.8294  0.2492
 4750SOL    HW225710   1.757   0.449   9.650 -1.3448  0.4077  0.8185
 4751SOL     OW25711   1.313   0.648   3.011  0.3907  0.1037  0.0996
 4751SOL    HW125712   1.230   0.617   2.976  0.4769 -0.0657  0.0449
 4751SOL    HW225713   1.363   0.568   3.027  0.1129 -0.1128 -0.1183
 4752SOL     OW25714   1.968   4.429  11.072 -0.4442 -0.0944  0.2959
 4752SOL    HW125715   1.888   4.379  11.091 -1.4197  1.1706 -0.4573
 4752SOL    HW225716   2.037   4.370  11.102 -0.6092 -0.5175 -0.1685
 4753SOL     OW25717   1.352   2.552   9.843  0.4188  0.2183 -0.1496
 4753SOL    HW125718   1.315   2.526   9.928 -1.0814  1.2998 -0.4798
 4753SOL    HW225719   1.420   2.615   9.869 -0.1761 -0.4086  3.0053
 4754SOL     OW25720   3.652   0.454   1.760 -0.4669  0.4787 -0.0578
 4754SOL    HW125721   3.619   0.433   1.673  1.2217 -0.7053 -0.4149
 4754SOL    HW225722   3.727   0.510   1.740  0.0737 -0.4905 -0.7532
 4755SOL     OW25723   3.815   2.231   3.863 -0.2180  0.0414 -0.3564
 4755SOL    HW125724   3.870   2.240   3.784 -0.6589 -2.8140 -0.9798
 4755SOL    HW225725   3.840   2.147   3.900 -2.1236 -1.0241 -1.5007
 4756SOL     OW25726   2.666   0.872  10.431 -0.3883 -0.0303 -0.3195
 4756SOL    HW125727   2.736   0.815  10.462  0.5159  1.7347  0.8949
 4756SOL    HW225728   2.649   0.937  10.500  2.0984 -0.7455  0.9527
 4757SOL     OW25729   1.468   1.294   2.059 -0.8687 -1.0753  0.0339
 4757SOL    HW125730   1.471   1.215   2.113  0.9938 -0.1850  1.2006
 4757SOL    HW225731   1.379   1.295   2.022 -1.0701 -0.8923  0.5174
 4758SOL     OW25732   2.098   1.701  17.048  0.1296 -0.1063 -0.4883
 4758SOL    HW125733   2.139   1.642  16.984  3.4740 -1.4826  2.9145
 4758SOL    HW225734   2.082   1.771  16.985 -1.8687  0.4068  0.6190
 4759SOL     OW25735   4.328   2.424   4.768 -0.7741 -0.0583  0.3758
 4759SOL    HW125736   4.248   2.395   4.723 -1.6812  0.1601  1.8703
 4759SOL    HW225737   4.296   2.434   4.857 -0.8473 -2.0359  0.5720
 4760SOL     OW25738   0.298   1.664   0.926  0.1423  0.3660  0.2400
 4760SOL    HW125739   0.218   1.611   0.923  0.8255 -0.7551  1.6985
 4760SOL    HW225740   0.342   1.638   1.007 -1.1851  1.3063  1.2657
 4761SOL     OW25741   0.673   0.691  12.801 -0.4157  0.1409  0.3258
 4761SOL    HW125742   0.748   0.639  12.831 -1.5606 -1.5414  0.2806
 4761SOL    HW225743   0.712   0.777  12.784 -1.4894  0.8886  1.6453
 4762SOL     OW25744   2.225   2.255   3.862  0.6298 -0.1945  0.3588
 4762SOL    HW125745   2.245   2.178   3.914  0.3523 -2.1050 -2.3844
 4762SOL    HW225746   2.214   2.217   3.775 -0.1009  1.2000 -0.1627
 4763SOL     OW25747   1.727   1.482   7.698 -0.9398 -0.0867  0.1072
 4763SOL    HW125748   1.724   1.446   7.609  1.2154 -0.8075  0.3287
 4763SOL    HW225749   1.748   1.406   7.751 -2.0688  0.6459  1.5844
 4764SOL     OW25750   0.514   3.323   8.816  0.5437  0.3150 -0.3234
 4764SOL    HW125751   0.499   3.369   8.733 -0.1453 -0.0080 -0.3785
 4764SOL    HW225752   0.463   3.242   8.809  1.0218  0.1632 -1.9957
 4765SOL     OW25753   0.705   0.622   3.206 -0.1905  0.7222 -0.1196
 4765SOL    HW125754   0.685   0.642   3.297  0.2999 -2.3782  0.6625
 4765SOL    HW225755   0.628   0.662   3.166  0.4294 -0.5691 -2.5867
 4766SOL     OW25756   1.569   1.523  14.557 -0.3779  0.2111  0.4881
 4766SOL    HW125757   1.628   1.500  14.628 -0.4649 -2.2554 -0.2475
 4766SOL    HW225758   1.616   1.506  14.475 -2.0508 -1.7437 -0.0859
 4767SOL     OW25759   0.567   3.135   8.465  0.0272  0.3992  0.3610
 4767SOL    HW125760   0.535   3.216   8.506  1.5914  0.5817  1.2580
 4767SOL    HW225761   0.529   3.145   8.378 -1.1190 -0.1427  0.8114
 4768SOL     OW25762   1.762   0.395   6.705 -0.3635  0.1798  0.0880
 4768SOL    HW125763   1.838   0.418   6.758  0.4681 -1.9811 -0.1712
 4768SOL    HW225764   1.784   0.304   6.683 -0.6515  0.0001  0.5379
 4769SOL     OW25765   4.617   1.383  12.381  0.3094 -0.5186  0.2769
 4769SOL    HW125766   4.668   1.327  12.440 -0.9652 -2.3699 -0.3647
 4769SOL    HW225767   4.672   1.366  12.305 -0.7915  0.8543 -0.8276
 4770SOL     OW25768   2.752   3.504  13.782  0.0300 -0.4492  0.7646
 4770SOL    HW125769   2.739   3.426  13.728 -0.5194 -0.3939  0.8105
 4770SOL    HW225770   2.661   3.532  13.791  0.3189  0.5827  0.4102
 4771SOL     OW25771   3.834   3.590   8.206 -0.3101  0.3383  0.3150
 4771SOL    HW125772   3.820   3.669   8.155  0.5252 -0.2568 -0.8539
 4771SOL    HW225773   3.925   3.594   8.236 -0.6449 -0.6215  1.4654
 4772SOL     OW25774   2.557   2.668  10.660 -0.2673 -0.1769 -0.1960
 4772SOL    HW125775   2.578   2.575  10.649  1.2148  0.0741  0.4749
 4772SOL    HW225776   2.643   2.702  10.633 -0.6608 -0.0508 -1.2856
 4773SOL     OW25777   1.541   4.645  11.060 -0.6113 -0.2578  0.2957
 4773SOL    HW125778   1.564   0.011  11.089  1.4580 -0.1533 -1.6945
 4773SOL    HW225779   1.624   4.603  11.040 -0.6558  0.0238 -0.4530
 4774SOL     OW25780   0.001   1.614   2.066 -0.1977 -0.0293  0.5503
 4774SOL    HW125781   4.662   1.686   2.055 -0.5590 -0.2455  1.1723
 4774SOL    HW225782   4.719   1.569   1.981  0.1010  0.8256  0.0902
 4775SOL     OW25783   2.786   1.123   4.668 -0.3024  0.5850 -0.2230
 4775SOL    HW125784   2.763   1.033   4.693 -1.7012  0.2472 -2.6277
 4775SOL    HW225785   2.744   1.131   4.582  1.5803 -0.7768 -1.2543
 4776SOL     OW25786   3.249   4.517  10.893  0.7536 -0.3276 -0.7616
 4776SOL    HW125787   3.248   4.430  10.932 -1.8324 -0.6747 -1.6510
 4776SOL    HW225788   3.158   4.536  10.872  0.1425 -0.9537  1.3111
 4777SOL     OW25789   3.857   3.099  16.345 -0.3883  0.0815 -0.8221
 4777SOL    HW125790   3.777   3.088  16.397  0.0395 -1.6925 -0.5529
 4777SOL    HW225791   3.818   3.117  16.260 -1.0046  2.9055  0.0527
 4778SOL     OW25792   3.484   4.681  10.960 -0.5293 -0.4096 -0.2964
 4778SOL    HW125793   3.538   4.648  11.033 -2.3208 -2.7630 -0.0265
 4778SOL    HW225794   3.445   4.603  10.920  0.9688 -0.4958 -1.6054
 4779SOL     OW25795   2.956   0.686   7.521 -0.5721  0.3903  0.4025
 4779SOL    HW125796   3.016   0.751   7.483  0.9023 -1.5108 -0.5580
 4779SOL    HW225797   3.020   0.615   7.534 -0.2084  1.1571  2.7936
 4780SOL     OW25798   4.608   2.488  12.853  0.3644  0.3459 -0.1669
 4780SOL    HW125799   4.702   2.497  12.870  0.0948 -1.4645  2.3673
 4780SOL    HW225800   4.587   2.402  12.891  0.3369  1.7274  2.9447
 4781SOL     OW25801   0.057   1.034  16.885 -0.3924  0.1003 -0.4307
 4781SOL    HW125802   4.701   0.988  16.913 -0.4047  1.0779  1.1855
 4781SOL    HW225803   0.111   0.955  16.882 -1.9959 -1.0588  0.9615
 4782SOL     OW25804   0.561   2.604  16.894  0.3341  0.1368  0.4651
 4782SOL    HW125805   0.626   2.663  16.931 -0.3520  1.4110 -0.3539
 4782SOL    HW225806   0.490   2.626  16.954  0.7061 -1.6921  1.5872
 4783SOL     OW25807   0.557   0.715  13.122 -0.2927 -0.0005 -0.4722
 4783SOL    HW125808   0.537   0.804  13.153  2.5479  1.1490 -1.9718
 4783SOL    HW225809   0.626   0.734  13.058 -1.7914 -0.9004 -2.3343
 4784SOL     OW25810   0.157   3.565   3.471 -0.4000 -0.1563 -0.5159
 4784SOL    HW125811   0.214   3.507   3.521 -1.0025 -2.2820 -2.2617
 4784SOL    HW225812   0.224   3.594   3.408 -0.2602 -0.8812 -0.6972
 4785SOL     OW25813   2.586   0.427  11.794 -0.0861 -0.3355  0.3678
 4785SOL    HW125814   2.635   0.353  11.830  2.2230  0.1469 -1.7461
 4785SOL    HW225815   2.660   0.464  11.746 -0.0416 -1.2059 -0.2393
 4786SOL     OW25816   1.261   2.597   7.117 -0.0724  0.0078 -0.8647
 4786SOL    HW125817   1.350   2.563   7.127 -0.4508  0.0675  2.8508
 4786SOL    HW225818   1.264   2.653   7.040  1.3117 -0.4079 -1.1009
 4787SOL     OW25819   3.798   2.406   1.583 -0.0274 -0.7078 -0.3636
 4787SOL    HW125820   3.840   2.351   1.649 -1.0399 -1.7255 -0.5636
 4787SOL    HW225821   3.857   2.406   1.507  2.8564 -0.9281  1.8846
 4788SOL     OW25822   4.055   3.233   6.420 -0.4298 -0.7004 -0.3479
 4788SOL    HW125823   3.984   3.286   6.385 -0.0931 -0.4753 -0.6840
 4788SOL    HW225824   4.011   3.204   6.500  0.2597 -1.4159 -0.2261
 4789SOL     OW25825   2.625   1.873   9.758 -0.5361  0.4912 -0.0448
 4789SOL    HW125826   2.551   1.865   9.698 -1.5909 -1.1109  1.4658
 4789SOL    HW225827   2.642   1.967   9.749 -1.4703  0.7584  0.9974
 4790SOL     OW25828   0.191   4.088   1.229  0.0260 -0.3181 -0.7226
 4790SOL    HW125829   0.163   4.173   1.264 -1.7724 -1.9414  1.7494
 4790SOL    HW225830   0.267   4.070   1.284  1.9294  1.6242 -2.7353
 4791SOL     OW25831   1.923   4.057  14.408 -0.5002  0.1872 -0.1962
 4791SOL    HW125832   1.894   4.006  14.333  1.1443 -2.0932  0.7301
 4791SOL    HW225833   2.014   4.039  14.387 -0.9344 -0.9063 -1.1316
 4792SOL     OW25834   3.560   0.065   2.156  0.3398  0.2226  0.0681
 4792SOL    HW125835   3.645   0.109   2.164  1.9467 -2.7505 -0.7861
 4792SOL    HW225836   3.517   0.086   2.239  0.1527  3.8272 -0.9509
 4793SOL     OW25837   0.793   2.834   2.873  0.5403 -0.1354  0.3140
 4793SOL    HW125838   0.787   2.911   2.929 -1.3068 -0.4509  0.5415
 4793SOL    HW225839   0.797   2.871   2.785  1.5525  0.3275  0.5593
 4794SOL     OW25840   3.504   3.935   6.415 -0.0779  0.9010 -0.5869
 4794SOL    HW125841   3.561   4.000   6.456 -1.0917  1.1468  0.4334
 4794SOL    HW225842   3.531   3.852   6.456 -1.0283  1.3194  0.8739
 4795SOL     OW25843   4.018   1.005   6.019  0.0251 -0.2602 -0.0667
 4795SOL    HW125844   4.040   1.012   6.112 -0.2814  0.1198 -0.0226
 4795SOL    HW225845   4.094   1.046   5.976  0.2294  1.6105  2.0576
 4796SOL     OW25846   2.820   4.330   2.790 -0.2883 -0.4171 -0.2591
 4796SOL    HW125847   2.764   4.273   2.738 -0.3115  0.7534 -1.5243
 4796SOL    HW225848   2.863   4.390   2.729  0.4570  0.2073  0.8730
 4797SOL     OW25849   2.339   3.641   2.424 -0.3278 -0.4060 -0.3014
 4797SOL    HW125850   2.295   3.582   2.485 -0.3060  0.0750  0.1736
 4797SOL    HW225851   2.341   3.716   2.483 -0.8292 -0.0667 -0.7173
 4798SOL     OW25852   3.875   0.803  12.159  0.2433 -0.7079 -0.3622
 4798SOL    HW125853   3.918   0.775  12.078 -3.5417 -1.1735 -2.1634
 4798SOL    HW225854   3.813   0.853  12.107  0.7965  1.2688  0.8875
 4799SOL     OW25855   1.294   4.479   9.035 -0.0509  0.0177  0.7208
 4799SOL    HW125856   1.343   4.561   9.043 -0.9473  0.8520 -2.6767
 4799SOL    HW225857   1.244   4.486   9.117  1.1345  0.5521  1.4011
 4800SOL     OW25858   3.877   0.717   1.456  0.6930 -0.1489  0.4599
 4800SOL    HW125859   3.952   0.777   1.459 -0.3300  1.1482 -0.3150
 4800SOL    HW225860   3.810   0.772   1.496  1.8112  1.7768 -0.3285
 4801SOL     OW25861   3.198   2.290   1.087  0.2832  0.0981  0.0798
 4801SOL    HW125862   3.128   2.315   1.027  0.7777 -3.6544 -2.0873
 4801SOL    HW225863   3.218   2.378   1.120  1.8423 -1.6198  3.7536
 4802SOL     OW25864   0.033   4.357  10.687 -1.0093  0.5777  0.0581
 4802SOL    HW125865   4.692   4.289  10.669 -0.4567  0.6463 -2.1186
 4802SOL    HW225866   0.009   4.369  10.779 -0.3264 -1.7050  0.5245
 4803SOL     OW25867   1.045   0.851   2.757 -0.5396  0.1310  0.2895
 4803SOL    HW125868   1.021   0.895   2.676  1.8094  1.4798  0.3317
 4803SOL    HW225869   0.960   0.832   2.797  0.3102  0.8334  2.3789
 4804SOL     OW25870   4.527   0.668   5.921  0.5655  0.1260  0.0762
 4804SOL    HW125871   4.431   0.658   5.925  0.4474  1.0366 -0.3796
 4804SOL    HW225872   4.561   0.580   5.932 -1.5734 -0.3873  2.6359
 4805SOL     OW25873   1.795   4.693   4.721 -0.1944  0.7076 -0.0726
 4805SOL    HW125874   1.831   0.016   4.798  1.5924 -0.0098 -0.4747
 4805SOL    HW225875   1.708   4.669   4.752 -0.0139  0.8500  0.5534
 4806SOL     OW25876   1.843   1.273   6.207  0.3631  0.3979  0.0051
 4806SOL    HW125877   1.927   1.303   6.243  0.4125  2.3330 -1.7111
 4806SOL    HW225878   1.779   1.318   6.263 -1.2181 -3.1311  1.0004
 4807SOL     OW25879   2.124   3.374   0.686 -0.1756  0.1523 -0.3770
 4807SOL    HW125880   2.097   3.409   0.601 -0.1512  0.8549 -0.0865
 4807SOL    HW225881   2.134   3.283   0.657 -0.1269  0.3758 -1.0686
 4808SOL     OW25882   0.739   0.171   9.035  0.4231 -0.2791 -0.5660
 4808SOL    HW125883   0.713   0.092   8.987 -0.9342 -0.8698  1.1315
 4808SOL    HW225884   0.825   0.189   8.998  0.4523 -0.1540 -0.4372
 4809SOL     OW25885   0.510   3.045  11.059  0.4809  0.2303  0.5733
 4809SOL    HW125886   0.467   3.127  11.032  2.2810  0.7326 -0.7241
 4809SOL    HW225887   0.589   3.091  11.086  1.1118 -0.6304  0.1480
 4810SOL     OW25888   3.336   2.122   4.253  0.1518 -0.4558 -0.1908
 4810SOL    HW125889   3.411   2.181   4.241 -0.7584  0.4769 -1.3845
 4810SOL    HW225890   3.295   2.118   4.166  0.2739 -2.9726 -0.1298
 4811SOL     OW25891   0.313   1.399   6.534  0.0869 -0.2812 -1.1207
 4811SOL    HW125892   0.290   1.490   6.555  1.3672  0.4219 -2.8299
 4811SOL    HW225893   0.377   1.393   6.605  1.0001  1.4585 -1.7968
 4812SOL     OW25894   0.287   2.193   3.507 -0.0950  0.8377 -0.7700
 4812SOL    HW125895   0.367   2.203   3.560 -0.4595  0.1067 -0.0780
 4812SOL    HW225896   0.275   2.099   3.491 -0.9283  1.0654 -1.4793
 4813SOL     OW25897   4.317   1.600   6.940 -0.0188 -0.0462  0.1013
 4813SOL    HW125898   4.322   1.687   6.979 -1.1077  0.5349 -1.0360
 4813SOL    HW225899   4.296   1.624   6.850  0.6448  1.0132  0.2268
 4814SOL     OW25900   3.945   3.498   2.039 -0.5280  0.0776 -0.0131
 4814SOL    HW125901   3.929   3.526   2.129  0.9176 -0.5831  0.4419
 4814SOL    HW225902   3.931   3.582   1.995  1.1971  0.2106 -0.3049
 4815SOL     OW25903   1.098   3.277  14.582  0.2312  0.3309  0.4225
 4815SOL    HW125904   1.174   3.282  14.524 -0.6715  0.5081 -0.7447
 4815SOL    HW225905   1.115   3.359  14.628  0.5257  0.5109 -0.0064
 4816SOL     OW25906   4.592   4.292   8.554  0.2102 -0.0793 -0.0807
 4816SOL    HW125907   4.536   4.344   8.611 -0.4462  1.0968 -1.8097
 4816SOL    HW225908   4.681   4.315   8.581 -0.6592 -0.5527  3.1848
 4817SOL     OW25909   0.345   1.253  14.392 -0.0476 -0.1402  0.0809
 4817SOL    HW125910   0.308   1.260  14.304  0.4878  1.6007 -0.0257
 4817SOL    HW225911   0.397   1.173  14.386 -1.5795 -1.0072 -1.7378
 4818SOL     OW25912   2.982   0.605   9.878 -0.4216 -0.5214 -1.1397
 4818SOL    HW125913   3.072   0.591   9.907 -0.8508 -2.2445 -0.6218
 4818SOL    HW225914   2.958   0.542   9.811 -0.7452 -3.2222  1.5219
 4819SOL     OW25915   1.235   2.460   1.304 -0.4909 -0.2155  0.8257
 4819SOL    HW125916   1.276   2.544   1.321  1.6041 -0.8051 -1.4176
 4819SOL    HW225917   1.261   2.440   1.214 -3.3142 -0.8354  0.1388
 4820SOL     OW25918   0.842   0.577   8.986 -0.1706 -0.5607 -0.3074
 4820SOL    HW125919   0.914   0.551   8.927 -0.1624  2.3842 -1.5797
 4820SOL    HW225920   0.836   0.513   9.057 -1.7946  0.1246  0.1705
 4821SOL     OW25921   1.696   1.123   5.096  0.2040  0.2119 -0.7401
 4821SOL    HW125922   1.782   1.083   5.108 -0.0241  0.0776  0.4516
 4821SOL    HW225923   1.709   1.167   5.011 -2.5404 -0.1937 -1.3801
 4822SOL     OW25924   4.220   1.427   7.679  0.1982  0.1687  0.2129
 4822SOL    HW125925   4.131   1.462   7.684  0.3754  0.5303  0.8410
 4822SOL    HW225926   4.258   1.487   7.744 -0.2731 -3.1240  3.5655
 4823SOL     OW25927   0.836   1.239   9.584  0.1985  0.3942  0.1250
 4823SOL    HW125928   0.902   1.262   9.650  0.7353  2.3705 -1.1037
 4823SOL    HW225929   0.756   1.270   9.625  0.8621 -1.7979  3.1208
 4824SOL     OW25930   4.360   4.502   7.197 -0.7892 -0.1786 -0.2787
 4824SOL    HW125931   4.265   4.513   7.203 -0.4808  0.7763  2.7238
 4824SOL    HW225932   4.391   4.573   7.253 -0.0131 -0.1099 -0.7921
 4825SOL     OW25933   1.298   4.304   5.314 -0.0212  0.5194  0.0319
 4825SOL    HW125934   1.296   4.338   5.404  0.9292 -1.5849  0.8548
 4825SOL    HW225935   1.215   4.345   5.291  0.2685 -0.5521 -2.8828
 4826SOL     OW25936   1.883   0.470   8.341  0.2273 -0.0831 -0.2863
 4826SOL    HW125937   1.882   0.562   8.313  2.3844  0.0190  0.0360
 4826SOL    HW225938   1.792   0.442   8.353  1.0582 -2.9278 -0.7255
 4827SOL     OW25939   3.887   2.177   4.603  0.0492 -0.2596 -0.8717
 4827SOL    HW125940   3.963   2.234   4.611 -1.1517  1.3548 -1.1136
 4827SOL    HW225941   3.898   2.145   4.514 -0.3169 -2.1966 -0.2302
 4828SOL     OW25942   3.072   2.721   3.030  0.6926 -0.0234 -0.1076
 4828SOL    HW125943   3.114   2.749   2.948  0.2967 -0.1568 -0.3576
 4828SOL    HW225944   3.111   2.779   3.095 -1.3074  0.5910  0.5498
 4829SOL     OW25945   2.953   3.418   3.439 -0.1450 -0.1140  0.1913
 4829SOL    HW125946   2.984   3.387   3.354 -1.2425  2.2795 -1.0728
 4829SOL    HW225947   3.034   3.403   3.488  0.0062 -1.2227 -0.4048
 4830SOL     OW25948   1.389   3.288  14.863  0.6482  0.9205 -0.9395
 4830SOL    HW125949   1.436   3.259  14.784 -2.3866 -1.4745 -1.8330
 4830SOL    HW225950   1.369   3.379  14.839  1.7341  1.7874  1.4549
 4831SOL     OW25951   1.342   1.116  16.080 -0.0990 -0.1000 -0.0090
 4831SOL    HW125952   1.410   1.171  16.041 -1.6128  1.3814 -0.5730
 4831SOL    HW225953   1.260   1.165  16.076  1.6997  2.9780  0.6814
 4832SOL     OW25954   2.180   1.595   6.532  0.5808  0.0775  0.0891
 4832SOL    HW125955   2.276   1.590   6.528  0.4949 -1.5994  0.1388
 4832SOL    HW225956   2.164   1.576   6.625 -3.2144  0.9278 -0.4048
 4833SOL     OW25957   2.134   1.055   7.407  0.5746  0.1775 -0.0199
 4833SOL    HW125958   2.225   1.030   7.398  0.7213  0.5327  0.4845
 4833SOL    HW225959   2.137   1.116   7.481 -0.3110  0.8931 -0.5716
 4834SOL     OW25960   0.867   1.072   3.313 -0.6568 -0.0508  0.1302
 4834SOL    HW125961   0.915   1.129   3.372  1.9761  0.2240 -2.2486
 4834SOL    HW225962   0.848   1.136   3.244  1.0173 -0.6966 -0.9407
 4835SOL     OW25963   0.487   4.570   8.811 -0.5962  0.1017  0.1235
 4835SOL    HW125964   0.401   4.559   8.853 -0.6362 -1.0879 -0.2912
 4835SOL    HW225965   0.459   4.648   8.762  0.0681 -0.9762 -1.9640
 4836SOL     OW25966   3.276   0.235   6.783  0.1855 -0.0951 -0.1126
 4836SOL    HW125967   3.273   0.215   6.689  1.3582 -1.5585  0.1513
 4836SOL    HW225968   3.296   0.328   6.777  1.6411 -0.1932  3.6321
 4837SOL     OW25969   0.576   2.428   6.774  0.2058 -0.4327 -0.3690
 4837SOL    HW125970   0.656   2.475   6.751  0.8838 -0.9156  1.0474
 4837SOL    HW225971   0.516   2.502   6.786  0.6537 -0.4124  1.7094
 4838SOL     OW25972   2.093   1.980   3.358  0.0748 -0.8936  0.4602
 4838SOL    HW125973   2.027   1.921   3.322 -1.2683  1.0759 -0.3070
 4838SOL    HW225974   2.085   1.975   3.453 -1.3399 -1.8246  0.2893
 4839SOL     OW25975   0.252   0.509   3.128 -0.1249 -0.7310  0.1460
 4839SOL    HW125976   0.183   0.574   3.137 -0.7251 -1.3308 -0.1740
 4839SOL    HW225977   0.321   0.555   3.081 -0.1224 -0.5228  0.3495
 4840SOL     OW25978   2.437   1.368   7.357  0.2235  0.5038 -0.6382
 4840SOL    HW125979   2.491   1.300   7.396 -1.2352  1.0143  2.2767
 4840SOL    HW225980   2.391   1.321   7.287  0.5457 -0.1219 -0.4200
 4841SOL     OW25981   1.701   2.940   3.424  0.4652 -0.4812 -0.4970
 4841SOL    HW125982   1.660   2.922   3.509 -0.3733 -1.0986 -1.0299
 4841SOL    HW225983   1.707   2.850   3.393  1.0637 -1.2752  1.8589
 4842SOL     OW25984   0.461   2.220  11.960  0.5892 -0.0956  0.1693
 4842SOL    HW125985   0.391   2.274  11.995  0.1161 -0.8374  0.3735
 4842SOL    HW225986   0.414   2.185  11.884  0.2359  0.2908  0.2060
 4843SOL     OW25987   0.512   0.407   6.010  0.0380  0.0545  0.2897
 4843SOL    HW125988   0.540   0.453   6.089  1.3311  0.7366 -0.5827
 4843SOL    HW225989   0.526   0.314   6.028 -1.5902  0.0392  1.5583
 4844SOL     OW25990   1.907   2.389   6.695  0.0468 -0.4717  0.5510
 4844SOL    HW125991   1.853   2.446   6.750  1.0137  0.5475  0.4460
 4844SOL    HW225992   1.993   2.429   6.709  1.1078 -2.2556 -1.0852
 4845SOL     OW25993   0.634   1.765   7.530 -0.3094 -0.1386 -0.0917
 4845SOL    HW125994   0.671   1.718   7.455  0.0824  0.7283 -0.4408
 4845SOL    HW225995   0.541   1.769   7.508 -0.0974  0.1241 -0.9737
 4846SOL     OW25996   3.166   1.427  14.060  0.2611 -0.0649  0.3246
 4846SOL    HW125997   3.137   1.504  14.011 -1.3869 -0.6822  0.3258
 4846SOL    HW225998   3.167   1.474  14.144 -0.0398 -1.7447  1.2744
 4847SOL     OW25999   0.681   2.267   3.391 -0.0672  0.0554 -0.2139
 4847SOL    HW126000   0.609   2.330   3.382  1.0200  1.4087  0.5848
 4847SOL    HW226001   0.717   2.257   3.304 -1.6705  1.0112 -0.9914
 4848SOL     OW26002   1.859   2.978   8.377 -0.4582 -0.8079 -0.2086
 4848SOL    HW126003   1.852   3.066   8.339  0.5291 -1.4877 -1.9464
 4848SOL    HW226004   1.808   3.001   8.455 -0.8243 -0.7912 -0.4534
 4849SOL     OW26005   1.858   3.543   6.902 -0.5014  0.1015 -0.4233
 4849SOL    HW126006   1.840   3.557   6.995 -2.1254 -2.0649 -0.4087
 4849SOL    HW226007   1.777   3.515   6.858 -0.6095 -1.0116  0.4852
 4850SOL     OW26008   3.490   3.799   5.352 -0.6726  0.0124 -0.0453
 4850SOL    HW126009   3.573   3.844   5.337 -1.2098  0.4394 -1.7425
 4850SOL    HW226010   3.471   3.816   5.444 -1.1222  0.3826 -0.2116
 4851SOL     OW26011   2.573   2.744   5.552 -0.5394 -0.2460  0.7393
 4851SOL    HW126012   2.600   2.726   5.642  1.4968 -2.0997 -0.2351
 4851SOL    HW226013   2.528   2.828   5.561  0.7491  0.6048 -0.7493
 4852SOL     OW26014   3.105   0.337   5.215 -0.3108  0.2795 -0.3810
 4852SOL    HW126015   3.091   0.388   5.135 -0.3957  1.8097  0.6135
 4852SOL    HW226016   3.045   0.265   5.195  0.8783 -1.0906  1.0131
 4853SOL     OW26017   3.776   3.349  11.369 -0.0498 -0.5394  0.2360
 4853SOL    HW126018   3.817   3.300  11.298 -0.9321  1.5076 -1.6524
 4853SOL    HW226019   3.843   3.414  11.388  0.7285 -1.0115 -0.9527
 4854SOL     OW26020   0.263   1.448   0.516  0.0677  0.4981 -0.1563
 4854SOL    HW126021   0.170   1.425   0.520  0.0255  0.7458  0.3184
 4854SOL    HW226022   0.268   1.490   0.602 -0.8953  2.1808 -0.9122
 4855SOL     OW26023   2.581   0.335   2.348 -0.3724 -0.4027  0.5579
 4855SOL    HW126024   2.610   0.417   2.388  0.5392 -1.2420  1.6097
 4855SOL    HW226025   2.639   0.333   2.272 -2.3382  1.4706 -0.9829
 4856SOL     OW26026   4.011   2.992   0.853  0.1409  0.3437  0.2847
 4856SOL    HW126027   4.027   3.067   0.796 -1.8031  1.2846  1.0067
 4856SOL    HW226028   4.100   2.989   0.888  0.0137  2.9047  0.7630
 4857SOL     OW26029   0.061   3.602  16.056  0.1474  0.2850  0.1055
 4857SOL    HW126030   0.064   3.696  16.072 -0.4772  0.6427 -1.8687
 4857SOL    HW226031   0.037   3.597  15.963 -0.3946  3.4274  0.0762
 4858SOL     OW26032   3.411   4.414  17.574 -0.2986 -0.3849  0.0877
 4858SOL    HW126033   3.450   4.332  17.543  0.0163 -0.9686  2.0171
 4858SOL    HW226034   3.320   4.388  17.564 -0.2284 -1.0579  1.2455
 4859SOL     OW26035   2.432   2.620   0.124 -0.2794 -0.5335  0.6118
 4859SOL    HW126036   2.399   2.681   0.190 -0.4574  1.5784 -1.4231
 4859SOL    HW226037   2.495   2.674   0.077  0.1469 -0.3659  1.3688
 4860SOL     OW26038   0.741   1.549   4.383  0.3456 -0.5568 -0.0236
 4860SOL    HW126039   0.833   1.566   4.363  0.5993  0.1873  1.8121
 4860SOL    HW226040   0.743   1.456   4.404  1.1626 -0.6360 -0.4703
 4861SOL     OW26041   2.885   1.953   6.240 -0.1106 -0.0178  0.4291
 4861SOL    HW126042   2.798   1.944   6.279 -0.4155  0.9652 -0.0340
 4861SOL    HW226043   2.947   1.971   6.311 -0.4294 -0.5912  0.8532
 4862SOL     OW26044   3.003   3.164   2.462  0.3001  0.0655 -0.0952
 4862SOL    HW126045   3.056   3.166   2.383 -2.0880  0.4815 -1.7076
 4862SOL    HW226046   3.019   3.247   2.506 -2.5036  1.8988 -2.5548
 4863SOL     OW26047   1.600   4.029   2.995  0.2975  0.6687 -0.1516
 4863SOL    HW126048   1.657   3.957   3.023  0.7730  1.5817  1.2702
 4863SOL    HW226049   1.589   4.007   2.903  0.7390 -0.2877  0.0269
 4864SOL     OW26050   0.846   0.818   2.943 -0.6012 -0.1493  0.0983
 4864SOL    HW126051   0.823   0.775   3.025 -0.9301 -2.6773 -1.3090
 4864SOL    HW226052   0.771   0.875   2.928  0.2264  1.1470  0.8617
 4865SOL     OW26053   3.241   0.061  11.021 -0.3214 -0.1048 -0.4552
 4865SOL    HW126054   3.213   4.707  11.072  0.6097 -1.4738 -2.0002
 4865SOL    HW226055   3.312   0.015  10.976  0.4830 -0.3295  1.0364
 4866SOL     OW26056   3.808   1.933  11.521  0.2465  0.1820 -0.3597
 4866SOL    HW126057   3.774   1.891  11.599  0.2799 -0.1202 -0.5066
 4866SOL    HW226058   3.745   1.907  11.454 -0.8131  0.2666  0.6099
 4867SOL     OW26059   0.542   0.764   7.944 -0.3217 -0.5551  0.3472
 4867SOL    HW126060   0.607   0.818   7.899 -2.5067  0.2765 -1.7600
 4867SOL    HW226061   0.570   0.689   7.891  0.9480 -0.5337  0.9746
 4868SOL     OW26062   4.662   0.865  10.822 -0.1617  0.0273  0.2781
 4868SOL    HW126063   4.660   0.916  10.741 -1.2783 -0.4339  0.0113
 4868SOL    HW226064   4.649   0.774  10.796 -1.0019  0.1932  0.1203
 4869SOL     OW26065   0.907   4.557   9.201  0.1848  0.2728 -0.1990
 4869SOL    HW126066   0.864   4.540   9.118  1.3906 -1.2057 -0.5243
 4869SOL    HW226067   0.840   4.524   9.261 -2.5200  3.1422 -1.6447
 4870SOL     OW26068   3.999   1.409  13.031  0.0579 -0.0823 -0.1251
 4870SOL    HW126069   4.038   1.322  13.028 -0.5377 -0.3006 -1.5230
 4870SOL    HW226070   4.068   1.461  13.072  1.2445 -0.4159 -1.6894
 4871SOL     OW26071   3.483   2.151   0.113  0.2098  0.0645  0.1351
 4871SOL    HW126072   3.415   2.110   0.167 -2.5010  2.9932 -1.1369
 4871SOL    HW226073   3.488   2.089   0.041  0.5672 -2.8085  2.6074
 4872SOL     OW26074   2.416   4.385   3.047  0.5914 -0.1842 -0.4327
 4872SOL    HW126075   2.435   4.299   3.084  0.0420  1.0295  2.6576
 4872SOL    HW226076   2.334   4.398   3.094  0.1014  1.7775 -1.8011
 4873SOL     OW26077   1.180   0.943   5.191 -0.0950  0.1925 -0.3413
 4873SOL    HW126078   1.161   1.015   5.131 -0.1226  1.3690  1.0752
 4873SOL    HW226079   1.271   0.951   5.219 -0.0271  0.3046 -0.5977
 4874SOL     OW26080   0.049   0.754  15.815  0.8954 -0.8905  0.0099
 4874SOL    HW126081   0.102   0.774  15.738  0.0280 -0.3154 -0.4269
 4874SOL    HW226082   4.680   0.761  15.789  1.2918 -0.5226 -1.2788
 4875SOL     OW26083   4.215   3.612   5.489 -0.0616  0.0661  0.5803
 4875SOL    HW126084   4.142   3.577   5.541 -0.8149  1.3320  0.3892
 4875SOL    HW226085   4.217   3.552   5.415 -0.5036  0.5765  0.1474
 4876SOL     OW26086   4.380   0.912   0.766  0.4249 -0.0191 -0.1980
 4876SOL    HW126087   4.394   0.959   0.684 -3.3643  0.3569 -0.5884
 4876SOL    HW226088   4.437   0.836   0.753 -0.9695 -1.3306  1.3376
 4877SOL     OW26089   3.339   1.811   3.288 -0.1004 -0.4539 -0.5633
 4877SOL    HW126090   3.372   1.897   3.315  0.1698 -0.9068  0.5090
 4877SOL    HW226091   3.267   1.846   3.235 -2.3365 -2.2455  1.3026
 4878SOL     OW26092   2.675   3.783   9.833 -0.7693 -0.0724  0.8545
 4878SOL    HW126093   2.624   3.863   9.821  1.9274  1.3065 -1.3784
 4878SOL    HW226094   2.701   3.775   9.741  0.8670 -0.6182  1.3591
 4879SOL     OW26095   4.340   1.320  17.194  0.2261  0.1572 -0.8973
 4879SOL    HW126096   4.419   1.370  17.171  0.9267 -1.2057 -1.4228
 4879SOL    HW226097   4.367   1.307  17.285 -0.3705  0.9470 -0.6053
 4880SOL     OW26098   3.115   4.508   5.918 -0.1209  0.0780  0.6002
 4880SOL    HW126099   3.211   4.515   5.918  0.1412 -3.7273 -2.7661
 4880SOL    HW226100   3.102   4.523   5.824  0.1436  0.7209  0.6639
 4881SOL     OW26101   3.879   1.906   1.764  0.1223  0.3959 -0.3159
 4881SOL    HW126102   3.835   1.961   1.699  1.0891 -1.4250 -2.5019
 4881SOL    HW226103   3.972   1.901   1.743 -0.0076 -0.0919 -0.7590
 4882SOL     OW26104   4.327   3.562   1.922  0.6828  0.0134 -0.0805
 4882SOL    HW126105   4.256   3.499   1.928  0.4746  0.4448  2.1198
 4882SOL    HW226106   4.321   3.609   2.005  0.0589  3.1775 -1.8929
 4883SOL     OW26107   4.218   2.529   1.878  0.3437 -0.1635 -0.2237
 4883SOL    HW126108   4.264   2.600   1.922  0.2891  0.2124 -0.7649
 4883SOL    HW226109   4.209   2.558   1.787 -1.1730 -1.5871 -0.5230
 4884SOL     OW26110   1.151   3.347   1.743 -0.5554  0.0991  0.6382
 4884SOL    HW126111   1.081   3.284   1.757  1.2640 -2.4270 -1.8808
 4884SOL    HW226112   1.173   3.370   1.834  1.2263 -0.0281  0.2542
 4885SOL     OW26113   3.172   0.284   7.391 -0.3284 -0.1508  0.2317
 4885SOL    HW126114   3.205   0.201   7.425  0.7716  0.4077  0.5104
 4885SOL    HW226115   3.083   0.281   7.428 -0.9128  3.3092 -0.8542
 4886SOL     OW26116   0.738   3.204   8.917  0.4600  1.0083 -0.0667
 4886SOL    HW126117   0.699   3.232   8.999 -1.4444 -0.2087 -0.5658
 4886SOL    HW226118   0.681   3.255   8.858 -0.3592  0.7358  0.5009
 4887SOL     OW26119   1.702   3.037  13.678  0.1128 -0.0959 -0.2546
 4887SOL    HW126120   1.663   2.988  13.750  2.7064 -0.7673  0.6818
 4887SOL    HW226121   1.746   3.110  13.722 -3.1981  1.5511  0.3555
 4888SOL     OW26122   4.073   3.341  17.495  0.0251  0.0501 -0.2941
 4888SOL    HW126123   4.105   3.336  17.585  1.8290 -0.3743 -0.9493
 4888SOL    HW226124   4.141   3.302  17.440 -1.3026 -0.7165 -1.4071
 4889SOL     OW26125   0.292   3.301   4.792 -0.2663  0.1935  0.4673
 4889SOL    HW126126   0.216   3.324   4.739 -0.5671  1.7609  1.5771
 4889SOL    HW226127   0.352   3.305   4.717  0.2097 -2.6145  0.7174
 4890SOL     OW26128   3.639   0.675   5.953 -0.2018  0.4413  0.5706
 4890SOL    HW126129   3.729   0.702   5.934 -0.2580  0.3177  0.1275
 4890SOL    HW226130   3.585   0.707   5.881  1.5541 -2.4790 -2.0397
 4891SOL     OW26131   0.743   0.758  12.515  0.5285 -0.0357  0.2435
 4891SOL    HW126132   0.827   0.724  12.545  0.2167 -0.0934  1.0528
 4891SOL    HW226133   0.734   0.821  12.587 -2.1223 -0.2389  0.0806
 4892SOL     OW26134   3.362   2.727   7.648 -0.5698  0.2343  0.6674
 4892SOL    HW126135   3.321   2.808   7.617 -0.1840 -0.0228 -0.5180
 4892SOL    HW226136   3.329   2.722   7.737 -3.4260 -2.5864 -0.5702
 4893SOL     OW26137   2.810   3.889  15.015 -0.2314 -0.3848 -0.4748
 4893SOL    HW126138   2.757   3.868  15.092 -1.5580  1.1618 -0.9710
 4893SOL    HW226139   2.815   3.983  15.029 -0.3788 -0.3618 -0.5755
 4894SOL     OW26140   2.740   3.281  10.288  0.1561  0.1974 -0.4766
 4894SOL    HW126141   2.751   3.296  10.382  0.8775 -0.7321 -0.4129
 4894SOL    HW226142   2.781   3.362  10.257  1.5434 -1.7305 -3.7680
 4895SOL     OW26143   0.938   3.706   4.603 -0.5636  0.3491 -0.6224
 4895SOL    HW126144   1.010   3.748   4.649 -0.9007 -1.5400  1.6182
 4895SOL    HW226145   0.983   3.660   4.532 -0.7359  0.4121 -0.7727
 4896SOL     OW26146   4.131   0.118  11.294 -0.3460  0.0665  0.2538
 4896SOL    HW126147   4.162   0.068  11.218 -0.3416  1.2646 -0.5242
 4896SOL    HW226148   4.113   0.039  11.345 -0.7550 -0.2990 -0.4437
 4897SOL     OW26149   2.593   4.404  13.081  0.6211  0.0054  0.0787
 4897SOL    HW126150   2.537   4.345  13.030  0.5085 -0.3738  0.6369
 4897SOL    HW226151   2.616   4.454  13.003 -1.1964  1.7331  0.6721
 4898SOL     OW26152   3.277   1.225   1.255  0.7554 -0.0264 -0.0926
 4898SOL    HW126153   3.351   1.273   1.217 -0.1786  1.3322 -0.1905
 4898SOL    HW226154   3.296   1.138   1.218 -1.3508 -1.1114  1.4364
 4899SOL     OW26155   1.310   2.434   6.804  0.1626  0.0665  0.0204
 4899SOL    HW126156   1.285   2.356   6.853  0.4079  0.2387  0.4160
 4899SOL    HW226157   1.335   2.499   6.869  0.8003 -0.1063 -0.0509
 4900SOL     OW26158   4.254   1.736   5.242 -0.2862 -0.2510 -0.0039
 4900SOL    HW126159   4.312   1.758   5.169  0.7717 -0.2570  0.8360
 4900SOL    HW226160   4.286   1.790   5.314  0.8078 -0.9347  0.0257
 4901SOL     OW26161   0.324   4.671   2.778 -0.2735 -0.4076 -0.6209
 4901SOL    HW126162   0.241   4.641   2.812  0.6956  0.6407  2.6257
 4901SOL    HW226163   0.318   4.632   2.691 -1.2685  0.9724 -1.1634
 4902SOL     OW26164   3.753   2.889   4.759  0.0194  0.1137  0.9881
 4902SOL    HW126165   3.778   2.797   4.769  1.3426  0.2069 -1.4482
 4902SOL    HW226166   3.662   2.886   4.730  0.3336 -0.0502  0.0177
 4903SOL     OW26167   3.376   4.405   8.975 -0.1676 -0.7316  0.2344
 4903SOL    HW126168   3.376   4.457   9.056 -0.8439 -0.5462  0.1188
 4903SOL    HW226169   3.441   4.336   8.988  0.5307 -0.0551  0.3655
 4904SOL     OW26170   3.006   2.634   8.400  0.7281  0.1632  0.2115
 4904SOL    HW126171   3.005   2.668   8.490 -0.8721 -1.0573  0.6427
 4904SOL    HW226172   2.960   2.554   8.423 -1.2273  0.5992 -2.2341
 4905SOL     OW26173   1.006   0.572  14.833  0.3779  0.5923 -0.0404
 4905SOL    HW126174   0.957   0.514  14.891  1.5452  0.7018  1.0452
 4905SOL    HW226175   1.080   0.514  14.814 -1.0699 -0.9681 -0.8391
 4906SOL     OW26176   2.165   0.720   1.856 -0.0652  0.2955  0.8328
 4906SOL    HW126177   2.089   0.663   1.840 -0.0415  0.3901  0.3977
 4906SOL    HW226178   2.153   0.782   1.784 -0.7254  0.5426  1.1466
 4907SOL     OW26179   0.393   1.668   5.709  0.1202 -0.1545  0.1235
 4907SOL    HW126180   0.314   1.697   5.753 -0.2597 -0.1095 -0.5856
 4907SOL    HW226181   0.462   1.666   5.775 -0.4659 -5.0679  0.5767
 4908SOL     OW26182   3.178   2.357   7.516 -0.0839 -0.3603 -0.1351
 4908SOL    HW126183   3.216   2.413   7.449  1.3561 -1.7305 -0.4622
 4908SOL    HW226184   3.093   2.399   7.528  0.8625  2.1022 -2.1219
 4909SOL     OW26185   2.981   0.611   3.891  0.0443  0.2052 -0.2687
 4909SOL    HW126186   2.941   0.524   3.885  0.4484 -0.1008  1.4860
 4909SOL    HW226187   3.069   0.588   3.860 -0.6857  1.1515 -2.9841
 4910SOL     OW26188   2.291   2.740   1.188  0.2503 -0.6890  0.5473
 4910SOL    HW126189   2.204   2.778   1.194  0.0358 -1.2830  1.2360
 4910SOL    HW226190   2.345   2.804   1.234  0.1690  0.3207 -0.7478
 4911SOL     OW26191   1.188   3.836   4.003  0.0781 -0.9946 -0.0822
 4911SOL    HW126192   1.232   3.900   4.060  0.4659 -1.1066 -0.2608
 4911SOL    HW226193   1.206   3.874   3.917  2.1125  0.2938  0.9103
 4912SOL     OW26194   2.390   4.655  16.830  0.6721 -0.1826 -0.2220
 4912SOL    HW126195   2.362   4.699  16.750  1.3527  2.0041  0.7454
 4912SOL    HW226196   2.368   4.563  16.812  2.5550 -0.5014 -0.9277
 4913SOL     OW26197   3.800   3.274   2.580 -0.9440 -0.0651 -0.0837
 4913SOL    HW126198   3.733   3.207   2.568 -3.0402  2.0256  0.0903
 4913SOL    HW226199   3.879   3.223   2.599 -0.5540 -0.2777 -2.3018
 4914SOL     OW26200   4.653   1.052   3.888 -0.1471  0.2833 -0.3281
 4914SOL    HW126201   4.673   0.993   3.816  2.1198  3.4326 -2.2922
 4914SOL    HW226202   4.653   1.133   3.837 -1.8474  0.5516  0.0783
 4915SOL     OW26203   0.517   2.754   5.348  0.0787  0.0683 -0.1028
 4915SOL    HW126204   0.519   2.741   5.253 -0.3925  0.5188 -0.1716
 4915SOL    HW226205   0.600   2.800   5.360 -0.6120  0.9603  1.2648
 4916SOL     OW26206   3.091   0.974  15.088  0.3944  0.4225 -0.1678
 4916SOL    HW126207   3.077   1.067  15.074  0.7324  0.4899 -0.0559
 4916SOL    HW226208   3.180   0.977  15.123 -0.0709  0.6511  1.0166
 4917SOL     OW26209   2.984   1.052   2.892  0.6150 -0.4925  0.3497
 4917SOL    HW126210   2.992   1.047   2.797 -0.4581  0.1778  0.2282
 4917SOL    HW226211   2.984   0.959   2.914  0.7111 -0.6284 -0.2209
 4918SOL     OW26212   3.720   1.510   2.505  0.1713 -0.2929 -0.1144
 4918SOL    HW126213   3.786   1.539   2.442 -1.2488  1.5422 -0.7265
 4918SOL    HW226214   3.672   1.589   2.529  0.9579 -0.4074  1.8512
 4919SOL     OW26215   3.412   1.586   1.040  0.3079  0.0073 -0.2991
 4919SOL    HW126216   3.452   1.626   0.963  2.0400  0.7456  0.9951
 4919SOL    HW226217   3.443   1.651   1.103  0.4151  0.8824 -1.2672
 4920SOL     OW26218   4.332   4.056   8.256 -0.1753 -0.4109 -0.0996
 4920SOL    HW126219   4.418   4.034   8.291 -0.0824 -0.2032 -0.1989
 4920SOL    HW226220   4.338   4.149   8.237 -0.5251 -0.2264  0.7053
 4921SOL     OW26221   1.090   3.108   8.635 -0.4086  0.3711 -0.3529
 4921SOL    HW126222   1.123   3.066   8.556 -0.3576  0.6386 -0.4747
 4921SOL    HW226223   0.995   3.104   8.628 -0.4804  0.2676  0.6979
 4922SOL     OW26224   1.682   3.096   7.723  0.2102  0.4285 -0.6132
 4922SOL    HW126225   1.756   3.044   7.692 -0.5459 -3.0287  3.3782
 4922SOL    HW226226   1.611   3.048   7.681  1.4389 -0.3798 -1.7579
 4923SOL     OW26227   3.797   3.245   4.288  0.2111  0.3350 -0.0585
 4923SOL    HW126228   3.744   3.310   4.335  1.1863  1.3135 -0.2992
 4923SOL    HW226229   3.802   3.283   4.200 -2.1481  2.3687  0.6722
 4924SOL     OW26230   1.841   1.279  16.213 -1.0337  0.2324 -0.1219
 4924SOL    HW126231   1.823   1.190  16.241  1.0392 -0.3655 -0.7128
 4924SOL    HW226232   1.755   1.319  16.206 -0.6514  1.3246  1.4223
 4925SOL     OW26233   3.640   0.557   6.718 -0.5645 -0.1464 -0.1439
 4925SOL    HW126234   3.636   0.617   6.792 -0.3067 -0.6904  0.3121
 4925SOL    HW226235   3.570   0.585   6.659 -0.5677  0.0201 -0.0597
 4926SOL     OW26236   0.849   0.452   1.937 -0.0026 -0.4999  0.0085
 4926SOL    HW126237   0.775   0.393   1.923 -1.7544  1.7765 -0.2831
 4926SOL    HW226238   0.853   0.461   2.032  1.2322 -3.5040  0.2199
 4927SOL     OW26239   4.160   0.041   8.115 -0.5819 -1.0626  0.4316
 4927SOL    HW126240   4.175   0.020   8.023 -0.0387  0.3259  0.2120
 4927SOL    HW226241   4.065   0.037   8.104 -0.8299 -0.2337  2.3062
 4928SOL     OW26242   4.723   3.151   8.349  0.5687  0.2184 -0.3135
 4928SOL    HW126243   4.682   3.225   8.303  0.2738 -0.0593 -0.5062
 4928SOL    HW226244   4.658   3.128   8.416 -0.1975  1.1689 -0.7314
 4929SOL     OW26245   0.530   3.098  13.372  0.1414 -0.1407 -0.0923
 4929SOL    HW126246   0.434   3.099  13.374  0.1012  0.4462 -2.3312
 4929SOL    HW226247   0.543   3.046  13.293  2.2382 -2.9813  2.1390
 4930SOL     OW26248   3.932   1.205   5.779  0.2318 -0.1236  0.4109
 4930SOL    HW126249   3.900   1.232   5.865  1.9975 -0.8939  1.3324
 4930SOL    HW226250   3.892   1.119   5.766 -0.2486  0.2062 -0.2179
 4931SOL     OW26251   2.588   1.124   3.894  0.4069  0.3971 -0.2773
 4931SOL    HW126252   2.631   1.039   3.884 -2.4588 -1.0267 -0.6533
 4931SOL    HW226253   2.587   1.145   3.801 -1.2210  0.3484 -0.2698
 4932SOL     OW26254   1.219   1.064  10.670  0.0928  0.1980 -0.3724
 4932SOL    HW126255   1.124   1.054  10.663  0.0742 -0.4373  0.8671
 4932SOL    HW226256   1.232   1.087  10.762 -0.5458 -0.0539 -0.2219
 4933SOL     OW26257   2.874   3.545   3.882 -0.3719 -0.2214 -0.5186
 4933SOL    HW126258   2.925   3.531   3.961  3.3140 -1.3871 -3.1033
 4933SOL    HW226259   2.798   3.487   3.885  0.1413 -0.9163 -0.8213
 4934SOL     OW26260   0.963   3.695   6.110  0.6036 -0.4186  0.1356
 4934SOL    HW126261   0.970   3.633   6.183 -0.8865 -0.0248  0.6022
 4934SOL    HW226262   1.010   3.769   6.150  0.9673 -0.3634 -0.3975
 4935SOL     OW26263   0.628   1.693   9.820 -0.1678  0.2015  0.3953
 4935SOL    HW126264   0.647   1.786   9.803 -3.3147  0.4582 -1.5691
 4935SOL    HW226265   0.674   1.643   9.753 -0.5723  0.4910 -0.0957
 4936SOL     OW26266   3.862   3.910  15.977 -0.3011  0.1893  0.0159
 4936SOL    HW126267   3.908   3.923  16.060  1.3946  1.3557 -1.0996
 4936SOL    HW226268   3.803   3.986  15.983 -1.3536 -0.8460  2.5616
 4937SOL     OW26269   1.154   3.867  15.286 -0.0212 -0.2837 -0.2436
 4937SOL    HW126270   1.233   3.917  15.269  0.2967 -0.6320  0.1826
 4937SOL    HW226271   1.128   3.844  15.197 -0.9466  0.1621 -0.0851
 4938SOL     OW26272   2.530   0.381   6.188  0.2617 -0.6807  0.3787
 4938SOL    HW126273   2.616   0.383   6.229 -0.3662  0.0065  1.6780
 4938SOL    HW226274   2.484   0.319   6.245  1.0830 -0.8050  0.8986
 4939SOL     OW26275   0.991   1.166   9.168  0.0990 -0.3832 -0.0068
 4939SOL    HW126276   1.032   1.082   9.149  0.8574  0.6169 -2.7964
 4939SOL    HW226277   1.042   1.200   9.241 -1.0423  0.1548  0.5444
 4940SOL     OW26278   2.551   3.569  13.180  0.2943  0.3179 -0.2284
 4940SOL    HW126279   2.524   3.608  13.097  0.6861 -0.9375 -0.9501
 4940SOL    HW226280   2.518   3.631  13.246  0.9633 -0.2821  0.6770
 4941SOL     OW26281   1.536   1.590  11.924 -0.4099  0.4486  0.1996
 4941SOL    HW126282   1.539   1.604  12.019 -0.2341  1.0513  0.1057
 4941SOL    HW226283   1.612   1.532  11.933 -1.5333 -1.0385  0.2448
 4942SOL     OW26284   2.056   1.391   3.700  0.5058  0.0197 -0.7068
 4942SOL    HW126285   2.142   1.352   3.681  1.1218 -0.0052  2.1887
 4942SOL    HW226286   2.072   1.485   3.715 -0.3330  0.3229 -1.6963
 4943SOL     OW26287   3.689   1.486   5.683  0.8154  0.3377  0.4723
 4943SOL    HW126288   3.652   1.423   5.622  1.7781  0.1072  0.1322
 4943SOL    HW226289   3.605   1.489   5.730  0.7380  0.1215  0.3425
 4944SOL     OW26290   1.410   3.811   9.088  0.0265 -0.0225 -0.3634
 4944SOL    HW126291   1.383   3.738   9.033  0.8716  0.4292 -1.3691
 4944SOL    HW226292   1.340   3.867   9.055 -0.9395 -0.8761  0.2478
 4945SOL     OW26293   4.136   3.685  11.527  0.0711 -0.1972  0.1893
 4945SOL    HW126294   4.155   3.745  11.600 -1.4018  0.1426  0.2932
 4945SOL    HW226295   4.207   3.706  11.467 -0.3346  1.8802  0.4296
 4946SOL     OW26296   2.068   3.199  15.071 -0.7746 -0.4358  0.0400
 4946SOL    HW126297   2.070   3.242  14.985 -0.3755 -0.4405  0.0485
 4946SOL    HW226298   1.980   3.164  15.058 -0.4080 -1.2453 -0.2202
 4947SOL     OW26299   3.649   1.240   6.215 -0.3014 -0.8955  0.5164
 4947SOL    HW126300   3.662   1.169   6.153  1.0710 -1.2566  1.2188
 4947SOL    HW226301   3.589   1.195   6.274 -3.2263  1.1154 -0.9351
 4948SOL     OW26302   0.786   1.266   7.316 -0.0100 -0.7511  0.5414
 4948SOL    HW126303   0.721   1.321   7.358 -0.3237 -0.6288 -0.1045
 4948SOL    HW226304   0.731   1.259   7.238 -0.3934  1.9154  0.5670
 4949SOL     OW26305   1.064   4.310  14.395  0.1252 -0.0078 -0.9155
 4949SOL    HW126306   1.037   4.277  14.310 -0.4754 -0.8740 -0.3919
 4949SOL    HW226307   1.034   4.400  14.384 -2.0100 -0.9133 -2.3787
 4950SOL     OW26308   4.333   2.015   4.352  0.6913  0.3807 -0.1266
 4950SOL    HW126309   4.368   2.061   4.428 -1.0992  0.3960  0.6883
 4950SOL    HW226310   4.390   1.939   4.339  1.4161  1.0190 -0.7280
 4951SOL     OW26311   3.365   3.051   5.851 -0.2913  0.1220 -0.2082
 4951SOL    HW126312   3.288   3.059   5.794  0.3244  1.5289 -0.8727
 4951SOL    HW226313   3.335   3.080   5.937 -0.6286  2.6279 -1.1538
 4952SOL     OW26314   3.256   4.259  10.967  0.2765  0.4490 -0.4042
 4952SOL    HW126315   3.256   4.181  10.911  1.6543  2.0850 -2.6558
 4952SOL    HW226316   3.178   4.257  11.022  0.1264  0.6698 -0.6131
 4953SOL     OW26317   0.223   0.753   6.586  0.5583  0.1551 -0.1451
 4953SOL    HW126318   0.239   0.745   6.492  0.8394  1.3834 -0.2052
 4953SOL    HW226319   0.136   0.789   6.602  0.1205 -0.7113 -0.5501
 4954SOL     OW26320   2.203   2.723  14.783 -0.2623 -0.1687 -0.2148
 4954SOL    HW126321   2.267   2.682  14.724 -0.6200 -0.1289 -0.6222
 4954SOL    HW226322   2.124   2.728  14.730 -0.3683  0.4481  0.0039
 4955SOL     OW26323   1.123   3.778   2.874  0.7911  0.3733  0.0514
 4955SOL    HW126324   1.101   3.723   2.949 -1.4085  0.2707 -0.6629
 4955SOL    HW226325   1.074   3.748   2.797 -3.0092  0.1324  2.5631
 4956SOL     OW26326   2.677   0.622   6.301 -0.3183  0.0025  0.7116
 4956SOL    HW126327   2.709   0.539   6.264  1.0047  0.0207  1.7937
 4956SOL    HW226328   2.596   0.597   6.347 -0.2408  1.2609  1.5259
 4957SOL     OW26329   3.776   1.329   4.565 -0.0369  0.0901 -0.3493
 4957SOL    HW126330   3.785   1.344   4.471 -0.3053 -0.1103 -0.4069
 4957SOL    HW226331   3.863   1.290   4.578  0.3038  0.5965 -1.0918
 4958SOL     OW26332   3.935   3.970   6.780 -0.0035 -0.5875 -0.5383
 4958SOL    HW126333   3.935   3.922   6.697  0.3534  0.7055 -1.2929
 4958SOL    HW226334   3.886   3.910   6.836 -0.2432  1.5091  1.4640
 4959SOL     OW26335   4.229   0.333   9.125  0.0959 -0.7318 -0.4894
 4959SOL    HW126336   4.178   0.277   9.066 -0.0471  0.0402 -1.1002
 4959SOL    HW226337   4.305   0.358   9.072 -0.5124  2.1451  0.0235
 4960SOL     OW26338   3.863   1.424   1.064  0.3542 -0.1488 -0.0244
 4960SOL    HW126339   3.844   1.331   1.050  1.3711 -0.9001  3.5807
 4960SOL    HW226340   3.870   1.418   1.160  0.3543  0.6860  0.0299
 4961SOL     OW26341   0.755   3.471  16.643  0.5761  0.5970 -0.6994
 4961SOL    HW126342   0.799   3.532  16.584 -0.2807  0.9978 -0.9357
 4961SOL    HW226343   0.812   3.398  16.621  0.1245 -0.3137  1.1466
 4962SOL     OW26344   4.286   3.742   6.619  0.1281  0.4294  0.5329
 4962SOL    HW126345   4.239   3.737   6.703 -1.0741 -3.2689 -0.3455
 4962SOL    HW226346   4.271   3.653   6.588  3.9000  0.5890 -1.7896
 4963SOL     OW26347   2.317   1.832   1.242 -0.6804  0.6912 -0.0855
 4963SOL    HW126348   2.343   1.924   1.244 -1.6872  0.9612  0.2900
 4963SOL    HW226349   2.375   1.807   1.314  0.5813  0.3235 -1.2167
 4964SOL     OW26350   3.649   3.653   1.257 -0.1591  0.3971  0.6233
 4964SOL    HW126351   3.605   3.585   1.309 -2.1634  0.1488 -1.4050
 4964SOL    HW226352   3.713   3.691   1.317  0.9481 -0.4974  0.0131
 4965SOL     OW26353   3.511   0.131   3.021 -0.0345  0.6035 -0.1688
 4965SOL    HW126354   3.461   0.058   2.984  2.5864 -0.7275 -1.1331
 4965SOL    HW226355   3.443   0.188   3.057 -0.1019  0.5521 -0.2147
 4966SOL     OW26356   0.482   3.689  15.171 -0.4926  0.2691 -0.2001
 4966SOL    HW126357   0.577   3.685  15.157 -0.4452 -1.8061  0.7452
 4966SOL    HW226358   0.444   3.674  15.084 -0.8123 -1.9504  0.3236
 4967SOL     OW26359   0.366   0.522   7.002  0.0415 -0.5010 -0.2132
 4967SOL    HW126360   0.284   0.569   7.020  1.6497  1.8032  1.0507
 4967SOL    HW226361   0.388   0.505   7.094 -0.0908  1.3758  0.1660
 4968SOL     OW26362   2.027   0.171   6.501 -0.3472 -0.4495  0.2960
 4968SOL    HW126363   1.962   0.111   6.537  0.1479 -0.2529  1.5021
 4968SOL    HW226364   2.021   0.250   6.555 -2.5600 -1.4511  1.5255
 4969SOL     OW26365   3.524   1.663   7.707 -0.0819  0.2137  0.7710
 4969SOL    HW126366   3.571   1.638   7.787 -1.2020  1.1829  1.7161
 4969SOL    HW226367   3.447   1.710   7.738  0.7285  1.5786  0.7158
 4970SOL     OW26368   2.387   3.798   5.907  0.5170 -0.1662  0.9026
 4970SOL    HW126369   2.402   3.776   5.815  2.3415  0.9085  0.9446
 4970SOL    HW226370   2.457   3.863   5.915 -1.8559  2.4221  0.4310
 4971SOL     OW26371   2.860   4.255   6.684 -0.2273 -0.3411  0.0820
 4971SOL    HW126372   2.908   4.338   6.681 -1.1431  0.1845 -0.0225
 4971SOL    HW226373   2.916   4.197   6.633  1.6386  0.8060  0.8325
 4972SOL     OW26374   3.061   2.579   1.364 -0.6918 -0.4067 -0.4183
 4972SOL    HW126375   3.141   2.632   1.358 -2.3936  2.5875  3.2330
 4972SOL    HW226376   3.062   2.556   1.457 -0.6870  0.0407 -0.3065
 4973SOL     OW26377   2.950   2.456   7.284 -0.0052  0.5608 -0.2827
 4973SOL    HW126378   3.034   2.481   7.323 -0.3212 -0.3791  0.9871
 4973SOL    HW226379   2.898   2.537   7.288 -1.4089 -0.3958  0.5951
 4974SOL     OW26380   0.989   0.531   1.718 -0.1090  0.6556 -0.0897
 4974SOL    HW126381   0.957   0.470   1.784 -0.8388 -0.1417 -1.1765
 4974SOL    HW226382   0.969   0.485   1.637 -0.6567  0.2770  0.2602
 4975SOL     OW26383   0.365   0.297  14.441  0.1156 -0.3573 -0.1928
 4975SOL    HW126384   0.363   0.392  14.433  1.6198 -0.4538 -1.8137
 4975SOL    HW226385   0.281   0.273  14.404 -0.9250  1.9062  0.7256
 4976SOL     OW26386   1.963   2.617   8.979 -0.2277  0.0125 -0.7992
 4976SOL    HW126387   2.015   2.588   8.905  0.8026  0.8600 -0.4103
 4976SOL    HW226388   2.020   2.587   9.050 -0.3917 -1.8236 -1.4468
 4977SOL     OW26389   3.392   4.111   7.756  0.1219  0.2047  0.3179
 4977SOL    HW126390   3.436   4.031   7.730 -1.9014 -0.6547 -0.4666
 4977SOL    HW226391   3.373   4.151   7.671 -0.9347 -0.7365  0.1168
 4978SOL     OW26392   3.912   1.801   2.440  0.8641  0.0980 -0.0933
 4978SOL    HW126393   3.904   1.884   2.394 -2.8562  0.9231  2.0643
 4978SOL    HW226394   3.849   1.814   2.511  1.8357  0.6530  0.6565
 4979SOL     OW26395   2.890   1.669   7.366 -0.2098 -0.1155  0.2811
 4979SOL    HW126396   2.870   1.750   7.320  3.2206 -0.3682 -1.6229
 4979SOL    HW226397   2.805   1.629   7.386 -1.5243  2.4326 -0.1554
 4980SOL     OW26398   2.661   2.979  13.673  0.5733 -0.4181 -0.7753
 4980SOL    HW126399   2.617   2.928  13.741 -1.4177  0.2526 -1.5655
 4980SOL    HW226400   2.593   2.994  13.607 -0.6786  1.7828  1.0084
 4981SOL     OW26401   3.888   3.132   4.746 -0.1036  0.4035 -0.3272
 4981SOL    HW126402   3.830   3.057   4.758  1.2392 -0.8257 -1.4880
 4981SOL    HW226403   3.885   3.148   4.651  0.9089 -0.4272 -0.4990
 4982SOL     OW26404   2.037   1.337   6.681  0.0559 -0.5097  0.1701
 4982SOL    HW126405   1.960   1.282   6.665  1.1729 -2.3159  0.9755
 4982SOL    HW226406   2.009   1.392   6.754  1.9195  1.2093 -0.4167
 4983SOL     OW26407   4.622   0.239  14.196  0.1908  0.1827 -0.2465
 4983SOL    HW126408   4.574   0.212  14.118 -1.0533 -0.0820  0.6113
 4983SOL    HW226409   4.583   0.187  14.267 -0.3981 -0.6908 -1.2030
 4984SOL     OW26410   0.568   3.927   6.308 -0.0561 -0.2176  0.1173
 4984SOL    HW126411   0.587   3.857   6.370 -1.0200  0.5929  1.3266
 4984SOL    HW226412   0.630   3.993   6.339 -1.3900  2.4980 -3.0017
 4985SOL     OW26413   1.667   2.534  15.354 -0.1817 -0.1716  0.3273
 4985SOL    HW126414   1.749   2.544  15.402  0.7225  0.1179 -1.2590
 4985SOL    HW226415   1.607   2.509  15.424 -1.0581  0.6786 -0.1222
 4986SOL     OW26416   2.287   4.238   5.407  0.1814 -0.3360 -0.6869
 4986SOL    HW126417   2.370   4.284   5.423  0.8220 -1.7849  0.1680
 4986SOL    HW226418   2.320   4.148   5.408 -1.1588 -0.8020  0.8774
 4987SOL     OW26419   4.183   1.055   1.932 -0.0002 -0.2462 -0.2172
 4987SOL    HW126420   4.112   1.103   1.974  0.3968 -0.4534  0.6800
 4987SOL    HW226421   4.230   1.102   1.863 -0.7543 -1.2813 -1.4466
 4988SOL     OW26422   0.873   1.775   7.922  0.6269 -0.6421 -0.4931
 4988SOL    HW126423   0.907   1.790   8.010  0.2475  1.1546 -0.6459
 4988SOL    HW226424   0.867   1.867   7.898 -0.9339 -0.3400  1.0500
 4989SOL     OW26425   3.893   1.964   2.058  0.2779  0.0038 -0.0096
 4989SOL    HW126426   3.859   2.053   2.066  1.7372  0.5190  0.4082
 4989SOL    HW226427   3.876   1.944   1.966 -1.6378  2.2364 -0.1265
 4990SOL     OW26428   3.376   3.651   3.249 -0.1923  0.2411  0.6595
 4990SOL    HW126429   3.307   3.714   3.270 -2.0399 -0.7210 -2.5665
 4990SOL    HW226430   3.429   3.692   3.180 -0.0087 -1.4704 -0.2361
 4991SOL     OW26431   4.641   0.794   5.396 -0.2554 -0.4457 -0.4086
 4991SOL    HW126432   4.546   0.807   5.402  0.1230  1.8891  0.5036
 4991SOL    HW226433   4.662   0.753   5.480  0.6446 -1.9625 -1.3627
 4992SOL     OW26434   1.434   0.857  15.299 -0.4392  0.2832 -0.0311
 4992SOL    HW126435   1.515   0.891  15.337  0.8309 -0.4286 -2.1447
 4992SOL    HW226436   1.479   0.801  15.236 -0.8220  2.1454 -1.9400
 4993SOL     OW26437   2.255   1.564  10.809 -0.2843 -0.0779  0.4671
 4993SOL    HW126438   2.302   1.534  10.887 -3.3984 -1.7591  1.6680
 4993SOL    HW226439   2.322   1.545  10.743 -0.9474  1.9442 -0.7986
 4994SOL     OW26440   4.680   2.106  10.595 -0.1248 -0.6233 -0.4303
 4994SOL    HW126441   4.656   2.192  10.630  2.2784 -0.1471  0.0464
 4994SOL    HW226442   0.004   2.066  10.668  0.8793 -1.6889 -1.6574
 4995SOL     OW26443   0.186   4.339   8.657  0.3684  0.2197  0.0015
 4995SOL    HW126444   0.271   4.355   8.616 -1.7581  1.1376 -4.0578
 4995SOL    HW226445   0.184   4.425   8.698  0.6885  1.8506 -3.4217
 4996SOL     OW26446   3.554   1.759   8.879 -0.0270 -0.3687 -0.1679
 4996SOL    HW126447   3.487   1.698   8.909  1.7300 -1.9607  0.5524
 4996SOL    HW226448   3.529   1.782   8.790 -0.8431  1.2685  0.4786
 4997SOL     OW26449   2.870   0.449   6.811  0.2105  0.2212  0.5884
 4997SOL    HW126450   2.810   0.518   6.783  1.4160  0.2027 -2.0105
 4997SOL    HW226451   2.810   0.389   6.855 -1.8469  1.6871 -0.2565
 4998SOL     OW26452   1.598   0.016  11.675  0.6653 -0.3240 -0.1165
 4998SOL    HW126453   1.586   4.648  11.645  0.4572  0.1325 -1.4213
 4998SOL    HW226454   1.692   0.031  11.667  0.4659  0.8472 -0.1634
 4999SOL     OW26455   2.402   2.924  16.767  0.1494  0.4406 -0.2111
 4999SOL    HW126456   2.350   2.954  16.841  0.2392 -1.9404  0.8288
 4999SOL    HW226457   2.377   2.979  16.693  0.8201  0.8770 -0.1136
 5000SOL     OW26458   0.906   1.104   8.167  0.1474 -0.1096  0.0126
 5000SOL    HW126459   0.837   1.109   8.101  0.7636  2.4276 -0.4311
 5000SOL    HW226460   0.870   1.171   8.225 -1.0298 -0.2487 -0.5771
 5001SOL     OW26461   1.415   3.067   8.767 -0.0171  0.4763 -0.1572
 5001SOL    HW126462   1.391   3.147   8.722 -1.2896 -0.2405 -0.7698
 5001SOL    HW226463   1.439   3.094   8.856  0.0316  1.5288 -0.4895
 5002SOL     OW26464   0.487   1.392   1.270  0.2311 -0.0867  0.3212
 5002SOL    HW126465   0.525   1.404   1.358 -0.3380 -1.4857  0.7485
 5002SOL    HW226466   0.432   1.471   1.266 -1.3749 -1.2278 -0.1456
 5003SOL     OW26467   2.789   1.440  10.884  0.0096  0.2559  0.1473
 5003SOL    HW126468   2.819   1.488  10.961  1.7633 -1.4655  0.5572
 5003SOL    HW226469   2.747   1.360  10.915  0.0737  0.2090  0.1139
 5004SOL     OW26470   1.445   3.348   4.896  0.1957  0.6526  0.0151
 5004SOL    HW126471   1.443   3.296   4.977  2.1559  1.7876  0.7833
 5004SOL    HW226472   1.349   3.345   4.899  0.1664  0.7375 -0.9964
 5005SOL     OW26473   0.332   3.282  15.198 -0.2814 -0.2887 -0.1034
 5005SOL    HW126474   0.329   3.189  15.219 -1.5813 -0.0668  0.7154
 5005SOL    HW226475   0.296   3.282  15.110 -2.5746  1.2658  0.8313
 5006SOL     OW26476   2.499   2.440   6.095 -0.2844  0.9712  0.1323
 5006SOL    HW126477   2.432   2.507   6.111 -3.1517 -1.6792 -0.8857
 5006SOL    HW226478   2.444   2.366   6.070  2.0565 -0.4253 -0.9485
 5007SOL     OW26479   1.982   4.342   2.752  0.6102  0.0453  0.3306
 5007SOL    HW126480   2.074   4.359   2.732  0.7893 -1.8345 -0.4059
 5007SOL    HW226481   1.947   4.430   2.764  0.0608 -0.0531 -0.6022
 5008SOL     OW26482   4.561   3.516   3.116  0.2209  0.1196  0.4407
 5008SOL    HW126483   4.558   3.473   3.201 -1.8064  0.8013  0.7204
 5008SOL    HW226484   4.653   3.504   3.096 -0.2797  0.8556 -2.2895
 5009SOL     OW26485   4.521   3.142   4.448  0.2341 -0.3311  0.0907
 5009SOL    HW126486   4.542   3.122   4.357  0.0815 -0.1872  0.0253
 5009SOL    HW226487   4.545   3.234   4.453  0.5641 -0.3701 -0.9003
 5010SOL     OW26488   1.351   0.796   4.339  0.2017 -0.2463  0.0029
 5010SOL    HW126489   1.413   0.750   4.396  0.1772 -0.2972 -0.0109
 5010SOL    HW226490   1.405   0.854   4.284  1.0683 -0.2050  0.8925
 5011SOL     OW26491   3.288   2.062  11.318  0.7005 -0.0929  0.3824
 5011SOL    HW126492   3.330   2.129  11.263 -3.0371  0.4076 -1.8078
 5011SOL    HW226493   3.263   2.099  11.402 -2.1813 -2.3725  0.5031
 5012SOL     OW26494   1.881   4.156  17.515  0.2395  0.2311 -0.3843
 5012SOL    HW126495   1.890   4.179  17.422  0.6055 -0.6907 -0.5805
 5012SOL    HW226496   1.917   4.236  17.554 -0.3647  0.2911  0.0543
 5013SOL     OW26497   2.686   2.513  14.686  0.0182 -0.3942  0.1294
 5013SOL    HW126498   2.752   2.569  14.727 -0.6671 -0.8658  1.9176
 5013SOL    HW226499   2.733   2.429  14.684 -0.3539 -0.5873 -0.5498
 5014SOL     OW26500   0.201   0.215   5.457  0.0968  0.5649  0.3783
 5014SOL    HW126501   0.120   0.257   5.484 -1.5975 -2.8346  0.6254
 5014SOL    HW226502   0.266   0.266   5.506 -0.5107 -0.2150  1.9825
 5015SOL     OW26503   2.702   0.864   7.228  0.4015 -0.1148 -0.2380
 5015SOL    HW126504   2.724   0.810   7.304 -0.4018 -1.4214 -0.9470
 5015SOL    HW226505   2.739   0.814   7.155  1.2715 -1.8017  1.3511
 5016SOL     OW26506   1.548   3.797  14.598  0.1994 -0.1143 -0.6627
 5016SOL    HW126507   1.472   3.846  14.631 -0.2369 -2.1560  1.3555
 5016SOL    HW226508   1.624   3.856  14.595  0.8625 -0.8991  0.8339
 5017SOL     OW26509   3.606   2.201  10.228  0.4941 -0.3861 -0.4302
 5017SOL    HW126510   3.628   2.279  10.176  2.0225 -0.4634  0.0887
 5017SOL    HW226511   3.633   2.230  10.315  2.4785 -0.3024 -1.0669
 5018SOL     OW26512   2.152   1.523   5.619  0.2123  0.1092 -0.9828
 5018SOL    HW126513   2.241   1.559   5.614  1.0560 -1.8883 -0.4279
 5018SOL    HW226514   2.130   1.512   5.526  1.6543  0.3194 -1.3414
 5019SOL     OW26515   4.261   1.442   2.978 -0.3143  0.4988 -0.3172
 5019SOL    HW126516   4.310   1.439   3.060  0.9425  3.2279 -0.9791
 5019SOL    HW226517   4.269   1.535   2.958 -0.5870  0.3346 -1.1918
 5020SOL     OW26518   1.660   0.236  15.868  0.4128  0.2937  0.3852
 5020SOL    HW126519   1.654   0.179  15.791  0.6228  1.7805 -0.7384
 5020SOL    HW226520   1.632   0.177  15.939  0.5150 -0.1758  0.0354
 5021SOL     OW26521   0.793   4.453   9.429  0.3700 -0.2262 -0.2889
 5021SOL    HW126522   0.880   4.453   9.469 -0.1890  2.4913  0.9348
 5021SOL    HW226523   0.753   4.401   9.499 -0.4126  0.4570 -0.2316
 5022SOL     OW26524   4.445   0.261   6.506  0.1514  0.0788 -0.0369
 5022SOL    HW126525   4.378   0.285   6.441 -1.2190  0.1156  1.3958
 5022SOL    HW226526   4.415   0.171   6.521 -3.6215  1.1665 -1.0880
 5023SOL     OW26527   0.185   2.936   3.258 -0.3676  0.3146 -0.3109
 5023SOL    HW126528   0.185   3.009   3.197  0.8070  0.0993 -0.5794
 5023SOL    HW226529   0.119   2.876   3.223  1.6698 -1.4452 -1.2062
 5024SOL     OW26530   2.303   0.264   6.544 -0.6904 -0.4674 -0.4808
 5024SOL    HW126531   2.387   0.242   6.503 -0.6455 -0.3667 -0.4433
 5024SOL    HW226532   2.246   0.196   6.508  1.0011 -1.5616 -1.1652
 5025SOL     OW26533   2.392   1.494   8.343 -0.1502  0.1456 -0.0188
 5025SOL    HW126534   2.312   1.544   8.327  1.0992  1.6058 -1.7805
 5025SOL    HW226535   2.453   1.551   8.296 -0.9662  0.1208 -1.1026
 5026SOL     OW26536   3.216   2.128  10.227 -0.3586  0.1258 -0.0446
 5026SOL    HW126537   3.306   2.123  10.194  0.1724 -0.6433  1.5134
 5026SOL    HW226538   3.226   2.186  10.303 -1.0885 -1.1631  1.0319
 5027SOL     OW26539   2.921   1.832   4.110 -0.5023 -0.2134  0.4709
 5027SOL    HW126540   2.953   1.775   4.180 -1.0142 -0.1925  0.7205
 5027SOL    HW226541   2.827   1.824   4.125 -0.3988  0.7456  1.6183
 5028SOL     OW26542   2.635   4.183   4.902 -0.5658  0.3329 -0.3851
 5028SOL    HW126543   2.600   4.166   4.989 -1.2298 -1.6785 -1.0303
 5028SOL    HW226544   2.681   4.266   4.913 -1.8619  0.6859  2.2749
 5029SOL     OW26545   4.565   0.798  14.505 -0.1696 -0.4924 -0.9026
 5029SOL    HW126546   4.511   0.873  14.479 -0.6375 -0.8405 -0.9418
 5029SOL    HW226547   4.528   0.770  14.589 -0.4983  2.7767  0.0285
 5030SOL     OW26548   1.703   3.456   1.791 -0.1105  0.6754  0.4023
 5030SOL    HW126549   1.752   3.374   1.798 -0.5798  0.1491 -2.5450
 5030SOL    HW226550   1.637   3.446   1.722  2.9108 -1.2282 -2.1965
 5031SOL     OW26551   1.644   2.420   7.633 -0.1233  0.2362 -0.0459
 5031SOL    HW126552   1.712   2.486   7.625  1.2431 -1.2519 -0.6425
 5031SOL    HW226553   1.702   2.350   7.663 -0.1133  0.8993  1.4499
 5032SOL     OW26554   0.567   0.448   0.405  0.3856  0.3985 -0.2829
 5032SOL    HW126555   0.606   0.367   0.437  2.2102  0.9386 -1.1901
 5032SOL    HW226556   0.543   0.484   0.490  1.0367  2.1227 -0.8361
 5033SOL     OW26557   2.448   1.309  10.391  0.8782  1.0225  0.3051
 5033SOL    HW126558   2.439   1.213  10.386 -3.3869  1.5239 -1.3892
 5033SOL    HW226559   2.393   1.338  10.464 -0.4198 -1.7591  0.4319
 5034SOL     OW26560   1.731   0.207   7.953  0.1092  0.2608 -0.1611
 5034SOL    HW126561   1.674   0.136   7.983  0.3585  0.6195  1.1702
 5034SOL    HW226562   1.698   0.279   8.008  2.6723  0.2603  1.3927
 5035SOL     OW26563   1.426   3.995   9.646 -0.0713  0.7174 -0.0268
 5035SOL    HW126564   1.505   3.977   9.596 -1.2755 -1.4149 -1.1471
 5035SOL    HW226565   1.430   3.927   9.713 -1.2190 -0.1616 -0.8640
 5036SOL     OW26566   1.846   2.201  12.371  0.2593  0.2582 -0.3279
 5036SOL    HW126567   1.881   2.129  12.424 -0.3098  0.1612 -0.0816
 5036SOL    HW226568   1.876   2.165  12.288  1.5591 -1.1244  0.7389
 5037SOL     OW26569   3.915   1.802   3.328 -0.0007 -0.1494 -0.4556
 5037SOL    HW126570   3.831   1.820   3.287  1.1242  2.2355 -1.7025
 5037SOL    HW226571   3.968   1.833   3.254 -1.0747  0.1454 -1.1085
 5038SOL     OW26572   1.829   0.699  14.217  0.0177  0.7210  1.0215
 5038SOL    HW126573   1.802   0.678  14.306  0.2000  1.9665  1.3655
 5038SOL    HW226574   1.752   0.670  14.168 -0.9856  2.7818  1.4061
 5039SOL     OW26575   4.263   4.272  11.078 -0.1820  0.1919  0.4675
 5039SOL    HW126576   4.311   4.206  11.127  1.0022  0.6520 -0.0873
 5039SOL    HW226577   4.283   4.355  11.121  1.5320 -0.7718  1.5293
 5040SOL     OW26578   3.958   3.719   4.515  0.6832 -0.4421  0.6100
 5040SOL    HW126579   3.953   3.763   4.431 -0.4578  1.7347  1.8372
 5040SOL    HW226580   4.048   3.736   4.541  0.6599 -0.8810  0.9778
 5041SOL     OW26581   0.019   1.134   4.587 -0.0733  0.2950 -0.1857
 5041SOL    HW126582   4.678   1.064   4.604  3.3606 -2.8474 -0.1790
 5041SOL    HW226583   0.022   1.178   4.672  1.5080  1.5462 -0.8827
 5042SOL     OW26584   1.184   2.563  15.597 -0.2952  0.4013  0.4501
 5042SOL    HW126585   1.126   2.572  15.522  0.1752 -0.5684 -0.0326
 5042SOL    HW226586   1.156   2.628  15.662 -3.0901  0.0739 -0.4366
 5043SOL     OW26587   0.616   1.142   7.157  0.0381  0.7120 -0.7829
 5043SOL    HW126588   0.521   1.144   7.170  0.3842  1.7248  1.5364
 5043SOL    HW226589   0.637   1.058   7.116 -2.7924 -1.6157  2.5218
 5044SOL     OW26590   2.182   1.030  14.477 -0.6847  0.3142 -0.0174
 5044SOL    HW126591   2.106   1.019  14.420 -1.3246 -0.4456  0.9651
 5044SOL    HW226592   2.156   0.964  14.541  1.4029 -0.6581 -0.1525
 5045SOL     OW26593   3.118   1.646  10.136  0.3213  0.2520 -0.0403
 5045SOL    HW126594   3.110   1.650  10.232  2.3064  1.5839  0.0898
 5045SOL    HW226595   3.052   1.580  10.117 -0.7508  1.1801  0.4188
 5046SOL     OW26596   4.645   4.156   2.969  0.0663  0.0152  0.2382
 5046SOL    HW126597   4.608   4.207   3.042  2.1307  0.4484  0.9901
 5046SOL    HW226598   4.587   4.080   2.971 -1.1102  0.8923  0.3252
 5047SOL     OW26599   2.099   3.454  10.122  0.0582  0.1276 -0.0157
 5047SOL    HW126600   2.190   3.426  10.111  0.4299  0.9088  1.1088
 5047SOL    HW226601   2.057   3.369  10.139  1.9909 -0.8039  0.0206
 5048SOL     OW26602   3.217   0.839   4.707  0.5031  0.2441 -0.0514
 5048SOL    HW126603   3.296   0.846   4.761  0.6633 -4.2110  0.3159
 5048SOL    HW226604   3.248   0.900   4.640 -1.3271  1.0758 -0.1333
 5049SOL     OW26605   0.136   2.797   5.270  0.1749  0.2737  0.0178
 5049SOL    HW126606   0.162   2.705   5.256 -2.5014 -0.2228 -1.6759
 5049SOL    HW226607   0.213   2.852   5.256  1.3032 -1.5978 -1.1232
 5050SOL     OW26608   3.022   4.489  11.585 -0.0493  0.1232 -0.3607
 5050SOL    HW126609   3.015   4.466  11.678  1.3413 -0.2495 -0.3383
 5050SOL    HW226610   3.085   4.560  11.594 -2.5428  2.4524 -1.2717
 5051SOL     OW26611   2.405   2.962   5.459  0.2444  0.3131  0.4550
 5051SOL    HW126612   2.452   2.921   5.386  2.8911  0.7713  1.9064
 5051SOL    HW226613   2.349   3.020   5.406  0.9468 -0.9452 -1.6580
 5052SOL     OW26614   1.174   3.812  11.650  0.1498  0.0513  0.2060
 5052SOL    HW126615   1.144   3.892  11.607 -2.6062 -1.6055 -0.9157
 5052SOL    HW226616   1.184   3.838  11.742  0.1021 -0.4318  0.3496
 5053SOL     OW26617   3.306   3.657   8.821 -0.7801  0.1911  0.2314
 5053SOL    HW126618   3.302   3.688   8.730 -0.9140 -0.3091  0.0677
 5053SOL    HW226619   3.231   3.707   8.852 -0.8008 -0.3917  1.1196
 5054SOL     OW26620   2.111   3.595   8.584 -0.5069 -0.2005 -0.2546
 5054SOL    HW126621   2.145   3.581   8.672  2.1530  0.8986 -1.0926
 5054SOL    HW226622   2.072   3.682   8.588  0.7345  0.3799 -0.6806
 5055SOL     OW26623   1.636   2.379   2.460 -0.1359 -0.0454  0.3946
 5055SOL    HW126624   1.683   2.441   2.404  0.3625 -0.4126  0.4079
 5055SOL    HW226625   1.665   2.299   2.415 -0.0391 -0.0008  0.3786
 5056SOL     OW26626   3.060   0.227   4.228 -0.0507 -0.4831  0.5446
 5056SOL    HW126627   3.113   0.259   4.301 -0.2591  0.9453  0.0877
 5056SOL    HW226628   3.099   0.142   4.208 -1.4170 -0.8614 -0.4845
 5057SOL     OW26629   3.714   1.461  17.476 -0.0529 -0.3489  0.6515
 5057SOL    HW126630   3.621   1.471  17.456  0.2568  0.4265 -0.3914
 5057SOL    HW226631   3.750   1.488  17.392  1.2654  0.6715  1.5513
 5058SOL     OW26632   1.402   0.806   7.114 -0.3385 -0.6501 -0.4291
 5058SOL    HW126633   1.420   0.899   7.125  1.5371 -0.8676 -1.6102
 5058SOL    HW226634   1.314   0.800   7.076 -0.9716 -2.9309  1.3940
 5059SOL     OW26635   4.017   2.401   2.009  0.1037 -0.5128  0.0995
 5059SOL    HW126636   4.079   2.456   1.962  0.6912 -1.1988  0.0694
 5059SOL    HW226637   3.990   2.464   2.076  2.3414 -1.8098  2.2558
 5060SOL     OW26638   0.053   3.828   5.944  0.1131  0.2038  0.2091
 5060SOL    HW126639   0.085   3.754   5.893 -0.6069  1.6334 -2.3242
 5060SOL    HW226640   0.135   3.860   5.981  0.1682 -0.9195  1.0714
 5061SOL     OW26641   4.208   2.697   3.530  0.3000 -0.4548 -0.7423
 5061SOL    HW126642   4.237   2.678   3.440  1.0638 -2.6737 -0.0326
 5061SOL    HW226643   4.140   2.632   3.551 -2.1583  1.0958 -3.8357
 5062SOL     OW26644   0.421   3.633   6.598  0.5804 -0.0453 -0.0621
 5062SOL    HW126645   0.344   3.689   6.606  1.1716  0.7730 -0.0077
 5062SOL    HW226646   0.417   3.573   6.673 -4.2846  1.7346  1.0984
 5063SOL     OW26647   0.791   3.263   7.326 -0.2254  0.1785 -0.2675
 5063SOL    HW126648   0.705   3.296   7.302  0.5228  1.2333 -1.4713
 5063SOL    HW226649   0.798   3.183   7.273  0.3475 -0.7064  1.1477
 5064SOL     OW26650   0.933   4.498   4.644 -0.0554 -0.6737 -0.3612
 5064SOL    HW126651   0.993   4.527   4.713 -0.3862  4.7807 -2.4048
 5064SOL    HW226652   0.901   4.411   4.669 -2.1312  0.2665  0.2867
 5065SOL     OW26653   0.943   0.286   5.414  0.4291 -0.1084  0.2232
 5065SOL    HW126654   0.928   0.294   5.508 -1.9250  0.2524 -0.1757
 5065SOL    HW226655   0.952   0.192   5.396 -0.1702 -0.7445  3.2196
 5066SOL     OW26656   0.440   1.610   2.758 -0.8398 -0.1516 -0.0283
 5066SOL    HW126657   0.483   1.695   2.764 -2.4228  0.7521 -1.7763
 5066SOL    HW226658   0.420   1.591   2.850 -1.4025  0.5252 -0.0089
 5067SOL     OW26659   0.802   1.870  12.116 -0.1685 -0.3737 -0.1516
 5067SOL    HW126660   0.764   1.886  12.202 -1.4762 -0.9793 -0.5966
 5067SOL    HW226661   0.784   1.960  12.091 -0.2766 -0.4029 -0.1808
 5068SOL     OW26662   4.614   0.400   4.952  0.1329  0.0912  0.4445
 5068SOL    HW126663   4.698   0.445   4.960  0.2030  0.0602 -0.1255
 5068SOL    HW226664   4.619   0.367   4.863  1.0433 -0.8336  0.8393
 5069SOL     OW26665   2.143   1.243  12.275  0.1353 -0.0769  0.1079
 5069SOL    HW126666   2.184   1.328  12.290  0.9424 -0.9811  3.1987
 5069SOL    HW226667   2.211   1.186  12.311  1.4488  1.0125 -0.6860
 5070SOL     OW26668   0.878   0.813   3.370 -0.4559  0.1333  0.0808
 5070SOL    HW126669   0.881   0.909   3.373  0.2279  0.0592  1.6357
 5070SOL    HW226670   0.945   0.820   3.302 -1.1277  0.9221 -0.4950
 5071SOL     OW26671   0.485   1.675  13.623 -0.4340 -0.1939 -0.0697
 5071SOL    HW126672   0.569   1.682  13.668 -1.7210  0.7483  2.2120
 5071SOL    HW226673   0.436   1.621  13.685  0.4106 -0.8333  0.0372
 5072SOL     OW26674   3.809   2.753  10.699 -0.1842 -0.7153  0.2082
 5072SOL    HW126675   3.860   2.833  10.714 -1.0919 -0.3017  1.0992
 5072SOL    HW226676   3.753   2.747  10.776  0.2000  0.4222  0.5770
 5073SOL     OW26677   1.847   3.192   8.209  0.6252 -0.3369 -0.1936
 5073SOL    HW126678   1.769   3.248   8.205  2.4534  2.1121 -1.7034
 5073SOL    HW226679   1.882   3.207   8.121  0.1168 -2.9947 -0.8380
 5074SOL     OW26680   0.138   3.352   4.071  0.3880  0.3788  0.3850
 5074SOL    HW126681   0.051   3.376   4.037  0.5926 -0.0776 -0.4624
 5074SOL    HW226682   0.185   3.332   3.989  2.4670 -0.7375  1.8512
 5075SOL     OW26683   2.702   0.253   6.922  0.2678  0.2477 -0.1109
 5075SOL    HW126684   2.766   0.213   6.980  1.0699  1.3202 -0.2612
 5075SOL    HW226685   2.681   0.184   6.860  0.0786 -0.3859  0.6546
 5076SOL     OW26686   2.041   2.966   9.820 -0.0505 -0.1091  0.7785
 5076SOL    HW126687   1.987   2.890   9.800  0.7818 -0.2238 -1.0243
 5076SOL    HW226688   1.992   3.008   9.891 -2.3949 -1.7671  0.1320
 5077SOL     OW26689   1.234   1.512   5.296 -0.1146 -0.2083  0.3337
 5077SOL    HW126690   1.151   1.557   5.314  0.0580  0.2888 -0.1181
 5077SOL    HW226691   1.281   1.564   5.231 -1.1112 -0.4187 -0.5513
 5078SOL     OW26692   0.177   2.951   4.824 -0.2211  0.4558 -0.4324
 5078SOL    HW126693   0.125   2.950   4.904  0.5205 -2.3722  0.0202
 5078SOL    HW226694   0.256   2.898   4.836  0.0493  0.7300 -1.0021
 5079SOL     OW26695   3.174   1.483   1.388  0.0097 -0.5040 -0.0767
 5079SOL    HW126696   3.216   1.416   1.333 -1.2641 -2.2069  1.0299
 5079SOL    HW226697   3.088   1.482   1.346 -0.5587  0.0768  1.0778
 5080SOL     OW26698   2.478   2.404   1.409 -0.0446 -0.2748 -0.0211
 5080SOL    HW126699   2.389   2.400   1.374  0.5852  1.5510 -1.7804
 5080SOL    HW226700   2.520   2.456   1.341 -2.3743  1.3531 -0.2259
 5081SOL     OW26701   3.791   0.507   5.002 -0.0449  0.1466 -0.2991
 5081SOL    HW126702   3.735   0.572   4.960  2.4462  0.9466 -2.4146
 5081SOL    HW226703   3.725   0.470   5.061  1.5934 -1.3026  0.6248
 5082SOL     OW26704   1.752   1.972   7.221  0.3471  0.1284 -0.3402
 5082SOL    HW126705   1.834   1.959   7.174  0.9221 -0.4165  0.8296
 5082SOL    HW226706   1.717   1.884   7.237 -1.5326  0.6695 -1.4224
 5083SOL     OW26707   1.291   2.858   5.461  0.6332  0.1104 -0.4336
 5083SOL    HW126708   1.361   2.793   5.459 -0.4892 -1.0538 -1.3274
 5083SOL    HW226709   1.310   2.901   5.545 -2.9720  1.4359 -0.2852
 5084SOL     OW26710   1.595   1.222   7.560 -0.1942  0.0754 -0.0324
 5084SOL    HW126711   1.597   1.158   7.489 -0.3122 -1.5185  1.3888
 5084SOL    HW226712   1.516   1.266   7.526 -0.2240 -0.4933 -0.6962
 5085SOL     OW26713   1.955   3.418   4.685 -0.3540  0.3271 -0.5946
 5085SOL    HW126714   1.998   3.488   4.635  0.2880  0.2755 -0.1142
 5085SOL    HW226715   1.863   3.425   4.662 -0.7825  0.9569  1.2482
 5086SOL     OW26716   0.218   2.704   5.847  0.2675  0.9378 -0.1013
 5086SOL    HW126717   0.240   2.788   5.807 -1.3267  1.1926 -0.4421
 5086SOL    HW226718   0.302   2.686   5.891 -0.3166 -2.3509 -0.3350
 5087SOL     OW26719   2.782   2.393   1.976 -0.3965  0.0331 -0.4696
 5087SOL    HW126720   2.792   2.454   1.903  1.9675  0.7241  0.4354
 5087SOL    HW226721   2.687   2.389   1.984 -0.4366 -0.1889 -1.1128
 5088SOL     OW26722   4.628   1.338  17.414  0.3545 -0.1174 -0.2244
 5088SOL    HW126723   4.607   1.250  17.444  1.7579  0.3557  2.0822
 5088SOL    HW226724   0.001   1.331  17.420  0.4925  1.1616 -0.8778
 5089SOL     OW26725   1.226   3.995   2.606  0.8282 -0.3058 -0.4804
 5089SOL    HW126726   1.149   4.023   2.556  0.0136 -0.3243  0.7537
 5089SOL    HW226727   1.224   4.069   2.666 -0.3110 -1.2172  0.6191
 5090SOL     OW26728   3.868   0.227   1.617  0.3121 -0.0877  0.5988
 5090SOL    HW126729   3.885   0.314   1.581  2.1633 -0.9298 -0.5559
 5090SOL    HW226730   3.915   0.168   1.559  1.1826  0.6437  0.5432
 5091SOL     OW26731   1.910   1.675  16.665 -0.2293  0.2298  0.2747
 5091SOL    HW126732   1.875   1.632  16.743 -0.2669  0.3619  0.3309
 5091SOL    HW226733   1.938   1.605  16.606  0.7139  0.2788  0.6631
 5092SOL     OW26734   0.498   4.223   8.837 -0.0351  0.2740 -0.3690
 5092SOL    HW126735   0.466   4.313   8.828  0.8829  0.6683  0.2018
 5092SOL    HW226736   0.589   4.233   8.807  0.6531  0.9792  1.9550
 5093SOL     OW26737   0.437   4.337   8.552 -0.1085 -0.2181  0.1645
 5093SOL    HW126738   0.468   4.252   8.523 -1.5904 -1.4582  2.2428
 5093SOL    HW226739   0.498   4.399   8.513 -0.7225  0.6572  0.5778
 5094SOL     OW26740   0.180   1.083  11.604  0.4692 -0.0330  0.0902
 5094SOL    HW126741   0.246   1.075  11.673 -1.0574  0.1994  1.5674
 5094SOL    HW226742   0.188   1.177  11.591  2.6764 -0.1677  0.3453
 5095SOL     OW26743   0.909   2.299  10.682  0.0586  0.0570  0.0690
 5095SOL    HW126744   0.874   2.388  10.680 -0.4721 -0.2024 -1.7009
 5095SOL    HW226745   0.982   2.308  10.621  1.2163 -2.6465  1.0513
 5096SOL     OW26746   3.783   3.368  17.408  0.1971  0.0914 -0.4266
 5096SOL    HW126747   3.874   3.391  17.425  0.4269 -0.5506 -0.7675
 5096SOL    HW226748   3.798   3.273  17.405  0.5476  0.0922  1.2825
 5097SOL     OW26749   4.087   1.508   0.779  0.3450  0.2286  0.3501
 5097SOL    HW126750   4.113   1.519   0.688  1.4649  0.7570  0.7244
 5097SOL    HW226751   4.129   1.583   0.821  2.1567 -0.2522 -0.6069
 5098SOL     OW26752   2.932   0.377   4.059 -0.1242  0.2049  0.1964
 5098SOL    HW126753   2.998   0.331   4.110 -0.4004 -0.9902 -0.5344
 5098SOL    HW226754   2.864   0.394   4.124 -0.8708  3.2272 -1.3577
 5099SOL     OW26755   2.550   2.758   8.570  0.4425 -0.3334  0.1946
 5099SOL    HW126756   2.556   2.821   8.642 -0.7086  0.3106 -0.2865
 5099SOL    HW226757   2.528   2.681   8.623 -1.9410  1.3430  1.6681
 5100SOL     OW26758   3.026   2.590   6.588  0.5308  0.2072 -0.0768
 5100SOL    HW126759   3.038   2.684   6.575 -1.6062  0.6793  1.3868
 5100SOL    HW226760   3.036   2.555   6.500  0.2124 -2.9585  1.1274
 5101SOL     OW26761   1.563   3.785   2.481 -0.1411 -0.1702 -0.3086
 5101SOL    HW126762   1.611   3.857   2.441  0.6985  0.8815  2.5755
 5101SOL    HW226763   1.494   3.767   2.417 -0.0821 -1.7750  0.0767
 5102SOL     OW26764   2.744   0.673   0.341 -0.0583 -0.1889  0.2268
 5102SOL    HW126765   2.681   0.626   0.286  1.2457 -0.2795 -1.1879
 5102SOL    HW226766   2.815   0.687   0.278  0.4701  0.0355  0.8846
 5103SOL     OW26767   2.596   1.136   7.193 -0.3308  0.3883 -0.3431
 5103SOL    HW126768   2.625   1.045   7.205  0.0597  0.8545  2.0713
 5103SOL    HW226769   2.681   1.176   7.207 -0.0458 -1.6235  3.5029
 5104SOL     OW26770   0.280   4.503   9.653 -0.2445 -0.1345 -0.2726
 5104SOL    HW126771   0.189   4.507   9.623  0.3559 -1.1564 -2.2406
 5104SOL    HW226772   0.265   4.487   9.746  0.5756  0.9302  0.0324
 5105SOL     OW26773   4.380   3.456   2.423  0.4584  0.0311  0.1834
 5105SOL    HW126774   4.376   3.472   2.517  0.0769 -0.1341  0.1935
 5105SOL    HW226775   4.299   3.503   2.401  0.3889  0.1149  0.6250
 5106SOL     OW26776   1.735   0.529   3.436 -0.3623  0.3653 -0.1517
 5106SOL    HW126777   1.815   0.578   3.413  0.4112 -1.9009 -2.2458
 5106SOL    HW226778   1.771   0.459   3.490 -0.6862  1.4931  1.5512
 5107SOL     OW26779   4.085   3.520   8.310  0.3491  0.8977 -0.7822
 5107SOL    HW126780   4.077   3.573   8.389 -1.2584 -1.5759  0.7134
 5107SOL    HW226781   4.137   3.447   8.343 -0.7256 -0.0244 -1.1138
 5108SOL     OW26782   1.635   4.097   4.150  0.0415  0.4643 -0.0814
 5108SOL    HW126783   1.644   4.143   4.067  0.1515  0.0249 -0.3142
 5108SOL    HW226784   1.710   4.039   4.137 -0.5690 -0.4389  0.4169
 5109SOL     OW26785   1.429   1.802   8.966  0.0783 -0.1171  0.2097
 5109SOL    HW126786   1.500   1.806   9.030 -0.6044  0.9385  0.9134
 5109SOL    HW226787   1.361   1.840   9.022 -0.9019  0.8229 -1.6023
 5110SOL     OW26788   4.145   1.735  10.017 -0.2520 -0.0701  0.3006
 5110SOL    HW126789   4.151   1.690  10.101 -3.2462 -0.1350  0.4744
 5110SOL    HW226790   4.118   1.822  10.046  1.2488  0.6986 -0.6177
 5111SOL     OW26791   2.023   0.721   2.861 -0.0961  0.2715 -0.2416
 5111SOL    HW126792   2.069   0.790   2.814  0.7767 -0.9824 -1.2313
 5111SOL    HW226793   1.950   0.711   2.800 -0.4837  0.9515  0.1095
 5112SOL     OW26794   1.841   2.064   7.939  0.2925  0.1006  0.3111
 5112SOL    HW126795   1.754   2.034   7.911  0.5155 -0.9650  0.7672
 5112SOL    HW226796   1.883   1.982   7.964 -1.0889 -0.5121  0.5996
 5113SOL     OW26797   3.470   2.801   3.172 -0.2323  0.0065  0.2944
 5113SOL    HW126798   3.468   2.767   3.083 -1.9249  1.2286 -0.1268
 5113SOL    HW226799   3.548   2.759   3.208 -0.3971  1.3999  2.2863
 5114SOL     OW26800   0.930   0.496   9.811  0.0802  0.2096 -0.4514
 5114SOL    HW126801   0.959   0.447   9.888  1.7820 -0.1623 -1.3494
 5114SOL    HW226802   0.951   0.432   9.743 -0.7161 -0.4897 -0.0400
 5115SOL     OW26803   1.803   3.534  11.777  0.4802  0.0162  0.3223
 5115SOL    HW126804   1.806   3.529  11.872  1.7989  0.3191  0.2964
 5115SOL    HW226805   1.812   3.445  11.742  0.1061  0.6202 -1.2931
 5116SOL     OW26806   3.135   2.334   2.433  0.2897 -0.4677  0.1347
 5116SOL    HW126807   3.095   2.281   2.502 -1.8205  0.4498 -0.3779
 5116SOL    HW226808   3.092   2.293   2.358 -1.7796 -1.2292  1.7578
 5117SOL     OW26809   3.276   0.937   8.180  0.3803 -0.1588 -0.2008
 5117SOL    HW126810   3.207   0.978   8.231  2.6566  1.1997  1.7955
 5117SOL    HW226811   3.262   0.843   8.193 -2.8435  0.4194  0.4174
 5118SOL     OW26812   0.950   1.795   3.672 -0.3310  0.0287  0.5839
 5118SOL    HW126813   0.938   1.701   3.682 -2.1404  0.2538  0.3777
 5118SOL    HW226814   0.869   1.819   3.628  0.2989  0.6239 -0.2458
 5119SOL     OW26815   4.539   4.381   1.418 -0.4616 -0.4274  0.1727
 5119SOL    HW126816   4.443   4.377   1.410 -0.4677 -2.4118  1.2055
 5119SOL    HW226817   4.547   4.289   1.441 -0.5306 -0.3172  0.6407
 5120SOL     OW26818   2.622   0.850   3.916  0.3637 -0.4999 -0.2068
 5120SOL    HW126819   2.589   0.762   3.938 -1.4534 -0.0308 -1.0743
 5120SOL    HW226820   2.711   0.837   3.950  0.4304  0.3659 -0.0505
 5121SOL     OW26821   2.868   2.959   3.504 -0.3129  0.0447 -0.4881
 5121SOL    HW126822   2.871   2.920   3.592 -1.6816  2.4373  0.5941
 5121SOL    HW226823   2.795   2.907   3.470 -1.0248  1.2470 -0.7901
 5122SOL     OW26824   0.109   4.433   6.486 -0.4613 -0.2778  0.0860
 5122SOL    HW126825   0.162   4.500   6.444  0.6643 -1.0690  0.2165
 5122SOL    HW226826   0.166   4.357   6.473 -0.7449 -0.6944  1.2283
 5123SOL     OW26827   2.649   1.535   7.415  0.4925  0.3181  0.0711
 5123SOL    HW126828   2.585   1.467   7.396 -0.1056  1.8959 -3.4281
 5123SOL    HW226829   2.652   1.526   7.510 -0.3228 -0.4376  0.0149
 5124SOL     OW26830   0.781   1.471  13.039 -0.4540  0.6775 -0.4352
 5124SOL    HW126831   0.717   1.412  13.000  1.4166 -1.0810 -0.8673
 5124SOL    HW226832   0.818   1.417  13.109 -1.3804  1.3270  0.5511
 5125SOL     OW26833   1.877   0.660   8.625  0.2248  0.2834  0.2535
 5125SOL    HW126834   1.812   0.666   8.554  0.0529 -1.5123  0.2678
 5125SOL    HW226835   1.876   0.568   8.650 -2.6539  0.1643 -0.2943
 5126SOL     OW26836   2.405   0.313   7.354  0.4292 -0.7362 -0.3550
 5126SOL    HW126837   2.373   0.252   7.421 -0.7337  0.8869  0.5931
 5126SOL    HW226838   2.496   0.319   7.382  0.6779  0.6098 -1.4364
 5127SOL     OW26839   1.788   4.047   3.786  0.1428 -0.1168 -0.5612
 5127SOL    HW126840   1.791   3.954   3.763 -0.6021 -0.4751  0.7926
 5127SOL    HW226841   1.710   4.077   3.740  0.4800 -1.2597 -1.8999
 5128SOL     OW26842   1.099   0.558  16.071  0.2452  0.2097 -0.1519
 5128SOL    HW126843   1.027   0.495  16.070 -1.1311  1.7612  0.0828
 5128SOL    HW226844   1.124   0.552  15.979 -0.2591  0.5964 -0.3208
 5129SOL     OW26845   3.126   2.543   4.419  0.2934  0.0249 -0.0115
 5129SOL    HW126846   3.115   2.515   4.510  3.2046 -0.1645  0.2770
 5129SOL    HW226847   3.208   2.495   4.406 -0.5144 -1.3856  0.1151
 5130SOL     OW26848   3.887   4.236   3.277  0.0774  0.6679  0.7196
 5130SOL    HW126849   3.845   4.232   3.363  3.2348  0.4044  2.2544
 5130SOL    HW226850   3.911   4.327   3.262 -0.4638  0.9457  1.5238
 5131SOL     OW26851   3.604   1.950   2.725  0.2395  0.2196  0.3198
 5131SOL    HW126852   3.654   1.943   2.806  0.8495 -1.3368 -0.2092
 5131SOL    HW226853   3.535   2.016   2.737  1.6850  1.9582 -0.8923
 5132SOL     OW26854   0.586   3.526   6.837 -0.8478 -0.1746  0.6653
 5132SOL    HW126855   0.652   3.546   6.771  1.0148 -0.1584  2.5309
 5132SOL    HW226856   0.644   3.544   6.911 -0.5036 -1.0591  0.6184
 5133SOL     OW26857   3.459   1.478  17.395 -0.3038  0.4897  0.1514
 5133SOL    HW126858   3.380   1.449  17.440  0.4768 -1.4483  0.2830
 5133SOL    HW226859   3.453   1.417  17.321  1.5428  0.8918 -0.3246
 5134SOL     OW26860   4.063   1.657   8.561  0.3031 -0.3344  0.4995
 5134SOL    HW126861   4.038   1.589   8.499 -0.8804  0.0960  0.5090
 5134SOL    HW226862   4.062   1.622   8.650  2.5523 -0.7757  0.3382
 5135SOL     OW26863   4.400   0.618   2.176  0.0609  0.2863 -0.1684
 5135SOL    HW126864   4.316   0.638   2.218 -0.7292 -2.1501 -0.6076
 5135SOL    HW226865   4.397   0.525   2.195  0.4558  0.3472  0.2162
 5136SOL     OW26866   2.308   4.026  14.305 -0.1196 -0.0808 -0.3878
 5136SOL    HW126867   2.285   4.103  14.357  2.0271  0.2266  0.0832
 5136SOL    HW226868   2.297   4.057  14.215  1.9311  0.4736 -0.4431
 5137SOL     OW26869   0.511   0.034   7.697  0.6926 -0.3197  0.1003
 5137SOL    HW126870   0.524   4.662   7.711  0.8180 -0.6663 -2.3421
 5137SOL    HW226871   0.553   0.073   7.773  1.3854 -2.3530  0.7786
 5138SOL     OW26872   3.795   0.037   5.192 -0.2327  0.1137  0.4192
 5138SOL    HW126873   3.890   0.044   5.195 -0.1391 -0.7439 -0.4625
 5138SOL    HW226874   3.783   0.018   5.285 -0.1310 -0.0860  0.3899
 5139SOL     OW26875   3.698   1.885  12.605  0.2476 -0.2172 -0.5284
 5139SOL    HW126876   3.708   1.794  12.577 -1.1083 -0.5298 -0.0424
 5139SOL    HW226877   3.744   1.922  12.530 -0.0216  2.1121  0.4541
 5140SOL     OW26878   1.920   0.238   5.289  0.2369 -0.2204 -0.7363
 5140SOL    HW126879   1.989   0.256   5.352 -0.0870 -1.7892  0.0535
 5140SOL    HW226880   1.955   0.152   5.267  0.8011  0.3754 -2.1799
 5141SOL     OW26881   4.680   3.148  12.223 -0.2934  0.3888  0.0606
 5141SOL    HW126882   4.664   3.175  12.132  0.9901  1.0178  0.0167
 5141SOL    HW226883   0.005   3.067  12.205 -0.0766  0.8042 -1.2983
 5142SOL     OW26884   1.653   0.023   7.329  0.2575 -0.4504  0.2793
 5142SOL    HW126885   1.646   0.016   7.234  0.8352  0.2544  0.1922
 5142SOL    HW226886   1.695   4.660   7.339 -1.2951 -1.2314  0.1993
 5143SOL     OW26887   2.395   0.347   5.520  0.3012  1.1901 -0.0607
 5143SOL    HW126888   2.410   0.255   5.543  1.5217  0.9840 -1.6507
 5143SOL    HW226889   2.425   0.397   5.596  0.9720  0.2978  0.2605
 5144SOL     OW26890   2.465   0.574  12.042  0.2367 -0.0933  0.1893
 5144SOL    HW126891   2.471   0.482  12.068  0.9103  0.5326  2.3039
 5144SOL    HW226892   2.535   0.579  11.977  0.1132  1.8280  0.1919
 5145SOL     OW26893   1.403   3.050   8.377 -0.3907  0.3875 -0.1886
 5145SOL    HW126894   1.387   2.998   8.298  1.1390 -0.7437  0.2295
 5145SOL    HW226895   1.467   3.111   8.339  2.6571 -2.7177 -0.0961
 5146SOL     OW26896   3.696   0.842   7.953  0.2543 -0.6818 -0.1658
 5146SOL    HW126897   3.693   0.784   8.029  1.7896  0.3451  0.6988
 5146SOL    HW226898   3.739   0.784   7.891  1.5244  0.8104 -0.7036
 5147SOL     OW26899   3.852   0.037   0.335 -0.5338  0.6547  0.5219
 5147SOL    HW126900   3.773   0.018   0.386 -0.0593 -0.0771  0.9850
 5147SOL    HW226901   3.889   0.105   0.391  0.4713 -2.0172  3.0750
 5148SOL     OW26902   1.580   3.946   8.894  0.0692  0.5653 -0.2017
 5148SOL    HW126903   1.509   3.924   8.954  0.9187  0.6778  0.8584
 5148SOL    HW226904   1.571   3.875   8.831 -2.3465 -0.7237  1.6213
 5149SOL     OW26905   3.063   1.748   1.552  0.2003  0.2533 -0.4159
 5149SOL    HW126906   3.019   1.833   1.560  1.1222  0.9891 -3.3045
 5149SOL    HW226907   3.095   1.755   1.463 -0.0615  0.2720 -0.5081
 5150SOL     OW26908   1.102   3.621   3.110  0.1618  0.1154  0.6231
 5150SOL    HW126909   1.187   3.630   3.152 -0.2580  2.3501  0.9607
 5150SOL    HW226910   1.108   3.527   3.127 -1.7077 -0.4431 -1.9225
 5151SOL     OW26911   4.431   2.304  17.251 -0.2743 -0.5334  0.1692
 5151SOL    HW126912   4.488   2.279  17.178 -2.6096 -2.5338 -0.9443
 5151SOL    HW226913   4.426   2.227  17.308 -0.7575 -1.5070 -1.2102
 5152SOL     OW26914   2.099   2.683   3.285  0.0455 -0.5499  0.3803
 5152SOL    HW126915   2.050   2.601   3.283 -0.5792 -0.2324  2.4781
 5152SOL    HW226916   2.059   2.743   3.223  1.9170 -1.6116 -1.8459
 5153SOL     OW26917   3.852   3.583   7.880 -0.0939  0.0558  0.2449
 5153SOL    HW126918   3.835   3.676   7.891  1.5048  0.6446 -2.1214
 5153SOL    HW226919   3.908   3.557   7.953 -0.6448  1.5774  1.1978
 5154SOL     OW26920   2.241   2.228  14.924 -0.0011 -0.0746 -0.1924
 5154SOL    HW126921   2.193   2.269  14.852  1.1420  2.7102  0.6547
 5154SOL    HW226922   2.297   2.173  14.869  0.3248  1.3959 -1.3155
 5155SOL     OW26923   2.762   0.108   9.604  0.2073  0.0273  0.6818
 5155SOL    HW126924   2.805   0.039   9.656  1.1135  0.8193  0.9778
 5155SOL    HW226925   2.749   0.049   9.530 -0.3779  1.1833 -0.1289
 5156SOL     OW26926   3.175   1.955  12.844  0.2522 -0.4370 -0.1403
 5156SOL    HW126927   3.230   1.876  12.841 -0.4243 -0.8718 -1.2623
 5156SOL    HW226928   3.119   1.942  12.921 -1.2343 -0.6039 -1.2407
 5157SOL     OW26929   3.776   3.576  11.083  0.1891  0.3754  0.6615
 5157SOL    HW126930   3.707   3.599  11.146 -1.2012 -2.2159  0.0430
 5157SOL    HW226931   3.748   3.621  11.003 -1.1131  0.2686  1.0588
 5158SOL     OW26932   4.554   3.557  12.163  0.1349  0.0999 -0.3344
 5158SOL    HW126933   4.489   3.492  12.188 -0.6114  1.0491  0.1714
 5158SOL    HW226934   4.569   3.514  12.078  4.3616 -1.2098  1.0721
 5159SOL     OW26935   0.903   1.939   4.860  0.0004  0.1607  0.5145
 5159SOL    HW126936   0.859   1.915   4.941  0.4631  2.9335  1.5836
 5159SOL    HW226937   0.993   1.946   4.892  0.6923 -2.4790 -0.8491
 5160SOL     OW26938   4.176   1.724   0.600  0.5476 -0.3136  0.2873
 5160SOL    HW126939   4.091   1.752   0.633  1.0461  2.1791 -0.4936
 5160SOL    HW226940   4.234   1.766   0.663  1.4049  0.2702 -0.8850
 5161SOL     OW26941   4.381   2.192   0.090 -0.0047 -0.1920 -0.3765
 5161SOL    HW126942   4.301   2.242   0.109  0.9046  0.6120  1.3496
 5161SOL    HW226943   4.415   2.239   0.014  0.2961  1.6413  0.8962
 5162SOL     OW26944   0.807   3.192  13.241 -0.2578 -0.0815 -0.3658
 5162SOL    HW126945   0.803   3.105  13.203 -1.4300  0.0021 -0.4101
 5162SOL    HW226946   0.866   3.252  13.195 -0.7339 -0.9382 -2.0741
 5163SOL     OW26947   2.760   2.874   4.205  0.4356 -0.4635  0.5103
 5163SOL    HW126948   2.824   2.868   4.276 -0.2542 -0.8876  1.0952
 5163SOL    HW226949   2.806   2.816   4.145  1.0486  0.8612 -0.3139
 5164SOL     OW26950   3.136   0.965   5.622  0.0793 -0.1127 -0.1449
 5164SOL    HW126951   3.041   0.970   5.633  0.1187  3.3363 -1.5612
 5164SOL    HW226952   3.163   1.054   5.643 -1.3133  0.7657 -2.0948
 5165SOL     OW26953   2.260   0.237   3.674  0.5564 -0.3552  0.3719
 5165SOL    HW126954   2.250   0.330   3.654  0.9589 -0.0018  1.8083
 5165SOL    HW226955   2.191   0.223   3.739 -0.7224 -0.5880 -1.0353
 5166SOL     OW26956   2.849   1.522   8.260  0.2592 -0.3377 -0.1032
 5166SOL    HW126957   2.823   1.441   8.216  0.5149  0.2725 -1.3679
 5166SOL    HW226958   2.874   1.501   8.350  0.3487  1.3369  0.2561
 5167SOL     OW26959   4.460   4.078  16.277  0.1173  0.1812  0.0818
 5167SOL    HW126960   4.420   4.131  16.208 -0.5893 -0.2319  0.1778
 5167SOL    HW226961   4.397   4.007  16.285  2.2940 -1.7076  0.3683
 5168SOL     OW26962   4.130   0.638   8.291  0.3346  0.8823 -0.1563
 5168SOL    HW126963   4.087   0.632   8.206  0.0929 -2.6850  0.2215
 5168SOL    HW226964   4.159   0.729   8.285 -0.2520  1.1274  0.6676
 5169SOL     OW26965   0.576   3.081   5.348  0.5948  0.2710 -0.1468
 5169SOL    HW126966   0.570   3.136   5.426 -2.5087  1.8935 -1.5141
 5169SOL    HW226967   0.641   3.129   5.297  0.1983 -0.9783 -1.8442
 5170SOL     OW26968   2.605   3.241   4.636  0.4755 -0.7962 -0.3572
 5170SOL    HW126969   2.543   3.294   4.686 -0.1358  0.7084 -2.6995
 5170SOL    HW226970   2.649   3.302   4.577 -0.1416 -0.5927 -0.6072
 5171SOL     OW26971   0.014   1.090  15.597 -0.6018 -0.1610  0.2090
 5171SOL    HW126972   4.646   1.102  15.624 -1.0733 -1.2836 -0.8588
 5171SOL    HW226973   0.058   1.116  15.678  1.1882  0.7103 -1.0551
 5172SOL     OW26974   2.723   1.883   9.326 -0.4272  0.0130 -0.1266
 5172SOL    HW126975   2.799   1.845   9.370 -0.1462  1.1367  0.3445
 5172SOL    HW226976   2.715   1.962   9.379  0.8749 -0.0492  0.1658
 5173SOL     OW26977   1.806   4.446  13.158  0.1073 -0.2192 -0.1578
 5173SOL    HW126978   1.769   4.530  13.186  1.9334  1.1922 -2.0423
 5173SOL    HW226979   1.863   4.484  13.092  3.2844 -0.0887  2.6507
 5174SOL     OW26980   0.547   0.502   5.752 -0.5305  0.4115 -0.6976
 5174SOL    HW126981   0.546   0.446   5.830 -1.0634 -1.5254 -2.0918
 5174SOL    HW226982   0.569   0.588   5.788 -0.3401  0.4704 -0.9547
 5175SOL     OW26983   1.447   3.506   0.369 -0.3648  0.0534  0.1530
 5175SOL    HW126984   1.436   3.442   0.440 -2.1711  1.6478  1.3302
 5175SOL    HW226985   1.527   3.479   0.324 -1.0558  1.4645 -1.8967
 5176SOL     OW26986   0.580   0.294  13.889  0.5840  0.0477 -0.0308
 5176SOL    HW126987   0.494   0.296  13.932  0.9191  1.6456  0.5631
 5176SOL    HW226988   0.620   0.345  13.959 -1.6487  0.9414  0.6111
 5177SOL     OW26989   1.668   0.502  16.532 -0.5545  0.1399 -0.1940
 5177SOL    HW126990   1.659   0.578  16.475 -0.6577  0.8086  0.7116
 5177SOL    HW226991   1.757   0.514  16.564 -0.4736 -0.4700 -0.1869
 5178SOL     OW26992   4.121   3.445  14.837 -0.1374 -0.2166  0.4634
 5178SOL    HW126993   4.048   3.410  14.785 -0.8778 -1.2910  2.2178
 5178SOL    HW226994   4.177   3.483  14.770 -0.4166 -1.7214 -0.6375
 5179SOL     OW26995   1.830   2.172   3.831  0.2556  0.1609  0.4385
 5179SOL    HW126996   1.823   2.096   3.889 -0.7069  0.0174  0.1400
 5179SOL    HW226997   1.810   2.247   3.887 -1.1422 -1.5126  2.1938
 5180SOL     OW26998   1.458   4.413   5.123  0.5549 -0.0695  0.1508
 5180SOL    HW126999   1.443   4.498   5.164 -0.0001 -0.2663  0.3517
 5180SOL    HW227000   1.402   4.358   5.179  0.2358 -2.3310 -2.3686
 5181SOL     OW27001   4.558   4.076   1.420  0.3524  0.0567 -0.1412
 5181SOL    HW127002   4.557   4.007   1.486 -1.3952 -0.0990 -0.3431
 5181SOL    HW227003   4.624   4.045   1.358  2.0208  0.0273  1.6577
 5182SOL     OW27004   3.368   3.825   2.848  0.2139 -0.4588 -0.3621
 5182SOL    HW127005   3.328   3.908   2.873  1.0867  0.0920 -0.7899
 5182SOL    HW227006   3.429   3.802   2.919  0.4653 -0.5445 -0.6068
 5183SOL     OW27007   4.331   0.016   6.573  0.3728 -0.2991  0.0965
 5183SOL    HW127008   4.285   0.096   6.598  1.0678 -0.2321  1.2014
 5183SOL    HW227009   4.269   4.682   6.619  1.6933 -1.3006  0.6803
 5184SOL     OW27010   4.096   1.488   0.106  0.5776  0.0320  0.0474
 5184SOL    HW127011   4.187   1.513   0.090  0.9698 -2.1022 -0.9867
 5184SOL    HW227012   4.100   1.392   0.105 -0.0984 -0.0107  2.0044
 5185SOL     OW27013   1.065   2.091   9.094  0.7389 -0.1434  0.3587
 5185SOL    HW127014   1.061   2.183   9.122  0.9153 -0.1949  0.5528
 5185SOL    HW227015   1.035   2.100   9.003  0.1172  0.6317  0.6388
 5186SOL     OW27016   2.967   3.160   7.600 -0.0164 -0.0379 -0.0055
 5186SOL    HW127017   3.012   3.227   7.548 -0.2822 -0.5625 -0.9049
 5186SOL    HW227018   2.874   3.182   7.594 -0.5516 -1.7670  1.7974
 5187SOL     OW27019   1.964   3.517   9.651  0.2355 -1.0782  0.2556
 5187SOL    HW127020   1.932   3.603   9.624  1.1850 -0.6251  0.5742
 5187SOL    HW227021   1.882   3.472   9.673 -1.2540  1.5497  0.1306
 5188SOL     OW27022   1.368   3.206   6.696  0.0368  0.6425 -0.4080
 5188SOL    HW127023   1.376   3.125   6.644  3.2759 -0.0040  1.0644
 5188SOL    HW227024   1.275   3.224   6.689 -0.1710 -0.4062 -0.3282
 5189SOL     OW27025   3.208   2.740   5.458  0.0932  0.2190 -0.6014
 5189SOL    HW127026   3.201   2.769   5.368  2.0060  1.3420 -0.3883
 5189SOL    HW227027   3.289   2.689   5.458 -0.6323 -0.9652  0.2731
 5190SOL     OW27028   0.288   2.602  17.019 -0.1481 -0.3146 -0.1507
 5190SOL    HW127029   0.193   2.588  17.027 -0.1981 -0.2545 -0.6554
 5190SOL    HW227030   0.309   2.587  17.111  0.6540  2.1690  0.0873
 5191SOL     OW27031   4.564   2.228   3.573 -0.3222  0.2815  0.0763
 5191SOL    HW127032   4.627   2.294   3.543  0.6359 -0.8677 -0.4548
 5191SOL    HW227033   4.602   2.145   3.542 -0.2933  0.5829 -0.6994
 5192SOL     OW27034   1.865   0.650   2.684  0.6104  0.3931 -0.3794
 5192SOL    HW127035   1.855   0.700   2.603 -2.4884 -0.1052 -0.2991
 5192SOL    HW227036   1.867   0.561   2.650 -0.9388 -0.0588  0.6982
 5193SOL     OW27037   2.521   0.070   7.634  0.5337 -0.0837  0.6431
 5193SOL    HW127038   2.437   0.060   7.677  0.0994 -0.0937 -0.2053
 5193SOL    HW227039   2.519   4.712   7.582 -2.3359  0.3054  0.1752
 5194SOL     OW27040   3.104   0.859   0.546 -0.4465 -0.1378 -0.1034
 5194SOL    HW127041   3.186   0.907   0.535 -1.1113  0.9236 -0.3871
 5194SOL    HW227042   3.057   0.913   0.609  1.0106 -1.4768  2.1168
 5195SOL     OW27043   2.118   4.200   8.780  0.1876 -0.3029  0.0951
 5195SOL    HW127044   2.200   4.190   8.733 -0.0635 -2.4232  0.1247
 5195SOL    HW227045   2.062   4.230   8.708  0.9615  0.2298 -0.2888
 5196SOL     OW27046   2.780   1.191  14.694 -0.4150 -0.1506 -0.1112
 5196SOL    HW127047   2.736   1.276  14.693 -0.8995 -0.3956  0.5526
 5196SOL    HW227048   2.740   1.152  14.772 -2.8675 -0.2280 -1.4131
 5197SOL     OW27049   3.976   4.712   7.471 -0.0386  0.7715  0.7794
 5197SOL    HW127050   3.885   4.706   7.440  0.3086  1.5094 -0.3702
 5197SOL    HW227051   3.997   0.082   7.456 -1.7181  1.0938  0.3724
 5198SOL     OW27052   4.513   3.324   5.472 -0.4854  0.0715  0.5723
 5198SOL    HW127053   4.523   3.414   5.502  1.1704 -0.1790  0.7724
 5198SOL    HW227054   4.501   3.338   5.378  1.6397  0.6270  0.3912
 5199SOL     OW27055   1.216   1.946  13.454  0.5026  0.2201 -0.6678
 5199SOL    HW127056   1.129   1.907  13.448  1.0198 -1.1076  0.4767
 5199SOL    HW227057   1.203   2.010  13.384 -1.1838 -1.0054 -1.4735
 5200SOL     OW27058   2.451   2.751   3.211  0.2849 -0.5833 -0.1732
 5200SOL    HW127059   2.456   2.667   3.163  2.2757 -1.2829  1.2671
 5200SOL    HW227060   2.355   2.752   3.213  0.3374  2.7068  0.1186
 5201SOL     OW27061   4.388   0.694   7.965  0.6361  0.1026  0.2363
 5201SOL    HW127062   4.379   0.788   7.980  1.1159  0.3591 -1.0863
 5201SOL    HW227063   4.295   0.675   7.971  0.3121  1.2117 -1.2508
 5202SOL     OW27064   0.038   0.817   9.072  0.2690 -0.1267 -0.0328
 5202SOL    HW127065   4.697   0.801   9.003 -0.5050  1.6345  0.2727
 5202SOL    HW227066   4.713   0.890   9.112 -0.2498 -0.9060  0.7577
 5203SOL     OW27067   1.035   3.782  16.235 -0.2363  0.0830  0.7617
 5203SOL    HW127068   1.080   3.828  16.165  1.2425 -0.7868  1.1506
 5203SOL    HW227069   1.111   3.742  16.278  0.4879 -0.2463 -0.8356
 5204SOL     OW27070   1.582   4.701   6.826 -0.3180  0.4730 -0.1695
 5204SOL    HW127071   1.582   0.018   6.913 -1.8789  0.0684  0.0153
 5204SOL    HW227072   1.561   4.611   6.852  0.9333 -0.0316 -0.8618
 5205SOL     OW27073   3.225   2.019   5.695  0.0646 -0.3144 -0.2736
 5205SOL    HW127074   3.177   2.062   5.766  0.0543  0.6172 -0.8404
 5205SOL    HW227075   3.158   1.959   5.663  0.3821 -0.9318  0.2219
 5206SOL     OW27076   2.280   4.130  14.072  0.2041 -0.1225 -0.0569
 5206SOL    HW127077   2.374   4.112  14.071  0.1006 -0.6635 -0.0926
 5206SOL    HW227078   2.275   4.219  14.038 -0.8291 -1.2815 -2.8879
 5207SOL     OW27079   2.114   2.487   7.162  0.1593  0.0399 -0.3294
 5207SOL    HW127080   2.028   2.467   7.198 -0.3751  0.1648 -1.5362
 5207SOL    HW227081   2.162   2.422   7.213  0.2810  0.3680 -0.0270
 5208SOL     OW27082   0.829   4.346   7.749  0.0443 -0.1156  0.7837
 5208SOL    HW127083   0.767   4.410   7.783  0.5729 -0.5535  2.5307
 5208SOL    HW227084   0.797   4.313   7.664  2.1177  1.0441 -0.4430
 5209SOL     OW27085   0.193   3.041   6.823 -0.3253  0.5513  0.2281
 5209SOL    HW127086   0.237   2.991   6.755 -1.3569  0.9840 -0.7520
 5209SOL    HW227087   0.111   3.030   6.775  0.0474 -1.3926  0.0325
 5210SOL     OW27088   4.245   4.414   1.346 -0.0393  0.1444  1.0733
 5210SOL    HW127089   4.179   4.389   1.411 -2.2179 -1.0153 -1.5650
 5210SOL    HW227090   4.257   4.505   1.373  0.6722 -0.4154  2.6342
 5211SOL     OW27091   3.892   3.180   6.028  0.3002  0.3851  0.2605
 5211SOL    HW127092   3.977   3.222   6.038 -0.4584  1.0357  4.2263
 5211SOL    HW227093   3.930   3.093   6.034 -1.3337 -0.3859 -0.7310
 5212SOL     OW27094   4.291   3.820  17.379  0.3636 -0.4358 -0.0161
 5212SOL    HW127095   4.308   3.861  17.464  0.2888 -1.1191  0.3239
 5212SOL    HW227096   4.380   3.806  17.346  1.2819  2.6587  1.1120
 5213SOL     OW27097   4.166   0.615   7.781 -0.1474  0.6248 -0.3375
 5213SOL    HW127098   4.206   0.686   7.730 -1.5666  2.5825  1.2193
 5213SOL    HW227099   4.204   0.547   7.725 -0.0070  0.5184 -0.1085
 5214SOL     OW27100   1.837   0.773  12.073 -0.8108 -0.3795 -0.2466
 5214SOL    HW127101   1.764   0.820  12.034 -0.8183 -0.1341  0.0637
 5214SOL    HW227102   1.803   0.764  12.162  0.7559 -1.5974  0.2379
 5215SOL     OW27103   2.457   2.556   4.704  0.5273  0.0072 -0.5213
 5215SOL    HW127104   2.387   2.540   4.641  0.5345  1.7372 -0.9650
 5215SOL    HW227105   2.448   2.652   4.704  3.1837  0.2488 -0.9288
 5216SOL     OW27106   0.114   3.734  17.344 -0.2554  0.3731 -0.1530
 5216SOL    HW127107   0.205   3.759  17.363 -1.1531  2.2033  1.6483
 5216SOL    HW227108   0.079   3.822  17.336  0.1148  0.4765 -0.6041
 5217SOL     OW27109   0.441   1.426   5.991  0.2531  0.4788 -0.4900
 5217SOL    HW127110   0.494   1.476   6.053 -0.5514  1.0485 -0.2651
 5217SOL    HW227111   0.359   1.475   5.994 -0.7055 -1.0741 -1.7950
 5218SOL     OW27112   2.796   2.271   6.348  0.0436 -0.4079 -0.0391
 5218SOL    HW127113   2.759   2.183   6.353 -0.1235 -0.2533  1.5107
 5218SOL    HW227114   2.819   2.278   6.441 -1.0809 -1.1839  0.3029
 5219SOL     OW27115   3.813   3.354  16.015  0.2202 -0.2137  0.0202
 5219SOL    HW127116   3.749   3.364  16.086  0.4197  0.7108  0.0679
 5219SOL    HW227117   3.815   3.441  15.976  1.4465  0.8121  2.3435
 5220SOL     OW27118   0.857   1.633   2.730 -0.3509  0.2936  0.0703
 5220SOL    HW127119   0.890   1.687   2.659 -0.6478  0.3373 -0.0344
 5220SOL    HW227120   0.869   1.689   2.806  0.9332  2.2045 -1.5501
 5221SOL     OW27121   3.677   3.508   2.959 -0.1897  0.4638  0.1210
 5221SOL    HW127122   3.692   3.529   2.867 -0.7685  1.9443  0.3642
 5221SOL    HW227123   3.679   3.414   2.940  2.4549  0.5652 -0.0143
 5222SOL     OW27124   0.450   1.420   6.283  0.0652  0.0862 -0.2817
 5222SOL    HW127125   0.413   1.409   6.371  1.3268 -0.7588  0.1369
 5222SOL    HW227126   0.448   1.511   6.255  0.5153 -0.2832 -1.5551
 5223SOL     OW27127   3.022   2.806   7.225 -0.1019  0.3312 -0.2196
 5223SOL    HW127128   2.938   2.838   7.257 -0.1612  0.0521 -0.0949
 5223SOL    HW227129   3.026   2.850   7.140  0.4654 -1.4897 -1.1322
 5224SOL     OW27130   3.211   3.443   3.878 -0.3836 -0.0791  0.4093
 5224SOL    HW127131   3.241   3.502   3.947 -0.6715  0.1026  0.3766
 5224SOL    HW227132   3.290   3.391   3.863 -2.1534 -2.6646  0.0640
 5225SOL     OW27133   2.503   0.615   5.073  0.3901  0.0287  0.1049
 5225SOL    HW127134   2.463   0.567   5.145 -0.4060  2.3743  1.2531
 5225SOL    HW227135   2.541   0.684   5.128 -1.2622  1.4811 -0.5691
 5226SOL     OW27136   3.994   1.606  10.972  0.1434 -0.3535 -0.3125
 5226SOL    HW127137   3.964   1.666  11.040  0.4972  0.6626 -1.0505
 5226SOL    HW227138   4.081   1.626  10.938  0.0923  0.5837  0.1333
 5227SOL     OW27139   1.916   0.935   9.568 -0.3307 -0.3869  0.1172
 5227SOL    HW127140   1.888   0.845   9.585  1.2637 -0.5454  1.8605
 5227SOL    HW227141   1.836   0.985   9.551 -0.0547  0.4207  1.1676
 5228SOL     OW27142   4.323   4.377   2.252  0.1109  0.1293  0.2793
 5228SOL    HW127143   4.335   4.301   2.309  2.8358  0.2453 -0.1351
 5228SOL    HW227144   4.368   4.450   2.296  1.3062  1.0192 -2.3928
 5229SOL     OW27145   0.851   1.322   2.574 -0.2686 -0.5836  0.0618
 5229SOL    HW127146   0.897   1.405   2.587  0.8245 -1.0635 -0.7197
 5229SOL    HW227147   0.765   1.339   2.611  0.4180  2.1853  0.4074
 5230SOL     OW27148   0.496   4.290  13.575 -0.2766 -0.1540  0.3598
 5230SOL    HW127149   0.510   4.318  13.666  0.7620 -1.3019  0.5556
 5230SOL    HW227150   0.472   4.371  13.531  0.2585 -1.2876 -1.9884
 5231SOL     OW27151   0.751   4.159   4.439  0.1860  0.0535  0.1353
 5231SOL    HW127152   0.672   4.210   4.418  1.1735  1.4035 -0.2968
 5231SOL    HW227153   0.716   4.070   4.451 -0.1507  0.1343 -0.2362
 5232SOL     OW27154   0.232   2.617   4.531  0.0490 -0.1077  0.2438
 5232SOL    HW127155   0.253   2.531   4.494  1.9610  0.1551  0.7399
 5232SOL    HW227156   0.263   2.678   4.464 -0.2440 -0.3223 -0.0902
 5233SOL     OW27157   0.453   2.963  14.697 -0.2048 -0.2762  0.0522
 5233SOL    HW127158   0.507   2.980  14.619  0.1945  1.9229  0.8298
 5233SOL    HW227159   0.364   2.971  14.664  0.1281  1.4240 -0.4345
 5234SOL     OW27160   4.672   3.515   6.418 -0.1212  0.8035 -0.3086
 5234SOL    HW127161   4.682   3.554   6.332  2.6920 -0.3489 -0.5033
 5234SOL    HW227162   4.646   3.581   6.482  0.6548  1.2643 -0.4640
 5235SOL     OW27163   3.954   0.993   1.321  0.2770  0.0801 -0.3016
 5235SOL    HW127164   3.977   0.927   1.255 -1.8470 -0.4774 -0.4759
 5235SOL    HW227165   3.904   1.059   1.272  1.1615  1.9251  1.2847
 5236SOL     OW27166   2.756   3.009   4.714 -0.5842  0.4559  0.5377
 5236SOL    HW127167   2.693   2.952   4.669  1.4706 -1.8152  0.4908
 5236SOL    HW227168   2.701   3.084   4.734  1.0899  0.7757  3.9851
 5237SOL     OW27169   1.809   3.465   3.504 -0.1305 -0.1798  0.6426
 5237SOL    HW127170   1.894   3.450   3.544 -0.5295 -2.1510  0.7470
 5237SOL    HW227171   1.802   3.385   3.453 -0.8007  1.2050 -1.4170
 5238SOL     OW27172   0.135   4.048   1.794  0.3895 -0.0395 -0.2031
 5238SOL    HW127173   0.164   3.991   1.866 -2.7639 -1.1378  0.2038
 5238SOL    HW227174   0.042   4.028   1.795  0.3073  0.3406  0.1188
 5239SOL     OW27175   3.004   3.258   9.079  0.3935 -0.2255 -0.5273
 5239SOL    HW127176   3.032   3.208   9.156 -2.3401  0.1016  0.6972
 5239SOL    HW227177   2.996   3.350   9.105  2.2719 -0.3830  0.6052
 5240SOL     OW27178   3.385   1.310   2.764  0.1808 -0.2625  0.8016
 5240SOL    HW127179   3.303   1.348   2.735  0.2342  0.4102  1.5463
 5240SOL    HW227180   3.424   1.376   2.821 -0.8764  2.4291 -1.6125
 5241SOL     OW27181   3.047   1.379  10.381  0.2956 -0.7340 -0.0630
 5241SOL    HW127182   3.078   1.442  10.446 -2.6195  1.4245 -0.7811
 5241SOL    HW227183   3.108   1.306  10.397  1.4058 -0.2963 -2.4048
 5242SOL     OW27184   3.705   0.841   3.713  0.0459  0.4836 -0.1733
 5242SOL    HW127185   3.692   0.757   3.756 -2.7616  0.9863 -0.0474
 5242SOL    HW227186   3.776   0.880   3.763  1.8348 -0.2207 -2.1843
 5243SOL     OW27187   2.278   0.687   2.509 -0.0008  0.1864  0.0415
 5243SOL    HW127188   2.326   0.757   2.465 -1.2204  1.7127  1.1677
 5243SOL    HW227189   2.235   0.644   2.434 -1.1870  0.6911  0.4356
 5244SOL     OW27190   2.521   0.814  16.297 -0.0611 -0.2429 -0.3588
 5244SOL    HW127191   2.433   0.813  16.261 -0.5237 -0.9419  0.7933
 5244SOL    HW227192   2.564   0.826  16.212 -1.6009 -0.5126 -1.1715
 5245SOL     OW27193   4.180   1.718  11.423  0.5645  1.4348  0.7378
 5245SOL    HW127194   4.214   1.660  11.355  0.4726  0.9869  1.0753
 5245SOL    HW227195   4.184   1.668  11.505  1.0502  2.9574  1.6499
 5246SOL     OW27196   0.849   1.420  12.267  0.0322  0.3496 -0.1876
 5246SOL    HW127197   0.887   1.507  12.254  2.9619 -1.1234 -1.6954
 5246SOL    HW227198   0.890   1.379  12.190 -0.4098  0.1254 -0.3030
 5247SOL     OW27199   0.772   2.464   7.085 -0.4110 -0.1024 -0.3604
 5247SOL    HW127200   0.698   2.408   7.059 -1.9259  1.2513  1.0725
 5247SOL    HW227201   0.773   2.532   7.018 -3.2211 -0.3279 -0.6201
 5248SOL     OW27202   1.222   3.605   5.650 -0.0439  0.7017 -0.0677
 5248SOL    HW127203   1.315   3.626   5.647 -0.2536  1.7617  1.1134
 5248SOL    HW227204   1.199   3.658   5.726 -0.1529  0.4384  0.0833
 5249SOL     OW27205   2.986   1.642   4.310  0.1319  0.4222 -0.3072
 5249SOL    HW127206   2.926   1.635   4.384  1.3322  1.1290  0.7464
 5249SOL    HW227207   3.067   1.621   4.357 -0.0850 -1.0396 -0.6019
 5250SOL     OW27208   3.397   2.227  11.849  0.1984 -0.6427  0.9266
 5250SOL    HW127209   3.336   2.153  11.851 -0.4113 -0.1806 -1.1030
 5250SOL    HW227210   3.477   2.177  11.831 -1.1719 -2.8315  0.9038
 5251SOL     OW27211   4.089   4.041   3.407 -0.5913 -0.1925 -0.0011
 5251SOL    HW127212   4.007   4.087   3.421 -1.3167 -1.3076 -0.6333
 5251SOL    HW227213   4.083   4.004   3.495 -0.5712  0.3581  0.2332
 5252SOL     OW27214   1.697   2.774   5.217  0.2633 -0.3217 -0.0163
 5252SOL    HW127215   1.665   2.684   5.223  2.1709 -1.0577 -1.0614
 5252SOL    HW227216   1.636   2.801   5.148 -0.4989  0.0644  0.8032
 5253SOL     OW27217   0.738   0.965  16.329 -0.0809  0.4533 -0.4435
 5253SOL    HW127218   0.649   0.970  16.364 -0.0740  0.8345 -0.4839
 5253SOL    HW227219   0.777   1.042  16.370 -1.4363  1.1867 -0.5082
 5254SOL     OW27220   0.313   1.086   3.868 -0.2765 -0.5098  0.3524
 5254SOL    HW127221   0.326   1.105   3.775 -1.8508 -2.4483 -0.2463
 5254SOL    HW227222   0.290   0.994   3.859 -2.0356 -0.2600  2.5266
 5255SOL     OW27223   1.279   1.839  13.696  0.4783  0.3580  0.3856
 5255SOL    HW127224   1.210   1.836  13.763  0.7484  0.3829  0.6679
 5255SOL    HW227225   1.241   1.891  13.626 -0.7713  0.7740  1.3698
 5256SOL     OW27226   1.568   0.937   4.792 -0.3166  0.7380 -0.2039
 5256SOL    HW127227   1.497   1.000   4.780 -1.1904 -0.2245 -0.1550
 5256SOL    HW227228   1.544   0.915   4.882 -0.7971 -1.4951 -0.8776
 5257SOL     OW27229   3.845   0.279  10.278 -0.3337  0.0029 -0.0558
 5257SOL    HW127230   3.813   0.346  10.218 -2.9950  0.5643  1.9770
 5257SOL    HW227231   3.840   0.203  10.221 -0.3029 -0.1619  0.1586
 5258SOL     OW27232   3.713   1.653   6.150 -0.8046 -0.3461 -0.2363
 5258SOL    HW127233   3.757   1.573   6.179 -1.1739 -0.2346  0.6288
 5258SOL    HW227234   3.685   1.690   6.233  0.8629 -0.8712  0.5594
 5259SOL     OW27235   2.030   2.873   5.836 -0.0459  0.2045 -0.4634
 5259SOL    HW127236   2.089   2.865   5.762  0.7640  0.8786  0.1093
 5259SOL    HW227237   2.006   2.783   5.857 -0.3004  0.4434  0.2759
 5260SOL     OW27238   0.036   2.390  10.490  0.3969 -0.1642 -0.2923
 5260SOL    HW127239   0.033   2.294  10.494 -0.9481 -0.0869  0.5377
 5260SOL    HW227240   0.013   2.399  10.398 -0.2140  0.9492 -0.0276
 5261SOL     OW27241   2.826   2.786   2.873 -0.3043 -0.0716  0.5408
 5261SOL    HW127242   2.897   2.773   2.811 -1.7922  1.3688 -1.4665
 5261SOL    HW227243   2.851   2.733   2.949  0.9125 -1.2733 -0.7067
 5262SOL     OW27244   2.254   0.840   5.612  0.4807 -0.2684 -0.2415
 5262SOL    HW127245   2.333   0.841   5.665 -0.2201 -0.9881  0.7963
 5262SOL    HW227246   2.266   0.902   5.539  0.8943 -1.1287 -0.8954
 5263SOL     OW27247   4.554   1.877  15.464  0.7210  0.2053 -0.3989
 5263SOL    HW127248   4.522   1.966  15.474 -1.4177 -0.6964  0.8618
 5263SOL    HW227249   4.566   1.875  15.369  1.1622  0.2910 -0.3426
 5264SOL     OW27250   3.625   1.273   2.606  0.1622 -0.7387  0.7100
 5264SOL    HW127251   3.656   1.352   2.561 -0.0393 -0.9317  0.2358
 5264SOL    HW227252   3.540   1.293   2.645 -0.1148  2.1511 -1.3934
 5265SOL     OW27253   1.865   3.651   8.340 -0.0163 -0.5978 -0.2560
 5265SOL    HW127254   1.859   3.683   8.430  0.8597 -2.2751  0.3951
 5265SOL    HW227255   1.831   3.723   8.287  0.3274  0.4261  0.9346
 5266SOL     OW27256   2.627   4.668  10.984 -0.5208 -0.2093 -0.0034
 5266SOL    HW127257   2.645   4.611  10.909  3.6409  0.5341  0.4341
 5266SOL    HW227258   2.714   4.706  11.001 -0.8730  0.6162 -0.0417
 5267SOL     OW27259   1.823   0.660   3.067 -0.2567  0.1367 -0.0449
 5267SOL    HW127260   1.830   0.568   3.043  1.2724 -0.2362  1.7938
 5267SOL    HW227261   1.878   0.698   2.998 -0.6069  0.7866  0.0277
 5268SOL     OW27262   0.637   3.849   2.269  0.1812 -0.4504  0.3414
 5268SOL    HW127263   0.550   3.852   2.229 -0.0281  1.3040  0.9387
 5268SOL    HW227264   0.622   3.913   2.338  0.3102  0.3396 -0.3646
 5269SOL     OW27265   2.669   4.112   2.046  0.5572 -0.4466 -0.2646
 5269SOL    HW127266   2.582   4.081   2.024 -0.6431  1.2737  2.0221
 5269SOL    HW227267   2.680   4.194   1.997  3.0359 -1.0632 -0.7744
 5270SOL     OW27268   0.380   1.833  17.031 -0.5629 -0.1689 -0.6001
 5270SOL    HW127269   0.363   1.755  16.979 -1.2041  0.3175 -1.1178
 5270SOL    HW227270   0.314   1.822  17.099 -3.1268  2.4109 -2.6413
 5271SOL     OW27271   0.260   4.330   2.857 -0.3402  0.2240  0.5651
 5271SOL    HW127272   0.244   4.309   2.948 -2.1808  2.2878  0.7143
 5271SOL    HW227273   0.204   4.406   2.841 -0.1363 -0.0526 -1.4878
 5272SOL     OW27274   3.415   1.975   2.400  0.9133 -0.1865 -0.1762
 5272SOL    HW127275   3.476   2.048   2.401  0.2933  0.3120  1.1771
 5272SOL    HW227276   3.361   2.002   2.475  1.0070 -0.9641  0.1718
 5273SOL     OW27277   4.658   2.230  16.071 -0.5478  0.5044  0.1663
 5273SOL    HW127278   4.594   2.275  16.015 -0.7008 -0.6431 -0.5821
 5273SOL    HW227279   4.702   2.304  16.112  1.7097 -0.4848 -0.4772
 5274SOL     OW27280   0.389   4.197   7.420  0.1267  0.6810 -0.0386
 5274SOL    HW127281   0.311   4.251   7.406 -1.0651 -0.8500  0.7016
 5274SOL    HW227282   0.360   4.130   7.481 -0.9591  1.1104 -0.0918
 5275SOL     OW27283   2.805   3.762   7.775  0.3397 -0.1832  0.1516
 5275SOL    HW127284   2.751   3.684   7.786  0.7601 -0.9078 -2.8342
 5275SOL    HW227285   2.809   3.791   7.866  0.1576  0.4191 -0.0341
 5276SOL     OW27286   1.120   4.218   7.530  0.6487 -0.7303 -0.4063
 5276SOL    HW127287   1.064   4.153   7.572  1.3744 -0.0723  1.6227
 5276SOL    HW227288   1.123   4.175   7.445  0.5461  0.5491 -1.0514
 5277SOL     OW27289   2.880   3.445  12.424  0.0999  0.0945 -0.5594
 5277SOL    HW127290   2.958   3.432  12.479  0.9148  0.1549 -1.6964
 5277SOL    HW227291   2.807   3.475  12.478  0.5290 -2.0509  1.1962
 5278SOL     OW27292   3.814   1.404  10.950 -0.0164 -0.9757  0.2922
 5278SOL    HW127293   3.849   1.355  11.025 -0.5406 -0.2273  1.0248
 5278SOL    HW227294   3.871   1.481  10.956  3.3215 -3.4389  0.0312
 5279SOL     OW27295   4.109   4.213   5.710  0.8750 -0.2300  0.1274
 5279SOL    HW127296   4.063   4.224   5.627 -2.0829 -1.1581  1.6536
 5279SOL    HW227297   4.197   4.239   5.681  0.2706  1.0069 -0.6215
 5280SOL     OW27298   0.499   0.017  12.738 -0.3276 -0.5262  0.2755
 5280SOL    HW127299   0.472   0.041  12.827 -2.6257 -0.2225 -0.4887
 5280SOL    HW227300   0.423   0.043  12.686 -0.3664 -0.7741  0.2110
 5281SOL     OW27301   4.668   4.394   1.819 -0.2766 -0.5073  0.3426
 5281SOL    HW127302   4.665   4.475   1.768  2.4380  0.2833  1.4323
 5281SOL    HW227303   4.580   4.359   1.803 -0.6751 -0.0056  1.4560
 5282SOL     OW27304   0.340   2.713   6.171  0.5842 -0.0628  0.3129
 5282SOL    HW127305   0.360   2.625   6.203 -0.2437 -0.6755 -0.8805
 5282SOL    HW227306   0.413   2.726   6.109  1.2132  2.8350  1.6219
 5283SOL     OW27307   3.233   0.614   2.008 -0.3107 -0.3744  0.5326
 5283SOL    HW127308   3.323   0.587   2.025 -0.7019 -0.5279  2.3025
 5283SOL    HW227309   3.228   0.649   1.919  0.2285  0.1020  0.6848
 5284SOL     OW27310   0.390   1.040   3.374  0.1050  0.1794  0.0242
 5284SOL    HW127311   0.392   1.100   3.299  0.1450 -0.3400 -0.3950
 5284SOL    HW227312   0.473   0.995   3.359  1.5572  3.1210 -0.7271
 5285SOL     OW27313   0.778   0.632   1.516 -0.0043  0.1798 -0.3561
 5285SOL    HW127314   0.725   0.612   1.593  0.4313 -0.9227 -0.3370
 5285SOL    HW227315   0.825   0.548   1.514  1.0005  0.7088  1.5423
 5286SOL     OW27316   2.430   2.213   9.553 -0.5069  0.4803  0.0685
 5286SOL    HW127317   2.477   2.294   9.571  0.5799 -0.3299  0.8800
 5286SOL    HW227318   2.423   2.208   9.458  1.7016  1.1898 -0.1255
 5287SOL     OW27319   1.432   1.678   7.479  0.0968  0.0973  0.2731
 5287SOL    HW127320   1.359   1.726   7.439 -0.0923 -0.7589 -0.4068
 5287SOL    HW227321   1.408   1.678   7.571  1.5707 -1.1488  0.6617
 5288SOL     OW27322   0.111   2.200   1.356 -0.0249  0.0595  0.3144
 5288SOL    HW127323   0.201   2.224   1.377  0.8729 -3.6569  0.7589
 5288SOL    HW227324   0.122   2.147   1.277 -1.8668  0.8005 -0.4552
 5289SOL     OW27325   4.510   1.687   4.167  0.5520  0.3167 -0.3908
 5289SOL    HW127326   4.539   1.709   4.078  1.4204 -0.6917 -0.3496
 5289SOL    HW227327   4.505   1.591   4.171 -1.2711  0.4260  0.3360
 5290SOL     OW27328   2.054   4.449  17.268  1.1292  0.5953  0.1102
 5290SOL    HW127329   2.008   4.366  17.280 -1.5125  2.0252 -0.0549
 5290SOL    HW227330   2.124   4.435  17.332  1.2227 -1.4641 -0.4332
 5291SOL     OW27331   4.613   2.555   0.474 -0.2362  0.0754 -0.1083
 5291SOL    HW127332   4.620   2.476   0.419 -1.0290 -0.7912  1.0353
 5291SOL    HW227333   4.531   2.593   0.440 -1.0809 -1.0144  0.7153
 5292SOL     OW27334   4.214   2.028   0.269  0.4908  0.5443  0.3066
 5292SOL    HW127335   4.128   2.026   0.226  0.5086  0.5919  0.2683
 5292SOL    HW227336   4.265   2.064   0.197  0.3011  0.0244 -0.0879
 5293SOL     OW27337   0.264   1.003   2.259  0.1137  0.5011 -0.2989
 5293SOL    HW127338   0.221   0.970   2.338  0.9061  0.4710  0.1198
 5293SOL    HW227339   0.332   0.936   2.250 -1.9293 -1.7456  1.0587
 5294SOL     OW27340   0.903   0.745   1.277 -0.0975 -0.6061 -0.2330
 5294SOL    HW127341   0.997   0.753   1.287 -0.1883 -0.1720  0.2486
 5294SOL    HW227342   0.889   0.680   1.346  0.5224 -0.4840  0.0018
 5295SOL     OW27343   1.853   0.762   1.256 -0.5004  0.3025  0.4236
 5295SOL    HW127344   1.863   0.797   1.167  1.0257 -1.2303  0.0046
 5295SOL    HW227345   1.797   0.685   1.246 -0.8554  0.9222 -2.4577
 5296SOL     OW27346   2.157   2.945   0.943  0.2030  0.3137 -0.5655
 5296SOL    HW127347   2.123   2.902   1.022  1.4173  2.2334  0.9764
 5296SOL    HW227348   2.154   3.033   0.979  4.5700 -0.1120  0.7977
 5297SOL     OW27349   0.644   2.634   2.600  0.5377 -0.1895 -0.1786
 5297SOL    HW127350   0.694   2.552   2.591  1.8057  0.8979 -2.7746
 5297SOL    HW227351   0.710   2.700   2.582 -1.5264  1.1872 -2.5731
 5298SOL     OW27352   1.850   1.382   1.157  0.4162 -0.0280 -0.0011
 5298SOL    HW127353   1.929   1.422   1.191 -0.9069  2.0657  0.5624
 5298SOL    HW227354   1.822   1.341   1.239 -0.0118 -0.2240 -0.2409
 5299SOL     OW27355   2.549   3.633   7.065 -0.7882 -0.3711 -0.1338
 5299SOL    HW127356   2.501   3.716   7.061 -0.6637 -0.2594  0.7441
 5299SOL    HW227357   2.476   3.572   7.068  1.1463 -2.7379 -1.4493
 5300SOL     OW27358   3.972   2.200   3.657 -0.1769  0.1734 -0.1284
 5300SOL    HW127359   4.018   2.130   3.611 -0.9333 -0.8088  0.6266
 5300SOL    HW227360   4.044   2.264   3.648  1.1126 -1.6885 -2.9905
 5301SOL     OW27361   2.955   3.732   4.620  1.0330  0.3154 -0.0946
 5301SOL    HW127362   2.939   3.808   4.676 -0.9416 -0.8874  0.9988
 5301SOL    HW227363   3.015   3.683   4.676  0.3594 -1.2822 -0.7891
 5302SOL     OW27364   1.399   2.448   3.665  0.4182 -0.4238  0.1270
 5302SOL    HW127365   1.470   2.416   3.609 -0.2513  0.0387 -0.9925
 5302SOL    HW227366   1.341   2.372   3.666 -0.5024  0.2483 -1.6568
 5303SOL     OW27367   4.553   3.826  17.277 -0.1409 -0.1701  0.0969
 5303SOL    HW127368   4.617   3.892  17.249  0.2197 -0.2810  0.6704
 5303SOL    HW227369   4.518   3.802  17.191  1.9633  0.0876 -0.8395
 5304SOL     OW27370   3.270   3.840   7.437  0.3041 -0.0008  0.4295
 5304SOL    HW127371   3.201   3.785   7.400  1.0617 -0.1359 -0.7827
 5304SOL    HW227372   3.259   3.807   7.526  1.0421 -0.0931  0.4928
 5305SOL     OW27373   1.670   2.486   3.020 -0.2468 -0.0777  0.3856
 5305SOL    HW127374   1.746   2.542   3.009  2.4366 -4.0377 -1.2620
 5305SOL    HW227375   1.595   2.526   2.976  0.2591 -0.9537 -1.2635
 5306SOL     OW27376   4.283   0.738   6.994  0.2693  0.1362 -1.3193
 5306SOL    HW127377   4.315   0.648   6.987  2.2233  0.5112  3.0018
 5306SOL    HW227378   4.368   0.777   6.971 -0.8760  2.2922 -1.8869
 5307SOL     OW27379   3.057   0.430   2.096 -0.0081  0.1188 -0.1123
 5307SOL    HW127380   3.105   0.354   2.061 -1.2979 -0.5375 -0.4327
 5307SOL    HW227381   3.119   0.500   2.072 -1.5267  1.1045 -1.1707
 5308SOL     OW27382   0.660   2.240  14.369  0.5361  0.2132  0.1221
 5308SOL    HW127383   0.567   2.221  14.353  0.5810  1.8833 -2.0315
 5308SOL    HW227384   0.697   2.211  14.286  2.4677 -0.5465  1.2505
 5309SOL     OW27385   2.687   0.890  13.024  0.5391  0.1993  0.0777
 5309SOL    HW127386   2.600   0.899  13.062  0.2474  2.2550 -1.0504
 5309SOL    HW227387   2.656   0.879  12.934 -1.0513  0.7024  0.5764
 5310SOL     OW27388   4.420   2.518   7.253  0.5224 -0.3256  0.4001
 5310SOL    HW127389   4.357   2.587   7.231 -1.5466 -2.2557  0.1586
 5310SOL    HW227390   4.367   2.473   7.320 -1.4896  1.4694  0.0160
 5311SOL     OW27391   0.055   0.767   9.948  0.1023  0.3246  0.3493
 5311SOL    HW127392   0.041   0.745  10.040  2.3980 -0.5293  0.4799
 5311SOL    HW227393   0.091   0.686   9.911  1.2063  1.7713 -1.7179
 5312SOL     OW27394   2.115   3.390   6.585 -0.2685  0.0817 -0.0194
 5312SOL    HW127395   2.104   3.322   6.519 -0.5760 -0.6728  0.8126
 5312SOL    HW227396   2.185   3.349   6.636 -2.5113 -2.5294  0.9329
 5313SOL     OW27397   2.073   3.407   4.929  0.3953 -0.3432  0.6231
 5313SOL    HW127398   2.026   3.478   4.973 -1.3973 -0.7300 -0.6530
 5313SOL    HW227399   2.035   3.419   4.841 -1.4506  1.2207  1.6314
 5314SOL     OW27400   1.894   0.177   3.287  0.2759  0.0673  0.0138
 5314SOL    HW127401   1.801   0.197   3.299  0.4261  2.1336 -2.1924
 5314SOL    HW227402   1.888   0.083   3.270  0.9932 -0.0517  0.4239
 5315SOL     OW27403   0.731   0.928   6.060  0.3689 -0.2553 -0.4935
 5315SOL    HW127404   0.722   0.989   5.987  1.8481  0.1438 -0.3506
 5315SOL    HW227405   0.788   0.977   6.120 -0.1589 -0.8430  0.4901
 5316SOL     OW27406   0.478   2.319   1.522 -0.3466  0.2623  0.0631
 5316SOL    HW127407   0.517   2.311   1.609  1.1001  3.2736 -0.2988
 5316SOL    HW227408   0.414   2.388   1.540 -1.4698 -0.8448  0.3169
 5317SOL     OW27409   4.371   0.094  16.123 -0.3121  0.2974 -0.1835
 5317SOL    HW127410   4.462   0.114  16.101 -0.2180 -1.4340 -1.3650
 5317SOL    HW227411   4.399   0.034  16.193  1.2252 -1.1422 -2.0125
 5318SOL     OW27412   0.099   3.696   2.944  0.0816  0.0432  0.0323
 5318SOL    HW127413   0.153   3.766   2.980  1.0096  0.1444 -1.6070
 5318SOL    HW227414   0.124   3.624   3.002 -0.5219  0.8509  1.3028
 5319SOL     OW27415   3.233   2.039  11.953  0.6964  0.1407 -0.1884
 5319SOL    HW127416   3.198   1.968  11.898  0.3100  0.2120 -0.0360
 5319SOL    HW227417   3.193   2.025  12.039 -1.9137 -1.6495 -1.6748
 5320SOL     OW27418   1.624   3.916   1.837 -0.1360  0.1568  0.0679
 5320SOL    HW127419   1.584   3.848   1.783  0.4893 -0.8722  0.8784
 5320SOL    HW227420   1.677   3.857   1.892  1.0020  0.6180 -0.5376
 5321SOL     OW27421   1.910   3.819  14.728  1.0717  0.3194 -0.0828
 5321SOL    HW127422   1.833   3.821  14.785  0.7227 -3.0688 -0.4244
 5321SOL    HW227423   1.879   3.876  14.658 -0.7519  0.4109  0.8212
 5322SOL     OW27424   1.626   2.232   8.898 -0.1719 -0.0705  0.0182
 5322SOL    HW127425   1.631   2.145   8.859 -1.1461 -0.0064 -0.2599
 5322SOL    HW227426   1.539   2.228   8.938 -0.2423 -2.1801 -0.3499
 5323SOL     OW27427   0.547   3.167   2.272  0.6669  0.7243 -0.0464
 5323SOL    HW127428   0.504   3.227   2.211 -3.4035 -1.8663  0.2753
 5323SOL    HW227429   0.581   3.117   2.198  1.3432  1.0014  0.0827
 5324SOL     OW27430   0.336   2.025   2.875 -0.1923 -0.5251 -0.0532
 5324SOL    HW127431   0.351   2.116   2.899  0.7426 -0.9598  1.0179
 5324SOL    HW227432   0.410   2.002   2.818  2.3478  1.9537  2.2762
 5325SOL     OW27433   0.039   1.215   8.683 -0.3236 -0.4538 -0.0383
 5325SOL    HW127434   0.135   1.220   8.689 -0.4162  1.9308 -0.2281
 5325SOL    HW227435   0.010   1.198   8.772 -0.1196  1.2994  0.3767
 5326SOL     OW27436   1.247   2.034   5.683 -0.7612  0.0133 -0.3477
 5326SOL    HW127437   1.219   2.107   5.737  2.2166  1.3457 -0.5886
 5326SOL    HW227438   1.340   2.047   5.702 -0.4060 -0.6923 -1.5700
 5327SOL     OW27439   0.264   2.906   2.459  0.3192  0.0041  0.3791
 5327SOL    HW127440   0.350   2.878   2.428  1.9724  3.5892  1.6260
 5327SOL    HW227441   0.206   2.847   2.411 -1.4427  2.6423 -0.7227
 5328SOL     OW27442   2.380   2.727  10.874  0.4452 -0.3992 -0.3823
 5328SOL    HW127443   2.455   2.753  10.927 -0.4391  2.0022 -0.2970
 5328SOL    HW227444   2.419   2.724  10.787  1.6213  0.6031  0.1091
 5329SOL     OW27445   0.887   0.619   7.625  0.1194 -0.1698  0.0650
 5329SOL    HW127446   0.847   0.662   7.550  0.2713  0.6007  0.4306
 5329SOL    HW227447   0.810   0.609   7.681  0.1596  2.4801  0.5636
 5330SOL     OW27448   2.481   4.151   9.442  0.2636 -0.0479  0.3418
 5330SOL    HW127449   2.520   4.165   9.356 -1.5947  1.6353 -0.2278
 5330SOL    HW227450   2.442   4.238   9.452 -1.7326 -0.9735  0.6888
 5331SOL     OW27451   0.271   0.316  15.022 -0.2118  0.0943  0.5498
 5331SOL    HW127452   0.305   0.383  15.081 -0.1072  0.5529 -0.0242
 5331SOL    HW227453   0.301   0.360  14.942 -1.4748 -2.5669 -1.3668
 5332SOL     OW27454   1.562   3.329   7.517  0.0108  0.3625  0.1074
 5332SOL    HW127455   1.652   3.300   7.534  0.3058  1.6768  0.8149
 5332SOL    HW227456   1.511   3.263   7.564 -0.3878  2.1606  2.2501
 5333SOL     OW27457   0.644   2.168  11.490  0.2541  0.7465  0.4703
 5333SOL    HW127458   0.612   2.128  11.409 -0.6022  0.4130  0.9678
 5333SOL    HW227459   0.597   2.250  11.477 -0.4949  0.3536  0.6705
 5334SOL     OW27460   2.049   1.167   8.594  0.0385  0.3359  0.3761
 5334SOL    HW127461   2.133   1.122   8.597  0.3347  0.8362 -0.5387
 5334SOL    HW227462   1.986   1.101   8.564  1.3342 -0.8436  0.2852
 5335SOL     OW27463   4.567   1.001   1.827 -0.4496  0.8688  0.3041
 5335SOL    HW127464   4.576   1.029   1.736  1.0790 -0.5672 -0.0071
 5335SOL    HW227465   4.555   0.908   1.808  0.1374  1.7409 -4.3797
 5336SOL     OW27466   3.312   1.636   1.743  0.2069 -0.3692  0.1147
 5336SOL    HW127467   3.381   1.698   1.766 -0.2576  0.9287 -1.9303
 5336SOL    HW227468   3.299   1.661   1.651  3.2003 -0.6227 -0.3874
 5337SOL     OW27469   3.956   1.129   3.650  0.0376  0.5380 -0.1193
 5337SOL    HW127470   3.943   1.089   3.735 -1.3200 -0.3292 -0.7395
 5337SOL    HW227471   3.963   1.053   3.593 -1.7912 -0.2838  0.7546
 5338SOL     OW27472   2.764   3.014   8.076  0.2585  0.7189  0.6779
 5338SOL    HW127473   2.798   3.007   7.986  1.2496  2.9359  0.8803
 5338SOL    HW227474   2.715   3.095   8.061  0.8078  0.9108 -0.0998
 5339SOL     OW27475   3.998   0.299   0.013  0.0588 -0.4651  0.6944
 5339SOL    HW127476   3.926   0.246  17.671 -0.4156  0.1494  0.7386
 5339SOL    HW227477   4.026   0.249   0.089 -0.5988  1.0780  1.9448
 5340SOL     OW27478   4.411   4.696   7.422 -0.9507 -1.1703  0.3668
 5340SOL    HW127479   4.415   0.065   7.395  1.4884 -0.9560  1.5188
 5340SOL    HW227480   4.469   4.689   7.497  0.0394 -0.4449 -0.3334
 5341SOL     OW27481   2.799   2.171   9.115 -0.3141 -0.0863  0.0511
 5341SOL    HW127482   2.867   2.125   9.067 -0.1403  0.9005 -0.6469
 5341SOL    HW227483   2.854   2.240   9.154 -4.1690  2.2853  1.3774
 5342SOL     OW27484   0.740   3.914  15.726 -0.0322 -0.6989  0.7221
 5342SOL    HW127485   0.728   3.975  15.653 -2.2669  0.7515  2.3100
 5342SOL    HW227486   0.762   3.838  15.673 -0.7953  0.4465 -1.2407
 5343SOL     OW27487   3.292   0.794   5.769 -0.1819 -0.1449  0.6027
 5343SOL    HW127488   3.258   0.873   5.726  0.9891 -0.5272 -1.0480
 5343SOL    HW227489   3.228   0.791   5.840 -1.8440 -0.2651 -0.8937
 5344SOL     OW27490   3.070   4.276   7.624  0.0477 -0.8176 -0.2458
 5344SOL    HW127491   3.074   4.180   7.618  0.3375 -0.7946 -0.3874
 5344SOL    HW227492   3.045   4.302   7.536 -2.6619 -0.3895  0.6563
 5345SOL     OW27493   4.597   4.438   7.389 -0.5887 -0.2346  0.1253
 5345SOL    HW127494   4.577   4.346   7.405 -1.4451 -0.0988 -0.1658
 5345SOL    HW227495   4.508   4.473   7.392 -0.6551 -0.5693  2.0346
 5346SOL     OW27496   0.863   1.965   6.231  0.4940  0.1260 -0.2603
 5346SOL    HW127497   0.925   1.933   6.166  1.6433 -0.5268  1.1671
 5346SOL    HW227498   0.903   2.043   6.270  0.8750  0.7417 -1.8765
 5347SOL     OW27499   0.241   0.807   3.895 -0.3464  0.2369 -0.8497
 5347SOL    HW127500   0.310   0.780   3.956 -1.9392  1.4647  1.4673
 5347SOL    HW227501   0.156   0.788   3.933 -0.1853 -0.1568 -0.6757
 5348SOL     OW27502   3.084   1.557   7.785 -0.0849 -0.2572  0.6772
 5348SOL    HW127503   2.999   1.590   7.815 -0.6450 -0.7989 -0.3350
 5348SOL    HW227504   3.064   1.562   7.692 -0.4459 -1.0981  0.7112
 5349SOL     OW27505   0.896   2.635   5.409 -0.3656 -0.2573 -0.1430
 5349SOL    HW127506   0.915   2.601   5.322 -0.0328 -1.4712  0.4052
 5349SOL    HW227507   0.861   2.720   5.381  1.9652  0.1570 -1.7867
 5350SOL     OW27508   1.814   2.009   2.551  0.1584 -0.3642 -0.0140
 5350SOL    HW127509   1.904   1.981   2.562  1.1196  2.9986  0.8061
 5350SOL    HW227510   1.780   1.991   2.639  0.6789  0.3145  0.3282
 5351SOL     OW27511   0.546   3.049   6.275  0.6480  0.1245 -0.4862
 5351SOL    HW127512   0.591   3.029   6.357 -0.0062 -0.1276 -0.1909
 5351SOL    HW227513   0.567   3.143   6.273 -1.4619  0.6270  0.7607
 5352SOL     OW27514   2.406   0.860   9.032  0.7135 -0.4413  0.0014
 5352SOL    HW127515   2.323   0.886   9.072  1.0147 -1.0080  0.9792
 5352SOL    HW227516   2.378   0.828   8.946 -0.4776  0.7719 -0.0687
 5353SOL     OW27517   2.939   4.404  11.866  0.0610  0.1861 -0.0051
 5353SOL    HW127518   2.894   4.445  11.940  3.4752  2.2904  0.9116
 5353SOL    HW227519   3.025   4.385  11.905 -0.2219  2.1773  1.5834
 5354SOL     OW27520   2.853   0.594   4.422  0.5678  0.1403  0.1889
 5354SOL    HW127521   2.815   0.682   4.420 -2.4384 -1.1311  1.5352
 5354SOL    HW227522   2.875   0.584   4.514  0.2895 -2.4335 -0.0173
 5355SOL     OW27523   0.674   3.365  12.500 -0.1405 -0.3281  0.2851
 5355SOL    HW127524   0.727   3.412  12.564  0.8065  1.8471 -2.0666
 5355SOL    HW227525   0.626   3.442  12.470  3.8549  1.5063 -1.4350
 5356SOL     OW27526   2.855   2.996   7.812  0.7641 -0.7850 -0.2855
 5356SOL    HW127527   2.782   3.053   7.788 -0.0298 -1.2780  0.9953
 5356SOL    HW227528   2.906   3.015   7.733 -0.6650 -0.0160 -1.0193
 5357SOL     OW27529   1.159   4.059   9.927  0.0882 -0.3253 -0.0589
 5357SOL    HW127530   1.253   4.062   9.910  0.3114 -1.8412  0.8907
 5357SOL    HW227531   1.169   3.989   9.991  1.9395  0.7361  0.8147
 5358SOL     OW27532   3.534   3.529   3.985 -0.5761  0.0403  0.2578
 5358SOL    HW127533   3.558   3.501   4.073  1.0940  0.1039 -0.1806
 5358SOL    HW227534   3.523   3.446   3.939 -0.1720  0.1631 -0.0604
 5359SOL     OW27535   1.889   1.084   6.934  0.2678  0.0804  0.2534
 5359SOL    HW127536   1.862   1.007   6.984  0.3856 -0.2967 -0.2656
 5359SOL    HW227537   1.935   1.128   7.006  0.4050 -0.4872  0.5149
 5360SOL     OW27538   2.081   2.832   4.665 -0.2448 -0.6916 -0.2539
 5360SOL    HW127539   1.998   2.792   4.637 -1.5766  0.9803  1.3125
 5360SOL    HW227540   2.127   2.846   4.582 -1.8678  0.0265 -1.0417
 5361SOL     OW27541   1.099   0.685  10.027 -0.9442  0.4508  0.2033
 5361SOL    HW127542   1.143   0.603  10.004 -1.4820  0.4856 -0.9198
 5361SOL    HW227543   1.136   0.697  10.115 -1.2581 -0.3607  0.4497
 5362SOL     OW27544   3.763   0.752   2.925 -0.2057 -0.7639 -0.4311
 5362SOL    HW127545   3.833   0.789   2.872  0.4041 -1.9152 -0.4461
 5362SOL    HW227546   3.747   0.822   2.989  1.5902 -0.1562 -0.6504
 5363SOL     OW27547   0.090   3.865   8.932  0.4037 -0.4011 -0.4694
 5363SOL    HW127548   0.119   3.938   8.879 -0.4278  1.0998  1.1466
 5363SOL    HW227549   0.003   3.844   8.898 -0.9054 -0.9659  3.1531
 5364SOL     OW27550   3.633   2.587   8.589  0.3040  0.3413  0.0562
 5364SOL    HW127551   3.584   2.546   8.660 -0.6370  0.0229 -0.7710
 5364SOL    HW227552   3.569   2.645   8.548  0.1450  0.1432  0.0279
 5365SOL     OW27553   1.709   3.497  14.800  0.3086 -0.6472  0.4342
 5365SOL    HW127554   1.640   3.509  14.865  0.2481 -1.1938  0.4765
 5365SOL    HW227555   1.664   3.438  14.741  1.0223 -0.9546  0.1901
 5366SOL     OW27556   1.226   3.657  12.355  0.1674 -0.5394 -0.5988
 5366SOL    HW127557   1.183   3.596  12.294  0.1037 -0.5632 -0.5297
 5366SOL    HW227558   1.182   3.637  12.438  1.5775  0.4932  0.3978
 5367SOL     OW27559   2.084   0.520   5.182  0.1586 -0.6799  0.0763
 5367SOL    HW127560   2.167   0.483   5.153 -0.8199 -2.6464 -0.2311
 5367SOL    HW227561   2.041   0.438   5.206 -1.2627  0.4771  1.5348
 5368SOL     OW27562   4.671   3.747   6.612 -0.2013  0.5049 -0.5691
 5368SOL    HW127563   4.633   3.825   6.653 -1.6678 -1.2298  1.2833
 5368SOL    HW227564   0.022   3.738   6.673 -0.2782  1.2203 -0.3688
 5369SOL     OW27565   4.211   2.756   4.751 -0.2321 -0.1134 -0.3550
 5369SOL    HW127566   4.300   2.771   4.782 -0.3111  0.9094 -0.6227
 5369SOL    HW227567   4.223   2.681   4.692  0.6885  0.4333 -0.8649
 5370SOL     OW27568   1.573   3.858   9.319 -0.4412 -0.4689  0.6225
 5370SOL    HW127569   1.550   3.791   9.382  1.9738 -2.5589 -0.7236
 5370SOL    HW227570   1.501   3.856   9.256 -1.2726 -1.7539  1.6246
 5371SOL     OW27571   1.952   2.229   5.549 -0.3856  0.5583  0.0857
 5371SOL    HW127572   1.967   2.214   5.642 -0.7660  2.4748  0.4614
 5371SOL    HW227573   2.034   2.276   5.536  0.6902 -0.9665  1.3794
 5372SOL     OW27574   2.021   2.559   7.496 -0.4171  0.0510 -0.1804
 5372SOL    HW127575   2.093   2.561   7.559 -0.3075 -0.4066 -0.2865
 5372SOL    HW227576   1.949   2.579   7.556 -0.6223  0.1082 -0.4480
 5373SOL     OW27577   3.164   1.329   4.996  0.2150  0.2050  0.0672
 5373SOL    HW127578   3.169   1.312   5.090  0.0275 -1.2403 -0.1820
 5373SOL    HW227579   3.139   1.239   4.976 -0.4647 -0.1472  2.4933
 5374SOL     OW27580   4.643   0.622   8.416 -0.5326 -0.4060 -0.0234
 5374SOL    HW127581   4.670   0.559   8.483  0.6815 -0.3866 -0.4982
 5374SOL    HW227582   4.589   0.688   8.461 -1.9421 -1.2288 -0.5031
 5375SOL     OW27583   4.512   4.669  14.802  0.6745 -0.4586 -0.2270
 5375SOL    HW127584   4.543   0.032  14.832  1.1525 -1.0328  0.9167
 5375SOL    HW227585   4.559   4.610  14.860  0.3129 -0.5491 -0.0216
 5376SOL     OW27586   1.257   3.478   1.220 -0.0010 -0.1248 -0.5960
 5376SOL    HW127587   1.273   3.420   1.295  0.8323  1.2352  0.2688
 5376SOL    HW227588   1.341   3.520   1.202  0.2444 -0.8295 -1.0950
 5377SOL     OW27589   2.956   0.898   1.242  0.1219 -0.4982 -0.1782
 5377SOL    HW127590   2.862   0.878   1.237  0.2604 -0.9424 -0.9201
 5377SOL    HW227591   2.989   0.813   1.270 -0.3415  0.1679  2.3981
 5378SOL     OW27592   3.238   2.804   1.359  0.0835 -0.1043  0.4327
 5378SOL    HW127593   3.181   2.850   1.421 -1.7474  1.0327 -2.1043
 5378SOL    HW227594   3.214   2.832   1.270  1.4369 -0.5547 -0.0781
 5379SOL     OW27595   0.508   2.635  13.377  0.2133 -0.3998 -0.5056
 5379SOL    HW127596   0.459   2.646  13.296  0.6708  1.4519 -0.5304
 5379SOL    HW227597   0.595   2.657  13.345  0.6005  0.6756  1.3410
 5380SOL     OW27598   0.943   3.682  15.340 -0.7739  0.1782 -0.1534
 5380SOL    HW127599   0.996   3.605  15.359  1.2560  1.6554  0.1233
 5380SOL    HW227600   1.014   3.745  15.351  0.5375 -1.1709 -0.8800
 5381SOL     OW27601   2.594   4.420   6.577 -0.2444  0.1374 -0.2527
 5381SOL    HW127602   2.671   4.476   6.584  0.3745 -0.6274 -0.9961
 5381SOL    HW227603   2.634   4.333   6.568 -0.1322  0.0528  1.0952
 5382SOL     OW27604   1.502   3.444   2.147  0.0149  0.0802  0.1721
 5382SOL    HW127605   1.505   3.520   2.088 -3.0302  0.2190  0.1858
 5382SOL    HW227606   1.587   3.406   2.128  0.1774  0.9099 -0.7699
 5383SOL     OW27607   0.283   4.438   2.140  0.1159  0.5673  0.1556
 5383SOL    HW127608   0.204   4.476   2.102  0.8587  0.0710 -1.8948
 5383SOL    HW227609   0.308   4.512   2.194 -1.9897  0.5064  1.2429
 5384SOL     OW27610   0.654   1.293   4.474 -0.3055  0.5575  0.6550
 5384SOL    HW127611   0.680   1.241   4.398 -0.9995  1.1554  0.0170
 5384SOL    HW227612   0.717   1.251   4.533  0.0465 -0.5990 -0.5375
 5385SOL     OW27613   2.824   1.803   5.198  0.1587 -0.4635  0.3564
 5385SOL    HW127614   2.850   1.793   5.106 -0.9620  2.4465 -0.2654
 5385SOL    HW227615   2.885   1.738   5.232  1.2635  1.4016  1.9591
 5386SOL     OW27616   3.148   0.166   9.630 -0.5497 -0.2820  0.3779
 5386SOL    HW127617   3.080   0.107   9.596 -1.2729  0.6167  0.2900
 5386SOL    HW227618   3.214   0.107   9.666  1.2291  1.1851 -0.4926
 5387SOL     OW27619   2.426   1.779   6.562  0.4583  0.4017 -0.1986
 5387SOL    HW127620   2.403   1.871   6.554  1.8737  0.9858  2.3956
 5387SOL    HW227621   2.406   1.772   6.656  0.6331 -0.6625 -0.2453
 5388SOL     OW27622   4.256   2.727   7.190  0.2589 -0.7474  0.1063
 5388SOL    HW127623   4.220   2.717   7.102  0.1826  0.6632 -0.0168
 5388SOL    HW227624   4.281   2.819   7.181 -0.8113 -0.4462  0.3021
 5389SOL     OW27625   2.614   3.437  10.848  0.0100 -0.1776  0.3917
 5389SOL    HW127626   2.581   3.504  10.908  1.2620 -0.0791  0.9775
 5389SOL    HW227627   2.694   3.480  10.817 -1.7198  1.3243 -1.9905
 5390SOL     OW27628   3.712   1.067   6.761  0.3515 -0.0061  0.4456
 5390SOL    HW127629   3.617   1.076   6.760  0.3105 -0.3047  1.3432
 5390SOL    HW227630   3.742   1.088   6.673  0.9486 -0.4104  0.5544
 5391SOL     OW27631   2.993   1.796  14.270 -0.4801 -0.3358 -0.7882
 5391SOL    HW127632   3.061   1.729  14.279 -0.1837  0.1157  0.2701
 5391SOL    HW227633   3.040   1.879  14.261  2.8209 -2.0419  0.7468
 5392SOL     OW27634   3.649   0.422  16.048  0.3856  0.2294  0.2322
 5392SOL    HW127635   3.665   0.360  15.977 -2.8576 -2.0051  1.4437
 5392SOL    HW227636   3.730   0.472  16.062  2.4430 -2.5588 -1.8520
 5393SOL     OW27637   1.275   4.123   7.868  0.2040  0.2910  0.0922
 5393SOL    HW127638   1.180   4.120   7.865  0.1515 -0.6597  2.7380
 5393SOL    HW227639   1.269   4.212   7.903  1.4618  1.0351 -1.5464
 5394SOL     OW27640   2.860   0.423  14.366  0.5739 -0.3653  0.3813
 5394SOL    HW127641   2.788   0.406  14.306  0.3916 -1.3224  0.8703
 5394SOL    HW227642   2.898   0.335  14.356  1.1191 -0.2706  1.5948
 5395SOL     OW27643   0.121   1.608  11.586 -0.2772  0.2902 -0.1495
 5395SOL    HW127644   0.129   1.513  11.576 -0.1830  0.3409 -0.5743
 5395SOL    HW227645   0.163   1.618  11.672 -0.0207 -1.0657 -0.1047
 5396SOL     OW27646   0.858   0.590  12.997  0.0358  0.8752  0.5716
 5396SOL    HW127647   0.926   0.549  13.050  0.3987  0.8617  0.0933
 5396SOL    HW227648   0.907   0.671  12.985 -1.5258  1.3836 -2.4608
 5397SOL     OW27649   0.670   2.901  10.817  0.1605 -0.0911 -0.1109
 5397SOL    HW127650   0.744   2.880  10.874  1.7615  2.5356 -1.2113
 5397SOL    HW227651   0.615   2.949  10.880 -2.6555 -2.9937 -0.3572
 5398SOL     OW27652   1.545   3.245   3.481  0.0348 -0.5561  0.1784
 5398SOL    HW127653   1.488   3.210   3.413  0.3000 -0.7180  0.0372
 5398SOL    HW227654   1.631   3.212   3.454  0.1998  0.1046 -0.0870
 5399SOL     OW27655   4.058   3.220  11.512  0.4280 -0.0287  0.2147
 5399SOL    HW127656   4.124   3.164  11.470  1.2515  0.9338  0.2299
 5399SOL    HW227657   3.988   3.155  11.516  0.6943 -0.4359 -1.4968
 5400SOL     OW27658   3.508   0.522   4.298 -0.1705 -0.8946 -0.0409
 5400SOL    HW127659   3.535   0.437   4.264  0.6381 -0.3675 -0.7411
 5400SOL    HW227660   3.587   0.555   4.342  0.4372  0.9535 -2.4869
 5401SOL     OW27661   4.599   0.330   6.970  0.1385 -0.4272 -0.3452
 5401SOL    HW127662   4.695   0.321   6.963  0.5359  2.4790  1.5039
 5401SOL    HW227663   4.575   0.330   6.877 -2.5681  1.5110  0.3613
 5402SOL     OW27664   2.092   1.774   7.700  0.0411  0.1679 -0.1260
 5402SOL    HW127665   2.164   1.776   7.637 -0.9064  0.2588 -1.2125
 5402SOL    HW227666   2.140   1.761   7.781  0.7053  0.6465 -0.4446
 5403SOL     OW27667   2.577   4.673   2.664  0.0013  0.2110 -0.4416
 5403SOL    HW127668   2.607   0.041   2.654 -0.4902  0.6899  2.4061
 5403SOL    HW227669   2.513   4.677   2.592  1.5252  0.7620 -1.7675
 5404SOL     OW27670   1.785   2.813   4.036  0.4271  0.0214 -0.1422
 5404SOL    HW127671   1.874   2.778   4.029  0.6675  0.1064  2.4998
 5404SOL    HW227672   1.783   2.861   3.954 -1.1563  1.2462  0.6113
 5405SOL     OW27673   2.059   2.677   8.578 -0.3891 -0.1280 -0.1342
 5405SOL    HW127674   1.981   2.643   8.534  0.3158  0.6820 -2.0092
 5405SOL    HW227675   2.029   2.737   8.646  3.1074  0.4768  0.8442
 5406SOL     OW27676   1.599   1.459  13.543 -0.0303 -0.2938 -0.2780
 5406SOL    HW127677   1.553   1.378  13.563  1.9547 -1.3746 -0.0456
 5406SOL    HW227678   1.681   1.445  13.592  0.3128 -0.5111 -0.9102
 5407SOL     OW27679   0.946   1.001  16.163  0.1631  0.3792  0.2753
 5407SOL    HW127680   1.001   0.928  16.133  1.7609  1.0276  1.5668
 5407SOL    HW227681   0.973   1.012  16.255  2.5704  0.0811 -0.3819
 5408SOL     OW27682   0.955   4.327   9.740 -0.3112 -0.0701 -0.0345
 5408SOL    HW127683   0.964   4.391   9.811  2.1729 -1.7676  1.2033
 5408SOL    HW227684   1.013   4.371   9.678 -0.6265 -0.4169 -0.5719
 5409SOL     OW27685   3.987   0.718   5.026  0.1126  0.5822  0.4823
 5409SOL    HW127686   4.057   0.666   5.065  0.1745  0.1688 -0.1819
 5409SOL    HW227687   3.923   0.650   5.009  0.7767 -0.2817  1.4479
 5410SOL     OW27688   3.880   2.635   4.488  0.0390  0.5047 -0.2697
 5410SOL    HW127689   3.932   2.706   4.451 -0.9962  1.2715 -0.2527
 5410SOL    HW227690   3.920   2.564   4.437 -2.1895  0.2046 -1.5776
 5411SOL     OW27691   3.064   3.640   1.684  0.4675  0.0248  0.2644
 5411SOL    HW127692   3.035   3.706   1.747  0.0169  0.2205 -0.1470
 5411SOL    HW227693   3.109   3.702   1.626  0.2522  0.3228  0.4108
 5412SOL     OW27694   2.729   3.623  12.581  0.4343  0.8937 -0.8152
 5412SOL    HW127695   2.818   3.654  12.567  1.4005 -0.5453  2.0776
 5412SOL    HW227696   2.707   3.694  12.641 -1.1750  1.2554 -1.8171
 5413SOL     OW27697   1.289   4.666  10.297  0.4749 -0.2451 -0.4263
 5413SOL    HW127698   1.267   4.679  10.389 -0.6869 -0.3660 -0.6878
 5413SOL    HW227699   1.383   4.684  10.296  0.1388  1.5993  2.3843
 5414SOL     OW27700   2.301   4.555   4.319  0.5346 -0.0342 -0.2054
 5414SOL    HW127701   2.376   4.570   4.262  0.2366  1.9658 -0.0861
 5414SOL    HW227702   2.327   4.487   4.382  0.9471  1.2816  1.0626
 5415SOL     OW27703   2.053   0.497  14.656  0.5182  0.0938  0.2317
 5415SOL    HW127704   2.103   0.523  14.578  0.3505 -0.0193  0.0889
 5415SOL    HW227705   2.106   0.536  14.725  2.2132 -2.8100  0.5838
 5416SOL     OW27706   0.425   3.382   8.527  0.2837  0.3159 -0.1213
 5416SOL    HW127707   0.390   3.404   8.440 -1.4720  3.1476  1.2836
 5416SOL    HW227708   0.340   3.381   8.571  1.4960 -1.3763  2.1414
 5417SOL     OW27709   2.244   1.934  15.252 -0.2173 -0.4302  0.4861
 5417SOL    HW127710   2.179   2.001  15.233  0.9246  1.1653  2.2097
 5417SOL    HW227711   2.324   1.980  15.279 -0.4794  0.2177  0.1272
 5418SOL     OW27712   3.782   3.269   2.916 -0.0823  0.5225 -0.0561
 5418SOL    HW127713   3.763   3.176   2.910  0.8607  0.1002  3.1050
 5418SOL    HW227714   3.878   3.261   2.911  0.0672  1.2601  1.4410
 5419SOL     OW27715   1.526   2.184   6.322 -0.1927 -0.1008 -0.0297
 5419SOL    HW127716   1.570   2.102   6.299  0.6542  0.6371 -1.0317
 5419SOL    HW227717   1.595   2.231   6.367 -1.2368  3.3288 -2.0575
 5420SOL     OW27718   4.463   4.478   4.001 -0.0485  0.0966 -0.3389
 5420SOL    HW127719   4.479   4.393   4.043  0.0371 -1.8459 -4.3399
 5420SOL    HW227720   4.417   4.451   3.922 -0.5094  0.3272 -0.1489
 5421SOL     OW27721   3.551   1.526  10.834  0.1367  0.0319  0.1285
 5421SOL    HW127722   3.604   1.463  10.883 -1.8772 -0.5793  1.5610
 5421SOL    HW227723   3.619   1.575  10.788  1.7873 -1.7311  0.6887
 5422SOL     OW27724   2.084   0.302   1.798  0.4675 -0.1618  0.1414
 5422SOL    HW127725   2.066   0.369   1.732  0.9837 -0.4491 -0.2895
 5422SOL    HW227726   2.066   0.220   1.752 -0.4657  0.0600  0.1062
 5423SOL     OW27727   2.525   3.422  11.165 -0.3550  0.2230  0.7786
 5423SOL    HW127728   2.540   3.504  11.118  1.9975 -0.8584 -0.3815
 5423SOL    HW227729   2.459   3.451  11.227 -1.9907  2.0287 -1.7961
 5424SOL     OW27730   0.170   2.608   2.389  0.1882 -0.4843  0.1559
 5424SOL    HW127731   0.090   2.605   2.442 -0.4767  0.9550 -0.7807
 5424SOL    HW227732   0.194   2.515   2.386 -4.5055 -1.6400 -0.4306
 5425SOL     OW27733   0.987   2.466   1.544 -0.1430 -0.2451  0.1177
 5425SOL    HW127734   0.909   2.499   1.589  0.1870  1.9108 -0.9300
 5425SOL    HW227735   1.050   2.530   1.576  1.0360 -0.8373 -1.0394
 5426SOL     OW27736   3.384   0.871   9.342  0.8916  0.2982 -0.0292
 5426SOL    HW127737   3.362   0.814   9.415  1.1562  1.3936  0.8998
 5426SOL    HW227738   3.307   0.855   9.287  0.0927  1.0197  0.8696
 5427SOL     OW27739   0.420   0.079   0.983 -0.5580 -0.1536 -0.1138
 5427SOL    HW127740   0.513   0.080   1.008 -0.4463 -1.4411 -0.4538
 5427SOL    HW227741   0.379   0.157   1.021 -0.9850 -0.9537  1.0636
 5428SOL     OW27742   2.461   0.281   2.864  0.0469  0.3562 -0.3860
 5428SOL    HW127743   2.455   0.341   2.938 -0.4076 -1.2433  0.8723
 5428SOL    HW227744   2.386   0.229   2.892  0.7416 -0.8419 -0.7018
 5429SOL     OW27745   2.682   0.131  13.146  0.8937 -0.6487  0.0162
 5429SOL    HW127746   2.763   0.181  13.160  1.4043 -1.3948 -0.2669
 5429SOL    HW227747   2.659   0.154  13.056  1.3090 -0.1368  0.0378
 5430SOL     OW27748   2.882   3.291   8.849  0.1062  0.4455  0.2870
 5430SOL    HW127749   2.826   3.362   8.878  0.3426  0.5383  0.5172
 5430SOL    HW227750   2.932   3.284   8.930 -0.2809 -1.6003  0.3423
 5431SOL     OW27751   2.611   4.395   4.332  0.7278  0.2543  0.4749
 5431SOL    HW127752   2.564   4.326   4.378  1.0344  0.6567  1.3932
 5431SOL    HW227753   2.590   4.474   4.382 -3.0628 -0.3931 -0.0332
 5432SOL     OW27754   2.865   4.259   9.685  0.4298 -0.1243  0.2131
 5432SOL    HW127755   2.951   4.221   9.698  1.9607  3.1502 -0.2699
 5432SOL    HW227756   2.819   4.237   9.766  2.8593 -1.4778  1.2148
 5433SOL     OW27757   2.420   2.402  12.534 -0.1291 -0.2108  0.1159
 5433SOL    HW127758   2.501   2.418  12.486 -1.6690  0.3213 -2.3214
 5433SOL    HW227759   2.396   2.489  12.566 -0.1237 -0.9308  2.0904
 5434SOL     OW27760   2.334   0.204   6.253 -0.1727 -0.4105  0.4724
 5434SOL    HW127761   2.246   0.240   6.263 -0.9842 -1.8333 -1.4950
 5434SOL    HW227762   2.315   0.110   6.250 -0.9123 -0.2968  1.1885
 5435SOL     OW27763   2.911   2.882   3.767  0.4824  0.0928 -0.1380
 5435SOL    HW127764   2.947   2.813   3.822 -1.1936  1.0289  2.1325
 5435SOL    HW227765   2.889   2.943   3.837  2.8988  1.0888 -0.2644
 5436SOL     OW27766   2.044   4.132   7.785  0.5810 -0.1611  0.0198
 5436SOL    HW127767   2.086   4.161   7.704  0.0413 -0.2148 -0.2773
 5436SOL    HW227768   2.049   4.038   7.767  1.6945 -0.4338  1.7979
 5437SOL     OW27769   1.244   3.699   8.847 -0.7906 -0.2174  0.4956
 5437SOL    HW127770   1.227   3.610   8.878 -1.3216 -0.2989 -0.0279
 5437SOL    HW227771   1.153   3.719   8.825 -0.3152 -0.0383 -1.2844
 5438SOL     OW27772   4.105   2.511   6.113  0.2584 -0.0696  0.3495
 5438SOL    HW127773   4.079   2.539   6.201 -1.0224  1.7073 -0.6075
 5438SOL    HW227774   4.188   2.466   6.127  0.5017 -0.6347 -2.9933
 5439SOL     OW27775   0.603   4.086   5.976 -0.7486 -0.7273 -0.8106
 5439SOL    HW127776   0.533   4.035   6.017 -1.0307  1.0990  0.9713
 5439SOL    HW227777   0.626   4.161   6.030 -1.8192 -1.1621  0.2497
 5440SOL     OW27778   1.902   2.837   6.580 -0.5418  0.8853 -0.1508
 5440SOL    HW127779   1.962   2.895   6.627  0.7313 -0.7251  0.1691
 5440SOL    HW227780   1.935   2.841   6.490  1.2842  1.4839  0.5444
 5441SOL     OW27781   4.658   0.510   4.646  0.5682  0.4253 -0.7076
 5441SOL    HW127782   4.668   0.433   4.590  1.0605 -0.6507  0.8618
 5441SOL    HW227783   4.565   0.521   4.625 -0.1909 -2.6420  1.1098
 5442SOL     OW27784   0.379   3.529   2.860 -0.0002 -0.0275 -0.0131
 5442SOL    HW127785   0.453   3.590   2.868 -0.6291  0.5797  1.1921
 5442SOL    HW227786   0.321   3.592   2.817  0.3670  0.4079  0.1273
 5443SOL     OW27787   0.689   2.013   6.831 -0.2208  0.0047 -0.3030
 5443SOL    HW127788   0.779   2.011   6.798 -0.6305 -0.0932 -1.4028
 5443SOL    HW227789   0.706   2.041   6.921 -0.0024 -1.4625  0.1215
 5444SOL     OW27790   0.228   2.394   6.630  0.2058  0.5635 -0.4201
 5444SOL    HW127791   0.169   2.470   6.638 -0.1976 -0.0740  2.7450
 5444SOL    HW227792   0.237   2.369   6.722 -0.2068  1.7029 -0.0595
 5445SOL     OW27793   3.264   4.263  12.326  0.2690 -0.1247  0.3677
 5445SOL    HW127794   3.353   4.255  12.362  0.2538 -2.7472 -0.1935
 5445SOL    HW227795   3.237   4.338  12.379 -1.9935 -0.3969 -0.4150
 5446SOL     OW27796   0.970   4.431  15.025  0.7839  1.3803 -0.0141
 5446SOL    HW127797   0.980   4.346  15.068  2.1947  0.1244 -2.8046
 5446SOL    HW227798   0.943   4.402  14.938 -2.5564 -1.8084  2.0700
 5447SOL     OW27799   4.170   1.576   8.797 -0.1818 -0.2238 -0.6502
 5447SOL    HW127800   4.252   1.528   8.784  1.7745  1.9272  3.9737
 5447SOL    HW227801   4.149   1.566   8.890  2.2341 -0.3349 -0.1046
 5448SOL     OW27802   0.619   1.826   8.697 -0.6793  0.0820 -0.0905
 5448SOL    HW127803   0.636   1.841   8.604 -1.2968  1.6811  0.0375
 5448SOL    HW227804   0.541   1.772   8.704 -0.7793 -0.0505 -2.4415
 5449SOL     OW27805   3.323   1.675  10.854 -0.1913 -0.5375 -0.0772
 5449SOL    HW127806   3.413   1.648  10.842 -0.0584 -0.2122  0.1810
 5449SOL    HW227807   3.305   1.610  10.922 -0.1515  0.2148  0.6564
 5450SOL     OW27808   3.288   1.037   8.467 -0.0620  0.6939 -0.2297
 5450SOL    HW127809   3.248   1.004   8.548 -1.4824  1.8788 -0.4604
 5450SOL    HW227810   3.217   1.048   8.404 -1.2160  0.8657  1.0957
 5451SOL     OW27811   2.200   3.946   6.609  0.5537 -0.5344 -0.0886
 5451SOL    HW127812   2.276   3.978   6.657  0.0901  0.4584  0.0048
 5451SOL    HW227813   2.164   4.032   6.585  3.5936  0.8123  0.1342
 5452SOL     OW27814   1.774   4.419   8.898 -0.2487 -0.6842  0.0431
 5452SOL    HW127815   1.744   4.329   8.911 -0.0987 -0.5624  1.1867
 5452SOL    HW227816   1.724   4.450   8.974  1.8589  3.4440 -0.2763
 5453SOL     OW27817   0.106   2.018   0.722 -0.5100  0.5768 -0.6506
 5453SOL    HW127818   0.016   2.005   0.692 -1.3752  0.7094  1.9372
 5453SOL    HW227819   0.128   2.101   0.680 -0.2995 -0.1923 -2.0685
 5454SOL     OW27820   3.916   3.448  11.785 -0.2378  0.0098  0.2903
 5454SOL    HW127821   3.939   3.395  11.861  0.8016  0.3949  0.2504
 5454SOL    HW227822   4.005   3.451  11.750  1.0500  0.0557  3.5781
 5455SOL     OW27823   3.639   0.293  12.962 -0.2742 -0.0335  0.0790
 5455SOL    HW127824   3.560   0.346  12.968 -0.9175 -0.9891  0.0845
 5455SOL    HW227825   3.697   0.363  12.934  2.1516 -1.6046  1.1359
 5456SOL     OW27826   1.815   0.391   4.877  0.3252 -0.4332 -0.0305
 5456SOL    HW127827   1.723   0.412   4.894 -0.1748 -2.4093 -0.3504
 5456SOL    HW227828   1.821   0.300   4.906  1.5047  0.1292  1.5031
 5457SOL     OW27829   4.537   0.827   6.943 -0.3851  0.6397 -0.2359
 5457SOL    HW127830   4.615   0.881   6.957  1.7165 -3.2312  2.7942
 5457SOL    HW227831   4.580   0.753   6.899  1.2409  0.5625  1.4738
 5458SOL     OW27832   3.304   0.381   4.373  0.0024  0.3096  0.5935
 5458SOL    HW127833   3.388   0.423   4.353  0.5522 -1.5282 -0.9499
 5458SOL    HW227834   3.258   0.451   4.326  0.0156 -0.8658 -1.1700
 5459SOL     OW27835   1.226   1.017   9.184  0.6310 -0.2801 -0.3816
 5459SOL    HW127836   1.171   0.945   9.153  1.8255 -2.0233  1.5703
 5459SOL    HW227837   1.307   1.007   9.135  0.9042  0.6112 -0.1212
 5460SOL     OW27838   2.437   3.952   3.367 -0.2984  0.2480 -0.1228
 5460SOL    HW127839   2.361   3.895   3.381  0.5761 -0.8829  0.0345
 5460SOL    HW227840   2.486   3.939   3.448 -0.9727  0.4373  0.3203
 5461SOL     OW27841   0.913   1.196  16.878  0.5891 -0.0216  0.1817
 5461SOL    HW127842   0.947   1.163  16.794 -0.5060 -0.8801  0.0767
 5461SOL    HW227843   0.974   1.148  16.934  0.5063  0.3890  0.6251
 5462SOL     OW27844   1.163   4.432   4.456  0.9754  0.1054 -0.7265
 5462SOL    HW127845   1.120   4.350   4.429  0.1918 -0.2758  1.6725
 5462SOL    HW227846   1.099   4.467   4.518  1.1471 -1.3207  0.2524
 5463SOL     OW27847   0.185   1.537   3.565  0.0815  0.2518 -0.0746
 5463SOL    HW127848   0.136   1.565   3.643  1.9005 -2.1194  1.9312
 5463SOL    HW227849   0.138   1.454   3.554 -0.4410  0.7100 -1.3083
 5464SOL     OW27850   0.100   0.935   3.708 -0.0690  0.7227  0.2075
 5464SOL    HW127851   0.155   0.904   3.780 -1.6608 -2.0158  0.2362
 5464SOL    HW227852   0.149   0.905   3.632  1.2929 -1.1773  1.8398
 5465SOL     OW27853   1.671   0.483  15.963  0.4183 -0.2837  0.0043
 5465SOL    HW127854   1.666   0.401  15.914 -1.0496 -0.4652  0.4598
 5465SOL    HW227855   1.625   0.544  15.906 -0.9160 -1.7950 -0.5227
 5466SOL     OW27856   0.904   1.642   4.910 -0.1402 -0.1091  0.2558
 5466SOL    HW127857   0.825   1.643   4.965 -0.8753  1.7875 -0.8399
 5466SOL    HW227858   0.858   1.652   4.827  1.0699  3.1601 -0.0272
 5467SOL     OW27859   2.544   1.073  14.534  0.3940 -0.1489 -0.4210
 5467SOL    HW127860   2.613   1.138  14.546 -0.7228  1.0361 -0.3543
 5467SOL    HW227861   2.519   1.069  14.627  4.1249 -3.9412  0.4108
 5468SOL     OW27862   0.469   3.683   5.907 -0.4980  0.5126  0.0601
 5468SOL    HW127863   0.452   3.592   5.932 -3.0742  0.6248 -1.3046
 5468SOL    HW227864   0.539   3.700   5.970  1.4221 -0.1771 -1.8698
 5469SOL     OW27865   3.297   2.032   4.928  0.1025  0.4758  0.2081
 5469SOL    HW127866   3.324   2.123   4.915 -0.3912  0.6177  0.1878
 5469SOL    HW227867   3.358   1.988   4.869  1.1626 -0.7262  2.1977
 5470SOL     OW27868   2.733   4.138   5.779  0.5287 -0.5970  0.1077
 5470SOL    HW127869   2.656   4.193   5.790  1.0687  0.2392 -0.3442
 5470SOL    HW227870   2.695   4.050   5.777  1.9298 -1.2489  2.9213
 5471SOL     OW27871   3.354   4.192  10.123  0.6761  0.0571  0.1887
 5471SOL    HW127872   3.270   4.181  10.168 -0.1024  0.5294 -1.1515
 5471SOL    HW227873   3.412   4.133  10.170  2.9217  1.9721 -0.2153
 5472SOL     OW27874   1.575   0.892   3.256  0.0485  0.1912 -0.1039
 5472SOL    HW127875   1.596   0.806   3.221 -0.5751  1.2766 -3.1816
 5472SOL    HW227876   1.638   0.896   3.328 -1.0335  1.3911  0.7791
 5473SOL     OW27877   1.567   3.010  11.224  0.1886 -0.1204  0.1434
 5473SOL    HW127878   1.594   2.930  11.178 -1.3075 -1.0754  0.9171
 5473SOL    HW227879   1.647   3.052  11.256  2.2225 -2.2880 -2.0680
 5474SOL     OW27880   4.524   3.330   6.748  0.1647 -0.0969 -0.7333
 5474SOL    HW127881   4.544   3.424   6.755 -0.9249  0.1272 -0.6300
 5474SOL    HW227882   4.429   3.341   6.758  0.7898  3.5350  1.3469
 5475SOL     OW27883   2.823   3.424  17.464  0.3466  0.0176  0.1899
 5475SOL    HW127884   2.859   3.503  17.503 -0.1827  0.4710 -0.2483
 5475SOL    HW227885   2.777   3.405  17.546  0.8244  0.3179  0.5308
 5476SOL     OW27886   2.908   3.186   2.839  0.3865  0.1679 -0.2887
 5476SOL    HW127887   2.918   3.110   2.782  1.6971  0.3866 -0.3540
 5476SOL    HW227888   2.997   3.220   2.843  0.5769 -0.5039  1.1741
 5477SOL     OW27889   0.439   3.279   6.912 -0.0471  0.2412  0.0453
 5477SOL    HW127890   0.420   3.262   7.004  1.3433 -1.0041  0.0885
 5477SOL    HW227891   0.398   3.361   6.884 -2.9184 -0.6742  1.5817
 5478SOL     OW27892   0.547   3.836   8.516  0.8191  0.0539  0.7013
 5478SOL    HW127893   0.573   3.749   8.486 -1.5335 -0.3874 -0.1280
 5478SOL    HW227894   0.539   3.833   8.611  0.4186 -0.5839  0.6468
 5479SOL     OW27895   0.233   4.169   6.218  0.1195  0.1748 -0.9036
 5479SOL    HW127896   0.242   4.092   6.163  0.4957  0.3574 -1.1015
 5479SOL    HW227897   0.141   4.170   6.244  0.4639  1.9710  0.2558
 5480SOL     OW27898   3.816   2.459   7.619 -0.1198  0.1325  0.1380
 5480SOL    HW127899   3.768   2.528   7.573 -0.0806  0.8030  1.0867
 5480SOL    HW227900   3.904   2.497   7.629 -0.4794  0.4564  2.0419
 5481SOL     OW27901   0.065   2.498   3.838 -0.2387  0.3536 -0.0842
 5481SOL    HW127902   0.127   2.552   3.789 -0.5997  1.3664  0.5797
 5481SOL    HW227903   0.099   2.543   3.915 -0.9717  1.5984 -0.4686
 5482SOL     OW27904   4.294   4.534  14.743  0.4916  0.6257 -0.1202
 5482SOL    HW127905   4.336   4.459  14.786  0.9705  1.1053  0.2593
 5482SOL    HW227906   4.367   4.597  14.744 -0.4486  1.6920  0.5030
 5483SOL     OW27907   4.692   4.300  15.135 -0.2947 -0.0059 -0.4063
 5483SOL    HW127908   0.024   4.268  15.206 -0.2760  1.2788  0.1519
 5483SOL    HW227909   4.650   4.217  15.111  0.1774 -0.2659 -0.3368
 5484SOL     OW27910   0.851   2.128  11.999  0.2599  0.0913 -0.1872
 5484SOL    HW127911   0.887   2.067  11.935 -1.2624 -0.1784 -0.7904
 5484SOL    HW227912   0.797   2.187  11.946  0.6943  0.5597 -0.1159
 5485SOL     OW27913   1.568   4.267   8.399  0.0782 -0.3351 -0.0903
 5485SOL    HW127914   1.656   4.234   8.417 -0.2769 -1.5027 -0.4800
 5485SOL    HW227915   1.527   4.235   8.479 -0.0724  0.7957  0.2801
 5486SOL     OW27916   4.421   2.048   2.980  0.6452 -0.3582 -0.0206
 5486SOL    HW127917   4.327   2.043   2.961  0.7340  1.8984 -1.0392
 5486SOL    HW227918   4.448   2.140   2.973  1.3813 -0.7781 -2.8631
 5487SOL     OW27919   2.939   3.616   6.543 -0.0808 -0.3311  0.0995
 5487SOL    HW127920   2.861   3.577   6.505 -0.2719 -0.5811  0.7493
 5487SOL    HW227921   2.992   3.627   6.464 -1.9424 -2.5734 -1.4438
 5488SOL     OW27922   4.002   0.541   9.065 -0.2711 -0.7000 -0.0029
 5488SOL    HW127923   4.022   0.450   9.044  3.4225  0.3589 -0.9732
 5488SOL    HW227924   3.942   0.562   8.994  1.8583  2.3345 -0.8677
 5489SOL     OW27925   1.970   1.471  16.487  0.6528 -0.0641 -0.5048
 5489SOL    HW127926   1.933   1.401  16.542 -1.3342 -0.2040 -1.9970
 5489SOL    HW227927   2.015   1.426  16.415 -0.4393 -2.6241  0.4088
 5490SOL     OW27928   4.218   3.311  10.488  0.5658  0.4789  0.0464
 5490SOL    HW127929   4.272   3.351  10.556  1.3072  1.6639 -1.2414
 5490SOL    HW227930   4.126   3.314  10.517  0.5376  0.2372 -0.0190
 5491SOL     OW27931   2.813   1.760   5.802  0.5554  0.0706  0.1897
 5491SOL    HW127932   2.873   1.686   5.807  0.2792 -0.1502  0.2310
 5491SOL    HW227933   2.844   1.821   5.869  1.4384  1.3486 -1.3781
 5492SOL     OW27934   1.166   1.781   7.465 -0.0380  0.3838 -0.1880
 5492SOL    HW127935   1.071   1.774   7.462  0.0793 -0.6361 -1.4827
 5492SOL    HW227936   1.172   1.873   7.491 -0.4241  0.5399 -0.6503
 5493SOL     OW27937   1.798   3.234   9.061 -0.3968 -0.2466 -0.3378
 5493SOL    HW127938   1.762   3.306   9.112 -2.7707 -2.5149  1.2033
 5493SOL    HW227939   1.797   3.161   9.123  0.0941 -0.6649 -0.8275
 5494SOL     OW27940   1.360   2.125   7.727 -0.5442  0.1193  0.2662
 5494SOL    HW127941   1.266   2.119   7.710 -0.8614  1.1763  1.6514
 5494SOL    HW227942   1.382   2.190   7.660  2.0026 -0.9775  0.0335
 5495SOL     OW27943   1.380   0.263  10.751  0.0754  0.7016 -0.2266
 5495SOL    HW127944   1.384   0.284  10.657 -2.8158  0.1920 -0.4697
 5495SOL    HW227945   1.454   0.204  10.764  0.4656  1.0400 -0.8815
 5496SOL     OW27946   1.090   4.168  13.637 -0.3052 -0.3169 -0.2606
 5496SOL    HW127947   1.146   4.225  13.585  2.9893 -1.1683  2.3493
 5496SOL    HW227948   1.017   4.165  13.575  1.4078  1.1293 -2.3540
 5497SOL     OW27949   0.857   2.835   7.266 -0.5206  0.2482 -0.2945
 5497SOL    HW127950   0.944   2.861   7.236  0.2414  0.9715  2.5333
 5497SOL    HW227951   0.865   2.762   7.328  2.5235 -0.4942 -1.5469
 5498SOL     OW27952   2.335   4.496   3.862  0.8386  0.0215  0.3390
 5498SOL    HW127953   2.338   4.589   3.883 -0.4507 -0.3014  1.9350
 5498SOL    HW227954   2.429   4.486   3.846  0.4344 -2.8614 -0.2832
 5499SOL     OW27955   2.491   4.615   4.746 -0.0032  0.2557  0.4466
 5499SOL    HW127956   2.455   4.649   4.828 -0.9170 -0.9298  0.5375
 5499SOL    HW227957   2.583   4.604   4.768 -0.1892  1.1773  1.7380
 5500SOL     OW27958   3.737   3.155  10.949  0.4025  0.0562 -0.1405
 5500SOL    HW127959   3.789   3.203  11.013  2.3512 -1.2545 -0.7314
 5500SOL    HW227960   3.788   3.074  10.944 -0.8382 -0.8452  1.4222
 5501SOL     OW27961   2.104   3.846   2.634 -0.0427  0.5212 -0.8898
 5501SOL    HW127962   2.119   3.899   2.556 -0.6568 -1.4205 -2.3021
 5501SOL    HW227963   2.193   3.824   2.662  0.8563  2.2939 -2.3485
 5502SOL     OW27964   3.078   1.112   0.048 -0.2933 -0.3003  0.0821
 5502SOL    HW127965   3.037   1.069   0.124  1.3113 -0.7732  0.6855
 5502SOL    HW227966   3.165   1.073   0.059 -0.4366 -1.0563 -1.5150
 5503SOL     OW27967   4.432   0.506   7.075 -0.8247  0.3823  0.0877
 5503SOL    HW127968   4.373   0.432   7.091  0.0018 -0.1755  0.5569
 5503SOL    HW227969   4.513   0.455   7.064 -1.1331  0.2000 -1.3976
 5504SOL     OW27970   3.656   4.509   3.367  0.6767  0.1702 -0.1579
 5504SOL    HW127971   3.626   4.600   3.374  2.2995  0.6916 -0.0326
 5504SOL    HW227972   3.705   4.506   3.449 -0.2906  0.1698  0.4207
 5505SOL     OW27973   0.896   3.228   1.795 -0.2493 -0.2664 -0.5395
 5505SOL    HW127974   0.866   3.244   1.884  2.4663  0.7652  0.2134
 5505SOL    HW227975   0.937   3.145   1.817  1.3955  0.7205  0.1652
 5506SOL     OW27976   2.505   1.152   7.527 -0.3512 -0.1959 -0.5030
 5506SOL    HW127977   2.583   1.185   7.573 -1.1271  1.4529 -0.3871
 5506SOL    HW227978   2.487   1.079   7.587  0.6263 -0.3852 -0.4403
 5507SOL     OW27979   1.446   0.066   7.710  0.0756  0.7239 -0.9175
 5507SOL    HW127980   1.511   0.132   7.683  1.2431  0.5275  1.4155
 5507SOL    HW227981   1.438   0.008   7.634  2.8622  0.0826 -0.7305
 5508SOL     OW27982   0.914   2.893  12.165 -0.2013 -0.2403  0.0852
 5508SOL    HW127983   0.855   2.872  12.237  2.0145 -1.9205  1.4214
 5508SOL    HW227984   0.992   2.911  12.218 -0.9464  1.5919  0.5739
 5509SOL     OW27985   1.748   3.958   6.435  0.2487 -0.6851  0.2438
 5509SOL    HW127986   1.773   4.015   6.508  0.3313 -0.7172  0.2405
 5509SOL    HW227987   1.817   3.893   6.431 -0.5863 -1.6053  0.8550
 5510SOL     OW27988   1.200   0.539  11.011  0.5335  0.0427  0.2918
 5510SOL    HW127989   1.199   0.523  10.916  2.2738  1.3421  0.0527
 5510SOL    HW227990   1.175   0.631  11.019 -0.0912 -0.2325  1.4760
 5511SOL     OW27991   3.010   2.927  11.522  0.5526 -0.4499 -0.0166
 5511SOL    HW127992   3.047   2.922  11.433  1.5821 -1.9536  0.4879
 5511SOL    HW227993   2.915   2.923  11.511  0.6469 -0.6872 -0.7375
 5512SOL     OW27994   4.152   1.724   4.356  0.2148 -0.3522 -0.2474
 5512SOL    HW127995   4.084   1.757   4.296 -0.6642 -1.9540 -0.1305
 5512SOL    HW227996   4.178   1.639   4.319  2.2200  1.2369 -2.5065
 5513SOL     OW27997   1.037   2.147   8.487  0.6242 -0.2797 -0.3736
 5513SOL    HW127998   1.100   2.092   8.534  2.8259  0.6089 -2.3025
 5513SOL    HW227999   1.069   2.136   8.397 -0.6922 -0.2503 -0.8385
 5514SOL     OW28000   0.285   2.083  17.063 -0.0018  0.0134  0.4061
 5514SOL    HW128001   0.329   2.040  16.990  0.7242  2.1744 -0.4220
 5514SOL    HW228002   0.306   2.174  17.042 -1.0673  0.0583 -0.4438
 5515SOL     OW28003   1.790   3.728   4.755  0.3188 -0.3914 -0.5589
 5515SOL    HW128004   1.717   3.667   4.761  1.2912 -1.2753  2.4262
 5515SOL    HW228005   1.839   3.704   4.676 -0.0295  0.2047 -0.9632
 5516SOL     OW28006   4.708   2.756  16.892 -0.2612 -0.3317 -0.3813
 5516SOL    HW128007   4.616   2.781  16.882 -0.8860 -3.0677 -1.5551
 5516SOL    HW228008   0.004   2.821  16.959 -0.6514 -1.0099  0.3891
 5517SOL     OW28009   1.891   2.445  14.182 -0.3637 -0.1820  0.4972
 5517SOL    HW128010   1.913   2.527  14.138  0.5977 -0.8017 -0.1752
 5517SOL    HW228011   1.977   2.404  14.188 -1.1779 -1.1535  4.9399
 5518SOL     OW28012   4.531   1.281   2.986 -0.1124 -0.2718  0.3773
 5518SOL    HW128013   4.510   1.188   2.994  0.1005 -0.1941  1.9368
 5518SOL    HW228014   4.485   1.300   2.905  1.6122 -1.3595 -0.8408
 5519SOL     OW28015   4.298   1.196   3.324  0.1202 -0.8419 -0.1283
 5519SOL    HW128016   4.303   1.147   3.406 -0.3416 -2.8893 -1.3194
 5519SOL    HW228017   4.213   1.239   3.334  0.4059 -0.4607  0.6850
 5520SOL     OW28018   0.181   4.248   6.714  0.1543 -0.0693  0.3282
 5520SOL    HW128019   0.277   4.258   6.711  0.1879 -0.5618 -0.1783
 5520SOL    HW228020   0.150   4.338   6.725 -1.9812 -0.8572  0.7070
 5521SOL     OW28021   3.213   2.872   4.523  0.1239 -0.8217 -0.1244
 5521SOL    HW128022   3.217   2.778   4.507 -3.4003 -0.4240 -3.3226
 5521SOL    HW228023   3.304   2.902   4.533 -0.0338 -0.5488  0.5060
 5522SOL     OW28024   2.427   2.699   8.024 -0.6596 -0.3493  0.0419
 5522SOL    HW128025   2.509   2.716   7.978 -0.6032 -0.3081  0.1568
 5522SOL    HW228026   2.412   2.607   8.000 -1.3349 -0.4682  0.9028
 5523SOL     OW28027   2.002   2.537  11.672 -0.0404  0.1023  0.5901
 5523SOL    HW128028   2.049   2.592  11.609 -1.5953  0.1549 -0.5222
 5523SOL    HW228029   1.966   2.605  11.729 -0.9645  0.5276 -0.5167
 5524SOL     OW28030   0.911   4.676   6.564  0.1929 -0.0199  0.0752
 5524SOL    HW128031   0.969   0.030   6.570 -0.7869  0.8131 -1.1742
 5524SOL    HW228032   0.877   4.689   6.652 -3.0672 -2.0925 -0.9073
 5525SOL     OW28033   0.774   2.002   5.113 -0.5554 -0.0465 -0.4314
 5525SOL    HW128034   0.842   1.947   5.152 -1.1958 -0.0125  0.7555
 5525SOL    HW228035   0.773   2.071   5.180 -2.0612 -2.1809  1.7395
 5526SOL     OW28036   4.406   0.800   3.083 -0.4355  0.2265  0.3925
 5526SOL    HW128037   4.347   0.796   3.008 -0.0214  2.1316 -0.0307
 5526SOL    HW228038   4.405   0.894   3.102  0.6548  0.0478  1.3485
 5527SOL     OW28039   3.093   4.551   2.734  0.2821 -0.5673  0.6074
 5527SOL    HW128040   3.021   4.549   2.671 -1.0922  1.0643  2.1111
 5527SOL    HW228041   3.164   4.509   2.685 -0.6639 -0.4653 -0.8425
 5528SOL     OW28042   3.095   1.992  15.685  0.3210  0.2582 -0.2204
 5528SOL    HW128043   3.169   1.963  15.737  0.8701  1.9003 -0.0699
 5528SOL    HW228044   3.088   2.080  15.723  0.5844  1.2957 -2.5811
 5529SOL     OW28045   0.590   0.461   4.553  0.5044  0.3423  0.3472
 5529SOL    HW128046   0.533   0.387   4.574 -1.4572  1.8677  0.3999
 5529SOL    HW228047   0.676   0.420   4.563  0.7079  0.9527  1.1092
 5530SOL     OW28048   2.846   1.649   6.111 -0.1507  0.7637  0.0928
 5530SOL    HW128049   2.913   1.684   6.169  0.4105  0.6374 -0.4728
 5530SOL    HW228050   2.889   1.569   6.078 -1.1423 -0.1679  1.0562
 5531SOL     OW28051   3.691   0.701  10.703  0.0881 -0.2091  0.4462
 5531SOL    HW128052   3.600   0.725  10.685  0.1265  0.8868  1.6915
 5531SOL    HW228053   3.683   0.623  10.759 -0.7227 -0.6569 -0.2910
 5532SOL     OW28054   1.456   0.100   9.262 -0.4715  0.2251  0.5801
 5532SOL    HW128055   1.530   0.108   9.201  0.6106 -1.5985  1.6408
 5532SOL    HW228056   1.424   0.190   9.262  0.0873  0.4259 -1.3418
 5533SOL     OW28057   2.222   1.256   6.490 -0.1711  0.6224  0.5776
 5533SOL    HW128058   2.267   1.334   6.457  0.7075  0.0180  0.3775
 5533SOL    HW228059   2.161   1.309   6.542 -1.7615  0.6531 -1.3271
 5534SOL     OW28060   3.598   1.766   3.692  0.2633 -0.3719 -0.2338
 5534SOL    HW128061   3.577   1.673   3.698  0.8731 -0.4788  0.2777
 5534SOL    HW228062   3.693   1.760   3.687  0.2668 -0.7598  0.4225
 5535SOL     OW28063   1.098   1.921   3.859  0.8020 -0.2551  0.2448
 5535SOL    HW128064   1.036   1.882   3.798 -1.2050  0.1365  2.0545
 5535SOL    HW228065   1.054   1.884   3.936  0.0470 -0.3167 -0.2196
 5536SOL     OW28066   2.178   0.647  16.303  0.0487  0.2566  0.8654
 5536SOL    HW128067   2.118   0.574  16.283  0.4679 -0.0406  0.6923
 5536SOL    HW228068   2.158   0.704  16.229  0.4984  0.7101  1.1006
 5537SOL     OW28069   3.983   4.113   3.058 -0.1830 -0.4873  0.0229
 5537SOL    HW128070   4.071   4.132   3.092  1.2508 -2.4554 -2.5596
 5537SOL    HW228071   3.933   4.161   3.124 -2.2649 -0.5145 -1.5307
 5538SOL     OW28072   3.898   0.381   8.692  0.0641  0.2313 -0.2813
 5538SOL    HW128073   3.959   0.402   8.622 -0.6608  0.1097 -0.9511
 5538SOL    HW228074   3.838   0.339   8.630 -0.7446 -1.2039  1.4707
 5539SOL     OW28075   0.075   2.628   7.541 -0.1327  0.0994  0.0184
 5539SOL    HW128076   0.038   2.642   7.628  1.7405  0.3062  0.7717
 5539SOL    HW228077   0.009   2.675   7.490 -0.3231 -1.8094 -1.5107
 5540SOL     OW28078   1.480   0.431   6.781  0.3230  0.3333 -0.5387
 5540SOL    HW128079   1.560   0.391   6.748 -0.2731 -1.7200  0.4981
 5540SOL    HW228080   1.492   0.525   6.769  2.1094 -0.0411 -1.6911
 5541SOL     OW28081   1.686   3.638  14.391  0.4483  0.2820 -0.0261
 5541SOL    HW128082   1.737   3.573  14.344  1.4681 -0.9670  2.8587
 5541SOL    HW228083   1.723   3.725  14.376 -1.3266  0.8940 -0.8817
 5542SOL     OW28084   1.388   2.966  12.282  0.0203  0.0124 -0.0764
 5542SOL    HW128085   1.454   2.950  12.350 -2.0456 -3.4981  1.1289
 5542SOL    HW228086   1.366   3.058  12.294 -0.2543  0.0945 -1.2411
 5543SOL     OW28087   1.498   4.477  13.455 -0.1696  0.2718  0.0449
 5543SOL    HW128088   1.432   4.537  13.421  2.4301  2.8494 -0.4731
 5543SOL    HW228089   1.532   4.432  13.377  1.4262 -0.7328  1.2903
 5544SOL     OW28090   0.863   0.902   6.473 -0.0513 -0.4393  0.2900
 5544SOL    HW128091   0.903   0.955   6.542  0.6276 -1.0296  0.3472
 5544SOL    HW228092   0.866   0.820   6.524 -0.8750 -0.8303 -0.2982
 5545SOL     OW28093   1.255   2.345   7.513 -0.2034 -0.1700 -0.0663
 5545SOL    HW128094   1.265   2.428   7.466  0.8938 -1.0087 -1.3089
 5545SOL    HW228095   1.225   2.376   7.599 -0.3294  2.4977 -1.0700
 5546SOL     OW28096   1.002   1.247  16.048 -0.0679 -0.0335  0.0456
 5546SOL    HW128097   0.989   1.160  16.085  3.5551 -0.6790 -0.1581
 5546SOL    HW228098   0.971   1.299  16.122  1.1929  0.4183  0.2539
 5547SOL     OW28099   3.527   3.616   8.220  0.0638  0.1691 -0.1308
 5547SOL    HW128100   3.618   3.602   8.245 -0.6848  0.8369  2.9146
 5547SOL    HW228101   3.520   3.553   8.148  0.6706  0.0303 -0.0625
 5548SOL     OW28102   1.746   3.043   5.297  0.2448 -0.5325  0.8797
 5548SOL    HW128103   1.745   2.954   5.263  1.0641 -0.4574  0.6638
 5548SOL    HW228104   1.717   3.084   5.216  0.5800 -0.0713  0.9872
 5549SOL     OW28105   0.177   0.285   7.125 -0.0445 -1.0511 -0.1231
 5549SOL    HW128106   0.217   0.274   7.038 -2.3798 -1.7825 -1.0913
 5549SOL    HW228107   0.204   0.205   7.171 -1.2814 -3.1765 -3.1022
 5550SOL     OW28108   3.878   2.040   0.382 -0.1880  0.1675  0.0737
 5550SOL    HW128109   3.938   2.062   0.311  0.6223 -1.3038  0.3170
 5550SOL    HW228110   3.816   2.112   0.364  0.3124  0.8564  1.1381
 5551SOL     OW28111   4.302   0.033   2.533 -0.3892 -0.7220  0.1614
 5551SOL    HW128112   4.264   0.077   2.456  3.0774  0.4824 -0.9062
 5551SOL    HW228113   4.302   0.092   2.608 -0.5612 -1.6069  0.8540
 5552SOL     OW28114   3.275   1.365   7.748 -0.8609  0.1422 -0.0810
 5552SOL    HW128115   3.199   1.423   7.741 -0.9741  0.2047  1.4881
 5552SOL    HW228116   3.292   1.368   7.843 -0.8930 -0.5010 -0.0550
 5553SOL     OW28117   0.071   2.964  17.457  0.5108  0.3833 -0.6180
 5553SOL    HW128118   0.131   2.980  17.530  1.6981 -0.8907 -1.3150
 5553SOL    HW228119   0.051   3.053  17.428  1.2822  0.3947 -1.1383
 5554SOL     OW28120   4.509   0.234   7.381 -0.1825 -0.2495 -0.0889
 5554SOL    HW128121   4.543   0.270   7.463  0.3497  0.3825 -0.5837
 5554SOL    HW228122   4.421   0.265   7.399 -1.3529 -4.1899  0.9271
 5555SOL     OW28123   0.232   1.609   2.523 -0.4032  0.1161 -0.8662
 5555SOL    HW128124   0.148   1.622   2.566  1.8267  1.8569  2.8902
 5555SOL    HW228125   0.292   1.623   2.596  1.3451 -1.5216 -1.9772
 5556SOL     OW28126   0.937   1.819   9.081 -0.0798 -0.5325 -0.2347
 5556SOL    HW128127   1.007   1.758   9.104  1.0657  0.2348 -1.7078
 5556SOL    HW228128   0.984   1.902   9.080 -0.3666 -0.4023 -2.1691
 5557SOL     OW28129   3.726   0.254  15.840  0.3564 -0.1372  0.0272
 5557SOL    HW128130   3.820   0.237  15.849  0.3956  0.8103  1.4316
 5557SOL    HW228131   3.716   0.302  15.758 -1.7874  0.2488  0.5106
 5558SOL     OW28132   4.071   0.464   6.620 -0.5252 -0.4040  0.0048
 5558SOL    HW128133   4.096   0.440   6.708  0.1154 -0.5222 -0.2113
 5558SOL    HW228134   3.998   0.524   6.637 -0.0281  0.2880 -0.2712
 5559SOL     OW28135   2.877   0.971  10.661 -0.2489  0.1327 -0.4215
 5559SOL    HW128136   2.896   1.006  10.748  0.0810  0.6037 -0.6908
 5559SOL    HW228137   2.853   1.045  10.606  1.8437  2.0042  1.2200
 5560SOL     OW28138   0.891   1.190   1.140 -0.0737  0.2267  0.2281
 5560SOL    HW128139   0.829   1.117   1.132 -0.3658  0.3859  0.9470
 5560SOL    HW228140   0.942   1.185   1.060 -1.7946  0.9092 -0.9046
 5561SOL     OW28141   3.505   0.702   4.573  0.2273  0.0795  0.5793
 5561SOL    HW128142   3.442   0.704   4.501  1.7105 -0.1913 -0.7105
 5561SOL    HW228143   3.498   0.791   4.609 -0.0233  0.6494 -0.8815
 5562SOL     OW28144   0.707   1.950   8.457 -0.8413 -0.1330  0.2232
 5562SOL    HW128145   0.667   1.924   8.374 -0.8556 -0.4434  0.3286
 5562SOL    HW228146   0.746   2.034   8.435  1.1358 -1.2513 -0.5664
 5563SOL     OW28147   0.697   0.345   3.674 -0.2476 -0.2481  0.2337
 5563SOL    HW128148   0.644   0.307   3.744  2.8808 -4.0447  0.5097
 5563SOL    HW228149   0.633   0.366   3.606  0.3147  1.5162  0.2476
 5564SOL     OW28150   1.672   3.029  16.196  0.0354 -0.3065 -0.3740
 5564SOL    HW128151   1.730   2.953  16.198  1.7976  1.0840  0.9655
 5564SOL    HW228152   1.708   3.084  16.126 -0.3025 -0.5585 -0.7429
 5565SOL     OW28153   3.408   1.928   6.558  0.1164 -0.1380  0.2562
 5565SOL    HW128154   3.438   1.965   6.641  1.2370 -1.3115  0.3733
 5565SOL    HW228155   3.351   1.861   6.594 -0.1854  0.0672  0.1627
 5566SOL     OW28156   0.265   0.365   4.389  0.0375  0.4922  0.0480
 5566SOL    HW128157   0.260   0.461   4.381  0.5587  0.3470 -1.9785
 5566SOL    HW228158   0.284   0.353   4.482 -0.8624 -0.7555  0.0676
 5567SOL     OW28159   4.647   2.887   3.716  0.4825  0.4582 -0.0298
 5567SOL    HW128160   4.557   2.863   3.697  1.1703 -2.3167  0.2471
 5567SOL    HW228161   4.679   2.843   3.795  0.6544  2.4845  1.0307
 5568SOL     OW28162   4.461   1.631  12.069  0.2680 -0.3188  0.3664
 5568SOL    HW128163   4.510   1.556  12.036 -0.6913 -0.5657 -0.5151
 5568SOL    HW228164   4.371   1.607  12.047 -0.7360  1.4578  2.5136
 5569SOL     OW28165   3.862   0.592   8.847  0.2381  0.0997 -0.2808
 5569SOL    HW128166   3.879   0.641   8.767 -1.7479  1.3401  0.0548
 5569SOL    HW228167   3.860   0.505   8.807  2.3109  0.5686 -1.4090
 5570SOL     OW28168   2.872   4.322   7.121  0.1797  0.2992  0.1494
 5570SOL    HW128169   2.833   4.296   7.038  0.7127  0.6808 -0.2209
 5570SOL    HW228170   2.920   4.402   7.100  0.1685  0.0288 -0.8905
 5571SOL     OW28171   4.561   0.075   1.724 -0.7061  0.0168 -0.4922
 5571SOL    HW128172   4.634   0.065   1.785  0.3126 -0.0248 -1.7099
 5571SOL    HW228173   4.581   0.009   1.658 -0.9202  2.2242 -2.7688
 5572SOL     OW28174   4.484   1.243   0.725  0.2247  0.0468 -0.3982
 5572SOL    HW128175   4.435   1.190   0.788  0.5881  1.1642  0.8217
 5572SOL    HW228176   4.570   1.200   0.730  0.4616  0.4903 -0.6566
 5573SOL     OW28177   4.381   0.585   8.809 -0.2466  0.1364 -0.0684
 5573SOL    HW128178   4.297   0.620   8.837  0.5991 -0.1375  2.8244
 5573SOL    HW228179   4.345   0.549   8.727 -0.3287  1.3416 -0.5535
 5574SOL     OW28180   1.474   4.363  11.661 -0.1912 -0.9693  0.3886
 5574SOL    HW128181   1.506   4.417  11.589  1.3290 -0.7084  1.2621
 5574SOL    HW228182   1.470   4.275  11.622 -0.3117 -0.5656 -0.5256
 5575SOL     OW28183   1.362   2.693   3.413  0.4934 -0.3232  0.0477
 5575SOL    HW128184   1.313   2.710   3.494 -0.4251  1.6271 -0.9241
 5575SOL    HW228185   1.386   2.782   3.387  1.1507 -0.5832 -0.2597
 5576SOL     OW28186   3.182   3.874   8.920 -0.7539 -0.0196 -0.4026
 5576SOL    HW128187   3.102   3.821   8.927 -1.1964  0.5472 -1.0914
 5576SOL    HW228188   3.158   3.964   8.940 -0.1396  0.1303 -0.3394
 5577SOL     OW28189   3.744   3.687   9.635  0.3540 -0.6203  0.1589
 5577SOL    HW128190   3.783   3.615   9.587 -0.1310  0.5953 -2.0398
 5577SOL    HW228191   3.652   3.661   9.637  0.0384  0.4000 -0.8162
 5578SOL     OW28192   0.949   0.717   5.639 -0.4453  0.3207  0.2950
 5578SOL    HW128193   0.911   0.805   5.634  0.2291  0.5903 -0.0374
 5578SOL    HW228194   1.014   0.717   5.569  1.9508  0.8486  2.5225
 5579SOL     OW28195   3.023   3.061  14.762  0.0498 -0.0032  0.3305
 5579SOL    HW128196   2.945   3.046  14.708  1.9733  2.2675 -3.0625
 5579SOL    HW228197   3.023   3.154  14.782  0.5583 -0.0031  0.3267
 5580SOL     OW28198   4.165   1.305   3.714  0.0412 -0.6099 -0.7908
 5580SOL    HW128199   4.076   1.277   3.694 -0.1492  1.9258 -3.5984
 5580SOL    HW228200   4.194   1.214   3.719  0.0772 -0.5094  0.6927
 5581SOL     OW28201   2.627   4.316  15.613 -0.7037 -0.0140 -0.3286
 5581SOL    HW128202   2.721   4.303  15.623 -0.7842 -0.9181 -0.7913
 5581SOL    HW228203   2.612   4.274  15.528  1.4785 -0.7008 -0.3925
 5582SOL     OW28204   3.100   1.631   6.248 -0.2646  0.3511  0.3782
 5582SOL    HW128205   3.165   1.581   6.298 -0.3808  0.4897  0.6729
 5582SOL    HW228206   3.154   1.647   6.171  2.8268 -0.6852  2.3065
 5583SOL     OW28207   4.595   1.316   2.501  0.5385  0.0599  0.3069
 5583SOL    HW128208   4.624   1.370   2.427  2.8473 -0.1888  1.0274
 5583SOL    HW228209   4.622   1.231   2.468  1.1064 -0.1742  1.3693
 5584SOL     OW28210   1.513   0.606   2.516  0.4428  0.1441  0.0679
 5584SOL    HW128211   1.569   0.535   2.547  1.1739  1.5806  2.0053
 5584SOL    HW228212   1.433   0.571   2.554 -1.1903  2.0473 -1.6104
 5585SOL     OW28213   3.658   1.168  11.159 -0.5924  0.0023  0.0228
 5585SOL    HW128214   3.739   1.156  11.209 -0.5424 -1.5095 -0.4106
 5585SOL    HW228215   3.602   1.168  11.237  0.8688 -1.1975  1.0632
 5586SOL     OW28216   0.281   3.555   4.440  0.3067 -0.7013 -0.3922
 5586SOL    HW128217   0.233   3.638   4.441 -1.6108 -1.8337  2.2937
 5586SOL    HW228218   0.224   3.501   4.385 -0.3604  0.9270 -1.3088
 5587SOL     OW28219   1.989   0.915  17.251 -0.7067 -0.1137 -0.3416
 5587SOL    HW128220   2.046   0.839  17.238  0.8790  0.9556  0.5160
 5587SOL    HW228221   2.004   0.937  17.342 -0.1531  0.5971 -0.6059
 5588SOL     OW28222   2.883   0.025   3.611  0.4963  0.8037  0.3158
 5588SOL    HW128223   2.838   4.665   3.625 -0.9890  1.2393 -2.0016
 5588SOL    HW228224   2.865   0.033   3.517 -0.2269 -4.0994  0.0681
 5589SOL     OW28225   1.402   0.916   1.970  0.1082 -0.1090  0.5500
 5589SOL    HW128226   1.307   0.918   1.959  0.4688  3.5344 -2.3242
 5589SOL    HW228227   1.412   1.003   2.009  0.7100  0.7438 -1.4770
 5590SOL     OW28228   1.210   0.426   3.607  0.2885 -0.6175  0.2448
 5590SOL    HW128229   1.136   0.383   3.649 -0.3030 -1.0020 -1.1986
 5590SOL    HW228230   1.165   0.473   3.537  0.9098 -1.2182 -0.5605
 5591SOL     OW28231   0.273   3.730   3.693  0.2437 -0.0037 -0.2914
 5591SOL    HW128232   0.237   3.697   3.610 -1.4885 -0.3616  0.5916
 5591SOL    HW228233   0.359   3.689   3.689  0.8846  1.2395  0.8810
 5592SOL     OW28234   2.502   3.434   4.199 -0.8101 -0.3018 -0.5433
 5592SOL    HW128235   2.481   3.441   4.106  3.1026 -0.3132 -1.4040
 5592SOL    HW228236   2.522   3.526   4.221 -1.0411 -0.5523  0.7098
 5593SOL     OW28237   0.308   2.951   7.095 -0.1952 -0.3276  0.3558
 5593SOL    HW128238   0.238   2.989   7.043  1.4289  1.0049 -0.8345
 5593SOL    HW228239   0.295   2.857   7.081  1.8886 -0.6981  0.8400
 5594SOL     OW28240   1.867   2.778   5.461  0.0064 -0.0441 -0.3469
 5594SOL    HW128241   1.803   2.772   5.390  0.4123 -2.6741 -0.4980
 5594SOL    HW228242   1.950   2.742   5.430 -0.9979 -2.3570 -0.3401
 5595SOL     OW28243   3.902   3.919   2.522 -0.0725  0.2166 -0.3182
 5595SOL    HW128244   3.987   3.938   2.483  1.0496 -1.8351  1.1205
 5595SOL    HW228245   3.870   4.009   2.535 -0.6126 -0.1851  1.1242
 5596SOL     OW28246   4.503   4.285   3.192 -0.0022 -0.4591 -0.7524
 5596SOL    HW128247   4.571   4.275   3.258  0.8637  0.3087 -1.5199
 5596SOL    HW228248   4.503   4.378   3.168 -1.4505  0.4628  2.8704
 5597SOL     OW28249   3.779   0.802   6.856 -0.0292  0.9906  0.2270
 5597SOL    HW128250   3.865   0.821   6.894  0.5568 -1.3291  0.0871
 5597SOL    HW228251   3.731   0.885   6.853 -0.8979  0.4894  0.1988
 5598SOL     OW28252   1.066   4.392   3.227  0.3569  0.1123  0.3151
 5598SOL    HW128253   1.139   4.421   3.172 -0.3491  0.9590 -0.1799
 5598SOL    HW228254   1.092   4.301   3.240 -1.4215 -0.6450 -1.4536
 5599SOL     OW28255   1.265   1.742   2.828 -0.0909 -0.7469  0.1444
 5599SOL    HW128256   1.230   1.682   2.894  1.2882 -0.4554  1.1377
 5599SOL    HW228257   1.280   1.678   2.759 -1.4456  0.9046 -1.6922
 5600SOL     OW28258   0.061   1.123   0.534  0.3924  0.3889 -0.3521
 5600SOL    HW128259   0.120   1.049   0.546  1.4495  1.7039  2.5430
 5600SOL    HW228260   0.100   1.150   0.451  0.2747 -1.4379 -1.0020
 5601SOL     OW28261   2.088   2.914   6.353  0.1447 -0.0988  0.0666
 5601SOL    HW128262   2.077   2.999   6.395 -0.2038  0.0736 -0.3706
 5601SOL    HW228263   2.057   2.940   6.266  0.4165  1.1737  0.3514
 5602SOL     OW28264   2.771   0.355   6.255 -0.3186 -0.0762 -0.5498
 5602SOL    HW128265   2.793   0.277   6.204  1.3170 -0.9710  1.4680
 5602SOL    HW228266   2.824   0.342   6.334  0.6083 -0.4249 -1.2216
 5603SOL     OW28267   4.439   0.709   1.055  0.9648  0.7676  0.0367
 5603SOL    HW128268   4.512   0.654   1.085 -0.5386  0.4542  3.1262
 5603SOL    HW228269   4.371   0.642   1.044  0.9257  0.9486 -0.8062
 5604SOL     OW28270   4.647   1.130  14.507 -0.2477 -0.5217  0.3175
 5604SOL    HW128271   4.693   1.064  14.558 -1.1947 -0.9959  0.5515
 5604SOL    HW228272   4.604   1.070  14.446  1.3691 -1.2143 -0.1422
 5605SOL     OW28273   1.528   1.919   4.894  0.0602  0.0556 -0.6536
 5605SOL    HW128274   1.435   1.911   4.915  0.0912 -0.2501 -0.6322
 5605SOL    HW228275   1.549   2.003   4.936  0.5019 -0.4651  0.1746
 5606SOL     OW28276   2.620   3.269  13.726  0.1184 -0.1145 -0.7712
 5606SOL    HW128277   2.643   3.183  13.691 -0.4242  0.3669 -2.3144
 5606SOL    HW228278   2.531   3.285  13.693 -0.7236 -0.2830  1.4089
 5607SOL     OW28279   1.035   4.174   9.141  0.0449  0.0584 -0.7237
 5607SOL    HW128280   1.045   4.213   9.228  3.0780 -1.2200 -0.4912
 5607SOL    HW228281   0.957   4.123   9.161 -0.0171  0.5404  0.2900
 5608SOL     OW28282   4.126   0.381   2.348 -0.0191 -0.2031 -0.2916
 5608SOL    HW128283   4.049   0.437   2.360  0.9895  0.9509  0.7642
 5608SOL    HW228284   4.169   0.378   2.433 -0.4444 -2.6270 -0.1655
 5609SOL     OW28285   4.207   0.018   4.365  0.0645 -0.2525 -0.4287
 5609SOL    HW128286   4.155   0.097   4.346  0.7814  0.1571 -0.7274
 5609SOL    HW228287   4.217   0.020   4.460  1.3522  2.6778 -0.6211
 5610SOL     OW28288   2.423   4.269   5.758 -0.7363 -0.7702  0.3366
 5610SOL    HW128289   2.403   4.357   5.791 -1.6277 -1.3832  1.4732
 5610SOL    HW228290   2.440   4.287   5.666  1.6120 -2.1153  0.4991
 5611SOL     OW28291   2.998   1.220  15.031  0.3502 -0.2181  0.8435
 5611SOL    HW128292   3.027   1.309  15.051  1.8946  0.0582 -2.5537
 5611SOL    HW228293   2.907   1.233  15.002  0.8594 -1.2551 -1.1965
 5612SOL     OW28294   4.279   3.475  13.874  0.1494  0.2653 -0.2748
 5612SOL    HW128295   4.366   3.495  13.908 -0.6929  1.0704  1.4379
 5612SOL    HW228296   4.296   3.479  13.780  0.3249 -1.6504 -0.3345
 5613SOL     OW28297   3.067   1.462   2.016 -0.0845  0.4828 -0.0502
 5613SOL    HW128298   2.981   1.478   2.055 -0.3744 -1.7732  0.2474
 5613SOL    HW228299   3.087   1.368   2.018  1.0837  0.6578 -2.7973
 5614SOL     OW28300   2.464   1.266  11.509  0.7950 -0.0324  0.2052
 5614SOL    HW128301   2.407   1.254  11.585 -1.1228  1.4463 -1.0127
 5614SOL    HW228302   2.465   1.361  11.508  2.2574 -0.0333  2.8372
 5615SOL     OW28303   3.212   3.347   8.913 -0.3349 -0.0838  0.2928
 5615SOL    HW128304   3.145   3.295   8.959  0.8275  0.5879  2.7855
 5615SOL    HW228305   3.163   3.350   8.831 -2.1106 -1.5427  1.2842
 5616SOL     OW28306   2.736   2.946  11.463 -0.4260 -0.1096 -0.0045
 5616SOL    HW128307   2.734   2.920  11.371 -0.8340 -2.9804  0.8256
 5616SOL    HW228308   2.662   3.006  11.476 -1.4438 -1.0231 -1.6150
 5617SOL     OW28309   1.820   1.799  10.256 -0.2863 -0.4262  0.1356
 5617SOL    HW128310   1.875   1.729  10.289 -0.3673 -0.9744 -0.8813
 5617SOL    HW228311   1.799   1.845  10.337 -0.8542  0.1094 -0.3159
 5618SOL     OW28312   0.188   0.487   0.349  0.0497 -0.0080  0.8508
 5618SOL    HW128313   0.169   0.397   0.323 -1.2915  1.2788 -2.5005
 5618SOL    HW228314   0.241   0.514   0.274 -0.4610 -4.2918 -1.0440
 5619SOL     OW28315   2.255   1.546   7.459 -0.1215 -0.2504 -0.1365
 5619SOL    HW128316   2.332   1.505   7.420  0.4399  0.2993  0.3865
 5619SOL    HW228317   2.186   1.519   7.399 -1.1458 -2.3647  1.9838
 5620SOL     OW28318   4.149   3.032   1.184 -0.2175  0.3039 -0.2601
 5620SOL    HW128319   4.199   3.019   1.103  2.1457  0.5132  1.1573
 5620SOL    HW228320   4.098   2.951   1.179 -0.3767  0.4701 -1.3531
 5621SOL     OW28321   0.221   3.008   3.805 -0.0988  0.3356 -0.3453
 5621SOL    HW128322   0.305   2.965   3.823  1.4776  3.0480 -1.1328
 5621SOL    HW228323   0.212   2.984   3.712 -0.2905 -0.3752 -0.1420
 5622SOL     OW28324   0.532   0.398   4.952 -0.2888  0.0593 -0.3546
 5622SOL    HW128325   0.539   0.311   4.915  3.8138 -0.2154  1.0333
 5622SOL    HW228326   0.626   0.416   4.956 -0.6023  1.8298 -0.9289
 5623SOL     OW28327   3.014   2.457  12.927 -0.2260  0.2457  0.3013
 5623SOL    HW128328   2.983   2.468  12.837 -2.2338 -0.1277  0.9339
 5623SOL    HW228329   3.103   2.433  12.901 -0.4235  1.0381 -1.0552
 5624SOL     OW28330   1.938   1.666  17.258 -0.1547  0.2695  0.5432
 5624SOL    HW128331   2.015   1.674  17.202  0.2085  0.7674  1.1077
 5624SOL    HW228332   1.929   1.751  17.300  1.0459  1.2940 -1.2528
 5625SOL     OW28333   2.773   3.905   5.589  0.0732 -0.2412  0.5868
 5625SOL    HW128334   2.832   3.855   5.534 -0.3437 -2.4081  2.0808
 5625SOL    HW228335   2.838   3.960   5.633  1.3664 -0.1894 -1.4106
 5626SOL     OW28336   2.417   0.495  16.203  0.0227  0.4082  0.2933
 5626SOL    HW128337   2.344   0.520  16.259  1.4342 -1.0978  2.7887
 5626SOL    HW228338   2.380   0.460  16.122 -0.2151 -0.1585  0.6493
 5627SOL     OW28339   1.155   1.240  16.556 -0.0773 -0.1937 -0.5254
 5627SOL    HW128340   1.207   1.273  16.630 -0.5974  0.2439 -0.3462
 5627SOL    HW228341   1.104   1.170  16.597  0.2539  1.1814  2.2270
 5628SOL     OW28342   0.487   0.240  12.455  0.2104  0.3467  0.8662
 5628SOL    HW128343   0.471   0.147  12.471  0.7675 -0.1744 -1.6299
 5628SOL    HW228344   0.446   0.280  12.532 -1.2059 -0.7157  0.6748
 5629SOL     OW28345   4.689   3.105   3.561 -0.0267 -0.0367  0.2404
 5629SOL    HW128346   4.681   3.032   3.623 -0.1721  0.0856  0.3628
 5629SOL    HW228347   4.601   3.139   3.573 -1.4246 -3.9663  1.2474
 5630SOL     OW28348   4.245   1.649   6.661  0.0381  0.3174  0.1659
 5630SOL    HW128349   4.300   1.629   6.585  1.0795 -1.1189  1.3126
 5630SOL    HW228350   4.214   1.734   6.630 -1.9168 -1.1639 -1.9955
 5631SOL     OW28351   3.793   2.638  15.844  0.4533 -0.4476 -0.2251
 5631SOL    HW128352   3.730   2.567  15.834 -2.2631  2.1069 -1.1742
 5631SOL    HW228353   3.833   2.650  15.758  4.0638  1.0399  1.6640
 5632SOL     OW28354   1.523   3.348   5.583 -0.2661 -0.2972 -0.0553
 5632SOL    HW128355   1.589   3.291   5.623  0.1977 -0.1555 -0.6147
 5632SOL    HW228356   1.514   3.430   5.631 -2.3016 -0.6516  0.1973
 5633SOL     OW28357   1.736   3.403   8.748 -0.0492 -0.5183 -0.4763
 5633SOL    HW128358   1.729   3.424   8.655 -2.0836 -1.1711 -0.4642
 5633SOL    HW228359   1.648   3.413   8.784  0.3881  2.3708 -0.2444
 5634SOL     OW28360   2.739   2.102   2.799 -0.1866  0.5570  0.2926
 5634SOL    HW128361   2.756   2.072   2.888 -1.0048 -0.2563  0.1671
 5634SOL    HW228362   2.801   2.059   2.740 -0.9127 -0.4375  0.2651
 5635SOL     OW28363   3.149   4.361  17.571  0.2330  0.1182 -0.7070
 5635SOL    HW128364   3.119   4.451  17.579 -0.1223  0.1371 -2.3207
 5635SOL    HW228365   3.098   4.332  17.496  0.1409 -1.9459  0.1510
 5636SOL     OW28366   0.252   0.921   1.851  0.0468  0.4123  0.3997
 5636SOL    HW128367   0.199   0.993   1.816  2.1619  2.5560  1.6305
 5636SOL    HW228368   0.272   0.866   1.774  4.2979  2.1117  0.3122
 5637SOL     OW28369   1.886   3.167   3.429 -0.0404 -0.0151 -0.0946
 5637SOL    HW128370   1.893   3.204   3.341  0.6998  2.6435  1.0668
 5637SOL    HW228371   1.844   3.083   3.412  0.3528 -0.6667  2.1324
 5638SOL     OW28372   0.949   2.842   4.550 -0.9939  0.5225 -0.3627
 5638SOL    HW128373   0.920   2.891   4.473  0.0262 -0.6008 -1.4392
 5638SOL    HW228374   0.868   2.823   4.597 -0.4345 -2.2013 -0.5323
 5639SOL     OW28375   1.006   3.916   6.987 -0.1788 -0.9036 -0.2669
 5639SOL    HW128376   1.095   3.894   7.014 -0.2892  0.1539  0.9169
 5639SOL    HW228377   0.939   3.885   7.048 -1.7261  0.2396 -1.3916
 5640SOL     OW28378   3.419   4.239   4.378  0.1107 -0.2745 -0.6519
 5640SOL    HW128379   3.490   4.296   4.407  1.2486 -2.7714  1.3937
 5640SOL    HW228380   3.351   4.293   4.417 -0.0424 -1.3770  0.5986
 5641SOL     OW28381   3.554   2.212   2.431  0.2559  0.0049 -0.2780
 5641SOL    HW128382   3.508   2.239   2.352 -1.1414  0.1505  0.5934
 5641SOL    HW228383   3.545   2.289   2.486  0.8702  0.7174 -1.1667
 5642SOL     OW28384   0.245   4.686  14.461 -0.0481 -0.3730 -0.2963
 5642SOL    HW128385   0.219   0.055  14.448 -0.2555 -0.3347  0.4426
 5642SOL    HW228386   0.174   4.654  14.516 -0.2004 -0.2702 -0.4327
 5643SOL     OW28387   0.109   2.609   3.174 -0.4937 -0.6441 -0.5005
 5643SOL    HW128388   0.132   2.532   3.226  0.1932  0.6481  1.1267
 5643SOL    HW228389   0.189   2.604   3.122  0.4874  1.1466  0.8244
 5644SOL     OW28390   0.997   3.699   1.835 -0.0452  0.3897 -0.5967
 5644SOL    HW128391   0.911   3.683   1.795  1.3297 -1.4116 -2.8480
 5644SOL    HW228392   0.978   3.653   1.917  0.3901  0.3362 -0.5278
 5645SOL     OW28393   4.544   3.307  11.880 -0.3549 -0.7035 -0.6657
 5645SOL    HW128394   4.533   3.402  11.872  2.4804 -0.1861  1.3720
 5645SOL    HW228395   4.464   3.269  11.844 -0.0786  0.4648 -2.4607
 5646SOL     OW28396   4.046   2.659  13.514  0.0939  0.0027  0.4780
 5646SOL    HW128397   4.121   2.632  13.567  0.6165  2.9235  1.2060
 5646SOL    HW228398   3.983   2.595  13.547  0.6852  0.3116  2.2030
 5647SOL     OW28399   3.924   3.741   6.588  0.1131 -0.2780  0.3768
 5647SOL    HW128400   3.843   3.740   6.536  0.1234 -0.7220  0.3641
 5647SOL    HW228401   3.906   3.670   6.651  1.1175  0.4639  1.4880
 5648SOL     OW28402   1.222   1.042   5.606  0.3216  0.0525  0.0364
 5648SOL    HW128403   1.219   0.956   5.564 -0.9341  0.4266 -0.6421
 5648SOL    HW228404   1.235   1.031   5.700 -1.0036  0.6750  0.2954
 5649SOL     OW28405   0.504   0.413   8.062  0.6810  0.4325  0.5309
 5649SOL    HW128406   0.497   0.496   8.110 -1.2053  0.1270  0.7710
 5649SOL    HW228407   0.439   0.364   8.111  2.6519 -0.8252  1.8771
 5650SOL     OW28408   0.378   1.186   0.452  0.1637  0.7929 -0.3846
 5650SOL    HW128409   0.319   1.260   0.435  0.9326  0.8554 -2.8078
 5650SOL    HW228410   0.385   1.186   0.547 -2.1468  1.6070 -0.2050
 5651SOL     OW28411   1.649   1.665   2.665 -0.1154 -0.2306 -0.0089
 5651SOL    HW128412   1.707   1.592   2.686 -1.9807 -1.3561  1.2313
 5651SOL    HW228413   1.654   1.666   2.569 -1.5505 -2.0940 -0.1184
 5652SOL     OW28414   2.710   1.992   5.403 -0.4614  0.5393  0.1436
 5652SOL    HW128415   2.689   1.949   5.485  0.0680 -1.6495 -0.8611
 5652SOL    HW228416   2.743   1.921   5.347 -0.7252  1.0435 -0.6598
 5653SOL     OW28417   1.984   1.101   7.193  0.5207 -0.6926 -0.0815
 5653SOL    HW128418   2.049   1.098   7.264  1.3643 -1.3588 -0.8914
 5653SOL    HW228419   1.924   1.031   7.218 -1.6374  1.7824  1.6699
 5654SOL     OW28420   3.595   1.807   1.549  0.4319 -0.6223  0.0373
 5654SOL    HW128421   3.564   1.838   1.634  0.1646  1.0831 -0.6769
 5654SOL    HW228422   3.520   1.767   1.505 -0.0583  1.9803 -1.5127
 5655SOL     OW28423   3.280   3.836   6.837  0.2903 -0.1097 -0.1667
 5655SOL    HW128424   3.370   3.807   6.854  0.4474  0.6618  0.3079
 5655SOL    HW228425   3.242   3.822   6.924  1.4748 -0.9754  0.2141
 5656SOL     OW28426   0.100   1.848   0.962  0.0183  0.0162 -0.3221
 5656SOL    HW128427   0.181   1.799   0.948 -0.1665 -0.4543  0.2884
 5656SOL    HW228428   0.096   1.894   0.878 -1.9362  2.0989  0.8931
 5657SOL     OW28429   4.290   2.100  10.421  0.5304  0.1206  0.1029
 5657SOL    HW128430   4.212   2.155  10.430  0.9176  0.9115 -1.3588
 5657SOL    HW228431   4.281   2.052  10.503  1.6430  0.0620  0.1941
 5658SOL     OW28432   3.244   1.947  14.337 -0.2864 -0.1577 -0.5127
 5658SOL    HW128433   3.297   2.017  14.297  1.1347 -1.7348 -1.3710
 5658SOL    HW228434   3.313   1.882  14.329  0.9242  1.0697 -0.0416
 5659SOL     OW28435   4.522   3.650   5.358 -0.3924  0.2201 -0.1228
 5659SOL    HW128436   4.457   3.709   5.320 -1.0765 -0.7511 -0.4647
 5659SOL    HW228437   4.512   3.577   5.297  0.5962 -1.6060  1.9174
 5660SOL     OW28438   0.374   1.086   3.620 -0.7130  0.0574 -0.0774
 5660SOL    HW128439   0.373   1.181   3.612 -2.3537  0.0176 -0.2542
 5660SOL    HW228440   0.378   1.075   3.525 -1.0456  1.0094 -0.2077
 5661SOL     OW28441   4.080   1.462   0.415 -0.4664  0.6975  0.6161
 5661SOL    HW128442   4.099   1.499   0.329  0.6733  1.3452  1.1485
 5661SOL    HW228443   3.991   1.492   0.432 -1.3115 -0.6562 -1.3873
 5662SOL     OW28444   0.422   1.610   8.621 -0.1709  0.6221  0.8494
 5662SOL    HW128445   0.383   1.564   8.695  1.7824 -0.0408  1.4619
 5662SOL    HW228446   0.406   1.548   8.551  0.9284  1.7611 -0.3996
 5663SOL     OW28447   1.585   3.767   5.914  0.8008  0.5475  0.4596
 5663SOL    HW128448   1.612   3.736   6.001  0.5794  0.0334  0.3462
 5663SOL    HW228449   1.498   3.798   5.935 -0.0846 -0.8366 -1.1450
 5664SOL     OW28450   4.487   2.030  16.285 -0.0358 -0.0837  0.2995
 5664SOL    HW128451   4.460   1.972  16.214  1.5108 -1.2860  0.7073
 5664SOL    HW228452   4.508   1.970  16.356 -0.8121  0.1937  0.7729
 5665SOL     OW28453   3.628   0.430   5.538 -0.4263  0.1296  0.4405
 5665SOL    HW128454   3.579   0.432   5.456 -2.0355 -3.2308  1.3150
 5665SOL    HW228455   3.580   0.365   5.589  1.3439  0.1683  2.1903
 5666SOL     OW28456   0.768   0.150   5.172 -0.0707 -0.1752 -0.3770
 5666SOL    HW128457   0.728   0.218   5.118 -1.5132 -1.3536 -0.7762
 5666SOL    HW228458   0.709   0.076   5.161  2.0798 -1.6686 -1.8484
 5667SOL     OW28459   2.691   0.017   5.246 -0.0672 -0.2041  0.4214
 5667SOL    HW128460   2.731   4.721   5.331 -1.5282 -0.3558  1.0609
 5667SOL    HW228461   2.735   4.666   5.204 -1.8330 -1.4580  0.7915
 5668SOL     OW28462   4.527   4.161   2.086 -0.3332 -0.4954 -0.0620
 5668SOL    HW128463   4.599   4.101   2.105 -0.7905 -1.9740 -3.0083
 5668SOL    HW228464   4.561   4.231   2.142 -1.5915  0.9018 -1.0290
 5669SOL     OW28465   4.039   1.283   2.036  0.1432  0.2329  0.6223
 5669SOL    HW128466   4.090   1.328   2.103 -0.3377  0.7999  0.6037
 5669SOL    HW228467   4.016   1.352   1.974 -0.1212  0.7486  1.3053
 5670SOL     OW28468   1.439   4.482   4.444 -0.4484 -0.3794  0.1728
 5670SOL    HW128469   1.358   4.512   4.484 -0.6697  0.4999 -0.9274
 5670SOL    HW228470   1.426   4.387   4.449 -1.6968 -0.2619 -0.7091
 5671SOL     OW28471   1.443   2.059   6.594  1.3053 -0.2367 -0.4904
 5671SOL    HW128472   1.482   2.122   6.534 -0.0432  1.6739  0.6385
 5671SOL    HW228473   1.358   2.103   6.600 -0.0456 -2.6201 -2.3289
 5672SOL     OW28474   1.702   3.690   3.951  0.1225 -0.0188  0.0043
 5672SOL    HW128475   1.787   3.657   3.924  1.0300  2.1544  0.2130
 5672SOL    HW228476   1.648   3.614   3.974  3.3737 -2.5292 -0.7660
 5673SOL     OW28477   0.473   0.452   9.069 -0.1652 -0.3269  0.2795
 5673SOL    HW128478   0.471   0.540   9.108  1.6274 -1.1854  2.2810
 5673SOL    HW228479   0.559   0.428   9.102 -1.1310 -1.9132  1.6652
 5674SOL     OW28480   0.754   0.815   7.486  0.3757  0.1612  0.0885
 5674SOL    HW128481   0.701   0.881   7.531 -0.3435  1.6341 -2.9190
 5674SOL    HW228482   0.779   0.870   7.412  0.4677  0.3181  0.2349
 5675SOL     OW28483   2.948   0.236   7.563  0.3237 -0.3495  0.7584
 5675SOL    HW128484   2.945   0.308   7.627 -1.8658 -2.2836  2.8113
 5675SOL    HW228485   2.959   0.167   7.628  0.6240 -0.9532  0.0665
 5676SOL     OW28486   2.325   3.235  11.674  0.4378  0.0811 -0.4080
 5676SOL    HW128487   2.253   3.187  11.714  1.0882 -0.4855  0.1018
 5676SOL    HW228488   2.295   3.323  11.656 -0.2208 -0.2573 -0.9625
 5677SOL     OW28489   1.425   4.377   3.613 -0.1343 -0.3539 -0.0987
 5677SOL    HW128490   1.481   4.420   3.678  0.8460  0.1663 -1.2641
 5677SOL    HW228491   1.340   4.418   3.631  0.5630  0.5962  1.0844
 5678SOL     OW28492   3.649   0.066   3.394 -0.5448  0.1531  0.2368
 5678SOL    HW128493   3.719   0.045   3.457 -1.8015  0.9555  1.9019
 5678SOL    HW228494   3.652   0.162   3.390 -1.2051  0.1222 -0.8034
 5679SOL     OW28495   2.455   1.926   7.970 -0.4939 -0.0192  0.0515
 5679SOL    HW128496   2.480   1.912   7.878 -2.9554 -1.7805 -0.3549
 5679SOL    HW228497   2.542   1.914   8.009  0.2934 -0.1245 -1.7054
 5680SOL     OW28498   3.883   1.450   8.344 -0.1111  0.2241  0.0511
 5680SOL    HW128499   3.895   1.403   8.262  0.5709 -1.8925  1.3804
 5680SOL    HW228500   3.877   1.379   8.408 -0.3059  1.9964  1.9981
 5681SOL     OW28501   0.732   1.735   0.706 -0.3139  0.0219 -0.4174
 5681SOL    HW128502   0.645   1.700   0.724  0.5687 -1.9003  0.1162
 5681SOL    HW228503   0.708   1.788   0.630 -0.9239  0.0066 -0.2298
 5682SOL     OW28504   1.904   2.262  11.893 -0.0753 -0.4610  0.0370
 5682SOL    HW128505   1.855   2.180  11.881 -1.4233  0.2291  0.7992
 5682SOL    HW228506   1.987   2.235  11.854 -0.3407 -0.7267 -0.3483
 5683SOL     OW28507   0.207   1.977   7.786 -0.3643 -0.4574  0.0058
 5683SOL    HW128508   0.168   1.931   7.712  0.0695  2.3471 -1.9671
 5683SOL    HW228509   0.210   1.907   7.851  0.1360  0.7239  1.2711
 5684SOL     OW28510   4.377   1.421   8.692 -0.2694 -0.0628  0.3494
 5684SOL    HW128511   4.439   1.426   8.620 -0.5060  3.1541  0.3827
 5684SOL    HW228512   4.313   1.357   8.658  0.0691 -0.2432  0.0509
 5685SOL     OW28513   3.091   4.525   3.005 -0.5850 -0.3958  0.2908
 5685SOL    HW128514   3.175   4.503   3.046 -1.1249 -0.5006  1.3420
 5685SOL    HW228515   3.118   4.549   2.916 -0.7280  1.9447  0.8854
 5686SOL     OW28516   0.566   0.479   2.912 -0.5625  0.3732 -0.4759
 5686SOL    HW128517   0.503   0.505   2.845 -0.0250 -0.1005 -1.1642
 5686SOL    HW228518   0.546   0.546   2.978 -0.3755 -1.2048  1.1948
 5687SOL     OW28519   1.433   2.752   5.821  0.0727 -0.3178  0.1220
 5687SOL    HW128520   1.437   2.842   5.790 -1.9615 -0.5639 -0.8265
 5687SOL    HW228521   1.483   2.758   5.902  0.6656  1.4043 -0.3933
 5688SOL     OW28522   3.334   1.035   8.814 -0.4690  0.5663  0.6208
 5688SOL    HW128523   3.265   1.100   8.810 -0.2346  0.7666 -0.1065
 5688SOL    HW228524   3.307   0.985   8.891 -1.5705 -0.8072 -0.6550
 5689SOL     OW28525   2.806   2.189   8.015  0.0785  0.0378  0.2653
 5689SOL    HW128526   2.794   2.244   8.092 -0.8331 -1.8234  1.4685
 5689SOL    HW228527   2.900   2.175   8.023  0.2606  1.3612  0.4182
 5690SOL     OW28528   2.899   1.938   2.637  0.7879 -0.2962 -0.0297
 5690SOL    HW128529   2.942   1.923   2.553 -1.4172  0.6565 -1.3401
 5690SOL    HW228530   2.840   1.863   2.648 -0.4534  0.8000  0.8039
 5691SOL     OW28531   1.658   2.961   7.988 -0.1410 -0.1030 -0.2903
 5691SOL    HW128532   1.646   3.039   7.934 -0.8874 -0.2280 -0.2939
 5691SOL    HW228533   1.749   2.951   7.959 -0.5760  1.2385 -2.0895
 5692SOL     OW28534   2.927   3.397  11.002 -0.0785 -0.5619  0.3314
 5692SOL    HW128535   2.892   3.453  10.932  1.1750 -0.2851 -0.0721
 5692SOL    HW228536   2.938   3.314  10.956 -3.3647 -0.6893 -0.2192
 5693SOL     OW28537   2.642   4.646  12.258  0.7737  0.1167  0.5310
 5693SOL    HW128538   2.647   0.019  12.255  0.5570  0.0935 -0.7200
 5693SOL    HW228539   2.588   4.645  12.179  0.1397  1.4251  0.9405
 5694SOL     OW28540   1.176   3.913  10.947  0.2628 -0.1519  0.2939
 5694SOL    HW128541   1.113   3.961  11.000  2.0882  0.2185  2.1149
 5694SOL    HW228542   1.124   3.914  10.866  1.9624  3.3395 -0.7603
 5695SOL     OW28543   4.391   2.406   5.857  0.1312  0.5041 -0.5095
 5695SOL    HW128544   4.414   2.498   5.866 -0.6031  0.2725  3.6489
 5695SOL    HW228545   4.296   2.416   5.862  0.0098  0.0122 -1.8574
 5696SOL     OW28546   4.493   0.301   1.893 -0.4699 -0.1902 -0.0283
 5696SOL    HW128547   4.494   0.242   1.968  1.4239  1.1597  0.9963
 5696SOL    HW228548   4.527   0.249   1.821  0.0713  0.6086 -0.3411
 5697SOL     OW28549   0.869   2.492   4.723 -0.0953  0.1832  0.3032
 5697SOL    HW128550   0.962   2.469   4.713 -0.0949 -0.6902  2.3154
 5697SOL    HW228551   0.825   2.442   4.654 -0.4260 -0.6215  1.1073
 5698SOL     OW28552   2.155   2.561  10.794 -0.4046  0.1839 -0.5695
 5698SOL    HW128553   2.189   2.601  10.875  1.0973 -2.1248 -0.0454
 5698SOL    HW228554   2.078   2.617  10.784 -0.4626  0.4046  0.9997
 5699SOL     OW28555   3.582   3.205   4.661  0.6124  0.3340  0.0976
 5699SOL    HW128556   3.615   3.163   4.740 -0.4467  1.0163  0.9011
 5699SOL    HW228557   3.489   3.185   4.660  0.8213 -0.6147 -0.3736
 5700SOL     OW28558   4.160   1.232   8.720 -0.1532 -0.1270 -0.1323
 5700SOL    HW128559   4.137   1.240   8.813  0.0915  0.9263 -0.1618
 5700SOL    HW228560   4.088   1.189   8.674 -1.9502  0.8670  1.7798
 5701SOL     OW28561   1.611   1.067  13.474  0.7091  0.4707 -0.1016
 5701SOL    HW128562   1.594   1.004  13.543  1.4978 -2.1026 -2.2333
 5701SOL    HW228563   1.554   1.139  13.499  1.1945  0.8791 -0.1673
 5702SOL     OW28564   2.430   2.704   4.276 -0.6136  0.4864 -0.1292
 5702SOL    HW128565   2.406   2.707   4.183 -0.9534 -1.8133 -0.1190
 5702SOL    HW228566   2.490   2.778   4.273  0.6823 -0.5420  0.3046
 5703SOL     OW28567   4.422   2.176   5.964  0.6462  0.4776 -0.1436
 5703SOL    HW128568   4.487   2.149   5.899  3.2414  1.7729  1.9236
 5703SOL    HW228569   4.422   2.270   5.944 -1.3369  0.5955  0.4030
 5704SOL     OW28570   1.287   3.847   4.348  0.3264 -0.2705  0.2532
 5704SOL    HW128571   1.303   3.762   4.387  2.1396  0.8862  2.0203
 5704SOL    HW228572   1.359   3.841   4.285  1.6998 -1.9814  2.0164
 5705SOL     OW28573   0.070   4.571   6.794 -0.5237 -0.0281  0.0015
 5705SOL    HW128574   0.066   4.623   6.874  2.5395  0.5046 -0.2009
 5705SOL    HW228575   0.165   4.569   6.780 -0.5031 -1.9480  0.4464
 5706SOL     OW28576   0.782   3.644   5.279 -0.2308 -0.3084  0.3233
 5706SOL    HW128577   0.861   3.687   5.249 -0.5922  2.6421  3.5859
 5706SOL    HW228578   0.791   3.637   5.374 -0.5895  2.0002  0.5259
 5707SOL     OW28579   2.708   2.770  10.955  0.2427  0.5446 -0.0830
 5707SOL    HW128580   2.766   2.722  10.896  0.5594 -0.8979  1.4150
 5707SOL    HW228581   2.721   2.861  10.928  0.4158  0.7539  0.7116
 5708SOL     OW28582   4.648   2.598   2.569  0.9569  0.1429 -0.8046
 5708SOL    HW128583   4.589   2.626   2.639 -0.1598 -0.3699 -1.5504
 5708SOL    HW228584   4.638   2.670   2.507  2.5603  0.2166 -0.9959
 5709SOL     OW28585   3.236   1.155   5.845 -0.3336 -0.1414 -0.0814
 5709SOL    HW128586   3.286   1.187   5.920 -0.6429  1.7939 -0.6812
 5709SOL    HW228587   3.225   1.232   5.789  2.0300 -1.1076 -1.8135
 5710SOL     OW28588   2.418   0.768   2.947  0.9611 -0.9299  0.2542
 5710SOL    HW128589   2.507   0.734   2.941  2.0517  1.7150  1.2636
 5710SOL    HW228590   2.402   0.804   2.860 -0.4736  0.7468  1.2203
 5711SOL     OW28591   0.457   1.063   5.056  0.1952 -0.3822  0.3297
 5711SOL    HW128592   0.399   1.005   5.105  1.2504 -1.2961  0.5283
 5711SOL    HW228593   0.536   1.069   5.111  0.5219 -0.1145 -0.1681
 5712SOL     OW28594   3.495   1.580   0.032  0.2686  0.0726 -0.5503
 5712SOL    HW128595   3.414   1.566  17.676  0.1143  3.3524 -1.2492
 5712SOL    HW228596   3.525   1.490   0.047  2.6238  1.0167  0.4594
 5713SOL     OW28597   3.412   0.109   1.438  0.2867 -0.0816 -0.3126
 5713SOL    HW128598   3.494   0.079   1.398 -1.0218 -0.3459 -2.8103
 5713SOL    HW228599   3.437   0.174   1.503  0.0941 -0.4768  0.1623
 5714SOL     OW28600   0.155   1.352   2.167  0.6193  0.8666 -0.4213
 5714SOL    HW128601   0.102   1.342   2.246 -0.0015 -0.0121 -0.9474
 5714SOL    HW228602   0.155   1.260   2.139 -1.6275  0.9146 -0.6246
 5715SOL     OW28603   4.156   0.829   2.851 -0.4627  0.4254  0.2448
 5715SOL    HW128604   4.072   0.840   2.807 -0.7485  3.8050  1.6634
 5715SOL    HW228605   4.137   0.749   2.900  3.8546 -1.6368 -1.3548
 5716SOL     OW28606   2.968   1.491  15.955 -0.6564  0.8562 -0.3003
 5716SOL    HW128607   2.881   1.496  15.995 -0.5849  1.8853 -0.2887
 5716SOL    HW228608   2.976   1.583  15.930 -1.6213  1.6453  2.2901
 5717SOL     OW28609   3.381   3.190   8.071 -0.2045  0.3565 -0.0680
 5717SOL    HW128610   3.328   3.267   8.091 -0.1980  0.0434  1.1360
 5717SOL    HW228611   3.349   3.119   8.127 -0.7687 -1.0451 -2.1852
 5718SOL     OW28612   0.095   2.621   6.704 -0.4058 -0.2511 -0.0972
 5718SOL    HW128613   0.103   2.702   6.654  0.5271  0.4010  1.0887
 5718SOL    HW228614   0.040   2.647   6.778 -0.5870  1.1422 -0.7174
 5719SOL     OW28615   0.039   1.979   3.766 -0.0464 -0.3118  0.0218
 5719SOL    HW128616   0.119   1.936   3.735  0.3248 -0.1926  0.8159
 5719SOL    HW228617   0.068   2.067   3.788 -0.3179 -0.3210  0.4176
 5720SOL     OW28618   4.180   1.666   1.195 -0.4461  0.1244 -0.0085
 5720SOL    HW128619   4.125   1.706   1.263  1.4278 -0.2655  1.7152
 5720SOL    HW228620   4.200   1.587   1.244 -1.0644 -1.0752 -1.7131
 5721SOL     OW28621   1.246   4.334   4.151 -0.0496 -0.3652  0.5187
 5721SOL    HW128622   1.330   4.372   4.125  1.1048 -2.3120  1.3894
 5721SOL    HW228623   1.281   4.294   4.230 -1.8667 -1.0523  0.9789
 5722SOL     OW28624   1.937   4.587   6.321 -0.4053 -0.5229 -0.7794
 5722SOL    HW128625   1.883   4.628   6.388 -0.8890  1.3055 -2.2776
 5722SOL    HW228626   1.876   4.583   6.248  0.5964 -4.9606 -1.3562
 5723SOL     OW28627   3.801   2.879   7.625  0.1825 -0.3928 -0.0040
 5723SOL    HW128628   3.844   2.849   7.705 -0.8779 -1.3366  0.2101
 5723SOL    HW228629   3.799   2.974   7.639 -0.9305 -0.5432  0.8700
 5724SOL     OW28630   0.997   4.506   1.094  0.1793 -0.5302 -0.4112
 5724SOL    HW128631   0.974   4.478   1.182 -0.1794  1.2317  0.0628
 5724SOL    HW228632   0.967   4.597   1.098  1.3654 -0.2097  1.2044
 5725SOL     OW28633   1.289   3.810  17.201  0.1681  0.1538  0.0177
 5725SOL    HW128634   1.206   3.797  17.246  1.0167 -3.6026  0.4736
 5725SOL    HW228635   1.343   3.859  17.263  0.1632 -0.5995  0.6110
 5726SOL     OW28636   3.481   2.536   6.516  0.4503  0.4650  0.1898
 5726SOL    HW128637   3.511   2.454   6.555 -0.3437  0.1805  0.1937
 5726SOL    HW228638   3.390   2.541   6.545  1.1304  0.0224  2.3434
 5727SOL     OW28639   4.641   3.864   1.589  0.9606 -0.1707  0.0463
 5727SOL    HW128640   4.596   3.908   1.662 -0.6449 -2.4490  0.4332
 5727SOL    HW228641   4.610   3.775   1.605  0.9144 -0.3393 -1.0363
 5728SOL     OW28642   1.033   0.597   7.307 -0.4074 -0.0226 -0.1483
 5728SOL    HW128643   1.075   0.513   7.288 -2.6316 -1.5280  1.7312
 5728SOL    HW228644   0.941   0.582   7.286 -0.3099 -0.2537 -0.4175
 5729SOL     OW28645   3.109   3.272   6.259 -0.6803  0.2800  0.2206
 5729SOL    HW128646   3.049   3.320   6.203  0.5274 -0.2009 -1.4637
 5729SOL    HW228647   3.058   3.256   6.339 -0.2264 -0.8529  0.2951
 5730SOL     OW28648   2.821   2.438   8.519 -0.3741 -0.0833  0.0058
 5730SOL    HW128649   2.852   2.448   8.609 -0.1403 -0.2235 -0.0610
 5730SOL    HW228650   2.791   2.347   8.518 -0.0552 -0.1819 -0.3676
 5731SOL     OW28651   2.719   1.609   9.808  0.0542 -0.8284 -0.0891
 5731SOL    HW128652   2.681   1.600   9.720 -2.6818 -1.4243  1.1546
 5731SOL    HW228653   2.674   1.690   9.830  1.2575 -0.2176  0.1024
 5732SOL     OW28654   1.240   1.877   6.292 -0.2683 -0.2998  0.0208
 5732SOL    HW128655   1.331   1.850   6.277 -0.0285  0.3908  0.2250
 5732SOL    HW228656   1.218   1.935   6.219  2.1526  1.0066  0.3181
 5733SOL     OW28657   3.548   1.677   5.927  0.2951  0.2087 -0.2596
 5733SOL    HW128658   3.636   1.665   5.962 -0.2414 -0.0655  0.9791
 5733SOL    HW228659   3.550   1.770   5.904  0.8726  0.0718 -0.7543
 5734SOL     OW28660   2.519   0.726   4.358  0.2037 -0.2251  0.5390
 5734SOL    HW128661   2.472   0.771   4.429 -0.6964  1.1801 -0.9674
 5734SOL    HW228662   2.603   0.771   4.363  0.7802 -1.1380 -1.3356
 5735SOL     OW28663   2.152   4.332   3.759 -0.5991 -0.5437  0.1614
 5735SOL    HW128664   2.133   4.282   3.838 -2.4106 -0.8243 -0.4513
 5735SOL    HW228665   2.210   4.403   3.787  2.5105 -2.2581 -1.9390
 5736SOL     OW28666   3.046   1.679  13.856 -0.5445  0.4168  0.1397
 5736SOL    HW128667   2.958   1.709  13.834 -1.2424 -0.9737  1.0675
 5736SOL    HW228668   3.088   1.681  13.770 -0.5301 -0.0894  0.1345
 5737SOL     OW28669   3.514   1.998  14.469  0.7124 -0.1521 -0.5636
 5737SOL    HW128670   3.605   2.022  14.448  1.2539 -1.5780  0.1244
 5737SOL    HW228671   3.520   1.947  14.550  3.2120 -1.8860 -1.8342
 5738SOL     OW28672   4.691   3.790   5.073 -0.2825  0.1443  0.0184
 5738SOL    HW128673   0.027   3.729   5.116 -1.2195 -0.9859 -0.3136
 5738SOL    HW228674   4.658   3.834   5.151  1.3693 -1.2439  1.4637
 5739SOL     OW28675   1.688   4.066  15.340 -0.1447 -0.7424 -0.0071
 5739SOL    HW128676   1.607   4.074  15.390 -0.2412 -0.4611 -0.2049
 5739SOL    HW228677   1.745   4.122  15.392  1.6576 -3.1106  0.5661
 5740SOL     OW28678   3.579   4.635   7.380 -0.4402  0.1814 -0.1061
 5740SOL    HW128679   3.561   4.547   7.348  0.4049  0.1187 -0.3976
 5740SOL    HW228680   3.551   4.636   7.472  1.7854 -0.1424  0.5769
 5741SOL     OW28681   4.649   3.470   8.579  0.3868  0.1117 -0.3232
 5741SOL    HW128682   4.638   3.563   8.560 -3.4948 -0.2779 -0.0795
 5741SOL    HW228683   4.573   3.443   8.527 -1.3860  1.8326  1.3586
 5742SOL     OW28684   1.084   0.348   9.993 -0.3863 -0.3446  0.1453
 5742SOL    HW128685   1.132   0.320  10.071  0.1207 -0.4381 -0.2015
 5742SOL    HW228686   1.143   0.310   9.929  0.1101  0.0091  0.3893
 5743SOL     OW28687   3.146   0.387  10.784 -0.1534  0.0100 -0.0189
 5743SOL    HW128688   3.205   0.461  10.767  0.4437 -0.4712 -0.0382
 5743SOL    HW228689   3.114   0.409  10.871  0.4221 -0.2829  0.2606
 5744SOL     OW28690   3.063   1.121  10.128  0.6174  0.5537  0.6613
 5744SOL    HW128691   3.151   1.144  10.097  0.6539  0.3553  0.6143
 5744SOL    HW228692   3.011   1.137  10.049 -1.6871  1.4437  2.3838
 5745SOL     OW28693   0.519   0.935  16.053 -0.1108 -0.0865 -0.3170
 5745SOL    HW128694   0.430   0.921  16.084 -1.2723  0.5488 -3.3513
 5745SOL    HW228695   0.499   0.994  15.981  1.2706  2.8439  1.7189
 5746SOL     OW28696   1.050   3.948   4.297  0.2506 -0.0132  0.2102
 5746SOL    HW128697   1.130   3.903   4.324  0.3222 -0.7254 -1.1687
 5746SOL    HW228698   1.074   3.965   4.206 -0.7575  0.0250 -0.0452
 5747SOL     OW28699   4.367   1.560  13.802  0.1874  0.3656  0.1171
 5747SOL    HW128700   4.368   1.619  13.726 -1.8507 -2.4702 -2.0992
 5747SOL    HW228701   4.317   1.484  13.773  1.7534  0.1860 -2.1343
 5748SOL     OW28702   1.782   4.208   6.609  0.0846  0.3428  0.4902
 5748SOL    HW128703   1.719   4.233   6.541  0.6602 -1.1735 -0.5972
 5748SOL    HW228704   1.740   4.145   6.669  0.2924 -0.2017  0.0617
 5749SOL     OW28705   2.945   4.185  12.075  0.5502  0.1002 -0.4415
 5749SOL    HW128706   2.945   4.279  12.092 -1.5498  0.0745 -0.2737
 5749SOL    HW228707   2.898   4.177  11.992  1.9540 -0.2643 -1.1971
 5750SOL     OW28708   3.392   4.600  17.332  0.8999  0.0896 -0.4097
 5750SOL    HW128709   3.425   4.618  17.244 -0.8831 -1.0248 -1.2977
 5750SOL    HW228710   3.427   4.511  17.345 -3.0857 -1.6435 -1.4769
 5751SOL     OW28711   4.683   1.481   7.397 -0.0220  0.1913 -0.1258
 5751SOL    HW128712   4.693   1.456   7.488 -0.6478  0.8006  0.1062
 5751SOL    HW228713   4.589   1.491   7.385 -0.0218  0.0185 -0.2744
 5752SOL     OW28714   2.111   4.691   4.978  0.2152 -0.2066 -0.4855
 5752SOL    HW128715   2.203   4.664   4.987 -0.2323 -1.0701  1.6221
 5752SOL    HW228716   2.094   4.678   4.885  2.0890 -2.0355 -0.5637
 5753SOL     OW28717   0.634   2.853  14.041 -0.0969  0.3096 -0.1815
 5753SOL    HW128718   0.589   2.775  14.073  1.3715 -0.1116  0.8837
 5753SOL    HW228719   0.646   2.898  14.125 -0.3310  0.6593 -0.3392
 5754SOL     OW28720   3.411   1.848   3.866  0.9910  0.6975 -0.3731
 5754SOL    HW128721   3.351   1.774   3.871  1.9933 -0.3152 -2.8362
 5754SOL    HW228722   3.484   1.819   3.810  1.2974 -1.1345  0.9812
 5755SOL     OW28723   3.510   4.705  11.846  0.1780 -0.1871 -0.2960
 5755SOL    HW128724   3.496   0.057  11.788  1.5888 -0.2339 -0.7177
 5755SOL    HW228725   3.440   4.700  11.910  0.8810  1.0351  0.5658
 5756SOL     OW28726   1.310   4.716   5.027 -0.5702 -0.2404 -0.0757
 5756SOL    HW128727   1.380   4.718   5.092 -0.8918  0.4331  0.2632
 5756SOL    HW228728   1.293   0.086   5.008 -0.4305 -0.3178 -0.5707
 5757SOL     OW28729   0.213   0.908  10.885 -0.3235 -0.1096 -0.4654
 5757SOL    HW128730   0.129   0.902  10.840 -0.5370 -0.3410 -0.0431
 5757SOL    HW228731   0.184   0.876  10.971  0.3166  0.2950 -0.1034
 5758SOL     OW28732   1.764   4.500   7.118 -0.4682 -0.2932 -0.1711
 5758SOL    HW128733   1.768   4.409   7.092  0.0761 -0.4024  0.2988
 5758SOL    HW228734   1.747   4.493   7.212  0.9098 -2.3785 -0.0990
 5759SOL     OW28735   3.930   3.474   8.670  0.3294  0.1263  0.1878
 5759SOL    HW128736   3.980   3.528   8.608 -1.1308 -1.3424 -2.2912
 5759SOL    HW228737   3.843   3.475   8.630  0.2584  0.6859  0.3527
 5760SOL     OW28738   0.360   0.922   8.841  0.3770 -0.0968  0.5144
 5760SOL    HW128739   0.318   0.835   8.842  1.4430 -0.6105  0.7556
 5760SOL    HW228740   0.282   0.977   8.838 -0.5161 -1.2974  1.7727
 5761SOL     OW28741   0.077   2.015   7.080 -0.7614 -0.0524 -0.2168
 5761SOL    HW128742   0.101   1.994   6.990  0.8290  0.7875  0.0043
 5761SOL    HW228743   4.710   2.035   7.051 -1.1162 -0.0354  0.9134
 5762SOL     OW28744   2.942   2.213   8.836  0.1930  0.0822  0.3204
 5762SOL    HW128745   3.011   2.203   8.772  0.2523  2.2884  0.0296
 5762SOL    HW228746   2.877   2.152   8.803 -0.9878 -1.0427  4.6716
 5763SOL     OW28747   0.696   1.975   9.823 -0.2644  0.4986 -0.0206
 5763SOL    HW128748   0.632   2.039   9.851 -2.2067 -2.4417  2.2728
 5763SOL    HW228749   0.712   2.012   9.736 -1.1643  0.9171 -0.0021
 5764SOL     OW28750   0.275   2.926   0.443 -0.3829 -0.4779  0.0674
 5764SOL    HW128751   0.367   2.904   0.427 -0.2555 -0.6991  1.0702
 5764SOL    HW228752   0.250   2.841   0.479  0.8907 -0.8346  0.1200
 5765SOL     OW28753   3.330   4.494   1.915 -0.3515 -0.0386 -0.0384
 5765SOL    HW128754   3.270   4.523   1.846  0.1668  2.7177  0.6536
 5765SOL    HW228755   3.340   4.402   1.891 -0.3669 -0.5770  2.0224
 5766SOL     OW28756   4.163   3.103   3.386 -0.2360  0.1278 -0.0094
 5766SOL    HW128757   4.200   3.030   3.336 -1.3360 -1.6501  1.7613
 5766SOL    HW228758   4.092   3.113   3.322 -0.2356 -1.1200 -0.1996
 5767SOL     OW28759   0.339   3.122   8.706  0.4774 -0.0790  0.4251
 5767SOL    HW128760   0.343   3.104   8.612 -0.7585  1.4206  0.0855
 5767SOL    HW228761   0.299   3.209   8.704 -1.5351 -1.0308 -2.4694
 5768SOL     OW28762   0.018   1.005   5.884 -0.0930  0.3152  0.0639
 5768SOL    HW128763   0.072   0.928   5.901 -2.6368 -1.5316 -0.1543
 5768SOL    HW228764   4.716   1.014   5.977  0.7198  0.9278  0.2190
 5769SOL     OW28765   4.676   2.874   5.080 -0.2428 -0.7549  0.2729
 5769SOL    HW128766   4.696   2.815   5.007 -0.3900 -0.8121  0.2788
 5769SOL    HW228767   0.004   2.819   5.141 -0.0805 -0.9684 -0.0530
 5770SOL     OW28768   4.679   2.326   7.433  0.4927 -0.1319 -0.5728
 5770SOL    HW128769   4.712   2.415   7.432  2.2030 -0.7911 -1.7826
 5770SOL    HW228770   4.676   2.291   7.523  0.2065 -0.4808 -0.7147
 5771SOL     OW28771   4.507   4.364   7.013  0.5105 -0.1324  0.3074
 5771SOL    HW128772   4.503   4.429   6.944  4.1003 -0.7055 -0.4143
 5771SOL    HW228773   4.458   4.407   7.083 -1.3103  1.1877 -1.7905
 5772SOL     OW28774   2.582   2.859   4.605 -0.3149  0.3360 -0.9176
 5772SOL    HW128775   2.497   2.873   4.647  0.4567  0.9877  0.4354
 5772SOL    HW228776   2.548   2.883   4.518 -0.3324 -0.9386 -1.2646
 5773SOL     OW28777   2.555   2.457   2.616 -0.0635  0.3566 -0.0025
 5773SOL    HW128778   2.641   2.475   2.579  0.0287  2.8696  1.4171
 5773SOL    HW228779   2.520   2.546   2.606 -0.0761  0.0631 -2.4981
 5774SOL     OW28780   1.793   2.556  14.723 -0.3070 -0.1609 -0.4545
 5774SOL    HW128781   1.877   2.525  14.757  1.0574  4.3852  0.3554
 5774SOL    HW228782   1.799   2.519  14.635  1.5800  0.4436 -0.5888
 5775SOL     OW28783   1.447   3.658   9.472  0.3061 -0.3947 -0.1093
 5775SOL    HW128784   1.457   3.563   9.469  0.2086 -0.4289  0.8569
 5775SOL    HW228785   1.356   3.658   9.502 -0.3293 -0.7649 -2.0291
 5776SOL     OW28786   2.534   2.430   0.289 -0.5088 -0.3428 -0.6054
 5776SOL    HW128787   2.504   2.491   0.221 -2.4877 -2.7158 -1.8563
 5776SOL    HW228788   2.627   2.452   0.287 -0.5587 -0.1447 -0.7375
 5777SOL     OW28789   2.846   2.778   2.052  0.3333  0.2132 -0.2956
 5777SOL    HW128790   2.852   2.722   2.130  3.3177  0.6053 -0.2175
 5777SOL    HW228791   2.797   2.708   2.011 -0.2242 -0.7329  1.9758
 5778SOL     OW28792   2.013   2.874   8.787 -0.1688  0.1661 -0.4083
 5778SOL    HW128793   2.034   2.882   8.880 -1.0556 -0.1468 -0.1786
 5778SOL    HW228794   2.065   2.947   8.754  1.3228 -1.4800 -1.7191
 5779SOL     OW28795   4.300   0.592  10.222  0.3790  0.0964  0.0253
 5779SOL    HW128796   4.328   0.624  10.307  0.5941 -0.3290  0.1154
 5779SOL    HW228797   4.240   0.660  10.193 -1.0086 -0.9805  0.3795
 5780SOL     OW28798   1.169   4.171   8.653 -0.0408 -0.1524 -0.2830
 5780SOL    HW128799   1.148   4.081   8.678  0.9688 -0.4970 -0.6988
 5780SOL    HW228800   1.145   4.233   8.722 -1.8340  0.0454 -1.0777
 5781SOL     OW28801   1.544   1.020   7.384  0.3834  0.4271  0.2708
 5781SOL    HW128802   1.529   0.931   7.418 -2.4111  0.8602  0.1618
 5781SOL    HW228803   1.548   1.015   7.289  2.1577 -0.9621  0.4167
 5782SOL     OW28804   0.780   3.714  13.268  0.3819 -0.4911 -0.6994
 5782SOL    HW128805   0.852   3.720  13.331 -0.0871 -1.8598 -0.0266
 5782SOL    HW228806   0.823   3.706  13.183  2.9804 -0.8070  0.6254
 5783SOL     OW28807   1.250   3.386   4.185  0.4773 -0.4004  0.2514
 5783SOL    HW128808   1.266   3.387   4.279  1.3569 -1.3064  0.1232
 5783SOL    HW228809   1.227   3.293   4.180  0.1051 -0.2097 -1.7468
 5784SOL     OW28810   3.996   4.244   2.715 -0.2300  0.0534 -0.1602
 5784SOL    HW128811   3.931   4.236   2.645 -2.0922 -0.6337  1.6487
 5784SOL    HW228812   4.029   4.154   2.719 -0.8965 -0.1069  1.5139
 5785SOL     OW28813   1.941   1.438   3.099 -0.2355 -0.1257 -0.2359
 5785SOL    HW128814   1.867   1.466   3.044  0.8921  1.9298 -0.7385
 5785SOL    HW228815   1.965   1.357   3.055  0.6152 -1.0613  1.9636
 5786SOL     OW28816   4.197   2.085   8.331 -0.3427  0.6715  0.5468
 5786SOL    HW128817   4.174   1.999   8.367  0.2001  0.5719  0.6588
 5786SOL    HW228818   4.110   2.111   8.302 -0.8949  1.7013  3.1637
 5787SOL     OW28819   2.913   1.761  14.518  0.2509  0.0671  0.1003
 5787SOL    HW128820   2.930   1.752  14.424  2.8768 -2.8751  0.8457
 5787SOL    HW228821   2.987   1.814  14.549 -2.1800  1.6385  3.2002
 5788SOL     OW28822   2.414   2.029  10.731 -0.2575 -0.1439  0.3511
 5788SOL    HW128823   2.467   1.950  10.723 -0.2868 -0.1784  0.4947
 5788SOL    HW228824   2.332   1.995  10.695  0.4440 -2.6264  1.0949
 5789SOL     OW28825   4.562   1.139   5.081 -0.1459 -0.2145  0.6552
 5789SOL    HW128826   4.604   1.100   5.158  0.3169  0.0258  0.5268
 5789SOL    HW228827   4.554   1.067   5.018 -0.5841  0.3114  0.1097
 5790SOL     OW28828   0.051   0.964  14.669  0.2693 -0.0936 -0.2643
 5790SOL    HW128829   0.091   0.879  14.650 -0.7750 -0.9438  1.3565
 5790SOL    HW228830   0.051   0.955  14.764  2.9019  2.5904 -0.0205
 5791SOL     OW28831   0.410   4.107  17.408  0.0129  0.2488 -0.7084
 5791SOL    HW128832   0.443   4.069  17.327 -1.0120  0.4409 -1.2128
 5791SOL    HW228833   0.361   4.030  17.436 -0.5165  1.5235  1.8884
 5792SOL     OW28834   2.869   4.031   3.617 -0.3929  0.1488  0.2082
 5792SOL    HW128835   2.897   4.027   3.709 -0.3709  0.3029  0.2074
 5792SOL    HW228836   2.777   4.049   3.636 -0.1349 -0.9387  2.5568
 5793SOL     OW28837   3.064   3.008  12.086  0.2437  0.1657 -0.1304
 5793SOL    HW128838   3.029   2.961  12.161  0.0867 -0.1284 -0.3907
 5793SOL    HW228839   3.138   2.955  12.055 -0.3741 -1.7190  1.6970
 5794SOL     OW28840   0.033   0.515   7.249  0.4685  0.0973 -0.0612
 5794SOL    HW128841   0.042   0.467   7.331  1.7082  1.5270  0.6422
 5794SOL    HW228842   0.055   0.453   7.180 -2.2294  1.8155 -2.4755
 5795SOL     OW28843   4.018   3.539   9.692 -0.1358  0.0958  0.8084
 5795SOL    HW128844   4.002   3.450   9.659 -2.4122 -0.0597  2.3422
 5795SOL    HW228845   4.041   3.564   9.603 -1.0662 -0.3143  0.4509
 5796SOL     OW28846   4.069   3.596  17.397  0.2719 -0.6139  0.4377
 5796SOL    HW128847   4.157   3.630  17.413 -0.0390  0.8514 -0.9013
 5796SOL    HW228848   4.094   3.505  17.415  2.3631  0.2915  2.1616
 5797SOL     OW28849   0.059   0.090   9.526  0.0368  0.0453 -0.1947
 5797SOL    HW128850   0.153   0.107   9.518 -0.0561  0.3722 -0.6402
 5797SOL    HW228851   0.037   0.074   9.618  2.8210  0.5289  0.5359
 5798SOL     OW28852   0.030   0.457  14.331 -0.2309 -0.3407  0.6514
 5798SOL    HW128853   0.111   0.468  14.283 -0.6832  1.3463  0.2717
 5798SOL    HW228854   4.715   0.380  14.288  0.4566 -0.1175 -0.3346
 5799SOL     OW28855   2.372   3.233   7.453 -0.2603  0.2566 -0.0911
 5799SOL    HW128856   2.405   3.320   7.472 -2.2994  0.9658  0.2322
 5799SOL    HW228857   2.378   3.192   7.539  0.3674  0.7449  0.0973
 5800SOL     OW28858   1.020   2.260   2.100  0.0684  0.6617  0.0715
 5800SOL    HW128859   1.003   2.305   2.182  0.5163  0.4759  0.2628
 5800SOL    HW228860   1.025   2.174   2.142 -2.6836  1.1896  1.5345
 5801SOL     OW28861   1.097   4.299   8.887 -0.1386  0.1753  0.2760
 5801SOL    HW128862   1.170   4.348   8.924 -1.6111  1.5164  1.3809
 5801SOL    HW228863   1.062   4.244   8.957 -0.5498  1.0842  0.7792
 5802SOL     OW28864   2.136   0.296   5.432  0.2591  0.3047  0.1239
 5802SOL    HW128865   2.193   0.317   5.506 -0.1180  1.6903  0.0236
 5802SOL    HW228866   2.199   0.309   5.360  1.3439 -1.7314  0.7284
 5803SOL     OW28867   4.413   3.447   5.839  0.7353 -0.3068 -0.5436
 5803SOL    HW128868   4.501   3.430   5.873  1.4005  0.5261 -1.8600
 5803SOL    HW228869   4.432   3.519   5.780 -0.3537 -0.3357 -0.9349
 5804SOL     OW28870   3.535   1.081   1.722 -0.3474 -0.0258  0.5326
 5804SOL    HW128871   3.493   1.153   1.768 -2.3578  0.0489 -1.4181
 5804SOL    HW228872   3.473   1.075   1.650 -0.7742  0.8913  0.8277
 5805SOL     OW28873   3.174   1.166  14.185 -0.4934  0.0381  0.2844
 5805SOL    HW128874   3.096   1.193  14.234 -0.3616  0.3545  0.3160
 5805SOL    HW228875   3.180   1.244  14.131  0.8168 -0.9884 -1.0488
 5806SOL     OW28876   1.374   0.371   7.282  0.1118 -0.2118 -0.3096
 5806SOL    HW128877   1.390   0.285   7.320  1.7913  0.3172  0.1789
 5806SOL    HW228878   1.430   0.370   7.205 -1.3021 -0.7127 -1.3272
 5807SOL     OW28879   3.859   0.126   6.560  0.3148 -0.0365 -0.0237
 5807SOL    HW128880   3.769   0.096   6.573  1.1177 -2.8577 -0.9901
 5807SOL    HW228881   3.863   0.188   6.488 -2.4056  2.1630  1.6952
 5808SOL     OW28882   3.183   0.542   4.138  0.1656 -0.1346 -0.0340
 5808SOL    HW128883   3.113   0.501   4.087  3.1583 -0.5107 -3.8177
 5808SOL    HW228884   3.168   0.637   4.133  0.6905 -0.0151  0.6266
 5809SOL     OW28885   0.792   0.023   2.512  0.4844  0.3161 -0.1772
 5809SOL    HW128886   0.865   0.000   2.570 -0.6266 -0.7266  0.8127
 5809SOL    HW228887   0.811   4.697   2.431 -2.6379 -1.2292  0.0389
 5810SOL     OW28888   2.235   3.494  13.959 -0.3194  0.6070 -0.0732
 5810SOL    HW128889   2.182   3.479  14.037 -2.9075  0.2313 -1.8864
 5810SOL    HW228890   2.321   3.498  14.000 -0.1955 -0.8751 -0.1947
 5811SOL     OW28891   3.239   0.579  13.904 -0.1094 -0.1247 -0.2888
 5811SOL    HW128892   3.259   0.591  13.997 -0.5512  2.7262 -0.5787
 5811SOL    HW228893   3.293   0.505  13.876 -1.3390 -0.8539 -0.7519
 5812SOL     OW28894   2.810   0.076  17.388 -0.3822  0.1794 -0.5746
 5812SOL    HW128895   2.802   0.032  17.473  3.2757 -1.1100 -0.9262
 5812SOL    HW228896   2.723   0.053  17.354 -0.9131  1.3392  0.0120
 5813SOL     OW28897   3.931   1.658  17.612 -0.2072 -0.1151  0.4078
 5813SOL    HW128898   4.014   1.653  17.658  0.2617 -0.2714 -0.4570
 5813SOL    HW228899   3.904   1.570  17.585  0.8603 -0.6640  1.1340
 5814SOL     OW28900   2.018   0.802   5.775 -0.4023 -0.0444 -0.7157
 5814SOL    HW128901   1.991   0.782   5.686  1.9258 -1.0284 -1.1851
 5814SOL    HW228902   2.102   0.846   5.762 -1.3304  2.0823  0.3933
 5815SOL     OW28903   3.659   4.506  17.499 -0.0213 -0.0721 -0.7086
 5815SOL    HW128904   3.680   4.589  17.543  1.0017 -0.5671 -0.2493
 5815SOL    HW228905   3.565   4.509  17.485  0.0010  0.2917 -0.7919
 5816SOL     OW28906   3.198   2.476   6.939  0.0649 -0.0957 -0.0885
 5816SOL    HW128907   3.269   2.536   6.919  0.8992 -1.9872 -2.7887
 5816SOL    HW228908   3.234   2.438   7.019 -0.0953 -0.1701 -0.0517
 5817SOL     OW28909   1.005   0.301   5.693  0.1767 -0.2729  0.5626
 5817SOL    HW128910   1.063   0.358   5.744 -0.1452  1.1209 -0.6116
 5817SOL    HW228911   0.940   0.370   5.680 -1.7809 -2.1700  0.2995
 5818SOL     OW28912   2.190   0.117   1.085  0.2635  0.0527 -0.2158
 5818SOL    HW128913   2.277   0.079   1.071  0.2230 -0.8709  2.0435
 5818SOL    HW228914   2.181   0.193   1.028 -0.6794  1.1473  1.3998
 5819SOL     OW28915   1.172   2.351   8.298 -0.2237  0.1255 -0.0914
 5819SOL    HW128916   1.262   2.370   8.273 -0.6936 -0.3505 -2.1392
 5819SOL    HW228917   1.170   2.396   8.382 -2.3289 -1.2051  0.5910
 5820SOL     OW28918   2.565   0.596   7.123  0.2744 -0.6188  0.7421
 5820SOL    HW128919   2.610   0.557   7.199  1.0790 -1.6125 -0.2398
 5820SOL    HW228920   2.562   0.687   7.151  0.2365  0.2646 -2.1994
 5821SOL     OW28921   0.173   3.356   8.660 -0.3950 -0.0209  0.4988
 5821SOL    HW128922   0.102   3.385   8.604  0.7383 -1.8933 -1.9401
 5821SOL    HW228923   0.193   3.437   8.705 -0.3598  0.0934  0.2792
 5822SOL     OW28924   2.561   2.956   8.308  0.1470 -0.2245 -0.2415
 5822SOL    HW128925   2.509   2.876   8.313 -0.0732  0.0223  1.5896
 5822SOL    HW228926   2.645   2.917   8.333  1.2855  0.7086 -2.5541
 5823SOL     OW28927   3.276   0.279   3.094  0.3146 -0.7900 -0.5164
 5823SOL    HW128928   3.273   0.328   3.012  1.4095 -1.3064 -0.8727
 5823SOL    HW228929   3.185   0.250   3.100  0.0366  0.3227  0.7653
 5824SOL     OW28930   4.303   2.413   7.465  0.0472 -0.5351 -0.3927
 5824SOL    HW128931   4.312   2.418   7.560  0.5968  1.4427 -0.5391
 5824SOL    HW228932   4.324   2.325   7.434 -2.9001 -1.4363  0.2508
 5825SOL     OW28933   3.137   4.173  11.229  0.3382  0.2275  0.3359
 5825SOL    HW128934   3.076   4.243  11.251 -0.2787  0.1491 -1.0854
 5825SOL    HW228935   3.076   4.109  11.191 -1.3203  0.5439  2.4531
 5826SOL     OW28936   3.913   2.460   0.859  0.2110  0.0151  0.1766
 5826SOL    HW128937   3.944   2.548   0.877  0.0775 -0.5676  3.2179
 5826SOL    HW228938   3.981   2.420   0.804  0.4169  0.0532  0.4051
 5827SOL     OW28939   2.693   2.646   1.459 -0.0587  0.5227 -0.2846
 5827SOL    HW128940   2.625   2.590   1.423 -1.7474 -0.4053  4.3425
 5827SOL    HW228941   2.650   2.675   1.539 -1.7154  0.9219 -1.3373
 5828SOL     OW28942   3.046   4.268   3.919 -0.4099 -0.2100 -0.2713
 5828SOL    HW128943   3.008   4.331   3.857 -1.2912 -0.7863 -0.3326
 5828SOL    HW228944   3.115   4.230   3.864 -0.1714  1.3385 -1.0493
 5829SOL     OW28945   2.402   2.328   5.632 -0.3912 -0.3179 -0.2320
 5829SOL    HW128946   2.314   2.365   5.644 -0.7878 -1.1334 -0.5982
 5829SOL    HW228947   2.411   2.266   5.704  0.5106  0.7649  0.5937
 5830SOL     OW28948   1.814   1.216  17.391 -0.2094 -0.0066  0.4947
 5830SOL    HW128949   1.834   1.151  17.457 -0.1561  0.2747  0.7546
 5830SOL    HW228950   1.738   1.169  17.358  0.9979 -1.8940  0.3934
 5831SOL     OW28951   1.035   0.283   2.495  0.4316  0.5427 -0.1746
 5831SOL    HW128952   1.041   0.198   2.453  0.1642  0.0685  0.7535
 5831SOL    HW228953   1.123   0.285   2.533  0.8753 -2.4462 -1.0553
 5832SOL     OW28954   2.990   0.026   7.733 -0.3133  0.6399 -0.2617
 5832SOL    HW128955   2.948   4.664   7.718  0.4233  0.3421 -0.6353
 5832SOL    HW228956   3.052   0.003   7.802 -0.2248  0.1907 -0.4907
 5833SOL     OW28957   3.963   2.535   3.564 -0.1778 -0.1689  0.2106
 5833SOL    HW128958   3.868   2.544   3.558 -0.4845 -1.7605  3.0813
 5833SOL    HW228959   3.970   2.592   3.640 -1.8226  1.6254 -0.9868
 5834SOL     OW28960   1.579   1.931   6.240 -0.1812  0.2734  0.7851
 5834SOL    HW128961   1.570   1.899   6.151  0.9617 -0.6165  0.9807
 5834SOL    HW228962   1.623   1.854   6.278 -0.4649 -0.3874 -0.2466
 5835SOL     OW28963   1.041   2.182  17.281  0.0791  0.1742  0.1543
 5835SOL    HW128964   1.025   2.131  17.360  0.2808 -0.6049 -0.3076
 5835SOL    HW228965   1.052   2.266  17.326  1.1914  0.1313 -0.0505
 5836SOL     OW28966   1.298   2.241   5.070  0.2576  0.0250 -0.3573
 5836SOL    HW128967   1.294   2.333   5.093 -1.8284 -0.1897  0.1167
 5836SOL    HW228968   1.289   2.202   5.157  0.8402  0.6010 -0.0458
 5837SOL     OW28969   3.664   2.477   1.799 -0.0049  0.0878 -0.5481
 5837SOL    HW128970   3.708   2.449   1.719  4.0015  0.2373  1.6479
 5837SOL    HW228971   3.694   2.567   1.802 -0.2189  0.1200  0.5774
 5838SOL     OW28972   4.420   3.094   5.677 -0.3415  0.9666  0.0241
 5838SOL    HW128973   4.475   3.166   5.649 -0.6844  1.6477  1.1033
 5838SOL    HW228974   4.487   3.043   5.722 -0.1459  1.5298  0.3730
 5839SOL     OW28975   0.021   3.816   6.374 -0.0243  0.6077 -0.0584
 5839SOL    HW128976   0.006   3.797   6.467  0.9142 -2.7544 -0.6061
 5839SOL    HW228977   0.080   3.891   6.382  2.4137 -1.3591  0.1705
 5840SOL     OW28978   3.801   3.030   5.014  0.3826 -0.1091  0.0796
 5840SOL    HW128979   3.809   3.114   4.970  1.6506  0.0420  0.6034
 5840SOL    HW228980   3.770   2.967   4.948  0.8119  1.4913 -1.6475
 5841SOL     OW28981   4.020   1.334   6.448  0.0582  0.9760  0.0570
 5841SOL    HW128982   4.109   1.368   6.438  0.0640  0.7813 -0.5999
 5841SOL    HW228983   4.037   1.276   6.522 -1.7777  2.2583  1.4936
 5842SOL     OW28984   2.311   0.180   0.353  0.0310  0.0915  0.0605
 5842SOL    HW128985   2.288   0.183   0.446 -0.9445  2.2157 -0.2278
 5842SOL    HW228986   2.379   0.247   0.340  0.8448 -0.4812  1.4507
 5843SOL     OW28987   4.054   0.292   5.957  0.7633  0.4441  0.2919
 5843SOL    HW128988   4.102   0.217   5.922 -1.6021 -0.8203 -0.2015
 5843SOL    HW228989   4.075   0.270   6.048 -0.2021  0.8158  0.6073
 5844SOL     OW28990   3.757   2.478   2.184  0.1415 -0.0913  0.7345
 5844SOL    HW128991   3.678   2.486   2.237  0.8996  0.4150  1.8122
 5844SOL    HW228992   3.789   2.568   2.176 -0.4176 -0.0260 -0.7092
 5845SOL     OW28993   0.613   4.517   3.974  0.5254 -0.0412  0.5627
 5845SOL    HW128994   0.615   4.564   3.891 -0.8777 -0.3714  0.3419
 5845SOL    HW228995   0.523   4.538   4.001  0.8723  1.2855  0.6703
 5846SOL     OW28996   4.371   3.810   2.363 -0.4532  0.8014 -0.9662
 5846SOL    HW128997   4.373   3.821   2.458 -3.2362 -0.9336 -0.7273
 5846SOL    HW228998   4.462   3.832   2.340 -0.0287  1.2028  1.0583
 5847SOL     OW28999   4.567   0.973  11.061  0.5745 -0.0567 -0.1207
 5847SOL    HW129000   4.638   0.926  11.105  0.3071  1.0607  1.5332
 5847SOL    HW229001   4.594   0.951  10.972 -0.2289  0.2320 -0.4372
 5848SOL     OW29002   1.607   4.523   8.591 -0.3346 -0.3921  0.2892
 5848SOL    HW129003   1.523   4.538   8.635 -0.6269  0.4734 -0.5578
 5848SOL    HW229004   1.646   4.453   8.643  2.6018 -0.4286 -1.9420
 5849SOL     OW29005   1.071   0.493   4.112 -1.0848 -0.9131  0.1327
 5849SOL    HW129006   1.100   0.427   4.050 -1.3037  0.5353 -1.5107
 5849SOL    HW229007   1.155   0.529   4.139 -1.7749  0.8627 -0.0282
 5850SOL     OW29008   4.177   4.460   0.678 -0.4770 -0.4686 -0.2870
 5850SOL    HW129009   4.212   4.381   0.638  0.6691  0.1385 -0.4847
 5850SOL    HW229010   4.234   4.476   0.754  1.2474 -0.3143 -1.6023
 5851SOL     OW29011   1.177   0.716   2.551 -0.0369 -0.1107 -0.1899
 5851SOL    HW129012   1.204   0.627   2.529  0.5498  0.0112  0.0486
 5851SOL    HW229013   1.148   0.709   2.642 -0.2454  1.8309 -0.1056
 5852SOL     OW29014   0.496   2.858   8.147  0.3559 -0.2408 -0.6884
 5852SOL    HW129015   0.461   2.933   8.195 -0.4789 -0.9302 -0.2013
 5852SOL    HW229016   0.544   2.809   8.214 -1.2415 -2.2326 -1.0069
 5853SOL     OW29017   1.525   0.458   8.982 -0.9325 -0.0245 -0.5523
 5853SOL    HW129018   1.584   0.401   8.932  0.3159  1.1687 -0.4352
 5853SOL    HW229019   1.510   0.524   8.915  2.8309  0.4504 -0.9343
 5854SOL     OW29020   2.945   3.512   4.451 -0.1597  0.0260 -0.0341
 5854SOL    HW129021   2.945   3.598   4.492 -0.0932 -1.0172  2.1135
 5854SOL    HW229022   2.994   3.466   4.519 -0.3075 -0.1295 -0.0313
 5855SOL     OW29023   2.317   1.571   2.855  0.0797  0.1875  0.1155
 5855SOL    HW129024   2.227   1.594   2.834  0.5771  2.1318  0.0188
 5855SOL    HW229025   2.311   1.547   2.948  1.2005 -0.4518  0.0223
 5856SOL     OW29026   3.648   1.022   6.025  0.5557  0.3900  0.0207
 5856SOL    HW129027   3.590   0.987   5.957  0.3874 -0.2041  0.4643
 5856SOL    HW229028   3.673   1.104   5.981  0.5453  0.5943  0.3991
 5857SOL     OW29029   4.425   2.633   6.818  0.3246 -0.0028  0.2035
 5857SOL    HW129030   4.484   2.707   6.805 -0.8427  1.1695  1.5879
 5857SOL    HW229031   4.416   2.596   6.730  0.1850 -0.8961  0.5969
 5858SOL     OW29032   3.475   1.053   5.516 -1.0011 -0.0211  0.2692
 5858SOL    HW129033   3.529   1.029   5.441  1.2077  1.2834  1.4308
 5858SOL    HW229034   3.496   0.978   5.572 -2.8174  0.6295  1.8513
 5859SOL     OW29035   0.947   0.669  15.222  0.4381 -0.1167 -0.3109
 5859SOL    HW129036   0.974   0.752  15.183  0.1466 -0.0477 -0.3675
 5859SOL    HW229037   0.876   0.704  15.275  0.9502  0.2569  0.1329
 5860SOL     OW29038   3.319   4.486  14.472  0.5617 -0.0068 -0.2812
 5860SOL    HW129039   3.315   4.501  14.566 -0.0721  0.1039 -0.3310
 5860SOL    HW229040   3.276   4.560  14.429 -0.0526 -0.1472  0.0964
 5861SOL     OW29041   2.150   3.051   3.437 -0.0411 -0.1204 -0.5540
 5861SOL    HW129042   2.157   3.110   3.362 -0.6086  2.7587  1.6445
 5861SOL    HW229043   2.064   3.077   3.471 -1.0465 -3.2064 -0.7946
 5862SOL     OW29044   0.680   1.075   8.026  0.5271 -0.0598  0.2124
 5862SOL    HW129045   0.642   1.007   8.080  0.8643 -0.0095  0.5094
 5862SOL    HW229046   0.690   1.016   7.951  0.1075  3.0037 -2.3016
 5863SOL     OW29047   0.366   0.671   9.996  0.4367  0.1169  0.1184
 5863SOL    HW129048   0.329   0.729  10.064 -1.0548 -1.4085  0.5993
 5863SOL    HW229049   0.458   0.698   9.995  0.3097  0.7485  3.0885
 5864SOL     OW29050   3.598   4.217  10.036 -0.1776 -0.2571 -0.2277
 5864SOL    HW129051   3.506   4.199  10.055 -0.1629 -0.7326 -0.5872
 5864SOL    HW229052   3.646   4.162  10.098 -0.3488 -0.1957 -0.0400
 5865SOL     OW29053   4.154   2.410   3.434  0.3307 -0.0341  0.3234
 5865SOL    HW129054   4.104   2.441   3.510 -2.1206  1.0381 -1.7469
 5865SOL    HW229055   4.234   2.380   3.477 -0.0524  0.0271  1.0745
 5866SOL     OW29056   4.153   0.905   4.452  0.0015  0.2793 -0.6680
 5866SOL    HW129057   4.177   0.864   4.368  0.8941 -0.7753  0.1092
 5866SOL    HW229058   4.235   0.903   4.501  0.7224 -1.0806 -1.9067
 5867SOL     OW29059   2.700   2.200   3.205  0.5186  0.0246 -0.2464
 5867SOL    HW129060   2.690   2.148   3.285  0.0962 -0.5712 -0.6935
 5867SOL    HW229061   2.668   2.281   3.246 -1.1267 -1.6162  1.6932
 5868SOL     OW29062   1.532   0.741   8.864 -0.1932 -0.0597 -1.0028
 5868SOL    HW129063   1.592   0.799   8.816  0.7979 -1.6940 -1.7442
 5868SOL    HW229064   1.601   0.704   8.919  1.5218  0.1097 -2.9976
 5869SOL     OW29065   3.955   3.071  10.453  0.6950  0.2957 -0.4681
 5869SOL    HW129066   4.032   3.060  10.398  2.3755  0.2529  1.8495
 5869SOL    HW229067   3.979   3.150  10.502 -0.7237 -0.3837  1.3405
 5870SOL     OW29068   0.639   3.329   4.166 -0.1790  0.3673 -0.0639
 5870SOL    HW129069   0.565   3.278   4.134 -0.1997 -1.3210  2.6360
 5870SOL    HW229070   0.600   3.392   4.228 -1.0806  0.4005 -0.6646
 5871SOL     OW29071   4.477   0.001   6.884 -0.8223 -0.1756  0.3663
 5871SOL    HW129072   4.490   4.711   6.978  1.1809 -1.7694 -0.1209
 5871SOL    HW229073   4.385   4.701   6.872 -0.7492  1.5905 -3.4416
 5872SOL     OW29074   2.693   3.774   8.261 -0.0451 -0.3908 -0.3434
 5872SOL    HW129075   2.695   3.853   8.316  1.1095  0.9704 -2.3560
 5872SOL    HW229076   2.686   3.706   8.329  0.8878  0.7018  0.8420
 5873SOL     OW29077   2.720   4.224  11.308 -0.0317  0.1348  0.3656
 5873SOL    HW129078   2.728   4.135  11.273  2.7743  0.2589  0.6699
 5873SOL    HW229079   2.673   4.270  11.239  1.3539  0.2907 -0.4806
 5874SOL     OW29080   1.017   3.499  17.594 -0.3627 -0.6665  0.3216
 5874SOL    HW129081   0.990   3.408  17.583  1.3660 -1.1241 -0.2181
 5874SOL    HW229082   0.958   3.522  17.666  2.1215  0.2573  2.0555
 5875SOL     OW29083   2.380   3.464   5.736 -0.3646 -0.5462  0.4537
 5875SOL    HW129084   2.390   3.546   5.687 -0.9728 -0.2864  0.7628
 5875SOL    HW229085   2.438   3.403   5.691  1.1179  0.6731  0.7210
 5876SOL     OW29086   4.019   4.089  10.063 -1.1659 -0.3017  0.8384
 5876SOL    HW129087   3.934   4.053  10.088 -2.5480  1.7549 -0.8737
 5876SOL    HW229088   3.992   4.152   9.996 -1.9589  0.3653  1.7806
 5877SOL     OW29089   2.765   4.044  12.996 -0.2387 -0.4135  0.0497
 5877SOL    HW129090   2.816   3.973  13.035 -0.3258  1.6201  3.8058
 5877SOL    HW229091   2.834   4.109  12.993 -0.9592  0.4540  2.1842
 5878SOL     OW29092   3.011   1.036  10.397 -0.1021 -0.3213 -0.1350
 5878SOL    HW129093   2.934   1.082  10.429 -0.3429 -1.1232  0.4381
 5878SOL    HW229094   3.031   1.072  10.311  1.7247 -1.5275 -0.2250
 5879SOL     OW29095   0.813   3.771   4.305 -0.1290 -0.5486  0.0481
 5879SOL    HW129096   0.878   3.838   4.284  1.4461 -1.9937  0.3282
 5879SOL    HW229097   0.862   3.691   4.323  2.5686  1.2805  0.8059
 5880SOL     OW29098   1.391   4.520   3.363  0.2530 -0.1051  0.4696
 5880SOL    HW129099   1.387   4.479   3.449  0.3864 -1.0045  0.0445
 5880SOL    HW229100   1.327   4.472   3.310  0.2141  0.2407  0.1977
 5881SOL     OW29101   0.594   2.703   5.699  0.2822 -0.1941  0.6371
 5881SOL    HW129102   0.554   2.750   5.772 -2.3634 -0.2209 -0.7660
 5881SOL    HW229103   0.650   2.776   5.671 -0.5462 -0.0991 -0.8038
 5882SOL     OW29104   0.068   0.328   8.337  0.5026 -0.0697 -0.1135
 5882SOL    HW129105   4.705   0.285   8.335  0.9872 -0.9354 -2.2695
 5882SOL    HW229106   0.087   0.316   8.430  2.3665 -0.4246 -0.5390
 5883SOL     OW29107   3.943   0.531   2.974 -0.5890 -0.0484 -0.9888
 5883SOL    HW129108   3.900   0.598   2.921  0.8497  1.7969  0.1645
 5883SOL    HW229109   3.872   0.525   3.037  0.0584  1.2804 -0.1372
 5884SOL     OW29110   2.577   2.152   7.098 -0.2618  0.3040 -0.2648
 5884SOL    HW129111   2.669   2.168   7.119  0.2976 -1.4696 -1.3744
 5884SOL    HW229112   2.558   2.228   7.043  0.0897  1.2671  0.9507
 5885SOL     OW29113   3.976   3.360  14.578  0.5225 -0.4984 -0.0275
 5885SOL    HW129114   4.024   3.395  14.504 -0.1049  0.2103 -0.0956
 5885SOL    HW229115   3.999   3.267  14.574 -2.8254 -1.3451  0.7841
 5886SOL     OW29116   2.744   1.496   6.697  0.1023 -0.4017  0.0371
 5886SOL    HW129117   2.679   1.426   6.709  0.7636 -0.5405  2.7312
 5886SOL    HW229118   2.801   1.497   6.773 -0.3171  2.0150  0.3315
 5887SOL     OW29119   4.653   1.966   5.939  0.4289 -0.2763  0.0795
 5887SOL    HW129120   4.645   1.921   6.024 -0.9235 -0.3346 -0.0726
 5887SOL    HW229121   4.617   1.898   5.882  1.4897  0.9093 -1.9774
 5888SOL     OW29122   3.070   4.124  14.956 -0.5834  0.6614 -0.0334
 5888SOL    HW129123   2.993   4.136  15.013 -0.1222 -1.0124  0.9491
 5888SOL    HW229124   3.062   4.205  14.905 -2.4685  1.3770  1.3402
 5889SOL     OW29125   3.756   1.223  10.638  0.7126  0.2240 -0.0492
 5889SOL    HW129126   3.805   1.144  10.661  1.5631  0.4805 -0.9954
 5889SOL    HW229127   3.677   1.223  10.692  1.7196 -0.4967  1.4180
 5890SOL     OW29128   4.203   3.174  16.893 -0.0858 -0.5592  0.0378
 5890SOL    HW129129   4.264   3.244  16.914 -0.2724  0.4136 -2.6363
 5890SOL    HW229130   4.154   3.213  16.821  0.2802  0.0856  0.1411
 5891SOL     OW29131   3.099   4.441   5.077 -0.6478  0.4038  0.8236
 5891SOL    HW129132   3.062   4.377   5.138 -2.5494 -1.0826 -1.9137
 5891SOL    HW229133   3.070   4.397   4.998  1.4852 -0.1527  0.3397
 5892SOL     OW29134   1.272   0.037   2.284  0.4304 -0.0553  0.7130
 5892SOL    HW129135   1.328   0.008   2.212  1.6322  1.1602  1.1269
 5892SOL    HW229136   1.184   0.034   2.248 -0.0972 -0.7720  2.0842
 5893SOL     OW29137   1.776   1.046   2.404  0.0407 -0.9392 -0.3937
 5893SOL    HW129138   1.747   1.119   2.350  0.8542 -0.7671 -0.5962
 5893SOL    HW229139   1.871   1.058   2.398 -0.1917 -0.1373 -2.2944
 5894SOL     OW29140   3.074   4.098   7.224 -0.1697  0.0865  0.5966
 5894SOL    HW129141   3.022   4.024   7.192  1.3892 -1.4537  1.6214
 5894SOL    HW229142   3.033   4.171   7.178  0.1762 -0.2889 -0.3196
 5895SOL     OW29143   3.731   1.285   3.644  0.2820 -0.6553  0.0063
 5895SOL    HW129144   3.810   1.244   3.679 -0.0046  0.9086  2.5042
 5895SOL    HW229145   3.764   1.289   3.554 -0.4252  0.1539 -0.2185
 5896SOL     OW29146   4.227   0.261   3.458 -0.1116 -0.2094  0.2843
 5896SOL    HW129147   4.289   0.191   3.435 -0.0903 -0.8487  2.2821
 5896SOL    HW229148   4.273   0.335   3.418 -0.2702 -1.2066 -1.7310
 5897SOL     OW29149   4.428   4.059   3.981 -0.0973 -0.3078  0.3531
 5897SOL    HW129150   4.465   3.983   4.026 -0.3647 -0.6853 -0.0640
 5897SOL    HW229151   4.469   4.136   4.021  0.0714 -0.6393  0.8082
 5898SOL     OW29152   0.315   1.133   0.727  0.0257  0.3597  0.2977
 5898SOL    HW129153   0.270   1.160   0.807 -0.3192 -1.8511  0.8351
 5898SOL    HW229154   0.405   1.126   0.760  1.7620  3.5760 -3.6361
 5899SOL     OW29155   0.817   0.159   6.991 -0.5614 -0.0347 -0.3878
 5899SOL    HW129156   0.824   0.234   7.050 -2.1047  0.8652 -1.3595
 5899SOL    HW229157   0.896   0.180   6.941 -1.2700 -2.6861 -2.6601
 5900SOL     OW29158   3.370   0.226   9.356  0.1490 -0.0847 -0.1817
 5900SOL    HW129159   3.317   0.154   9.389 -0.0520  0.5365  0.8582
 5900SOL    HW229160   3.329   0.310   9.379 -0.8674 -0.6438  0.0326
 5901SOL     OW29161   2.780   3.008   6.567 -0.6006 -0.5465 -0.3878
 5901SOL    HW129162   2.700   2.999   6.619 -0.0521 -1.0183  0.3799
 5901SOL    HW229163   2.844   2.944   6.598  0.7775  1.1879  0.3688
 5902SOL     OW29164   4.345   4.578   8.262  0.1848 -0.1783  0.4428
 5902SOL    HW129165   4.306   4.631   8.193  0.8505  0.9806  0.9576
 5902SOL    HW229166   4.312   4.632   8.334 -0.2410  0.4786 -0.2507
 5903SOL     OW29167   0.212   0.342   6.387 -0.2957  0.0442 -0.2061
 5903SOL    HW129168   0.214   0.346   6.291  2.8962  1.8048 -0.0563
 5903SOL    HW229169   0.131   0.389   6.405 -0.7923 -0.5086 -1.0067
 5904SOL     OW29170   0.341   1.592  13.821 -0.7028  0.4170 -0.7135
 5904SOL    HW129171   0.326   1.502  13.851  1.1688  0.8424  1.5128
 5904SOL    HW229172   0.328   1.640  13.903 -3.3153  3.3455 -2.8725
 5905SOL     OW29173   3.729   3.849   6.931  0.0395  0.2032  0.5267
 5905SOL    HW129174   3.784   3.780   6.969  0.3838  0.5279  0.6222
 5905SOL    HW229175   3.750   3.916   6.997 -2.5861 -0.1061  1.6829
 5906SOL     OW29176   4.405   1.877   5.423  0.2012  0.7190  0.0160
 5906SOL    HW129177   4.484   1.826   5.407  1.3182  3.1867 -2.4239
 5906SOL    HW229178   4.366   1.858   5.508  2.3019 -1.5838  0.4446
 5907SOL     OW29179   3.514   0.962   8.333  0.7777  0.2201 -0.3146
 5907SOL    HW129180   3.450   0.952   8.262 -0.3065  1.0128  0.5421
 5907SOL    HW229181   3.455   0.978   8.407 -0.4513  0.7640 -1.3933
 5908SOL     OW29182   2.742   0.470   5.046 -0.3978 -0.2195 -0.7027
 5908SOL    HW129183   2.651   0.493   5.031 -1.0177 -2.0960  0.2722
 5908SOL    HW229184   2.748   0.414   5.124  1.4710 -0.1115 -0.7587
 5909SOL     OW29185   3.279   1.045   2.915 -0.1988  0.0574 -0.6818
 5909SOL    HW129186   3.195   1.064   2.956  0.8628  0.2104  1.4836
 5909SOL    HW229187   3.304   0.956   2.940 -0.7876  0.0260 -0.2062
 5910SOL     OW29188   0.333   4.715  10.781  0.9323 -0.0501 -0.7506
 5910SOL    HW129189   0.422   4.690  10.805  0.7131  1.6089  1.7213
 5910SOL    HW229190   0.349   0.063  10.719 -2.2561  0.5263 -0.9193
 5911SOL     OW29191   1.048   4.469   7.612 -0.4184  0.5196 -0.6332
 5911SOL    HW129192   0.962   4.433   7.635 -0.6760  0.0414 -2.3051
 5911SOL    HW229193   1.090   4.384   7.597 -1.2119 -0.0606  0.3995
 5912SOL     OW29194   0.756   2.229   5.594 -0.3831 -0.3817 -0.4819
 5912SOL    HW129195   0.752   2.324   5.582 -0.1100 -0.0535  2.0245
 5912SOL    HW229196   0.851   2.225   5.605 -0.3878  1.1329  0.1960
 5913SOL     OW29197   0.410   3.139   8.258  0.1591  0.0616  0.2866
 5913SOL    HW129198   0.383   3.230   8.253 -3.4090 -1.1726 -2.4170
 5913SOL    HW229199   0.338   3.107   8.311 -0.3166  1.4209  0.4482
 5914SOL     OW29200   4.361   0.243   9.755 -0.0510 -0.1572 -0.1521
 5914SOL    HW129201   4.280   0.214   9.796  0.0595 -0.3275 -0.0551
 5914SOL    HW229202   4.338   0.258   9.663  1.7534  0.1761 -0.5613
 5915SOL     OW29203   1.259   3.319   5.587 -0.7030 -0.5460 -0.2360
 5915SOL    HW129204   1.347   3.332   5.550 -1.6091  1.1157 -1.7790
 5915SOL    HW229205   1.240   3.404   5.624 -1.6360 -0.4863 -0.8354
 5916SOL     OW29206   2.489   0.781   8.226  0.4267 -0.7166  0.2565
 5916SOL    HW129207   2.549   0.837   8.176  0.8292 -1.0226  0.3864
 5916SOL    HW229208   2.454   0.721   8.160  2.2740 -0.7325 -0.7203
 5917SOL     OW29209   3.941   0.430   5.390 -0.1721 -0.3547 -0.4044
 5917SOL    HW129210   3.991   0.489   5.447 -1.9439  1.5300 -0.7842
 5917SOL    HW229211   3.868   0.418   5.450 -0.2975  0.7483 -0.3368
 5918SOL     OW29212   0.961   4.647   2.732  0.1742 -0.4394  0.0226
 5918SOL    HW129213   1.012   4.666   2.810 -0.1221  0.8079 -0.0974
 5918SOL    HW229214   1.031   4.631   2.669  0.0944  0.3758 -0.2768
 5919SOL     OW29215   3.330   0.239   5.029 -0.7233 -0.1386  0.0650
 5919SOL    HW129216   3.291   0.271   5.111 -1.3580 -0.0343 -0.2719
 5919SOL    HW229217   3.419   0.214   5.053 -0.2852 -0.7484 -2.2028
 5920SOL     OW29218   2.676   1.903  14.521  0.6731 -0.1874 -0.2410
 5920SOL    HW129219   2.764   1.876  14.547  0.8872  1.9797  1.3096
 5920SOL    HW229220   2.629   1.900  14.604  0.7521  2.4528 -0.0824
 5921SOL     OW29221   0.869   1.946   3.094  0.7235  0.1314  0.7318
 5921SOL    HW129222   0.774   1.932   3.090  0.8952 -1.0614  0.7904
 5921SOL    HW229223   0.893   1.908   3.010  0.2613 -2.0177  1.5705
 5922SOL     OW29224   3.366   4.499  11.265 -0.3232 -0.5960 -0.1564
 5922SOL    HW129225   3.383   4.504  11.359 -0.3267  1.0127 -0.2409
 5922SOL    HW229226   3.444   4.540  11.228 -0.9175  1.4012  0.8165
 5923SOL     OW29227   1.721   0.096   5.638 -0.1436 -0.4958 -0.2172
 5923SOL    HW129228   1.797   0.154   5.643  0.5046 -1.4699  1.0744
 5923SOL    HW229229   1.662   0.142   5.697  0.2409 -0.1147 -0.1341
 5924SOL     OW29230   3.204   4.036   4.599  0.3523  0.1948 -0.0855
 5924SOL    HW129231   3.253   3.959   4.570  0.1436  0.1728 -0.3874
 5924SOL    HW229232   3.218   4.084   4.517 -0.1955  1.7772  0.7541
 5925SOL     OW29233   4.372   0.529   8.218 -0.9538  0.2982  0.4339
 5925SOL    HW129234   4.459   0.549   8.253 -0.2529  0.6034 -1.4826
 5925SOL    HW229235   4.311   0.589   8.261 -0.1827  1.4268 -0.0478
 5926SOL     OW29236   0.816   3.720   9.609  0.4430  0.2450 -0.9011
 5926SOL    HW129237   0.769   3.737   9.691  2.9618  1.5923  0.2659
 5926SOL    HW229238   0.902   3.756   9.629  0.2473 -0.1426  0.6956
 5927SOL     OW29239   3.503   1.649  12.490 -0.5428  0.0524  1.0071
 5927SOL    HW129240   3.519   1.628  12.583  2.5389  0.6874  0.6103
 5927SOL    HW229241   3.543   1.571  12.451 -0.0400  2.0402 -2.3856
 5928SOL     OW29242   1.138   0.211  13.039 -0.5155  0.3678 -0.0239
 5928SOL    HW129243   1.059   0.173  13.077  1.1409 -1.7742  1.2947
 5928SOL    HW229244   1.170   0.130  12.997  0.8089  0.6503  0.4397
 5929SOL     OW29245   1.159   4.502   9.314  0.4404  0.4426 -0.7327
 5929SOL    HW129246   1.086   4.515   9.254 -1.3024  0.8885  1.4745
 5929SOL    HW229247   1.128   4.546   9.393  2.6059 -0.6687  0.7420
 5930SOL     OW29248   0.841   0.122   3.528 -0.5408  0.1991 -0.3406
 5930SOL    HW129249   0.754   0.161   3.526 -0.0304  1.4501  2.1356
 5930SOL    HW229250   0.882   0.151   3.446 -0.2748 -0.6888 -0.5313
 5931SOL     OW29251   0.400   3.191   9.830  0.0759 -0.0344 -0.2314
 5931SOL    HW129252   0.374   3.247   9.757 -0.8624 -0.4286 -0.2048
 5931SOL    HW229253   0.322   3.137   9.840  1.3679 -1.8866 -0.1656
 5932SOL     OW29254   0.444   0.164   1.742 -0.1299  0.3876 -0.0523
 5932SOL    HW129255   0.493   0.176   1.661  0.5910 -3.1071 -0.1134
 5932SOL    HW229256   0.362   0.198   1.707 -0.0511 -1.6668 -2.1444
 5933SOL     OW29257   4.475   1.470   8.244 -0.0077 -0.2986  0.1963
 5933SOL    HW129258   4.452   1.447   8.154 -2.7379  0.6980  0.6684
 5933SOL    HW229259   4.440   1.559   8.245  0.6513 -0.0272 -0.2321
 5934SOL     OW29260   4.394   0.391  17.455  0.1119 -0.0440  0.1578
 5934SOL    HW129261   4.430   0.384  17.367 -0.3937 -2.2475  0.1143
 5934SOL    HW229262   4.309   0.430  17.436  0.8720  0.5076 -2.0642
 5935SOL     OW29263   4.623   2.731   7.768  0.1986 -0.2789  0.1436
 5935SOL    HW129264   4.689   2.748   7.836 -0.8625  2.9280  0.3765
 5935SOL    HW229265   4.575   2.813   7.757  0.3861 -0.1998 -0.0820
 5936SOL     OW29266   1.006   3.947  10.466 -0.0465  0.5200 -0.3244
 5936SOL    HW129267   1.083   3.899  10.494  0.1796  1.8363  1.3530
 5936SOL    HW229268   0.951   3.889  10.519  0.8586 -0.9421 -0.9877
 5937SOL     OW29269   0.095   0.325   1.936 -0.3064 -0.0894  0.1560
 5937SOL    HW129270   0.069   0.369   1.855 -1.7558  0.1663  0.7538
 5937SOL    HW229271   0.074   0.399   1.994  2.0088 -0.6597  1.7111
 5938SOL     OW29272   2.157   3.533   5.879 -0.4128  0.0680  0.0203
 5938SOL    HW129273   2.210   3.542   5.958 -0.7885  1.1710  0.1406
 5938SOL    HW229274   2.225   3.494   5.825  1.5477  0.3410  2.2850
 5939SOL     OW29275   3.613   0.008   6.530  0.1337  0.0689 -0.1148
 5939SOL    HW129276   3.618   0.021   6.435  0.2259 -0.6604 -0.2094
 5939SOL    HW229277   3.624   4.636   6.530  3.0580  0.4084 -0.9400
 5940SOL     OW29278   1.846   4.013   3.226  0.1589  0.5317 -0.8346
 5940SOL    HW129279   1.820   3.921   3.232  0.5302  0.6583  2.9817
 5940SOL    HW229280   1.932   4.007   3.184  0.2735  1.1652 -0.6903
 5941SOL     OW29281   3.820   4.037   7.083 -0.1887 -0.1638  0.0601
 5941SOL    HW129282   3.898   4.068   7.129 -0.3093 -1.7275  1.3184
 5941SOL    HW229283   3.791   4.122   7.049 -0.7108  0.5355  2.2293
 5942SOL     OW29284   3.318   2.471   3.116 -0.3329 -0.1057  0.3359
 5942SOL    HW129285   3.316   2.496   3.208  0.9209  0.2848  0.2558
 5942SOL    HW229286   3.223   2.470   3.104 -0.6459  0.6894  2.8753
 5943SOL     OW29287   1.855   1.119  12.752 -0.3815 -0.1100  0.5913
 5943SOL    HW129288   1.798   1.042  12.751  0.8161 -0.9758 -2.0011
 5943SOL    HW229289   1.893   1.118  12.663  0.3913 -0.1194  0.9199
 5944SOL     OW29290   2.720   2.549   2.207 -0.1372  0.4526  0.1319
 5944SOL    HW129291   2.678   2.482   2.152  1.7259 -0.7880  0.2180
 5944SOL    HW229292   2.649   2.613   2.207 -0.0566  0.5385  0.3274
 5945SOL     OW29293   2.030   1.636   1.832 -0.0995 -0.4438  0.0424
 5945SOL    HW129294   1.953   1.590   1.865 -0.1643  0.7703  1.6091
 5945SOL    HW229295   2.057   1.683   1.911  0.6595 -1.0708  0.1556
 5946SOL     OW29296   0.828   3.538   7.219 -0.1130  0.1277  0.6818
 5946SOL    HW129297   0.816   3.627   7.186  0.5490  0.6836  1.9445
 5946SOL    HW229298   0.745   3.520   7.263 -1.1245  1.8482 -0.5145
 5947SOL     OW29299   0.147   2.764  16.517  0.5842 -0.0571 -0.0690
 5947SOL    HW129300   0.054   2.742  16.513  0.8734 -1.6638  2.0669
 5947SOL    HW229301   0.176   2.730  16.602 -1.3673 -2.3850 -0.3145
 5948SOL     OW29302   0.541   4.098   3.605  0.1366  1.0035  0.1876
 5948SOL    HW129303   0.605   4.048   3.553 -0.0301 -2.0159  2.8795
 5948SOL    HW229304   0.533   4.048   3.686 -0.3371 -0.4049 -0.7293
 5949SOL     OW29305   1.977   3.162  11.622 -0.0550  0.6506  0.3855
 5949SOL    HW129306   1.905   3.219  11.646  0.6990  1.3391  1.0227
 5949SOL    HW229307   1.937   3.111  11.551 -0.6210  1.8372 -0.1500
 5950SOL     OW29308   2.337   2.207   5.890 -0.4821 -0.3197 -0.1662
 5950SOL    HW129309   2.252   2.196   5.848 -0.6195  0.6717 -0.1492
 5950SOL    HW229310   2.317   2.165   5.973  0.3659  0.6942  0.5559
 5951SOL     OW29311   2.366   2.055  14.675  0.0178  0.3050  0.2644
 5951SOL    HW129312   2.382   2.132  14.621  0.2874 -0.2843 -0.4903
 5951SOL    HW229313   2.444   2.067  14.729  0.1464 -2.2751  0.6190
 5952SOL     OW29314   1.559   0.795   3.988 -0.0356  0.1133  0.0826
 5952SOL    HW129315   1.633   0.733   3.986  0.4532  0.6305  2.8453
 5952SOL    HW229316   1.576   0.851   3.912 -0.1212 -2.3890 -1.8152
 5953SOL     OW29317   0.244   0.842   1.195 -0.7356 -0.0703 -0.6471
 5953SOL    HW129318   0.329   0.883   1.181 -0.3022 -0.8695 -0.3717
 5953SOL    HW229319   0.201   0.908   1.248 -0.1056 -0.3443  0.2036
 5954SOL     OW29320   2.371   3.848   7.008  0.8132 -0.0665  0.1120
 5954SOL    HW129321   2.294   3.846   6.951 -0.2913  0.7938  1.5679
 5954SOL    HW229322   2.391   3.935   7.041  0.6119  0.2649 -0.6596
 5955SOL     OW29323   3.083   3.647   3.723 -0.0431  0.1410 -0.1376
 5955SOL    HW129324   3.144   3.581   3.756  0.7541  0.6576 -0.5687
 5955SOL    HW229325   3.001   3.624   3.767 -0.5631  0.0176 -1.1749
 5956SOL     OW29326   3.248   3.005   8.204  0.1404  0.4143  0.2627
 5956SOL    HW129327   3.257   2.909   8.203  0.5595  0.4549  0.2331
 5956SOL    HW229328   3.155   3.011   8.226  0.1362  0.6122  0.1875
 5957SOL     OW29329   1.756   2.880   5.912 -0.1631  0.5130  0.0262
 5957SOL    HW129330   1.738   2.839   5.827 -1.7808 -0.6661  0.9355
 5957SOL    HW229331   1.840   2.917   5.886 -0.1177 -0.7090 -1.6281
 5958SOL     OW29332   4.343   3.241   7.158 -0.0719  0.4562  0.7241
 5958SOL    HW129333   4.379   3.250   7.246  2.2398 -1.2471 -0.0346
 5958SOL    HW229334   4.420   3.267   7.106  0.1306 -3.1380 -0.7686
 5959SOL     OW29335   1.629   2.907   4.521 -0.3419  0.0057 -0.2366
 5959SOL    HW129336   1.623   2.960   4.441 -0.2886  2.4331  1.3530
 5959SOL    HW229337   1.578   2.827   4.506  2.3341 -1.7165 -0.1895
 5960SOL     OW29338   0.568   2.741   9.937 -0.5480 -0.3115 -0.1984
 5960SOL    HW129339   0.539   2.803   9.870 -1.2465 -0.8199 -0.3676
 5960SOL    HW229340   0.654   2.715   9.904 -1.4235 -2.0468 -1.1669
 5961SOL     OW29341   3.146   2.402  11.332  0.3868 -0.0838 -0.5001
 5961SOL    HW129342   3.171   2.439  11.248 -1.3118  1.0873 -0.4893
 5961SOL    HW229343   3.123   2.479  11.383 -0.9458 -0.5387 -0.4213
 5962SOL     OW29344   3.031   2.909   1.797 -0.1652 -0.1997 -0.4759
 5962SOL    HW129345   3.026   2.895   1.702 -0.1386 -0.8652 -0.3834
 5962SOL    HW229346   2.937   2.916   1.816 -0.1713  1.0853 -1.0355
 5963SOL     OW29347   3.852   0.230   4.692 -0.1095 -0.3891  0.1610
 5963SOL    HW129348   3.906   0.241   4.770  3.5015 -0.7622 -2.2724
 5963SOL    HW229349   3.766   0.265   4.717 -0.0627 -0.5891  0.5996
 5964SOL     OW29350   0.388   0.118  16.021  0.4141 -0.2168  0.4849
 5964SOL    HW129351   0.339   0.176  15.963 -1.6577  0.5523  3.0545
 5964SOL    HW229352   0.423   0.052  15.960 -1.3067  0.4165 -1.1924
 5965SOL     OW29353   2.541   3.104   8.990  0.7448  0.4033 -0.3210
 5965SOL    HW129354   2.558   3.019   9.030 -0.3516  0.4469  0.2363
 5965SOL    HW229355   2.446   3.109   8.994  0.5678 -1.8441 -1.6729
 5966SOL     OW29356   4.314   0.494   1.930  0.0658 -0.1790  0.4402
 5966SOL    HW129357   4.375   0.422   1.915  0.4848  0.4924 -1.0104
 5966SOL    HW229358   4.358   0.547   1.997 -0.1341 -0.2732  0.6460
 5967SOL     OW29359   3.893   4.089   7.640 -0.5301  0.0270  0.0806
 5967SOL    HW129360   3.813   4.052   7.676 -0.0419 -2.1517 -1.0444
 5967SOL    HW229361   3.969   4.039   7.669 -0.0882 -0.6069 -2.1449
 5968SOL     OW29362   1.600   3.802   0.444 -0.4361  0.1255 -0.1339
 5968SOL    HW129363   1.570   3.751   0.518  1.9909 -1.4449 -0.2282
 5968SOL    HW229364   1.628   3.888   0.477 -0.7028  0.5153 -0.9010
 5969SOL     OW29365   4.351   1.089   5.386 -0.7288  0.7473  0.1343
 5969SOL    HW129366   4.359   0.994   5.373  0.4943  0.8520  0.1062
 5969SOL    HW229367   4.431   1.113   5.434  1.0528  0.1225 -2.5060
 5970SOL     OW29368   3.504   0.385   1.083 -0.8749 -0.0149 -0.4411
 5970SOL    HW129369   3.494   0.480   1.069  0.0126  0.0527 -0.6446
 5970SOL    HW229370   3.595   0.372   1.054 -1.1891 -0.1533 -1.3611
 5971SOL     OW29371   0.133   3.599   5.470 -0.0050  0.3600 -0.6069
 5971SOL    HW129372   0.097   3.545   5.399 -1.3056 -0.5724  0.7691
 5971SOL    HW229373   0.189   3.659   5.421  0.7709  0.4830  0.4307
 5972SOL     OW29374   2.355   2.016   5.369 -0.2332 -0.6019  0.7624
 5972SOL    HW129375   2.410   1.941   5.349  0.5645  0.4220 -0.8973
 5972SOL    HW229376   2.317   1.986   5.451 -0.2748 -0.1409  0.9140
 5973SOL     OW29377   2.811   1.979   3.063 -0.3685  0.2355 -0.1132
 5973SOL    HW129378   2.780   2.054   3.114 -0.4196 -1.1709  1.9275
 5973SOL    HW229379   2.731   1.939   3.031  0.9626 -0.5543 -2.4394
 5974SOL     OW29380   2.619   1.211  15.247 -0.1655 -0.5561 -0.2030
 5974SOL    HW129381   2.650   1.162  15.323  3.5766  0.9414 -0.7490
 5974SOL    HW229382   2.562   1.275  15.290 -0.4219 -0.2208 -1.0345
 5975SOL     OW29383   0.572   2.035  11.746  0.4436 -0.8177 -0.9322
 5975SOL    HW129384   0.504   2.008  11.684 -0.7696  0.5610 -0.1932
 5975SOL    HW229385   0.530   2.019  11.830  0.4295 -0.0723 -0.7943
 5976SOL     OW29386   1.000   3.160  15.845 -0.1356 -0.4337 -0.2211
 5976SOL    HW129387   0.955   3.244  15.847  2.3203  0.8709  0.3413
 5976SOL    HW229388   1.061   3.160  15.771  1.9103  0.4670  1.4750
 5977SOL     OW29389   3.039   0.009   6.413 -0.1895  0.1559  0.3260
 5977SOL    HW129390   2.946   0.017   6.434 -1.2606 -4.4575 -2.5435
 5977SOL    HW229391   3.034   4.655   6.355  0.9155 -1.0965  1.8998
 5978SOL     OW29392   2.958   0.147   0.763 -0.1983 -0.0165  0.0447
 5978SOL    HW129393   2.893   0.078   0.777 -0.9473  0.4777 -1.0118
 5978SOL    HW229394   3.013   0.088   0.712 -0.9597 -1.3010  0.7290
 5979SOL     OW29395   3.948   0.829   5.290 -0.1873  0.4362 -0.3424
 5979SOL    HW129396   4.023   0.792   5.337 -0.7293 -0.3542 -0.1047
 5979SOL    HW229397   3.964   0.781   5.209  0.5405 -0.8940  0.5946
 5980SOL     OW29398   0.364   1.385   8.453 -0.0639 -0.0142 -0.0483
 5980SOL    HW129399   0.283   1.409   8.408 -0.4139  0.1785  0.6791
 5980SOL    HW229400   0.382   1.301   8.413  0.1146 -1.1495  2.4045
 5981SOL     OW29401   4.585   3.266   7.006 -0.5684  0.4796 -0.4226
 5981SOL    HW129402   4.582   3.298   6.915 -2.2909  0.9566 -0.1943
 5981SOL    HW229403   4.677   3.278   7.029 -0.8225  1.2420  0.2096
 5982SOL     OW29404   4.304   3.358   7.988  0.3293  0.0642  0.0209
 5982SOL    HW129405   4.330   3.268   7.968 -2.1931 -0.3076 -1.5365
 5982SOL    HW229406   4.380   3.384   8.040  0.5767  2.6555 -1.6298
 5983SOL     OW29407   0.038   1.114   4.143  0.2209  0.2056  0.1342
 5983SOL    HW129408   0.004   1.112   4.054  2.2520  1.1601 -0.6690
 5983SOL    HW229409   0.123   1.151   4.119 -0.0722 -0.2419 -1.5770
 5984SOL     OW29410   2.789   1.222   7.884 -0.1415  0.1387  0.0418
 5984SOL    HW129411   2.751   1.255   7.803  2.0094  0.2850 -0.9009
 5984SOL    HW229412   2.872   1.196   7.845 -0.4527 -0.3706 -0.2692
 5985SOL     OW29413   4.109   1.480   4.209 -0.2066 -0.3298  0.7325
 5985SOL    HW129414   4.094   1.391   4.243 -4.0368 -0.4219 -1.2144
 5985SOL    HW229415   4.141   1.465   4.120 -0.1500 -0.5845  0.7936
 5986SOL     OW29416   4.320   4.347   7.489  0.3720  0.4560  0.0785
 5986SOL    HW129417   4.256   4.418   7.485 -1.0593 -0.8267  0.4469
 5986SOL    HW229418   4.293   4.291   7.417  0.6358  0.5737 -0.1100
 5987SOL     OW29419   0.713   0.039   2.875 -0.3985 -0.9259 -0.2106
 5987SOL    HW129420   0.659   4.688   2.902 -1.7230  0.4864  1.0038
 5987SOL    HW229421   0.783   4.708   2.837 -0.4521 -1.0225 -0.1711
 5988SOL     OW29422   0.133   2.921   6.134  0.1162  0.2639 -0.2026
 5988SOL    HW129423   0.212   2.868   6.122  0.2488  0.7857 -1.6457
 5988SOL    HW229424   0.180   3.003   6.116  0.2161  0.4997  1.1240
 5989SOL     OW29425   3.489   3.020   4.434 -0.3562 -0.2204  0.4358
 5989SOL    HW129426   3.556   2.952   4.429 -2.3673 -2.1976  0.2826
 5989SOL    HW229427   3.518   3.076   4.506 -0.2973  0.4855 -0.1318
 5990SOL     OW29428   4.275   2.928   5.153  0.3109  0.2448  0.5303
 5990SOL    HW129429   4.198   2.946   5.208 -2.4102 -1.3327 -2.7209
 5990SOL    HW229430   4.231   2.921   5.068 -0.8779  1.7210  1.0151
 5991SOL     OW29431   3.820   4.610   8.282  0.0166  0.1135 -0.7533
 5991SOL    HW129432   3.875   4.661   8.342  1.0221 -1.0301 -0.7072
 5991SOL    HW229433   3.730   4.620   8.313  0.8395  1.1528  1.2809
 5992SOL     OW29434   4.116   1.969   3.576 -0.2613 -0.2377  0.2627
 5992SOL    HW129435   4.205   1.996   3.598 -0.4777  1.4359 -0.9342
 5992SOL    HW229436   4.125   1.967   3.480 -1.1531  2.6544  0.1482
 5993SOL     OW29437   1.578   0.530   1.893  0.3071  0.1366  0.6266
 5993SOL    HW129438   1.596   0.524   1.799  0.6189  1.3670  0.6132
 5993SOL    HW229439   1.660   0.494   1.929  0.3366 -0.9413 -0.5132
 5994SOL     OW29440   2.932   3.244   1.430  0.0811  0.5997 -0.2220
 5994SOL    HW129441   2.927   3.339   1.438  2.3455  0.8761 -2.1142
 5994SOL    HW229442   2.860   3.220   1.489  0.0523 -0.7740 -0.8090
 5995SOL     OW29443   1.891   3.428   0.021 -0.2611 -0.2083 -0.3335
 5995SOL    HW129444   1.919   3.404  17.625 -0.8002 -1.6974 -0.0967
 5995SOL    HW229445   1.798   3.444   0.006 -0.5884 -0.8768  0.9413
 5996SOL     OW29446   1.992   1.013   2.633  0.7726  0.7464 -0.1951
 5996SOL    HW129447   2.059   0.956   2.670  0.3548  2.1801  2.8363
 5996SOL    HW229448   2.006   0.997   2.540 -1.5496  0.4411 -0.4922
 5997SOL     OW29449   3.534   4.259  14.614 -0.2425  0.4518 -0.2598
 5997SOL    HW129450   3.562   4.277  14.704  0.3644  0.5285 -0.4648
 5997SOL    HW229451   3.587   4.184  14.586 -2.8515 -1.5036  0.1513
 5998SOL     OW29452   4.514   3.750   7.539  0.1719 -0.6831  0.2709
 5998SOL    HW129453   4.461   3.824   7.567 -1.5663 -0.8954 -2.4399
 5998SOL    HW229454   4.458   3.674   7.555  1.1869 -0.8527  3.0578
 5999SOL     OW29455   2.882   0.224  10.962  0.2294 -0.0308  0.6264
 5999SOL    HW129456   2.920   0.294  11.016  0.2494 -1.5092  2.5560
 5999SOL    HW229457   2.903   0.149  11.018  0.7339  2.1531  3.3409
 6000SOL     OW29458   2.755   2.990   3.030  0.2375  0.4740 -0.8902
 6000SOL    HW129459   2.785   2.940   2.954 -0.8228  1.4468 -1.9527
 6000SOL    HW229460   2.828   2.980   3.090 -0.3444  2.6364  0.2062
 6001SOL     OW29461   4.146   1.185  12.956  0.2642  0.2506  0.6290
 6001SOL    HW129462   4.136   1.091  12.941  0.7580  0.4296 -0.8650
 6001SOL    HW229463   4.143   1.227  12.869 -0.7502 -0.7841  0.1691
 6002SOL     OW29464   3.883   1.094   6.970  0.5725 -0.3907 -0.4731
 6002SOL    HW129465   3.810   1.086   6.908  0.7272 -0.8844 -0.5898
 6002SOL    HW229466   3.871   1.003   6.998 -1.1133 -0.2641 -0.7608
 6003SOL     OW29467   3.776   0.406   1.057 -0.3951 -0.2537  0.4716
 6003SOL    HW129468   3.789   0.439   1.146  1.6372 -0.5887  0.3163
 6003SOL    HW229469   3.800   0.478   0.999  2.9780 -0.0822  2.0834
 6004SOL     OW29470   0.904   1.952   8.698  0.2642 -0.4782  0.3547
 6004SOL    HW129471   0.895   2.023   8.761  0.0325  0.4954 -0.7688
 6004SOL    HW229472   0.826   1.970   8.646  0.7070  0.3038 -0.0344
 6005SOL     OW29473   4.127   4.524  10.059  0.1989  0.8958  0.3540
 6005SOL    HW129474   4.167   4.453  10.108 -2.4231  0.7139  2.2389
 6005SOL    HW229475   4.204   4.581  10.052  1.8933 -1.3845  0.8165
 6006SOL     OW29476   2.857   0.857  12.599 -0.4546 -0.1912 -0.1085
 6006SOL    HW129477   2.926   0.923  12.594  1.5098 -2.0441  2.0738
 6006SOL    HW229478   2.919   0.784  12.594  0.6921  0.8529 -1.0930
 6007SOL     OW29479   2.293   2.433   8.002  0.2648  0.0002  0.3980
 6007SOL    HW129480   2.227   2.429   7.934  0.7224  0.4722 -0.0707
 6007SOL    HW229481   2.293   2.339   8.021 -0.1127  0.0094  0.4365
 6008SOL     OW29482   4.102   4.157  13.801 -0.0791 -0.3569 -0.1493
 6008SOL    HW129483   4.158   4.225  13.839  0.2143 -1.4179  1.3171
 6008SOL    HW229484   4.101   4.101  13.879  0.9791 -0.8779 -0.5157
 6009SOL     OW29485   3.812   1.325   8.125 -0.1140  0.5793  0.2501
 6009SOL    HW129486   3.724   1.363   8.126 -0.1114  0.6131 -0.7460
 6009SOL    HW229487   3.784   1.241   8.163 -0.4100  0.4320 -0.2965
 6010SOL     OW29488   2.905   4.546   8.781  0.3521 -0.4175 -0.6913
 6010SOL    HW129489   2.913   4.586   8.868  0.7226 -0.6287 -0.6286
 6010SOL    HW229490   2.968   4.475   8.791  0.4717 -0.0903  0.9988
 6011SOL     OW29491   2.881   2.412  11.819 -0.7233 -0.0730  0.2533
 6011SOL    HW129492   2.828   2.492  11.815  0.6038  0.6653 -2.6708
 6011SOL    HW229493   2.895   2.398  11.726  1.4301 -0.1490  0.5767
 6012SOL     OW29494   3.164   3.521   7.748  0.2619 -0.3985  0.0675
 6012SOL    HW129495   3.223   3.455   7.711 -1.2881 -1.0438 -1.2619
 6012SOL    HW229496   3.119   3.471   7.816 -0.0327 -2.5068 -1.7014
 6013SOL     OW29497   2.522   0.337   4.005  0.4571  0.1435  0.3579
 6013SOL    HW129498   2.442   0.287   3.987 -0.0952  1.2276 -0.2047
 6013SOL    HW229499   2.580   0.262   4.018 -2.8961 -2.8737 -2.0456
 6014SOL     OW29500   0.233   3.988   3.773 -0.2594  0.1296  0.3026
 6014SOL    HW129501   0.142   4.003   3.797 -0.3690  2.1751 -1.3983
 6014SOL    HW229502   0.234   3.901   3.733  0.0492  0.1297  0.3067
 6015SOL     OW29503   1.261   1.152  13.875 -0.6885 -0.0057 -0.3067
 6015SOL    HW129504   1.219   1.154  13.961  1.2343  4.3265  0.5792
 6015SOL    HW229505   1.190   1.104  13.832 -0.9971  0.4775 -0.3435
 6016SOL     OW29506   1.109   4.549   6.851 -0.2253 -0.2912 -0.2834
 6016SOL    HW129507   1.143   4.623   6.902 -0.6621 -0.6054  0.4598
 6016SOL    HW229508   1.123   4.582   6.762 -0.8343  3.1049  0.8875
 6017SOL     OW29509   4.469   2.320   8.330  0.4246  0.2565  0.0650
 6017SOL    HW129510   4.428   2.265   8.264 -2.9829  0.6778  1.8524
 6017SOL    HW229511   4.401   2.387   8.330  0.6984  0.5324 -1.1467
 6018SOL     OW29512   4.158   1.273  10.448 -0.3564 -0.1127 -0.1314
 6018SOL    HW129513   4.127   1.194  10.492  0.3116 -1.0823 -1.4092
 6018SOL    HW229514   4.119   1.265  10.361  1.2334 -2.7385 -0.5867
 6019SOL     OW29515   4.209   2.767   6.447 -0.0289 -0.8733  0.0602
 6019SOL    HW129516   4.247   2.698   6.394 -1.7883 -0.2860 -1.9413
 6019SOL    HW229517   4.123   2.791   6.412  0.6956  0.5922 -0.7135
 6020SOL     OW29518   3.213   2.008   2.583 -0.0093 -0.4389  0.5418
 6020SOL    HW129519   3.149   2.008   2.512  1.2340  2.0613 -0.5730
 6020SOL    HW229520   3.214   1.919   2.617  0.1386  0.2846  2.4401
 6021SOL     OW29521   2.670   0.761   5.625 -0.7005  0.7006  0.3820
 6021SOL    HW129522   2.735   0.827   5.599 -0.0989 -1.5333 -3.8098
 6021SOL    HW229523   2.621   0.823   5.679  0.1801  1.9616 -0.2498
 6022SOL     OW29524   3.663   3.939  12.036 -0.2705 -0.2377 -0.6149
 6022SOL    HW129525   3.608   4.004  12.080  0.2008  0.9600 -1.7694
 6022SOL    HW229526   3.735   3.998  12.013 -0.0225 -1.1934 -2.2773
 6023SOL     OW29527   0.640   2.250   1.169  0.3743  0.0373 -0.4103
 6023SOL    HW129528   0.723   2.298   1.175  0.6604 -0.4494 -0.5158
 6023SOL    HW229529   0.663   2.193   1.097 -1.3154 -1.3511  0.1434
 6024SOL     OW29530   1.813   3.391   0.567  0.2221  0.2884  0.5816
 6024SOL    HW129531   1.896   3.431   0.541 -0.2035 -0.2813 -1.6805
 6024SOL    HW229532   1.823   3.301   0.536 -1.1924  0.5867 -0.7250
 6025SOL     OW29533   1.233   0.208   4.865  0.1106 -0.2499  0.5750
 6025SOL    HW129534   1.302   0.192   4.801  0.2151  2.1892  0.0684
 6025SOL    HW229535   1.238   0.304   4.866 -0.1065 -0.2251 -1.0041
 6026SOL     OW29536   2.221   4.003   2.434  0.5332  0.2036 -0.3024
 6026SOL    HW129537   2.299   4.054   2.412  2.0926 -1.8442  0.4792
 6026SOL    HW229538   2.170   4.073   2.474  0.8226  0.6815 -0.7615
 6027SOL     OW29539   2.218   3.118  12.571 -0.0502  0.0929 -0.6149
 6027SOL    HW129540   2.312   3.099  12.571  0.0892  0.7743 -0.7438
 6027SOL    HW229541   2.185   3.029  12.566 -0.2029 -0.0428  2.3533
 6028SOL     OW29542   2.280   3.525  13.391  0.9072  0.4060 -0.0685
 6028SOL    HW129543   2.356   3.554  13.442  0.3688  0.3439  0.7556
 6028SOL    HW229544   2.219   3.597  13.404 -0.6652 -0.7228 -1.1210
 6029SOL     OW29545   4.527   0.137   2.107 -0.1494  0.1970 -0.0356
 6029SOL    HW129546   4.620   0.132   2.127  0.5383  2.3086 -2.7243
 6029SOL    HW229547   4.496   0.047   2.097  0.7115  0.0141 -0.9991
 6030SOL     OW29548   2.671   1.950   3.338 -0.1730  0.3377  0.4376
 6030SOL    HW129549   2.745   1.933   3.398 -0.1595  0.2812  0.4047
 6030SOL    HW229550   2.647   1.862   3.311  1.1355 -0.4805  1.9097
 6031SOL     OW29551   1.763   0.548   0.829 -0.0242  0.6019 -0.2064
 6031SOL    HW129552   1.803   0.628   0.863  0.3381  0.7327 -0.9365
 6031SOL    HW229553   1.685   0.548   0.884 -0.4876  1.7002 -0.8535
 6032SOL     OW29554   2.406   1.806   8.859  0.4267 -0.5270 -0.1387
 6032SOL    HW129555   2.417   1.900   8.864 -4.2468 -0.1632  3.1083
 6032SOL    HW229556   2.393   1.803   8.764 -3.0175  2.5764  0.2229
 6033SOL     OW29557   0.723   2.297  11.790  0.2995  0.1363  0.2655
 6033SOL    HW129558   0.635   2.276  11.822 -1.1215  1.7719 -2.5639
 6033SOL    HW229559   0.724   2.387  11.821  0.0274  0.3382 -0.3059
 6034SOL     OW29560   3.097   1.551   7.483 -0.1040  0.2903  0.8441
 6034SOL    HW129561   3.049   1.607   7.422 -0.8308 -1.1219  0.1092
 6034SOL    HW229562   3.189   1.562   7.461 -0.0797 -1.0223  0.2958
 6035SOL     OW29563   1.400   3.731   7.502  0.3420 -1.0159 -0.1500
 6035SOL    HW129564   1.421   3.823   7.491  0.3386 -1.3705 -3.1645
 6035SOL    HW229565   1.491   3.701   7.496  0.6431 -0.1415  0.0803
 6036SOL     OW29566   4.707   3.385   9.601 -0.2885  0.2036 -0.4867
 6036SOL    HW129567   4.663   3.359   9.682 -0.8017  1.2995 -0.4181
 6036SOL    HW229568   4.664   3.469   9.589 -1.0701 -0.2737 -1.0313
 6037SOL     OW29569   4.105   1.443  16.519  0.2879  0.2273  0.1338
 6037SOL    HW129570   4.043   1.449  16.591 -0.8682 -0.1238 -0.8245
 6037SOL    HW229571   4.122   1.533  16.491  0.5344  0.3110  0.5618
 6038SOL     OW29572   3.608   2.313   4.519  0.2179  0.2269 -0.1131
 6038SOL    HW129573   3.675   2.253   4.553  0.1066  1.1151  1.6800
 6038SOL    HW229574   3.619   2.294   4.426 -2.1004  0.0045 -0.3211
 6039SOL     OW29575   3.358   3.875   6.172 -0.1198 -0.4324 -0.4595
 6039SOL    HW129576   3.274   3.893   6.213 -0.7615  0.5012 -2.1857
 6039SOL    HW229577   3.422   3.893   6.241 -1.6943  2.4456  0.2281
 6040SOL     OW29578   4.188   1.249   0.842  0.3297  0.1329 -0.1943
 6040SOL    HW129579   4.107   1.199   0.840 -0.2501  0.8756  3.3842
 6040SOL    HW229580   4.165   1.337   0.812 -3.4015 -1.2831 -1.4754
 6041SOL     OW29581   2.295   3.849   0.541  0.5610 -0.3262 -0.0229
 6041SOL    HW129582   2.300   3.940   0.512  1.0002  0.1676  1.6413
 6041SOL    HW229583   2.200   3.833   0.535 -0.3405  5.2598 -0.9410
 6042SOL     OW29584   0.725   1.572   4.666 -0.5113  0.3788  0.0545
 6042SOL    HW129585   0.722   1.561   4.571 -0.9747  0.8014  0.0194
 6042SOL    HW229586   0.687   1.659   4.680 -1.4188  0.1551 -1.0776
 6043SOL     OW29587   0.798   1.213   3.678 -0.3974 -0.6177 -0.2202
 6043SOL    HW129588   0.798   1.187   3.586 -0.4790  0.2163 -0.4591
 6043SOL    HW229589   0.819   1.136   3.731 -1.0852 -1.1511 -0.7327
 6044SOL     OW29590   3.586   3.511   7.848 -0.4426 -0.3278  0.4480
 6044SOL    HW129591   3.680   3.529   7.850 -0.4217 -0.4395  0.4820
 6044SOL    HW229592   3.595   3.416   7.851 -1.5006 -0.4355 -0.1043
 6045SOL     OW29593   2.247   4.492   1.314 -0.1285 -0.5850  0.1536
 6045SOL    HW129594   2.172   4.449   1.272 -0.4582 -1.4375  1.6162
 6045SOL    HW229595   2.195   4.544   1.374 -0.3788 -0.9959  0.2912
 6046SOL     OW29596   3.777   4.642  15.805 -0.2875 -0.2209 -0.0103
 6046SOL    HW129597   3.725   4.655  15.725  2.7907  0.2095 -1.9318
 6046SOL    HW229598   3.847   4.701  15.779 -1.1194  1.0719  0.6823
 6047SOL     OW29599   3.201   2.609  13.775 -0.6242 -0.5469 -0.2386
 6047SOL    HW129600   3.190   2.626  13.681  1.2620  0.1426 -0.3198
 6047SOL    HW229601   3.114   2.635  13.806 -0.5270  1.3959 -1.5604
 6048SOL     OW29602   4.046   4.372   1.521 -0.5269  0.7683 -0.0931
 6048SOL    HW129603   3.992   4.388   1.597 -1.9284 -2.2421 -0.4460
 6048SOL    HW229604   4.056   4.277   1.517 -0.5259  0.7415  0.5911
 6049SOL     OW29605   0.184   3.002  14.230 -0.4052  0.7648  0.6164
 6049SOL    HW129606   0.099   2.983  14.191 -1.0668  0.4312  2.2291
 6049SOL    HW229607   0.225   2.968  14.151  1.5207 -1.8461  2.7467
 6050SOL     OW29608   0.235   4.545   4.285  0.4809  0.3702  0.4742
 6050SOL    HW129609   0.291   4.508   4.217  0.7935  0.9610  0.4090
 6050SOL    HW229610   0.267   4.634   4.294  2.3016 -0.1331 -1.1722
 6051SOL     OW29611   0.930   4.529   2.047  0.7621 -0.6474  0.0616
 6051SOL    HW129612   0.916   4.435   2.059 -0.8653 -0.2877  1.1210
 6051SOL    HW229613   0.848   4.568   2.015  0.5284 -0.5533  0.7767
 6052SOL     OW29614   4.045   3.945  17.326 -0.2532 -0.1270  0.6048
 6052SOL    HW129615   4.004   3.914  17.406  1.8658  0.6872  2.0042
 6052SOL    HW229616   4.127   3.896  17.337  0.4750  0.4766 -2.0007
 6053SOL     OW29617   4.135   3.491  10.869 -0.5256 -0.7771  0.4611
 6053SOL    HW129618   4.113   3.519  10.958  1.7789  0.5021  0.6229
 6053SOL    HW229619   4.054   3.451  10.838 -0.9443  0.4119  0.0273
 6054SOL     OW29620   2.854   3.352   3.041 -0.1293 -0.5190 -0.0538
 6054SOL    HW129621   2.874   3.295   2.967 -0.1925 -0.5680 -0.0325
 6054SOL    HW229622   2.924   3.417   3.030 -1.2236  0.8986  1.2926
 6055SOL     OW29623   1.788   2.361   4.027 -0.2916 -0.1649  0.4818
 6055SOL    HW129624   1.702   2.383   3.991  0.0693 -2.5555 -1.7783
 6055SOL    HW229625   1.765   2.344   4.119  1.0022  1.8043  1.1624
 6056SOL     OW29626   3.687   1.790   5.663 -0.3473 -0.0345  0.1002
 6056SOL    HW129627   3.738   1.735   5.723  0.2984  1.4128  0.9002
 6056SOL    HW229628   3.719   1.756   5.580 -1.3717  1.3323 -0.8531
 6057SOL     OW29629   2.977   1.787  15.587 -0.4451  0.9673  0.1320
 6057SOL    HW129630   2.895   1.784  15.637  0.3875 -1.2547  1.3735
 6057SOL    HW229631   3.015   1.867  15.621  2.1847 -0.0310 -0.5157
 6058SOL     OW29632   0.751   4.075  17.464 -0.0815 -0.5510 -0.2455
 6058SOL    HW129633   0.741   3.980  17.467  0.1564 -0.5090  2.0786
 6058SOL    HW229634   0.829   4.071  17.408  1.0234  2.3692  1.0781
 6059SOL     OW29635   2.834   0.755   8.344  0.0211  0.1228 -0.3160
 6059SOL    HW129636   2.859   0.839   8.307 -0.7932  0.7097  0.4719
 6059SOL    HW229637   2.905   0.745   8.407 -1.0435  1.9720  1.1726
 6060SOL     OW29638   4.523   2.100   3.273 -0.4215  0.0808  0.2951
 6060SOL    HW129639   4.433   2.072   3.291 -0.2846 -1.9529 -2.2299
 6060SOL    HW229640   4.567   2.048   3.340  0.7123  0.0433 -0.4914
 6061SOL     OW29641   1.733   2.264  12.899 -0.4951 -0.2952  0.1154
 6061SOL    HW129642   1.820   2.230  12.922  0.6802  2.5153 -0.1530
 6061SOL    HW229643   1.752   2.355  12.922  0.8443 -0.5440  0.0332
 6062SOL     OW29644   0.470   1.112   6.565  0.0237 -0.3741  0.4431
 6062SOL    HW129645   0.554   1.158   6.575 -0.5602  1.4922 -3.2670
 6062SOL    HW229646   0.478   1.069   6.480  0.7461  1.8871 -0.6466
 6063SOL     OW29647   0.556   2.872  13.578  0.6440  0.0753  0.3458
 6063SOL    HW129648   0.571   2.955  13.533 -0.5123  0.7842  1.2848
 6063SOL    HW229649   0.540   2.818  13.500 -0.7965 -0.8815  1.3012
 6064SOL     OW29650   2.015   2.732   2.096 -0.2349  0.0863 -0.0173
 6064SOL    HW129651   1.962   2.773   2.163 -0.6992 -1.0014  0.2729
 6064SOL    HW229652   1.989   2.797   2.030 -2.0297  0.4777  1.0949
 6065SOL     OW29653   4.487   1.327   4.013 -0.4253 -0.2522 -0.3755
 6065SOL    HW129654   4.402   1.361   3.983 -0.7597 -1.3071 -0.6248
 6065SOL    HW229655   4.494   1.343   4.107 -0.5076  1.4100 -0.6480
 6066SOL     OW29656   2.395   3.631   6.155 -0.4731  0.4023 -0.0056
 6066SOL    HW129657   2.394   3.679   6.072 -2.4215 -0.8704 -0.7276
 6066SOL    HW229658   2.459   3.686   6.200  0.0192  1.1570 -1.6541
 6067SOL     OW29659   0.132   1.605   6.362  0.3125 -0.2979 -0.1865
 6067SOL    HW129660   0.047   1.613   6.407  0.4652  2.1938 -0.3729
 6067SOL    HW229661   0.127   1.517   6.325 -0.5121 -1.0727  1.7262
 6068SOL     OW29662   3.284   2.766   1.820  0.4905  0.1055  0.5525
 6068SOL    HW129663   3.325   2.826   1.882  0.2777  0.0852  0.7107
 6068SOL    HW229664   3.219   2.808   1.764 -0.4710 -1.9610  0.1067
 6069SOL     OW29665   4.715   0.320  15.131  0.2119 -0.8346 -0.1351
 6069SOL    HW129666   0.019   0.347  15.219  2.9229  0.6363 -1.3987
 6069SOL    HW229667   0.080   0.334  15.093  0.6962 -1.5871  0.7077
 6070SOL     OW29668   0.065   1.510   7.960  0.1384 -0.5913  0.4118
 6070SOL    HW129669   0.142   1.460   7.934  0.1490 -1.0873  1.3912
 6070SOL    HW229670   0.098   1.559   8.036  0.5272  0.7858 -0.6411
 6071SOL     OW29671   2.007   4.690  12.392 -0.9808  0.6544 -0.0818
 6071SOL    HW129672   1.936   4.662  12.334  0.7391 -0.1451 -1.7785
 6071SOL    HW229673   2.080   4.694  12.330  0.6880 -1.1780  1.7552
 6072SOL     OW29674   0.900   0.047   1.261  0.3830 -0.1399 -0.5659
 6072SOL    HW129675   0.810   0.050   1.230 -0.5012 -0.5114  2.0341
 6072SOL    HW229676   0.883   0.123   1.316 -0.6336  0.1183 -1.2346
 6073SOL     OW29677   0.147   1.637   6.902 -0.3448 -0.3006  0.1932
 6073SOL    HW129678   0.228   1.590   6.881  0.4754 -0.0990  2.9009
 6073SOL    HW229679   0.138   1.613   6.994 -1.3296 -0.2202  0.1130
 6074SOL     OW29680   1.247   3.090   4.612  0.4336 -0.1985  0.7044
 6074SOL    HW129681   1.275   3.091   4.520 -2.3095 -0.4216 -0.1565
 6074SOL    HW229682   1.332   3.070   4.650  0.4873 -0.0206  0.6764
 6075SOL     OW29683   3.267   0.808  10.202 -0.5500  0.0265 -0.2622
 6075SOL    HW129684   3.335   0.812  10.134 -1.2193  0.3558 -0.9139
 6075SOL    HW229685   3.230   0.897  10.201 -0.1783  0.1972  1.6986
 6076SOL     OW29686   3.194   2.082   4.031  0.1463 -0.0448  0.0475
 6076SOL    HW129687   3.126   2.085   3.963  1.2939 -0.6957 -1.1086
 6076SOL    HW229688   3.226   1.999   3.997 -2.3424 -1.2868  0.7281
 6077SOL     OW29689   3.174   3.163  15.291  0.0896 -0.2406  0.1912
 6077SOL    HW129690   3.110   3.233  15.275  0.1143 -0.7074 -1.9995
 6077SOL    HW229691   3.254   3.214  15.285 -1.0716  1.4108 -1.2802
 6078SOL     OW29692   3.654   3.430   4.897  0.7156 -0.1737  0.6584
 6078SOL    HW129693   3.593   3.392   4.960 -2.1527  0.9403 -1.4138
 6078SOL    HW229694   3.736   3.385   4.918  2.3172  2.7326  0.6085
 6079SOL     OW29695   3.776   1.973  13.890 -0.4289  1.0414 -0.1424
 6079SOL    HW129696   3.801   1.882  13.873 -1.1699  1.1350 -1.7750
 6079SOL    HW229697   3.824   1.964  13.971  0.5336  0.2792 -0.7948
 6080SOL     OW29698   2.358   3.823  11.665 -0.6276  0.0467  0.4533
 6080SOL    HW129699   2.330   3.764  11.735 -1.8617 -0.1960 -0.2479
 6080SOL    HW229700   2.406   3.760  11.611 -0.5791 -1.9239  2.7907
 6081SOL     OW29701   1.728   0.435   2.539  0.2060  0.0147  0.5037
 6081SOL    HW129702   1.770   0.444   2.454 -0.6646 -3.4707 -0.3200
 6081SOL    HW229703   1.699   0.344   2.527 -0.0416  0.4044 -1.8263
 6082SOL     OW29704   2.402   2.504   0.535  0.3747  0.0570  0.1277
 6082SOL    HW129705   2.321   2.545   0.505 -0.3799 -0.4953  1.4617
 6082SOL    HW229706   2.429   2.460   0.454  1.4117  0.2331  0.3724
 6083SOL     OW29707   0.115   1.624   1.378 -0.3497 -0.8967  0.5822
 6083SOL    HW129708   0.170   1.649   1.452  0.2956  1.1866 -0.6151
 6083SOL    HW229709   0.060   1.702   1.382  1.0782  0.1425 -0.3755
 6084SOL     OW29710   2.323   4.668   5.274  0.1100  0.1232 -0.5257
 6084SOL    HW129711   2.325   0.017   5.338  2.4613 -0.1903 -0.2578
 6084SOL    HW229712   2.412   4.638   5.254 -0.2218 -0.9471 -0.3473
 6085SOL     OW29713   4.126   4.043   4.439  0.1158  0.3705  0.1201
 6085SOL    HW129714   4.187   4.072   4.371  0.2288  0.4193  0.2434
 6085SOL    HW229715   4.080   4.126   4.450  0.9524  0.7311  0.8775
 6086SOL     OW29716   1.255   0.126   1.134 -0.2201  0.6189  0.1183
 6086SOL    HW129717   1.269   0.082   1.050  2.8245  2.4903 -0.3422
 6086SOL    HW229718   1.222   0.052   1.185 -0.1333  0.4951 -0.0061
 6087SOL     OW29719   1.244   1.851   5.196 -0.2759  0.1587 -0.5962
 6087SOL    HW129720   1.281   1.848   5.284 -1.7948 -0.3245  0.0217
 6087SOL    HW229721   1.302   1.790   5.150 -2.6345 -3.3714  1.1088
 6088SOL     OW29722   1.120   3.395   1.010  0.7782 -0.3100 -0.2690
 6088SOL    HW129723   1.158   3.444   1.083  0.6217 -1.3716  0.5402
 6088SOL    HW229724   1.195   3.380   0.953  1.3791  1.0142  0.1972
 6089SOL     OW29725   3.802   3.648  17.338 -0.4549  0.1563 -0.5179
 6089SOL    HW129726   3.894   3.653  17.364 -0.9550  0.3621  1.2133
 6089SOL    HW229727   3.773   3.561  17.366 -1.9751  1.0318  0.6099
 6090SOL     OW29728   4.142   4.143  14.598 -0.3044  0.2914  0.5816
 6090SOL    HW129729   4.069   4.121  14.655 -0.3569  0.8219  0.7099
 6090SOL    HW229730   4.205   4.077  14.628 -3.7905 -2.4742  1.8723
 6091SOL     OW29731   1.404   3.621   6.640  0.1282  0.1437 -0.1547
 6091SOL    HW129732   1.448   3.548   6.598  0.0264  0.1609 -0.2904
 6091SOL    HW229733   1.484   3.672   6.651 -1.4092  3.1765 -3.0660
 6092SOL     OW29734   3.198   0.438   2.641  0.0312 -0.0373 -0.5567
 6092SOL    HW129735   3.180   0.435   2.547  1.1999 -0.1050 -0.7775
 6092SOL    HW229736   3.122   0.393   2.677  1.8995 -1.9300  1.0023
 6093SOL     OW29737   4.350   3.797   1.604 -0.0650  0.1885  0.2182
 6093SOL    HW129738   4.354   3.775   1.511 -0.2756  0.2674  0.1898
 6093SOL    HW229739   4.400   3.723   1.637  0.9257  0.4094 -0.7639
 6094SOL     OW29740   2.410   2.527  15.305  0.4927 -0.1201  0.4203
 6094SOL    HW129741   2.361   2.509  15.224  0.8998  1.0619 -0.0802
 6094SOL    HW229742   2.470   2.594  15.273 -0.4926  0.1189 -0.9700
 6095SOL     OW29743   1.597   2.057   2.066 -0.2031  0.0447  0.0938
 6095SOL    HW129744   1.518   2.107   2.050 -0.0069  0.6344  0.9967
 6095SOL    HW229745   1.613   2.062   2.160  1.7596  0.9236 -0.2759
 6096SOL     OW29746   2.414   1.095   4.986  0.0153  0.1283 -0.1450
 6096SOL    HW129747   2.506   1.072   4.997 -0.2012 -0.1815  1.0131
 6096SOL    HW229748   2.421   1.151   4.909 -1.3835 -0.8794 -1.0066
 6097SOL     OW29749   2.159   2.408   4.828 -0.1290 -0.1693  0.2913
 6097SOL    HW129750   2.116   2.367   4.903 -3.0252 -1.8256 -2.2816
 6097SOL    HW229751   2.175   2.497   4.861 -2.3298  1.4779 -3.0845
 6098SOL     OW29752   3.634   2.702   9.039 -0.4259  0.0868  0.1661
 6098SOL    HW129753   3.660   2.612   9.019 -0.8951 -0.3842  1.7061
 6098SOL    HW229754   3.685   2.724   9.117 -0.9695  0.3908  0.4311
 6099SOL     OW29755   4.376   0.836   5.520  0.0727 -0.6561 -0.8411
 6099SOL    HW129756   4.289   0.852   5.555  0.4263  3.1183 -1.6969
 6099SOL    HW229757   4.430   0.867   5.593 -0.0646 -1.8528 -0.2344
 6100SOL     OW29758   3.338   0.568  10.767  0.6159 -0.4069 -0.2496
 6100SOL    HW129759   3.379   0.643  10.724  1.9196 -1.1310 -0.2889
 6100SOL    HW229760   3.412   0.528  10.813  1.0285  3.0577  2.0979
 6101SOL     OW29761   2.761   4.254   7.365 -0.0427  0.1843 -0.3211
 6101SOL    HW129762   2.742   4.160   7.368 -1.5676  0.4964 -0.5263
 6101SOL    HW229763   2.804   4.263   7.280  0.4754  0.4862 -0.0272
 6102SOL     OW29764   2.424   2.962   7.602 -0.5644  0.5112 -0.2148
 6102SOL    HW129765   2.485   2.893   7.576  0.3828  1.5830 -0.7825
 6102SOL    HW229766   2.443   2.958   7.696  1.6597 -0.7190 -0.7253
 6103SOL     OW29767   3.019   0.323   9.989 -0.8811  0.1937 -0.1074
 6103SOL    HW129768   3.041   0.401  10.040  1.2472 -1.8533  2.1139
 6103SOL    HW229769   2.968   0.353   9.914 -0.4237  1.0762 -0.0619
 6104SOL     OW29770   3.371   2.575   5.881 -0.8233 -0.0135 -0.2732
 6104SOL    HW129771   3.449   2.537   5.840 -1.2215 -1.3659  0.2241
 6104SOL    HW229772   3.409   2.659   5.908 -2.7263  0.5236  0.6864
 6105SOL     OW29773   4.075   0.146  14.024  0.6980  0.4877 -0.0565
 6105SOL    HW129774   4.032   0.060  14.018  0.5933  0.5168  0.3233
 6105SOL    HW229775   3.999   0.204  14.028 -0.4880 -1.2953  3.0610
 6106SOL     OW29776   1.433   1.223   4.094  0.3837 -0.0506  0.1812
 6106SOL    HW129777   1.503   1.166   4.062 -0.0453  0.3888 -1.5422
 6106SOL    HW229778   1.360   1.189   4.044 -0.1991  1.3882  0.0531
 6107SOL     OW29779   1.107   4.341   8.420  0.4073 -0.4783  0.7780
 6107SOL    HW129780   1.113   4.289   8.500  1.4245 -0.8527  0.4611
 6107SOL    HW229781   1.032   4.395   8.443  1.7529  1.6718  0.0763
 6108SOL     OW29782   3.341   4.694   4.456  0.3431  0.1931 -0.5422
 6108SOL    HW129783   3.390   4.649   4.387 -1.5165 -1.5493 -0.7147
 6108SOL    HW229784   3.395   0.049   4.472  0.5600 -0.0327 -0.1877
 6109SOL     OW29785   3.001   1.794   6.797  0.0390  0.2587 -0.1615
 6109SOL    HW129786   2.993   1.883   6.832 -3.1119  0.0682 -0.4247
 6109SOL    HW229787   2.955   1.742   6.863  1.9863  0.7064  1.5563
 6110SOL     OW29788   1.735   3.681   1.943  0.5585 -0.6908  0.5455
 6110SOL    HW129789   1.830   3.669   1.944  0.7212  0.3494 -1.8354
 6110SOL    HW229790   1.709   3.619   1.874 -0.3308  0.6517 -0.3321
 6111SOL     OW29791   3.443   0.526  15.936  0.3034  0.1406  0.3699
 6111SOL    HW129792   3.396   0.568  16.007 -0.1195  1.1676 -0.5192
 6111SOL    HW229793   3.519   0.484  15.977  0.6080  1.6589  1.3400
 6112SOL     OW29794   3.689   4.572  16.296 -0.2163 -0.6083 -0.3886
 6112SOL    HW129795   3.597   4.593  16.279 -0.7413 -1.7174  1.1217
 6112SOL    HW229796   3.723   4.627  16.225 -0.3590 -0.5905 -0.4438
 6113SOL     OW29797   1.663   1.334   4.495 -0.5879  0.3127  0.7691
 6113SOL    HW129798   1.725   1.362   4.428  0.3509 -0.1898  1.4215
 6113SOL    HW229799   1.628   1.247   4.475  0.4877 -0.2284  1.2106
 6114SOL     OW29800   2.513   1.500   8.607 -0.2949  0.3999 -0.2011
 6114SOL    HW129801   2.492   1.480   8.516  0.0886 -0.7516 -0.0342
 6114SOL    HW229802   2.469   1.584   8.614  1.3216  1.1831  0.5795
 6115SOL     OW29803   1.036   1.119   4.841 -0.1633  0.0832 -0.1096
 6115SOL    HW129804   0.962   1.177   4.821  0.2845  0.4779 -0.6408
 6115SOL    HW229805   1.069   1.100   4.753 -0.4364  0.4125 -0.2867
 6116SOL     OW29806   0.757   4.346   3.032 -0.1563 -0.5889  0.0618
 6116SOL    HW129807   0.787   4.429   3.068 -1.6188 -0.8723  1.9870
 6116SOL    HW229808   0.665   4.372   3.029 -0.0281 -0.1283  0.1746
 6117SOL     OW29809   3.872   4.338  13.803  0.3824  0.4548 -0.5357
 6117SOL    HW129810   3.939   4.270  13.797 -0.6135 -0.6624  0.8635
 6117SOL    HW229811   3.794   4.289  13.778  0.5658 -0.0681 -0.0851
 6118SOL     OW29812   3.235   1.362   4.162  0.2626  0.6536 -0.6516
 6118SOL    HW129813   3.286   1.292   4.123 -0.8124 -0.7867  0.5362
 6118SOL    HW229814   3.266   1.358   4.252  0.1492  0.6146 -0.6135
 6119SOL     OW29815   0.046   0.682  17.320 -0.2136 -0.6810 -0.0226
 6119SOL    HW129816   0.063   0.646  17.407  3.5937 -1.2158 -0.9961
 6119SOL    HW229817   0.107   0.755  17.321  1.1159 -1.7706 -1.4037
 6120SOL     OW29818   1.811   2.932   1.980 -0.5264 -0.1249 -0.3195
 6120SOL    HW129819   1.785   2.961   2.067 -1.2458 -0.9389 -0.2662
 6120SOL    HW229820   1.782   3.010   1.933  0.6867  0.6420  0.1871
 6121SOL     OW29821   2.808   0.752   3.637  0.0788 -0.0276 -0.3539
 6121SOL    HW129822   2.867   0.775   3.709 -2.2972 -0.3023  1.6986
 6121SOL    HW229823   2.780   0.834   3.597 -0.1986  0.0900  0.0851
 6122SOL     OW29824   0.454   2.527   3.863 -0.2323  0.0536  0.8581
 6122SOL    HW129825   0.372   2.532   3.815  0.6489 -1.8129 -0.8503
 6122SOL    HW229826   0.467   2.613   3.903 -1.8291  0.9311 -0.5290
 6123SOL     OW29827   3.029   1.901   4.787 -0.0871  0.3092 -0.1496
 6123SOL    HW129828   3.094   1.969   4.803  0.2952  0.2545 -1.4241
 6123SOL    HW229829   2.960   1.952   4.746 -0.7266  0.2533  0.8500
 6124SOL     OW29830   2.994   1.933   0.565 -0.4702  0.1268  0.1342
 6124SOL    HW129831   3.087   1.950   0.584 -0.7338  0.8094  0.8215
 6124SOL    HW229832   2.942   1.985   0.627 -0.2069  0.7795 -0.1959
 6125SOL     OW29833   4.716   0.692   4.030 -0.7103  0.1950 -0.3598
 6125SOL    HW129834   0.015   0.637   4.105 -1.0274 -0.2793 -0.6157
 6125SOL    HW229835   4.683   0.761   4.087 -1.5762 -0.0517 -0.5561
 6126SOL     OW29836   4.560   0.906   0.386  0.4176 -0.6452  0.3653
 6126SOL    HW129837   4.611   0.835   0.345  1.6295  0.3455  0.1541
 6126SOL    HW229838   4.583   0.899   0.479  1.9470  0.7793  0.0982
 6127SOL     OW29839   3.430   4.607   5.952 -0.0613 -0.1614  0.2119
 6127SOL    HW129840   3.502   4.578   6.008 -0.9206  1.9251  2.3939
 6127SOL    HW229841   3.468   4.615   5.864  0.6306 -0.0927  0.5175
 6128SOL     OW29842   3.987   2.657   1.456 -0.0971  0.0512  0.2927
 6128SOL    HW129843   3.897   2.678   1.435 -0.5502  0.5538  2.7484
 6128SOL    HW229844   3.995   2.680   1.549 -1.0492 -1.1754  0.6810
 6129SOL     OW29845   2.863   4.520   2.572  0.3690 -0.3782  0.7270
 6129SOL    HW129846   2.777   4.482   2.562 -0.2628  1.1052  0.4739
 6129SOL    HW229847   2.833   4.610   2.585 -0.6946 -0.6333 -0.0666
 6130SOL     OW29848   3.715   3.353   6.191  0.2643 -0.4600  0.3158
 6130SOL    HW129849   3.788   3.292   6.186  1.1959  0.6907 -0.2017
 6130SOL    HW229850   3.737   3.400   6.272  2.4857 -0.1235 -0.4970
 6131SOL     OW29851   3.092   2.376   8.991 -0.0707  0.0681  0.0386
 6131SOL    HW129852   3.027   2.332   8.938  1.0422 -1.1719 -0.2860
 6131SOL    HW229853   3.048   2.371   9.076  0.4228 -0.7729  0.2417
 6132SOL     OW29854   2.661   3.383   9.042 -0.1288 -0.2865 -0.1765
 6132SOL    HW129855   2.637   3.411   8.954 -2.7970 -1.5182  0.1623
 6132SOL    HW229856   2.622   3.296   9.043 -2.2394  0.6570  0.3539
 6133SOL     OW29857   1.504   3.933   3.482 -0.4373  0.2549 -0.0984
 6133SOL    HW129858   1.515   3.983   3.563 -1.6078  0.0974  0.1665
 6133SOL    HW229859   1.593   3.947   3.450 -0.1005 -1.1919  0.2142
 6134SOL     OW29860   4.595   3.565   4.150 -0.3168  0.3947 -0.0534
 6134SOL    HW129861   4.676   3.616   4.143  0.1307 -0.3002  0.0275
 6134SOL    HW229862   4.608   3.504   4.077  1.6315 -0.1867  0.7721
 6135SOL     OW29863   4.096   3.978   6.161 -0.0294  0.4016  0.0232
 6135SOL    HW129864   4.118   4.071   6.157  1.2884  0.0488 -1.1709
 6135SOL    HW229865   4.176   3.944   6.119 -0.9351 -1.0491 -0.5210
 6136SOL     OW29866   2.726   0.774   1.218  0.0970  0.1511  0.6656
 6136SOL    HW129867   2.754   0.684   1.240  1.4845  0.2983 -0.4948
 6136SOL    HW229868   2.672   0.743   1.145  0.2446  1.9700 -0.2039
 6137SOL     OW29869   0.154   0.349   8.616  0.2570  0.2999 -0.5693
 6137SOL    HW129870   0.100   0.404   8.672  0.6709  0.4073 -0.2724
 6137SOL    HW229871   0.244   0.383   8.621 -0.6486  1.9936  3.3859
 6138SOL     OW29872   0.484   1.284   4.704  0.2173 -0.6137  0.1333
 6138SOL    HW129873   0.528   1.278   4.618  0.6902  0.1991  0.3112
 6138SOL    HW229874   0.452   1.374   4.701 -0.2792 -0.8151 -0.7286
 6139SOL     OW29875   4.298   0.258   3.115  0.3626  0.1348  0.2922
 6139SOL    HW129876   4.209   0.226   3.132  0.4415 -0.0523  0.3528
 6139SOL    HW229877   4.276   0.349   3.136  1.3749  0.1362  1.3159
 6140SOL     OW29878   2.309   3.517   7.155 -0.0635 -0.6814  0.1906
 6140SOL    HW129879   2.289   3.430   7.188  0.8604 -0.6499  0.8351
 6140SOL    HW229880   2.262   3.512   7.072  1.2391 -0.8680 -0.5323
 6141SOL     OW29881   0.949   4.471   8.572  0.1797 -0.4066  0.6570
 6141SOL    HW129882   1.019   4.493   8.634 -0.5454 -2.2276  2.1182
 6141SOL    HW229883   0.879   4.441   8.629  1.5621 -1.1157  1.9845
 6142SOL     OW29884   1.559   0.671  15.807  0.3108  0.0721  0.1565
 6142SOL    HW129885   1.536   0.669  15.714 -0.7444 -0.6849  0.4249
 6142SOL    HW229886   1.557   0.766  15.821  0.0906  0.3978 -2.0362
 6143SOL     OW29887   0.285   0.008  11.337  0.0534 -0.1731 -0.1261
 6143SOL    HW129888   0.233   0.002  11.417 -0.0307 -2.3384 -0.3399
 6143SOL    HW229889   0.216   0.025  11.273  0.6946  0.1659 -0.7237
 6144SOL     OW29890   4.658   2.848   5.490 -0.6550 -0.3537 -0.3249
 6144SOL    HW129891   4.718   2.813   5.424  1.6829  1.9492  0.5791
 6144SOL    HW229892   4.568   2.836   5.457 -2.2001  0.9351  3.4477
 6145SOL     OW29893   3.732   2.025  10.887 -0.2071  0.2080  0.4399
 6145SOL    HW129894   3.801   2.072  10.842 -0.9473 -0.0544 -0.9650
 6145SOL    HW229895   3.784   1.996  10.962 -1.4725 -2.2972  0.3625
 6146SOL     OW29896   2.688   3.943  10.093  0.2530 -0.3432  0.1682
 6146SOL    HW129897   2.629   3.872  10.116  1.3903 -0.9667  1.1785
 6146SOL    HW229898   2.677   3.942   9.998  1.0176  1.8210  0.0380
 6147SOL     OW29899   3.159   4.199   9.230  0.8327 -0.5872 -0.5457
 6147SOL    HW129900   3.079   4.198   9.282  1.6287 -0.3735  0.6899
 6147SOL    HW229901   3.132   4.177   9.142  0.2716 -1.7688 -0.0693
 6148SOL     OW29902   4.200   0.024   8.457  0.2445  0.5072  0.1709
 6148SOL    HW129903   4.104   0.026   8.457  0.2499  0.8614 -0.1357
 6148SOL    HW229904   4.204   0.117   8.432  0.1763  0.6656  0.7560
 6149SOL     OW29905   0.909   0.399  15.057  0.1187 -0.8102 -0.0968
 6149SOL    HW129906   0.899   0.471  15.119  1.7813 -1.5731  1.0716
 6149SOL    HW229907   0.891   0.319  15.106 -0.2078  0.2016  1.4437
 6150SOL     OW29908   1.759   2.530   7.931 -0.0409  0.3537 -0.5890
 6150SOL    HW129909   1.733   2.551   8.021 -0.9729  0.0098 -0.7745
 6150SOL    HW229910   1.773   2.436   7.937  2.7131  0.7169 -1.0833
 6151SOL     OW29911   3.209   0.461   5.581  0.0636  0.0563  0.1115
 6151SOL    HW129912   3.175   0.430   5.665 -0.1387 -4.1245 -1.4705
 6151SOL    HW229913   3.219   0.377   5.536 -0.6399  0.2735 -0.4467
 6152SOL     OW29914   4.274   4.525  11.288 -0.7593  0.1753 -0.2232
 6152SOL    HW129915   4.301   4.442  11.327 -0.3153  1.0631  1.3654
 6152SOL    HW229916   4.199   4.551  11.342 -0.2211  1.0729  0.0957
 6153SOL     OW29917   1.946   2.450  15.872 -0.0665  0.1801 -0.2235
 6153SOL    HW129918   1.864   2.496  15.892  0.0167  1.2859 -2.5181
 6153SOL    HW229919   1.988   2.506  15.807  0.7805  0.2143  0.3553
 6154SOL     OW29920   3.662   1.492  12.328 -0.1687 -0.4774  0.2443
 6154SOL    HW129921   3.598   1.477  12.258  1.1697 -0.5557 -0.9586
 6154SOL    HW229922   3.733   1.432  12.307 -1.2193 -1.1440 -1.3672
 6155SOL     OW29923   3.230   3.038  11.134 -0.2735 -0.0934 -0.7685
 6155SOL    HW129924   3.221   3.029  11.039  0.5523  1.9070 -1.0337
 6155SOL    HW229925   3.320   3.005  11.133  0.5957  2.2790 -2.1677
 6156SOL     OW29926   4.383   3.544  10.078  0.2210 -0.1256 -0.5106
 6156SOL    HW129927   4.334   3.582  10.004 -2.1979 -0.5113  0.8937
 6156SOL    HW229928   4.464   3.521  10.032 -0.3769  1.2537 -2.3045
 6157SOL     OW29929   3.985   4.558  15.199  1.0630  0.8180  0.2424
 6157SOL    HW129930   4.058   4.577  15.257  0.6925  0.9276  0.6733
 6157SOL    HW229931   3.956   4.647  15.178 -1.4464 -0.2126 -0.6290
 6158SOL     OW29932   1.298   0.436   2.327  0.8231 -1.2130  0.5184
 6158SOL    HW129933   1.373   0.470   2.279 -0.0382 -1.9803 -1.4068
 6158SOL    HW229934   1.227   0.482   2.282  1.3310 -1.0900 -0.1592
 6159SOL     OW29935   2.546   1.779   7.427  0.1333  0.1336  0.0606
 6159SOL    HW129936   2.610   1.831   7.477 -0.5131 -0.7229  1.7620
 6159SOL    HW229937   2.578   1.689   7.425  1.0808  0.4475  1.2751
 6160SOL     OW29938   4.084   3.876   5.022 -0.4646 -0.1973 -0.4785
 6160SOL    HW129939   4.037   3.816   4.964 -0.4186 -1.0498  0.3800
 6160SOL    HW229940   4.129   3.930   4.957  2.2111 -2.5006 -0.5185
 6161SOL     OW29941   1.152   2.119  14.913 -0.1419  0.1278 -0.4882
 6161SOL    HW129942   1.093   2.043  14.904 -0.4730  0.7154 -3.0742
 6161SOL    HW229943   1.088   2.188  14.894  0.1733  0.7084  0.5589
 6162SOL     OW29944   2.352   4.103   7.113 -0.2253  0.3324 -0.2132
 6162SOL    HW129945   2.282   4.160   7.081  0.5526  1.1297 -0.5035
 6162SOL    HW229946   2.344   4.111   7.208  1.3892  1.7960 -0.1939
 6163SOL     OW29947   3.925   4.580  14.215  0.1597  0.5358 -0.2002
 6163SOL    HW129948   4.002   4.527  14.196  2.8607  3.3598  2.9107
 6163SOL    HW229949   3.885   4.605  14.132 -0.2700 -2.0132 -0.7530
 6164SOL     OW29950   0.418   0.436   2.212  0.4728  0.0636  0.7097
 6164SOL    HW129951   0.385   0.348   2.196 -3.2346  1.1835  2.1801
 6164SOL    HW229952   0.426   0.474   2.124 -0.8354  0.9145  0.9587
 6165SOL     OW29953   3.461   1.707   2.324 -0.2612  0.2144 -0.3260
 6165SOL    HW129954   3.540   1.726   2.274 -0.2760 -1.3756 -0.9529
 6165SOL    HW229955   3.423   1.794   2.329 -0.7060 -0.0604  1.1224
 6166SOL     OW29956   3.862   1.166   5.456 -1.1090 -0.0503 -0.4161
 6166SOL    HW129957   3.847   1.081   5.499  0.1434  0.9825  2.0689
 6166SOL    HW229958   3.891   1.217   5.532 -1.5267 -1.4908  0.7141
 6167SOL     OW29959   0.363   1.407   7.677  0.3336 -0.2998  0.5817
 6167SOL    HW129960   0.400   1.352   7.608  0.8209 -1.2224  1.5588
 6167SOL    HW229961   0.415   1.388   7.756  0.1420 -3.3252  0.0064
 6168SOL     OW29962   2.726   3.199  12.908 -0.0359 -0.5814  0.3991
 6168SOL    HW129963   2.728   3.261  12.981  0.9052 -0.2601  0.0956
 6168SOL    HW229964   2.763   3.250  12.837  0.6454  0.4555  1.5182
 6169SOL     OW29965   1.889   1.979   0.696 -0.5709  0.2954  0.5186
 6169SOL    HW129966   1.866   1.901   0.747 -3.2347  1.5901  1.3040
 6169SOL    HW229967   1.864   2.055   0.748  1.2183  1.7427 -0.7480
 6170SOL     OW29968   3.974   1.398   5.577  0.2184  0.7704  0.0530
 6170SOL    HW129969   4.039   1.340   5.616 -0.7773  0.0219  0.6108
 6170SOL    HW229970   3.903   1.400   5.641  0.0283 -0.9165 -0.1131
 6171SOL     OW29971   1.472   4.368  15.164  0.5480  0.0462  0.7203
 6171SOL    HW129972   1.516   4.446  15.132 -0.9998  0.2668 -0.8829
 6171SOL    HW229973   1.488   4.388  15.256  0.3807 -0.6897  0.9117
 6172SOL     OW29974   2.485   3.798   2.196 -0.1515  0.0803 -0.2831
 6172SOL    HW129975   2.550   3.747   2.147 -0.7980 -1.3899  0.3747
 6172SOL    HW229976   2.436   3.734   2.248 -0.4276 -0.4437 -1.1709
 6173SOL     OW29977   2.217   1.753   5.035  0.1117 -0.5812  0.3114
 6173SOL    HW129978   2.171   1.680   5.078 -3.0055  0.5860 -0.9893
 6173SOL    HW229979   2.152   1.785   4.972  1.6319 -1.7923 -1.8599
 6174SOL     OW29980   2.753   3.719   1.246  0.0566  0.0880 -0.4873
 6174SOL    HW129981   2.839   3.759   1.247  0.7248 -1.2800 -4.0614
 6174SOL    HW229982   2.698   3.795   1.227 -0.1885 -0.4912 -2.1011
 6175SOL     OW29983   4.479   2.789   5.241 -0.0055  0.3694  0.0315
 6175SOL    HW129984   4.404   2.844   5.217  0.2683 -0.0009 -1.6847
 6175SOL    HW229985   4.534   2.814   5.167  0.0064 -1.8554 -0.7307
 6176SOL     OW29986   1.667   3.326   1.298 -0.3087 -0.3412 -0.0860
 6176SOL    HW129987   1.708   3.412   1.306  1.6164 -1.3796  1.3092
 6176SOL    HW229988   1.619   3.335   1.216  1.1225 -1.8318 -1.0756
 6177SOL     OW29989   0.047   1.565   2.776  0.3971  0.0084  0.5558
 6177SOL    HW129990   0.028   1.472   2.789  0.6583 -0.3847 -2.0054
 6177SOL    HW229991   4.686   1.587   2.736  1.1996  0.4439 -0.8522
 6178SOL     OW29992   2.635   4.488  16.931  0.4462 -0.3255  0.1705
 6178SOL    HW129993   2.671   4.538  17.004  2.4776 -0.0671 -0.9890
 6178SOL    HW229994   2.634   4.554  16.861 -1.0417 -1.2352 -0.6701
 6179SOL     OW29995   3.981   4.326   8.662  0.5857 -0.4720  0.1475
 6179SOL    HW129996   4.042   4.345   8.592 -2.4586  1.6104 -1.9651
 6179SOL    HW229997   4.040   4.279   8.721  0.6921  1.1335  1.3356
 6180SOL     OW29998   4.539   2.041   6.964  0.5568 -0.1601  0.2411
 6180SOL    HW129999   4.485   2.119   6.977  0.5491 -0.4014  1.6566
 6180SOL    HW230000   4.553   2.038   6.869 -0.2473  0.3441  0.1069
 6181SOL     OW30001   0.216   2.816  14.580  0.0945  0.2792 -0.1602
 6181SOL    HW130002   0.235   2.741  14.635  0.8530  0.1273 -0.6217
 6181SOL    HW230003   0.292   2.808  14.522  2.0112 -0.8047  2.5385
 6182SOL     OW30004   3.480   2.468   7.012  0.1005 -0.4064  0.2457
 6182SOL    HW130005   3.540   2.440   6.943  0.4295  0.9940 -0.0469
 6182SOL    HW230006   3.467   2.557   6.978 -1.0753 -1.0753 -1.0371
 6183SOL     OW30007   3.480   2.446   8.769 -0.5084  0.4882  0.1276
 6183SOL    HW130008   3.429   2.369   8.796  0.0447  0.9078  2.4031
 6183SOL    HW230009   3.546   2.453   8.837  1.7711  1.8207 -2.2450
 6184SOL     OW30010   4.279   1.372  11.016  0.0443 -0.1021 -0.6192
 6184SOL    HW130011   4.280   1.463  10.987 -1.0705  0.6174  1.5699
 6184SOL    HW230012   4.205   1.332  10.971  0.7530  0.2102 -2.0691
 6185SOL     OW30013   1.490   1.557   5.425 -0.2132  0.1077 -0.1417
 6185SOL    HW130014   1.404   1.575   5.389  0.0979 -1.7898 -1.8347
 6185SOL    HW230015   1.541   1.636   5.410 -0.0683 -0.0963 -0.7197
 6186SOL     OW30016   2.732   4.523   3.576  0.1870  0.1261 -0.1264
 6186SOL    HW130017   2.795   4.453   3.595  0.0414  0.1361  0.3933
 6186SOL    HW230018   2.708   4.497   3.487  1.2633  2.8024 -1.2047
 6187SOL     OW30019   2.260   3.706   7.353  0.4626  0.2151  0.0864
 6187SOL    HW130020   2.205   3.777   7.319 -2.1314 -1.3161  1.0261
 6187SOL    HW230021   2.239   3.640   7.286 -0.3186 -0.3380  0.8731
 6188SOL     OW30022   3.006   0.865   8.005 -0.1571  0.1801 -0.3085
 6188SOL    HW130023   2.975   0.901   8.088  0.7687 -3.9688  1.8412
 6188SOL    HW230024   3.003   0.948   7.958  0.7521  0.3030 -0.1374
 6189SOL     OW30025   3.372   3.241  16.966 -0.0292  0.1650 -0.4881
 6189SOL    HW130026   3.344   3.326  17.001  2.0676  1.0069 -0.8646
 6189SOL    HW230027   3.316   3.228  16.890 -0.2953  0.9470 -0.4221
 6190SOL     OW30028   2.868   2.215   5.304  0.2818 -0.3954 -0.2888
 6190SOL    HW130029   2.820   2.297   5.291  2.3000  0.9494  0.6336
 6190SOL    HW230030   2.802   2.152   5.331  1.6718 -1.4710  0.5840
 6191SOL     OW30031   3.567   2.044   6.183  0.1850  0.0984  0.0591
 6191SOL    HW130032   3.489   1.990   6.189  0.9110 -0.9785 -0.2630
 6191SOL    HW230033   3.533   2.123   6.226 -3.2514  0.1531 -2.7933
 6192SOL     OW30034   2.005   0.072   7.197  0.3071 -0.6765 -0.7141
 6192SOL    HW130035   2.044   0.154   7.226 -1.8103 -0.0489  0.3374
 6192SOL    HW230036   2.083   0.017   7.194  1.0051  0.1893  1.3440
 6193SOL     OW30037   4.496   0.113  14.432  0.0249  0.5281  0.2645
 6193SOL    HW130038   4.474   0.198  14.468  1.3362 -0.2642  2.9762
 6193SOL    HW230039   4.409   0.074  14.429 -0.0934  0.8592 -0.4488
 6194SOL     OW30040   2.368   0.246   2.472 -0.5666 -0.1406 -0.0270
 6194SOL    HW130041   2.445   0.285   2.430 -0.2045  0.1748  0.9290
 6194SOL    HW230042   2.400   0.156   2.475 -0.4802 -0.1956 -2.1981
 6195SOL     OW30043   1.873   0.527  10.499  0.0817 -0.1175 -0.0297
 6195SOL    HW130044   1.921   0.609  10.484 -0.1967  0.3131  1.4830
 6195SOL    HW230045   1.939   0.473  10.456 -0.6766 -1.3182  0.3280
 6196SOL     OW30046   0.278   2.188   6.469  0.4795 -0.2916 -0.2729
 6196SOL    HW130047   0.352   2.169   6.527  0.9823  3.2313  0.2116
 6196SOL    HW230048   0.249   2.264   6.519 -1.4394 -1.6342  0.6812
 6197SOL     OW30049   2.206   3.556   7.570  0.3031  0.0388 -0.1490
 6197SOL    HW130050   2.226   3.599   7.487  1.8202  0.2609  0.3377
 6197SOL    HW230051   2.262   3.609   7.627 -0.7637 -0.5803  1.4803
 6198SOL     OW30052   3.079   1.009   9.313  0.0752  0.1119  0.1192
 6198SOL    HW130053   3.032   1.076   9.362  3.0091  1.3525  1.2318
 6198SOL    HW230054   3.045   1.004   9.224  0.4951 -0.8025  0.0048
 6199SOL     OW30055   4.083   3.295  16.081  0.0817 -0.0356  0.0746
 6199SOL    HW130056   3.998   3.316  16.042 -0.2318 -0.1654  0.6957
 6199SOL    HW230057   4.086   3.202  16.062 -0.7895  0.8037 -4.2943
 6200SOL     OW30058   2.283   3.281  11.046  0.1239  0.1209 -0.6938
 6200SOL    HW130059   2.374   3.310  11.047  0.0327  0.5670 -4.3638
 6200SOL    HW230060   2.267   3.256  11.136  2.3796  0.5880 -0.1552
 6201SOL     OW30061   4.377   0.843   6.193 -0.0262 -0.5015 -0.1864
 6201SOL    HW130062   4.438   0.792   6.246 -2.0374 -2.0861  0.6086
 6201SOL    HW230063   4.424   0.922   6.167 -2.4492  0.8662 -0.4534
 6202SOL     OW30064   0.876   0.592   4.284 -0.2800 -0.1715  0.6714
 6202SOL    HW130065   0.935   0.661   4.316  3.0853 -2.6923 -0.1334
 6202SOL    HW230066   0.929   0.550   4.216 -0.9082 -1.3554  0.9083
 6203SOL     OW30067   4.308   0.987   6.723  0.3160 -0.0850  0.2808
 6203SOL    HW130068   4.342   1.075   6.709 -2.1217  1.3556  3.1282
 6203SOL    HW230069   4.362   0.960   6.797  2.1451  2.1991 -0.2391
 6204SOL     OW30070   2.906   0.187   4.484 -0.3609  0.3572 -0.5724
 6204SOL    HW130071   2.934   0.207   4.394 -0.0044  0.3372 -0.4637
 6204SOL    HW230072   2.876   0.097   4.469  2.4873 -0.6079 -0.4531
 6205SOL     OW30073   3.530   4.408   7.272  0.0744 -0.0107 -0.0131
 6205SOL    HW130074   3.509   4.390   7.181 -0.1692  0.6158 -0.0822
 6205SOL    HW230075   3.576   4.328   7.297 -2.3720 -1.1683  0.7867
 6206SOL     OW30076   4.636   1.331  11.025 -0.3383 -0.2278  0.4506
 6206SOL    HW130077   4.628   1.236  11.015  0.4324 -0.2363 -0.0932
 6206SOL    HW230078   4.624   1.356  10.934 -2.5339  2.4250  1.4837
 6207SOL     OW30079   3.352   3.641   7.908  0.2186  0.4266  0.2889
 6207SOL    HW130080   3.415   3.572   7.888 -0.6072  0.0907 -1.1720
 6207SOL    HW230081   3.284   3.630   7.841  0.4936  1.7580 -0.2122
 6208SOL     OW30082   3.771   4.145   2.869 -0.3066  0.6255 -0.0460
 6208SOL    HW130083   3.857   4.145   2.909  0.3164  0.6357 -1.3798
 6208SOL    HW230084   3.757   4.228   2.822 -0.1087  1.3818  1.2235
 6209SOL     OW30085   1.833   0.670   5.117  0.2529 -0.1242 -0.4686
 6209SOL    HW130086   1.803   0.592   5.163 -0.1668 -0.9169 -2.0689
 6209SOL    HW230087   1.924   0.674   5.147 -0.0703 -3.1832  0.8850
 6210SOL     OW30088   3.359   3.969   9.246  0.1810 -0.7964  0.0645
 6210SOL    HW130089   3.328   3.889   9.288 -0.1969 -0.6627  0.0393
 6210SOL    HW230090   3.293   4.031   9.276 -0.7517 -2.0528  0.6180
 6211SOL     OW30091   2.602   3.204   1.323 -0.3536 -0.7105 -0.2841
 6211SOL    HW130092   2.634   3.286   1.286 -2.4326  0.0584 -0.3714
 6211SOL    HW230093   2.646   3.212   1.407 -2.1810  0.4988  0.5660
 6212SOL     OW30094   3.707   1.170  16.351  0.0495  0.2008  0.4585
 6212SOL    HW130095   3.768   1.110  16.392  1.4758  0.9491 -0.5538
 6212SOL    HW230096   3.752   1.247  16.316  0.1880  0.6798  1.7034
 6213SOL     OW30097   0.440   0.944   7.015 -0.0822 -0.0947  0.2112
 6213SOL    HW130098   0.486   0.867   7.046 -1.0486  0.1743  2.2746
 6213SOL    HW230099   0.419   0.917   6.925  2.5866  2.9301 -1.2906
 6214SOL     OW30100   3.110   1.817  10.912  0.3963  0.0315 -0.2562
 6214SOL    HW130101   3.122   1.814  11.007  0.0706  1.5680 -0.1694
 6214SOL    HW230102   3.185   1.769  10.879  2.2397  0.4446  3.3233
 6215SOL     OW30103   1.267   2.542   5.697  0.0448  0.1200  0.1457
 6215SOL    HW130104   1.190   2.579   5.655 -1.2804 -0.1749  2.2944
 6215SOL    HW230105   1.305   2.619   5.740  1.3774 -0.7236  0.4878
 6216SOL     OW30106   3.774   4.136  14.571  0.6043 -0.0440  0.4115
 6216SOL    HW130107   3.834   4.070  14.535  1.3766  0.4075  0.8853
 6216SOL    HW230108   3.823   4.214  14.545 -1.5073  0.9358 -0.6182
 6217SOL     OW30109   0.258   0.599   0.845 -0.2511  0.3724  0.1700
 6217SOL    HW130110   0.295   0.686   0.826 -0.9494  0.8734  1.0805
 6217SOL    HW230111   0.235   0.571   0.757  0.5015  3.1657 -0.9270
 6218SOL     OW30112   1.795   0.371   3.001 -0.6745  0.1048 -0.1127
 6218SOL    HW130113   1.747   0.291   3.023 -1.8382  0.0053 -3.0322
 6218SOL    HW230114   1.881   0.343   3.033 -1.1657  1.8180  2.7620
 6219SOL     OW30115   3.001   2.982  15.184 -0.1836 -0.1223 -0.5520
 6219SOL    HW130116   3.086   3.014  15.215 -0.2544 -3.3614  2.9607
 6219SOL    HW230117   2.965   3.069  15.166 -0.1376  0.0280  0.0556
 6220SOL     OW30118   3.569   3.450   4.244  0.7029  0.3995 -0.3119
 6220SOL    HW130119   3.491   3.425   4.292  2.6516  1.5151  3.4189
 6220SOL    HW230120   3.623   3.480   4.317  1.1646  1.6624 -1.1637
 6221SOL     OW30121   3.372   1.333   0.857  0.0575 -0.0609  0.0595
 6221SOL    HW130122   3.292   1.381   0.875  1.5221  1.9964  1.1512
 6221SOL    HW230123   3.337   1.247   0.877  1.7437 -0.9459 -0.7636
 6222SOL     OW30124   2.606   1.676   3.316 -0.2518 -0.2061 -0.3921
 6222SOL    HW130125   2.532   1.706   3.368  0.6227  0.3444  0.5224
 6222SOL    HW230126   2.643   1.621   3.384 -0.7273 -2.1536 -1.7114
 6223SOL     OW30127   3.195   0.929   9.050  0.1442  0.0202 -0.2765
 6223SOL    HW130128   3.177   0.849   9.101  1.0057 -0.2947 -0.4588
 6223SOL    HW230129   3.110   0.972   9.048 -0.4391 -1.1149  0.1034
 6224SOL     OW30130   4.278   2.264   3.119  0.7234 -0.5634 -0.0423
 6224SOL    HW130131   4.218   2.333   3.090  1.4070 -0.3686 -0.9785
 6224SOL    HW230132   4.356   2.318   3.120 -0.5080  1.2536 -3.4243
 6225SOL     OW30133   3.708   0.767   1.929 -0.2370 -0.3632 -0.4626
 6225SOL    HW130134   3.742   0.731   1.847 -2.2588 -0.9375 -1.0618
 6225SOL    HW230135   3.731   0.860   1.931 -0.3925 -0.2800 -2.2468
 6226SOL     OW30136   0.366   3.547   6.357  0.1002 -0.4181  0.1277
 6226SOL    HW130137   0.395   3.542   6.448  1.1902 -1.6888 -0.2974
 6226SOL    HW230138   0.445   3.533   6.305 -0.1633  0.9453 -0.6526
 6227SOL     OW30139   2.423   3.506   3.254  0.3640  0.0118  0.5037
 6227SOL    HW130140   2.514   3.478   3.242  0.2961  0.4504 -0.9992
 6227SOL    HW230141   2.418   3.584   3.198 -1.3107 -0.7666 -0.4507
 6228SOL     OW30142   2.073   3.986   7.381 -0.0675  0.4620 -0.9559
 6228SOL    HW130143   2.046   3.914   7.324 -0.0021  0.2006 -0.6591
 6228SOL    HW230144   2.017   3.960   7.453  0.3017  1.1959 -0.4011
 6229SOL     OW30145   3.086   2.974   8.964  0.2028 -0.4658 -0.9660
 6229SOL    HW130146   3.149   2.994   8.895  1.6160 -0.1696  0.4043
 6229SOL    HW230147   3.108   3.027   9.041 -0.1661 -4.4241  1.8442
 6230SOL     OW30148   1.938   4.221   1.527 -0.2973 -0.5234  0.1836
 6230SOL    HW130149   1.877   4.269   1.471  1.4339  2.0417  0.4727
 6230SOL    HW230150   1.965   4.159   1.460  0.4215 -0.2129  0.1868
 6231SOL     OW30151   0.182   2.029   1.153 -0.2169 -0.0777  0.7627
 6231SOL    HW130152   0.109   1.999   1.099 -0.4495  1.9566 -0.0803
 6231SOL    HW230153   0.259   1.977   1.129 -0.0110  0.8933 -0.6818
 6232SOL     OW30154   0.316   2.787   2.938 -0.0933 -0.1876  0.1924
 6232SOL    HW130155   0.271   2.779   2.854  1.2117  0.2182 -0.5492
 6232SOL    HW230156   0.349   2.875   2.925  0.9727 -0.7465 -0.8798
 6233SOL     OW30157   0.711   0.814   8.374 -0.0591 -0.2689  0.0480
 6233SOL    HW130158   0.649   0.769   8.432  0.7014  1.0932  1.9369
 6233SOL    HW230159   0.793   0.788   8.417  1.1067 -0.4552 -2.2988
 6234SOL     OW30160   1.464   1.454   3.132  0.0437  0.0670 -0.0114
 6234SOL    HW130161   1.414   1.395   3.188 -1.8302  1.7943  0.1280
 6234SOL    HW230162   1.424   1.439   3.047 -0.2089  0.0230  0.1140
 6235SOL     OW30163   2.044   0.871   3.936  0.4153  0.0893 -0.5226
 6235SOL    HW130164   2.023   0.920   4.015 -2.0576 -0.5288 -0.7904
 6235SOL    HW230165   2.018   0.930   3.865  2.0096 -0.1722 -1.3256
 6236SOL     OW30166   3.154   3.906   3.784 -0.4004 -0.6872 -0.2842
 6236SOL    HW130167   3.211   3.892   3.860  0.3225  0.9549 -0.5233
 6236SOL    HW230168   3.119   3.818   3.773 -1.4728 -0.3713  0.6216
 6237SOL     OW30169   3.732   0.897  11.616  0.2496  0.2268  0.2131
 6237SOL    HW130170   3.762   0.885  11.706  0.6065 -0.7630 -0.0404
 6237SOL    HW230171   3.688   0.815  11.594 -1.3989  0.7770  1.4583
 6238SOL     OW30172   0.522   2.488   5.861 -0.1334 -0.3916  0.1721
 6238SOL    HW130173   0.572   2.547   5.804 -1.3752 -0.2144 -0.7313
 6238SOL    HW230174   0.478   2.437   5.794 -0.7482  2.8487 -1.9216
 6239SOL     OW30175   3.145   1.355   6.104  0.1730  0.2334 -0.1734
 6239SOL    HW130176   3.236   1.325   6.104 -0.3958 -1.5085  1.2308
 6239SOL    HW230177   3.154   1.436   6.155  0.8608  1.1559 -1.7637
 6240SOL     OW30178   2.168   3.846   7.755 -0.2621 -0.6876  0.0113
 6240SOL    HW130179   2.220   3.807   7.685 -1.4800  1.5499 -2.1376
 6240SOL    HW230180   2.084   3.830   7.711  0.4361  2.2487 -2.4136
 6241SOL     OW30181   0.632   1.900   8.183 -1.0137  0.0110  0.3929
 6241SOL    HW130182   0.630   1.823   8.127  0.0954  0.9145 -0.8931
 6241SOL    HW230183   0.550   1.943   8.161 -0.8711  0.1784  0.1796
 6242SOL     OW30184   1.791   4.045   4.993  0.3795 -0.9102  0.2186
 6242SOL    HW130185   1.780   4.124   5.047 -2.5331  0.1877 -1.9457
 6242SOL    HW230186   1.738   3.972   5.024 -1.0710  0.6257  1.4058
 6243SOL     OW30187   0.616   3.732   5.662 -0.2376  0.4016  0.2329
 6243SOL    HW130188   0.540   3.709   5.717 -0.2997 -0.1594 -0.0817
 6243SOL    HW230189   0.666   3.796   5.714  1.2512 -0.6035  0.0363
 6244SOL     OW30190   1.715   3.416  16.455 -0.4957  0.4039 -0.0100
 6244SOL    HW130191   1.778   3.372  16.397 -2.1902 -2.3543  0.2708
 6244SOL    HW230192   1.670   3.341  16.494 -1.9743  0.1995 -2.0748
 6245SOL     OW30193   0.356   4.148  16.401 -0.2214  0.3659 -0.0713
 6245SOL    HW130194   0.422   4.218  16.407  0.8772 -0.4024 -3.3028
 6245SOL    HW230195   0.373   4.107  16.316 -0.3764 -0.2233  0.1849
 6246SOL     OW30196   0.983   1.221  13.932 -0.4699  0.3415 -0.6042
 6246SOL    HW130197   0.983   1.131  13.963 -0.9145  1.1161  1.6374
 6246SOL    HW230198   0.942   1.268  14.005  0.3536  1.3629 -0.7920
 6247SOL     OW30199   0.605   4.338   6.116 -0.1732  0.9998  0.0607
 6247SOL    HW130200   0.636   4.400   6.182 -0.0427  1.1819 -0.1717
 6247SOL    HW230201   0.511   4.346   6.131 -0.0886  1.0391  0.5840
 6248SOL     OW30202   4.711   1.756  10.056  0.3677 -0.1946  0.4932
 6248SOL    HW130203   4.698   1.746  10.150 -2.5799 -0.0300  0.1047
 6248SOL    HW230204   4.701   1.665  10.028 -2.7986  0.2228  0.2727
 6249SOL     OW30205   2.580   0.678   1.017 -0.3923 -0.6482 -0.0999
 6249SOL    HW130206   2.500   0.718   0.982  0.8026  0.5436 -1.4594
 6249SOL    HW230207   2.574   0.596   0.968  2.1925  0.3788 -2.0832
 6250SOL     OW30208   1.955   3.171  10.164 -0.2336  0.4844  0.5195
 6250SOL    HW130209   1.936   3.096  10.220  0.9862 -0.2680 -0.0598
 6250SOL    HW230210   1.872   3.216  10.177 -1.0182 -0.2837 -1.7419
 6251SOL     OW30211   2.187   4.316   2.091 -0.6191  0.5972  0.2049
 6251SOL    HW130212   2.155   4.276   2.172 -3.3788 -1.1606 -1.7932
 6251SOL    HW230213   2.198   4.407   2.119 -1.1464  0.6472  0.2492
 6252SOL     OW30214   1.145   1.043  16.352  0.3973  0.8008  0.8021
 6252SOL    HW130215   1.135   0.991  16.432  1.3005  0.8593  0.9532
 6252SOL    HW230216   1.147   1.131  16.391  0.6783  0.9749  0.3879
 6253SOL     OW30217   1.196   1.755  17.302  0.4425  0.0514  0.1030
 6253SOL    HW130218   1.238   1.690  17.359  1.2922  1.2915  0.8878
 6253SOL    HW230219   1.271   1.813  17.287 -1.0476  1.8399 -0.3887
 6254SOL     OW30220   2.309   1.112  10.732 -1.2829 -0.1849 -0.3742
 6254SOL    HW130221   2.292   1.077  10.819  0.7428 -0.0272  0.0784
 6254SOL    HW230222   2.239   1.176  10.731 -2.4220 -1.4205  0.6031
 6255SOL     OW30223   1.174   1.342   0.884  0.2185  0.3347 -0.0249
 6255SOL    HW130224   1.111   1.293   0.833  1.1182 -0.2228 -0.5971
 6255SOL    HW230225   1.121   1.415   0.915  1.1309  0.3628  1.4996
 6256SOL     OW30226   1.052   3.489   7.378 -0.1580  0.6635  0.3014
 6256SOL    HW130227   1.115   3.490   7.306 -1.9651 -0.3171 -1.3008
 6256SOL    HW230228   0.965   3.488   7.337 -1.4942 -0.4599  3.1871
 6257SOL     OW30229   3.521   2.530   7.763 -0.0646 -0.2863 -0.5457
 6257SOL    HW130230   3.470   2.602   7.725 -0.6876  0.6795  2.1316
 6257SOL    HW230231   3.604   2.575   7.778 -0.6662  0.3885  0.7844
 6258SOL     OW30232   3.175   1.903  14.592 -0.0523  0.1874 -0.0151
 6258SOL    HW130233   3.195   1.927  14.501  1.6608 -0.5059  0.1842
 6258SOL    HW230234   3.257   1.921  14.638 -0.5989 -0.1372  1.0721
 6259SOL     OW30235   1.354   3.546  14.711  0.4404 -0.1146 -0.3241
 6259SOL    HW130236   1.340   3.606  14.784 -1.2608 -1.1174  0.1781
 6259SOL    HW230237   1.272   3.554  14.662 -0.0965 -1.1881  0.4175
 6260SOL     OW30238   3.065   2.207   7.222 -0.3785 -0.0656  0.0709
 6260SOL    HW130239   3.132   2.275   7.218 -1.0077  0.4851 -0.8403
 6260SOL    HW230240   3.000   2.274   7.242 -0.6059  0.1482 -1.3861
 6261SOL     OW30241   0.461   4.397   3.086  0.1608  0.5477  0.5864
 6261SOL    HW130242   0.379   4.347   3.079 -0.1183  1.5737 -3.6267
 6261SOL    HW230243   0.481   4.381   3.178 -2.2122  2.7186  1.4952
 6262SOL     OW30244   3.995   3.194  13.604  0.0672  0.0886 -0.2532
 6262SOL    HW130245   4.043   3.111  13.599 -0.7203 -0.4109  0.4077
 6262SOL    HW230246   3.904   3.173  13.625  0.1690 -1.0180 -0.9254
 6263SOL     OW30247   4.553   1.085  13.682  0.3128  0.2952 -0.3232
 6263SOL    HW130248   4.484   1.021  13.702  2.4885 -1.5801  1.1289
 6263SOL    HW230249   4.499   1.135  13.620  0.2938  0.0591 -0.4985
 6264SOL     OW30250   3.855   1.829   7.275 -0.1765  0.2165 -0.3282
 6264SOL    HW130251   3.884   1.898   7.216  0.8727 -0.7706 -0.9865
 6264SOL    HW230252   3.908   1.862   7.347 -2.6884  1.6097  0.8633
 6265SOL     OW30253   2.537   3.027   3.753 -0.2098  0.0751  0.3992
 6265SOL    HW130254   2.563   3.099   3.696 -1.7451 -0.0941 -0.5194
 6265SOL    HW230255   2.473   2.995   3.689 -1.7468  0.3276  1.8215
 6266SOL     OW30256   2.557   0.371   1.151 -0.4744 -0.1200 -0.1096
 6266SOL    HW130257   2.509   0.292   1.128 -1.0912  0.2578 -0.1183
 6266SOL    HW230258   2.572   0.407   1.064  0.7551 -0.1542  0.0894
 6267SOL     OW30259   0.364   1.408   7.088  0.2681 -0.3048  0.1793
 6267SOL    HW130260   0.300   1.464   7.132 -0.3610 -0.8955  0.0226
 6267SOL    HW230261   0.352   1.325   7.135 -1.3710 -1.0142 -1.4922
 6268SOL     OW30262   0.155   4.547   1.198 -0.0342 -0.2578 -0.6965
 6268SOL    HW130263   0.136   4.502   1.116  3.0130 -0.5756 -1.2181
 6268SOL    HW230264   0.249   4.553   1.210 -0.2949  0.6119  0.8564
 6269SOL     OW30265   1.484   1.872   2.574  0.2055  0.0025 -0.4649
 6269SOL    HW130266   1.467   1.821   2.495  0.4530 -1.1059  0.2009
 6269SOL    HW230267   1.513   1.799   2.629 -0.9298  0.5800  0.9118
 6270SOL     OW30268   3.557   3.307  14.128 -1.2881  0.3840  0.2092
 6270SOL    HW130269   3.647   3.333  14.108 -0.5879  0.7112  3.7316
 6270SOL    HW230270   3.519   3.272  14.047 -2.0521  1.0451  0.2784
 6271SOL     OW30271   3.833   3.330   4.041  0.3087 -0.7311  0.0628
 6271SOL    HW130272   3.783   3.408   4.015  2.1487  1.0105  1.7529
 6271SOL    HW230273   3.844   3.282   3.959  0.6116  1.2564 -1.0625
 6272SOL     OW30274   1.106   0.114   6.976 -0.1870 -0.3276  0.0831
 6272SOL    HW130275   1.185   0.164   6.996  0.5463 -1.5658  0.3104
 6272SOL    HW230276   1.084   0.089   7.065 -0.7735 -0.4240 -0.0919
 6273SOL     OW30277   0.166   3.189   7.426 -0.3828 -0.4192  0.2256
 6273SOL    HW130278   0.122   3.170   7.509 -0.2738  0.9626  0.6087
 6273SOL    HW230279   0.222   3.113   7.408 -3.2801 -2.7770  1.1959
 6274SOL     OW30280   2.714   2.164   3.670 -0.0918  0.2505  0.2446
 6274SOL    HW130281   2.740   2.256   3.672  0.8161  0.0025 -0.1505
 6274SOL    HW230282   2.727   2.134   3.760 -0.5891  0.9044  0.5380
 6275SOL     OW30283   4.279   4.175  11.723 -0.3784 -0.0223 -0.8210
 6275SOL    HW130284   4.305   4.238  11.790 -3.5574  0.6452 -0.2524
 6275SOL    HW230285   4.187   4.190  11.742 -0.5354 -0.6525 -1.0629
 6276SOL     OW30286   2.484   0.004   2.151  1.0181 -0.4257  0.2000
 6276SOL    HW130287   2.513   0.084   2.108  2.1971 -1.6921 -1.3390
 6276SOL    HW230288   2.542   4.659   2.117  2.5211 -0.0272  2.0007
 6277SOL     OW30289   1.512   3.809   4.191 -0.5568 -0.3886 -0.0555
 6277SOL    HW130290   1.546   3.720   4.177 -0.5995 -0.6209  1.2615
 6277SOL    HW230291   1.576   3.874   4.163 -0.3203 -0.6702 -0.1671
 6278SOL     OW30292   4.509   0.045   8.020  0.5720 -0.1107  0.0559
 6278SOL    HW130293   4.437   0.030   7.959  0.7734  1.2604 -0.5165
 6278SOL    HW230294   4.551   0.123   7.984  2.3893 -1.4329 -0.7255
 6279SOL     OW30295   3.350   3.490   5.929 -0.3432  0.2582 -0.3858
 6279SOL    HW130296   3.392   3.415   5.972 -1.5948  0.3306  0.9884
 6279SOL    HW230297   3.406   3.560   5.962 -1.5277  1.1872 -0.3591
 6280SOL     OW30298   4.613   0.343   0.603 -0.1116 -0.3057 -0.5178
 6280SOL    HW130299   4.541   0.367   0.544 -1.6277  1.5682  2.1057
 6280SOL    HW230300   4.576   0.368   0.688 -0.2611  1.5610 -1.1238
 6281SOL     OW30301   1.458   1.255   9.664  0.2556  0.3511 -0.1968
 6281SOL    HW130302   1.506   1.311   9.725 -0.5278  0.7765  0.0227
 6281SOL    HW230303   1.402   1.319   9.620 -0.9237  0.3201  1.2947
 6282SOL     OW30304   1.467   0.518  16.189 -0.7184  0.4134  0.1676
 6282SOL    HW130305   1.398   0.453  16.175  0.8988 -0.8403 -1.7870
 6282SOL    HW230306   1.505   0.524  16.102 -1.0687  0.6448  0.0292
 6283SOL     OW30307   2.731   2.896   4.996  0.4465 -0.3041  0.1067
 6283SOL    HW130308   2.736   2.906   4.900  0.2076  3.5545  0.5002
 6283SOL    HW230309   2.821   2.871   5.018 -0.3305 -1.6839  1.6430
 6284SOL     OW30310   1.845   2.138   8.558  0.0419  0.4660  0.5623
 6284SOL    HW130311   1.922   2.090   8.587  0.3797  2.7154  3.3657
 6284SOL    HW230312   1.794   2.062   8.529 -0.1257  0.6626  0.3337
 6285SOL     OW30313   2.379   0.184  11.643 -0.2897 -0.4555  0.4412
 6285SOL    HW130314   2.315   0.223  11.583  0.7481 -0.5728 -0.7367
 6285SOL    HW230315   2.436   0.154  11.573  1.1950  2.9278  0.2114
 6286SOL     OW30316   2.291   4.145   7.385  0.6991 -0.6918  0.4922
 6286SOL    HW130317   2.219   4.082   7.390  0.8981 -1.1090 -1.5756
 6286SOL    HW230318   2.360   4.112   7.443 -0.3180  0.5431  2.3876
 6287SOL     OW30319   2.585   0.445   0.876  0.6380 -0.1545  0.4900
 6287SOL    HW130320   2.633   0.395   0.809 -0.0227 -0.4429  0.2244
 6287SOL    HW230321   2.498   0.405   0.877  0.3270  0.4629 -1.3139
 6288SOL     OW30322   1.852   2.374   5.940  0.1382  0.0102  0.2247
 6288SOL    HW130323   1.856   2.281   5.960  2.6257  0.2128  0.6936
 6288SOL    HW230324   1.758   2.386   5.927  0.8952  4.1723 -1.3901
 6289SOL     OW30325   1.722   1.074  12.217 -0.0382  0.3168  0.2242
 6289SOL    HW130326   1.682   1.118  12.142 -0.7346 -0.2168  0.2831
 6289SOL    HW230327   1.663   1.099  12.288 -0.0590  0.7845  0.0416
 6290SOL     OW30328   1.141   1.519   9.874 -0.1851  0.6958 -0.0514
 6290SOL    HW130329   1.154   1.530   9.968 -1.7240 -3.1909  0.5810
 6290SOL    HW230330   1.087   1.441   9.868 -1.0383  1.3849 -1.3472
 6291SOL     OW30331   0.060   1.203   5.287 -0.2575 -0.5120  0.3333
 6291SOL    HW130332   4.717   1.175   5.351 -0.4374 -0.8257  0.0112
 6291SOL    HW230333   0.138   1.199   5.343  1.2827 -1.2200 -1.8370
 6292SOL     OW30334   2.046   3.030   0.201  0.9445 -0.7141 -0.1707
 6292SOL    HW130335   2.023   3.123   0.203 -2.3491 -1.5246 -0.0489
 6292SOL    HW230336   2.099   3.023   0.122  0.2029  1.0182 -0.8095
 6293SOL     OW30337   3.218   1.777  16.519  0.6466  0.1860 -0.4693
 6293SOL    HW130338   3.239   1.865  16.549 -0.4147  0.0671  0.6156
 6293SOL    HW230339   3.288   1.720  16.552  0.6209 -0.7736 -2.0485
 6294SOL     OW30340   0.252   2.680   7.119 -0.2441 -0.0454  0.3798
 6294SOL    HW130341   0.276   2.710   7.207 -2.9580 -1.9287  1.7831
 6294SOL    HW230342   0.160   2.654   7.125 -0.0538 -0.0980  2.9196
 6295SOL     OW30343   2.081   2.432   2.180 -0.1520 -0.1421  0.4707
 6295SOL    HW130344   1.989   2.406   2.169 -0.1901  0.8674 -1.6520
 6295SOL    HW230345   2.056   2.517   2.215  1.8835  0.5329  0.2974
 6296SOL     OW30346   4.380   0.472   3.820 -0.3267  0.3815  0.0256
 6296SOL    HW130347   4.344   0.388   3.849 -1.8322  1.5459  1.5388
 6296SOL    HW230348   4.460   0.450   3.773  1.0177  1.6020  1.7467
 6297SOL     OW30349   3.624   0.892   9.503  0.1813 -0.2008 -0.2225
 6297SOL    HW130350   3.567   0.927   9.435  0.9370 -0.1487 -0.8267
 6297SOL    HW230351   3.704   0.879   9.452 -0.6412  0.8317 -1.7859
 6298SOL     OW30352   2.876   3.221  11.235  0.1381  0.3456  0.1546
 6298SOL    HW130353   2.801   3.188  11.186 -1.3730 -0.3066  2.9337
 6298SOL    HW230354   2.912   3.273  11.163  1.2284 -0.2556  0.2653
 6299SOL     OW30355   4.231   0.100   5.852  0.2946  0.1420 -0.0354
 6299SOL    HW130356   4.310   0.135   5.893 -0.2544  2.7640 -1.2184
 6299SOL    HW230357   4.261   0.012   5.829  0.0517 -0.6284  2.5058
 6300SOL     OW30358   1.440   0.689   4.738 -0.4458 -0.0978 -0.8075
 6300SOL    HW130359   1.374   0.751   4.768  0.4076 -0.3781  1.6130
 6300SOL    HW230360   1.511   0.750   4.717 -0.2069 -0.1448 -0.1275
 6301SOL     OW30361   3.189   2.676   2.272  0.5893  0.2217  0.3026
 6301SOL    HW130362   3.146   2.604   2.226  1.5714  1.7702 -2.9958
 6301SOL    HW230363   3.111   2.719   2.308 -0.8446  0.1304 -2.6803
 6302SOL     OW30364   4.564   1.649   2.630 -0.1187  0.0182 -0.1160
 6302SOL    HW130365   4.570   1.735   2.673  2.2053  0.1586 -0.7344
 6302SOL    HW230366   4.600   1.656   2.542  1.4371  0.1713  0.5280
 6303SOL     OW30367   2.182   4.556  17.528 -0.1971 -0.3040 -0.4803
 6303SOL    HW130368   2.238   4.595  17.461  1.8647 -0.6637  1.0479
 6303SOL    HW230369   2.100   4.603  17.509 -1.0430 -1.5683  0.0836
 6304SOL     OW30370   3.873   1.702   8.233  0.3059  0.2098 -0.2572
 6304SOL    HW130371   3.840   1.765   8.295  1.4177 -0.1185  0.6725
 6304SOL    HW230372   3.882   1.619   8.281 -1.5175 -0.1833 -0.6101
 6305SOL     OW30373   0.813   0.308   2.690 -0.0488  0.7043 -0.2623
 6305SOL    HW130374   0.796   0.400   2.670 -1.5962  0.2364 -1.0713
 6305SOL    HW230375   0.876   0.288   2.621 -0.0841 -1.9882  0.4929
 6306SOL     OW30376   3.030   2.271  14.581  0.5546  0.4543 -0.3235
 6306SOL    HW130377   3.096   2.314  14.635 -0.1980  0.7402  0.3622
 6306SOL    HW230378   3.001   2.198  14.637  2.4048 -0.5150 -0.6268
 6307SOL     OW30379   0.106   2.029   2.736 -0.0002  0.8515 -0.3679
 6307SOL    HW130380   0.116   2.116   2.697  3.2988 -0.4316 -2.3629
 6307SOL    HW230381   0.173   2.026   2.804 -1.4966 -0.2045  1.0616
 6308SOL     OW30382   3.302   3.084   8.809  0.4763  0.4415 -0.3112
 6308SOL    HW130383   3.308   3.176   8.835  1.0377 -0.0174  1.1760
 6308SOL    HW230384   3.392   3.052   8.800  0.3999 -0.4044  1.9242
 6309SOL     OW30385   3.571   3.174   8.814 -0.2007 -0.2887  0.1588
 6309SOL    HW130386   3.522   3.224   8.880 -0.5216 -0.8162  0.3275
 6309SOL    HW230387   3.660   3.203   8.834 -0.0956 -0.4963 -0.0081
 6310SOL     OW30388   2.960   2.088  12.157 -0.7105 -0.0921  0.7006
 6310SOL    HW130389   2.994   2.167  12.114 -1.6832 -0.8028 -1.3899
 6310SOL    HW230390   2.878   2.111  12.201 -0.9002  1.5226 -0.4747
 6311SOL     OW30391   0.220   3.929  17.503 -0.4728  0.2546  0.0532
 6311SOL    HW130392   0.190   3.903  17.590  2.6243  0.0231  1.0600
 6311SOL    HW230393   0.142   3.968  17.463 -0.6909 -1.0218 -0.7503
 6312SOL     OW30394   0.508   1.428   3.342 -0.3466 -0.3119  0.4161
 6312SOL    HW130395   0.504   1.393   3.253 -1.2926  0.5803  0.1212
 6312SOL    HW230396   0.560   1.505   3.321 -0.0583 -0.3056  1.1482
 6313SOL     OW30397   0.206   2.638  16.763  0.1037 -0.1272 -0.1852
 6313SOL    HW130398   0.134   2.686  16.806  1.2631  1.9780 -0.5718
 6313SOL    HW230399   0.261   2.622  16.839  0.9332  1.9292 -0.3530
 6314SOL     OW30400   0.037   3.300   1.047  0.1042  0.3024  0.1134
 6314SOL    HW130401   0.093   3.311   1.124  0.3458 -1.0106  0.1266
 6314SOL    HW230402   0.020   3.206   1.053  0.1955  0.1339 -2.5807
 6315SOL     OW30403   3.580   4.195  14.881  0.0203  0.3648 -0.6807
 6315SOL    HW130404   3.657   4.201  14.937 -0.1560 -0.8880 -0.3065
 6315SOL    HW230405   3.561   4.103  14.895  1.7207  0.1204  0.0546
 6316SOL     OW30406   4.635   3.642   6.138 -0.0017 -0.2755 -0.4250
 6316SOL    HW130407   4.561   3.699   6.164 -0.2659 -0.5103 -0.6667
 6316SOL    HW230408   4.693   3.700   6.089 -0.1542  1.2000  1.0894
 6317SOL     OW30409   1.394   1.327   8.387 -0.1639  0.1095  0.1201
 6317SOL    HW130410   1.307   1.330   8.347  0.4416 -0.0767 -1.1806
 6317SOL    HW230411   1.434   1.411   8.365  0.1195 -0.6539 -2.2008
 6318SOL     OW30412   0.751   0.925   2.532 -0.4001 -0.3467 -0.6695
 6318SOL    HW130413   0.846   0.914   2.534 -0.4074 -0.4179 -0.6954
 6318SOL    HW230414   0.743   0.993   2.466  0.1148 -0.5889 -0.9863
 6319SOL     OW30415   0.752   0.946   0.974 -0.4719  0.0848 -0.4243
 6319SOL    HW130416   0.833   0.988   0.948 -1.3965  2.2834  0.2512
 6319SOL    HW230417   0.776   0.859   0.942  0.2770  0.0275  0.2894
 6320SOL     OW30418   2.008   2.423   3.298  0.5323 -0.4905 -0.2800
 6320SOL    HW130419   1.915   2.400   3.296  0.6714 -0.8777 -2.2040
 6320SOL    HW230420   2.057   2.342   3.284  3.3059  1.0934  0.3648
 6321SOL     OW30421   1.396   2.449  15.477  0.6976 -0.1617 -0.0707
 6321SOL    HW130422   1.337   2.437  15.402 -0.1847  0.9271  0.4481
 6321SOL    HW230423   1.325   2.489  15.528 -0.5412 -0.1192 -1.8085
 6322SOL     OW30424   3.676   3.537   8.566 -0.1507  0.7301  0.1251
 6322SOL    HW130425   3.632   3.616   8.534  0.4082  0.0291 -2.4075
 6322SOL    HW230426   3.607   3.491   8.615 -0.7150  0.1680 -1.1970
 6323SOL     OW30427   3.314   2.379  11.569  0.4644  0.4192  0.3060
 6323SOL    HW130428   3.369   2.302  11.583 -1.1467 -0.6245  1.0319
 6323SOL    HW230429   3.245   2.357  11.506 -1.8731  1.8759  2.3242
 6324SOL     OW30430   1.290   0.716  13.788  0.2103 -0.3923  0.2272
 6324SOL    HW130431   1.284   0.712  13.884  0.3995  0.6243  0.2819
 6324SOL    HW230432   1.228   0.787  13.774  1.5825  0.7433 -0.0586
 6325SOL     OW30433   0.815   2.453   1.213 -0.2525 -0.7295  0.2871
 6325SOL    HW130434   0.724   2.483   1.208 -0.2213 -0.6879 -0.0065
 6325SOL    HW230435   0.861   2.505   1.148 -1.5022 -1.2603 -1.0117
 6326SOL     OW30436   2.333   0.838   7.174 -0.3443  0.5543 -0.2812
 6326SOL    HW130437   2.241   0.828   7.200 -0.3324 -0.0990 -0.4742
 6326SOL    HW230438   2.369   0.863   7.259  0.8602 -1.0639 -0.3214
 6327SOL     OW30439   3.591   1.109   0.042 -0.1205  0.6257 -0.1073
 6327SOL    HW130440   3.630   1.185  17.691  0.1490  1.4103  1.5065
 6327SOL    HW230441   3.645   1.098   0.120 -1.5206 -2.0003  0.5023
 6328SOL     OW30442   1.790   4.144   1.780 -0.5707 -0.0764  0.7944
 6328SOL    HW130443   1.829   4.139   1.693 -0.0102  0.2713  1.0266
 6328SOL    HW230444   1.778   4.050   1.790 -2.0745  0.0539  0.1984
 6329SOL     OW30445   0.424   1.506  11.605 -0.0492 -0.0429 -0.1859
 6329SOL    HW130446   0.427   1.569  11.533 -2.2584  0.5422  0.2334
 6329SOL    HW230447   0.513   1.472  11.594 -0.1951 -1.6389  3.7374
 6330SOL     OW30448   3.835   4.077   4.563  0.7261 -0.1246  0.1419
 6330SOL    HW130449   3.916   4.039   4.597 -0.0965 -1.0056  1.1343
 6330SOL    HW230450   3.765   4.028   4.606  1.1560 -2.1173 -1.4112
 6331SOL     OW30451   3.449   3.606   9.624 -0.3716 -0.1420  0.3906
 6331SOL    HW130452   3.400   3.531   9.657 -2.3135  0.4887 -1.1088
 6331SOL    HW230453   3.448   3.649   9.710 -2.9096  1.1976 -0.3229
 6332SOL     OW30454   1.704   4.336   5.564 -0.0148  0.7071  0.6337
 6332SOL    HW130455   1.648   4.354   5.640 -2.9052 -2.4398 -0.7649
 6332SOL    HW230456   1.636   4.301   5.506 -0.3801  0.6008  1.1277
 6333SOL     OW30457   0.394   3.349   2.524  0.1860  0.2363 -0.0732
 6333SOL    HW130458   0.361   3.381   2.440  0.8634  0.6568 -0.1750
 6333SOL    HW230459   0.315   3.311   2.564  0.0440 -0.5917 -1.1520
 6334SOL     OW30460   0.125   0.747   3.164  0.3456 -0.3216 -0.4950
 6334SOL    HW130461   0.111   0.837   3.137 -1.0278 -0.2195  0.5921
 6334SOL    HW230462   0.067   0.707   3.098  0.2043  0.5563 -0.9037
 6335SOL     OW30463   2.958   4.223  15.527  0.1145 -0.3057  0.4564
 6335SOL    HW130464   3.048   4.198  15.547  0.8222  1.8420 -0.1236
 6335SOL    HW230465   2.947   4.295  15.589 -1.0726  1.3416 -1.6994
 6336SOL     OW30466   0.131   2.739  15.092 -0.2903 -0.0007  0.0102
 6336SOL    HW130467   0.131   2.647  15.116  0.9028 -0.3120 -1.1775
 6336SOL    HW230468   0.041   2.772  15.101 -0.3382 -0.6288  1.7838
 6337SOL     OW30469   4.414   1.079  15.272  0.4548  0.6630 -0.1408
 6337SOL    HW130470   4.414   1.173  15.293 -1.2041  0.3794  1.0975
 6337SOL    HW230471   4.425   1.045  15.360  1.5936 -0.8683 -0.8685
 6338SOL     OW30472   4.437   3.670   7.878  0.0546  0.1442  0.0373
 6338SOL    HW130473   4.341   3.666   7.883  0.0819 -0.0716  0.3533
 6338SOL    HW230474   4.458   3.727   7.804  3.7083  1.6621  2.2751
 6339SOL     OW30475   1.337   4.337   7.199  1.1073 -0.1221 -0.3134
 6339SOL    HW130476   1.336   4.250   7.159 -0.7536 -0.6431  0.8299
 6339SOL    HW230477   1.249   4.375   7.196  1.7663  1.6975  2.9401
 6340SOL     OW30478   1.090   3.931   8.768 -0.5122  0.4918 -0.0064
 6340SOL    HW130479   1.148   3.943   8.844 -0.8222 -0.1948  0.3294
 6340SOL    HW230480   1.006   3.943   8.811  1.0896 -0.0316  3.3242
 6341SOL     OW30481   2.468   3.930  11.053 -0.2296 -0.0776  0.3818
 6341SOL    HW130482   2.439   4.003  10.999  0.2598  0.9096  1.4446
 6341SOL    HW230483   2.542   3.981  11.086 -1.0622  1.9407 -0.8880
 6342SOL     OW30484   2.606   3.704   7.985 -0.1212  0.1045 -0.3158
 6342SOL    HW130485   2.540   3.638   8.007  1.5646 -1.1415  1.0127
 6342SOL    HW230486   2.625   3.733   8.074  0.1127  1.9744 -0.9800
 6343SOL     OW30487   1.297   1.706   6.680  0.3451 -0.1429  0.0338
 6343SOL    HW130488   1.214   1.668   6.651  0.0183 -0.1231  0.9477
 6343SOL    HW230489   1.312   1.780   6.621  1.3024 -0.4547 -0.1180
 6344SOL     OW30490   1.293   0.273   6.615  0.2593  0.1530 -0.6577
 6344SOL    HW130491   1.320   0.334   6.683 -1.1010  0.2443 -0.1858
 6344SOL    HW230492   1.317   0.324   6.538  0.9767 -0.6080 -0.9399
 6345SOL     OW30493   1.425   4.047   6.696 -0.0535  0.7778 -0.0700
 6345SOL    HW130494   1.415   4.081   6.607  0.1343  0.4122 -0.2309
 6345SOL    HW230495   1.342   4.066   6.740 -1.7986 -1.8419 -2.1880
 6346SOL     OW30496   1.294   3.643   0.671 -0.4891 -0.6237  0.1571
 6346SOL    HW130497   1.242   3.720   0.694  1.2431  1.0940 -1.7508
 6346SOL    HW230498   1.250   3.616   0.591  0.3772 -0.9464 -0.2183
 6347SOL     OW30499   2.732   2.388   7.825 -0.2047  0.0367 -0.1267
 6347SOL    HW130500   2.767   2.342   7.901  0.4237 -0.2028 -0.5568
 6347SOL    HW230501   2.649   2.341   7.825  0.2517 -0.7826  0.3361
 6348SOL     OW30502   1.209   0.051   3.171 -0.4505  0.6387 -0.3056
 6348SOL    HW130503   1.295   0.019   3.142 -1.7217 -0.2295 -3.1172
 6348SOL    HW230504   1.233   0.142   3.187 -1.4124  0.3387  2.9325
 6349SOL     OW30505   3.581   4.304   2.273 -0.1664 -0.1920  0.4825
 6349SOL    HW130506   3.662   4.343   2.242 -0.5522  1.6222  1.7511
 6349SOL    HW230507   3.522   4.376   2.251 -0.4463 -0.6009 -0.0969
 6350SOL     OW30508   2.252   1.322   8.050 -0.5344 -0.5148 -0.1680
 6350SOL    HW130509   2.231   1.354   8.137  2.0587  0.1323  0.2066
 6350SOL    HW230510   2.344   1.300   8.061 -0.1002  1.3019 -0.2289
 6351SOL     OW30511   0.298   0.948   7.972 -0.3087  0.3317 -0.2029
 6351SOL    HW130512   0.379   0.899   7.987 -0.8305 -1.0651 -2.0464
 6351SOL    HW230513   0.285   0.991   8.056  1.5935 -0.2060  0.3666
 6352SOL     OW30514   3.037   4.477   6.614 -0.0752  0.0787  0.0918
 6352SOL    HW130515   3.111   4.491   6.555  1.3746  0.8043  2.1082
 6352SOL    HW230516   3.000   4.564   6.630 -0.4538 -0.4342  1.9981
 6353SOL     OW30517   1.169   2.557   8.929  0.2653  0.0507  0.0483
 6353SOL    HW130518   1.120   2.627   8.972 -1.1900 -0.3992 -0.8818
 6353SOL    HW230519   1.235   2.600   8.874  3.0699 -2.1547  1.6338
 6354SOL     OW30520   1.117   2.537  16.847  0.1312 -0.2091 -0.3608
 6354SOL    HW130521   1.111   2.464  16.908 -2.4531  1.4444  1.4113
 6354SOL    HW230522   1.208   2.565  16.855  0.3306 -0.7620 -0.6941
 6355SOL     OW30523   0.383   0.572   4.767 -0.3462  0.4279 -0.4475
 6355SOL    HW130524   0.425   0.564   4.682  0.6114  0.3463  0.0356
 6355SOL    HW230525   0.434   0.510   4.819 -1.4946  1.6359  2.1545
 6356SOL     OW30526   3.377   0.944  16.958 -0.3707 -0.0071 -0.0353
 6356SOL    HW130527   3.307   1.007  16.942 -1.0051 -0.5965  0.4152
 6356SOL    HW230528   3.457   0.997  16.955  0.4659 -1.2110  0.6436
 6357SOL     OW30529   3.069   2.387   4.084  0.4428 -0.2502  0.1332
 6357SOL    HW130530   3.103   2.388   3.995  0.2931  0.5136  0.0885
 6357SOL    HW230531   3.132   2.339   4.137 -0.9678 -2.7860 -0.4599
 6358SOL     OW30532   1.768   2.464  12.449 -0.5246 -0.6884  0.0635
 6358SOL    HW130533   1.763   2.370  12.433 -0.3026 -1.3737  3.9712
 6358SOL    HW230534   1.847   2.463  12.504  0.5974  0.4044 -1.5084
 6359SOL     OW30535   4.171   1.673   2.385  0.7070 -0.6328  0.3526
 6359SOL    HW130536   4.169   1.735   2.313  1.3765 -0.9995  0.0273
 6359SOL    HW230537   4.099   1.709   2.437 -1.0559 -2.9027 -0.5108
 6360SOL     OW30538   3.546   2.825   3.778  0.4500  0.1227 -0.8115
 6360SOL    HW130539   3.521   2.754   3.719  1.9196  0.4813 -1.8686
 6360SOL    HW230540   3.471   2.847   3.832  1.5435  0.0472  0.7414
 6361SOL     OW30541   0.818   3.782  10.615  0.6279  0.0004 -0.6675
 6361SOL    HW130542   0.738   3.746  10.654  1.5501  2.2276  3.3395
 6361SOL    HW230543   0.853   3.828  10.692  0.9783 -1.8688  0.2698
 6362SOL     OW30544   1.515   0.130   3.683 -0.3506  0.0082 -0.0906
 6362SOL    HW130545   1.466   0.163   3.607 -0.9008  2.8699  1.4877
 6362SOL    HW230546   1.465   0.171   3.754  0.7915 -1.3159  1.4798
 6363SOL     OW30547   2.803   4.020   7.677  0.0613 -0.6777  0.1060
 6363SOL    HW130548   2.760   3.956   7.735 -1.7148 -0.5767 -1.0936
 6363SOL    HW230549   2.784   3.976   7.594 -0.9895  2.2879 -1.2140
 6364SOL     OW30550   0.060   2.003  10.024 -0.2452  0.3227 -0.2287
 6364SOL    HW130551   4.697   2.040   9.999 -1.0748  0.6211  3.0430
 6364SOL    HW230552   0.035   1.910  10.022 -2.8342  1.0193 -0.8751
 6365SOL     OW30553   0.697   3.932   6.692  0.0150 -0.4246 -0.4046
 6365SOL    HW130554   0.779   3.890   6.715  0.4680  0.8825  0.3859
 6365SOL    HW230555   0.723   3.971   6.609  1.4303 -1.1302 -0.2981
 6366SOL     OW30556   0.844   0.027   6.246  0.3838  0.5788 -0.3404
 6366SOL    HW130557   0.906   0.029   6.173  0.1070  2.0429 -0.5306
 6366SOL    HW230558   0.865   0.113   6.282 -1.1877  1.8342 -2.3967
 6367SOL     OW30559   4.325   0.731  11.574  0.2545 -0.1148 -0.0561
 6367SOL    HW130560   4.418   0.710  11.586  0.8289  0.8421 -2.8517
 6367SOL    HW230561   4.282   0.655  11.613  0.3029 -0.2753 -0.3127
 6368SOL     OW30562   2.041   1.904   6.402 -0.0283  0.1021  0.4378
 6368SOL    HW130563   2.119   1.879   6.352 -0.9376  1.0964 -1.4935
 6368SOL    HW230564   2.067   1.929   6.491  0.1748 -1.1777  0.7367
 6369SOL     OW30565   2.634   2.858   3.398 -0.1418 -0.0025 -0.0078
 6369SOL    HW130566   2.556   2.899   3.435  0.7261  1.1115  0.5987
 6369SOL    HW230567   2.598   2.781   3.354  0.6008 -1.0199  1.1625
 6370SOL     OW30568   0.058   2.062  15.292 -0.0744 -0.1323  0.1955
 6370SOL    HW130569   0.014   1.979  15.276  0.6673 -0.4446 -0.2386
 6370SOL    HW230570   0.072   2.102  15.206  0.1448 -1.2303 -0.2720
 6371SOL     OW30571   0.645   1.613   5.797 -0.7366  0.2289  0.3843
 6371SOL    HW130572   0.705   1.564   5.741 -0.3400 -0.3202  1.2916
 6371SOL    HW230573   0.699   1.692   5.787 -0.2861 -0.2638 -1.0840
 6372SOL     OW30574   3.956   2.561  17.034  0.3265  0.2646 -0.2726
 6372SOL    HW130575   3.916   2.486  16.989  1.4863 -0.6770  0.2602
 6372SOL    HW230576   4.008   2.513  17.099 -1.4223  2.9822  3.1225
 6373SOL     OW30577   2.242   0.563   6.821 -0.3129  0.1342  0.7865
 6373SOL    HW130578   2.237   0.639   6.763 -0.8821 -0.9056 -0.5523
 6373SOL    HW230579   2.337   0.552   6.816 -0.2332  0.5473  1.3935
 6374SOL     OW30580   3.234   4.483  14.065  0.0646  0.2242  0.1761
 6374SOL    HW130581   3.166   4.416  14.052  1.3834 -1.0400 -0.2254
 6374SOL    HW230582   3.203   4.508  14.152 -0.1861 -3.1389  1.0693
 6375SOL     OW30583   2.430   3.425   4.752 -0.8450  0.3929 -0.2188
 6375SOL    HW130584   2.476   3.508   4.739  0.5772 -0.6580 -1.9841
 6375SOL    HW230585   2.350   3.444   4.703 -0.7780  0.3557 -0.3445
 6376SOL     OW30586   3.154   3.836   2.103 -0.1324  0.4182 -0.1327
 6376SOL    HW130587   3.208   3.865   2.176 -0.4282  2.0029 -0.5517
 6376SOL    HW230588   3.073   3.884   2.119  0.4053  1.4988 -0.6249
 6377SOL     OW30589   2.626   0.327   4.854  0.6102 -0.1685  0.2536
 6377SOL    HW130590   2.698   0.322   4.790  0.9498  0.7126  0.5621
 6377SOL    HW230591   2.669   0.360   4.933  0.3457  1.5726 -0.3260
 6378SOL     OW30592   0.589   4.505   9.883  0.0454 -0.1618 -0.1844
 6378SOL    HW130593   0.581   4.573   9.817 -0.1585 -1.1688 -1.1909
 6378SOL    HW230594   0.573   4.552   9.965 -1.2056  1.7160 -1.5289
 6379SOL     OW30595   1.029   2.151   4.026  0.1249  0.2885  0.1322
 6379SOL    HW130596   1.038   2.072   3.972 -2.6912  1.0341 -1.4351
 6379SOL    HW230597   0.996   2.110   4.106  0.2384 -0.6157 -0.2848
 6380SOL     OW30598   1.516   2.945   3.635 -0.1998 -0.0367  0.2651
 6380SOL    HW130599   1.457   3.015   3.664  0.3529  0.9334 -0.9409
 6380SOL    HW230600   1.483   2.867   3.680  0.6787 -2.2020 -2.8853
 6381SOL     OW30601   3.453   2.670   4.051 -0.1127  0.9783  0.5948
 6381SOL    HW130602   3.505   2.590   4.062  0.1484  1.2575  1.4341
 6381SOL    HW230603   3.510   2.731   4.097 -1.2443  0.6132  2.4842
 6382SOL     OW30604   3.973   1.620  14.801 -0.5432  0.3622  0.3143
 6382SOL    HW130605   4.046   1.617  14.740 -0.0466  2.9078  0.7472
 6382SOL    HW230606   3.923   1.546  14.766 -0.4913  0.3891  0.1830
 6383SOL     OW30607   4.014   2.791   1.203 -0.3967  0.4791 -0.1321
 6383SOL    HW130608   4.015   2.789   1.299  0.8087  1.5757 -0.1328
 6383SOL    HW230609   4.065   2.711   1.187 -1.4803  0.4117 -3.2795
 6384SOL     OW30610   0.618   1.988   8.922  0.3844 -0.1907 -0.1160
 6384SOL    HW130611   0.650   1.946   8.842  2.1924 -1.0416  1.0580
 6384SOL    HW230612   0.523   1.978   8.911  0.4465 -1.1246  0.2139
 6385SOL     OW30613   4.470   4.354  17.658  0.1473  0.1336 -0.3314
 6385SOL    HW130614   4.431   4.306  17.585 -1.2662  1.3481 -0.3682
 6385SOL    HW230615   4.430   4.441  17.653  1.7171  0.8493 -0.4819
 6386SOL     OW30616   2.493   4.431   8.563  0.1036  0.4492 -0.4650
 6386SOL    HW130617   2.452   4.493   8.503  0.3988  2.6602  1.6030
 6386SOL    HW230618   2.420   4.374   8.589 -0.9779  1.3313 -1.5353
 6387SOL     OW30619   4.074   3.585  11.133  0.3107 -0.4005  0.0767
 6387SOL    HW130620   3.982   3.608  11.143  0.3680 -0.1784  0.1011
 6387SOL    HW230621   4.091   3.530  11.209 -0.7962 -1.0699 -0.1655
 6388SOL     OW30622   0.398   0.500   1.607  0.1172  0.3530  0.2441
 6388SOL    HW130623   0.481   0.453   1.617  0.1459  0.3141 -0.1669
 6388SOL    HW230624   0.430   0.583   1.574 -0.3528  0.2925 -0.3517
 6389SOL     OW30625   1.758   2.588   6.841  0.0937  0.0742 -0.4208
 6389SOL    HW130626   1.815   2.655   6.880 -0.0063  0.2946 -0.6478
 6389SOL    HW230627   1.735   2.637   6.762 -0.9083 -1.3710 -1.0248
 6390SOL     OW30628   1.757   2.384   8.689  0.3575 -0.0253  0.0685
 6390SOL    HW130629   1.678   2.361   8.738 -0.9343  0.5157 -1.7759
 6390SOL    HW230630   1.768   2.299   8.647 -1.5974  0.5312 -1.5714
 6391SOL     OW30631   1.122   3.358   4.662  0.1434  0.1857  0.0043
 6391SOL    HW130632   1.171   3.388   4.585  0.1842  0.7176  0.2377
 6391SOL    HW230633   1.152   3.267   4.668 -1.4454 -0.4029 -0.7173
 6392SOL     OW30634   1.540   2.147   7.111 -0.7747 -0.3599 -0.2417
 6392SOL    HW130635   1.617   2.092   7.125  0.0397  0.6276 -0.8951
 6392SOL    HW230636   1.492   2.140   7.194 -1.3847 -1.0329 -0.6490
 6393SOL     OW30637   2.369   1.056  11.015 -0.2333 -0.7104  0.7104
 6393SOL    HW130638   2.420   1.116  11.069  0.1886  2.1867 -2.9209
 6393SOL    HW230639   2.427   0.980  11.012 -0.0033 -0.4283 -2.3111
 6394SOL     OW30640   4.611   1.665   2.976  0.0421 -0.8901 -0.4595
 6394SOL    HW130641   4.695   1.632   2.942  0.5440  0.4251 -0.5096
 6394SOL    HW230642   4.642   1.749   3.010 -2.5276 -0.8939  1.8528
 6395SOL     OW30643   4.043   3.870   2.074  0.3435  0.2227 -0.2341
 6395SOL    HW130644   3.990   3.827   2.007  0.4316  0.9137 -0.7393
 6395SOL    HW230645   4.000   3.953   2.090 -0.4672 -0.0173 -1.2150
 6396SOL     OW30646   3.499   3.100   4.087  0.0830 -0.5632 -0.9014
 6396SOL    HW130647   3.564   3.031   4.093  0.3812 -0.1407  0.7600
 6396SOL    HW230648   3.518   3.141   4.172 -1.0266  2.1499 -1.9367
 6397SOL     OW30649   1.076   4.708   5.977  0.5405 -0.1805 -0.3048
 6397SOL    HW130650   1.086   0.079   5.998  0.8147 -0.1775 -0.4439
 6397SOL    HW230651   1.024   4.709   5.897  0.5337  1.1360 -0.2935
 6398SOL     OW30652   1.057   0.827   3.168 -0.0456  0.2346 -0.1015
 6398SOL    HW130653   1.145   0.793   3.156 -0.6920 -0.7999 -1.9267
 6398SOL    HW230654   1.034   0.844   3.077 -2.7753  1.4085  0.7819
 6399SOL     OW30655   4.578   0.888   6.389  0.7597 -0.1962  0.2354
 6399SOL    HW130656   4.629   0.920   6.315  1.2694  1.6417  1.3653
 6399SOL    HW230657   4.628   0.922   6.463 -1.4440  2.9573  0.2534
 6400SOL     OW30658   3.621   4.390   6.623  0.4662 -0.0318  0.2094
 6400SOL    HW130659   3.702   4.419   6.665  1.5716 -0.6615 -1.4954
 6400SOL    HW230660   3.558   4.415   6.691  0.0102  0.0360 -0.2405
 6401SOL     OW30661   1.087   3.175   9.340 -0.4634 -0.4187 -0.4371
 6401SOL    HW130662   1.111   3.267   9.333  0.1555 -0.3982  1.9983
 6401SOL    HW230663   1.048   3.155   9.255 -1.4938 -0.1613 -0.0354
 6402SOL     OW30664   4.421   0.169   8.664 -0.2091  0.6435 -0.4742
 6402SOL    HW130665   4.449   0.261   8.660 -0.5837  0.7938  0.2665
 6402SOL    HW230666   4.331   0.183   8.696  0.3151  0.5947  0.9921
 6403SOL     OW30667   1.555   2.605   4.669 -1.2941  0.0219  0.6357
 6403SOL    HW130668   1.480   2.656   4.640 -0.4167  0.3996 -0.9838
 6403SOL    HW230669   1.573   2.561   4.585 -1.2799  2.1006 -0.4349
 6404SOL     OW30670   4.513   3.577  13.950 -0.6536  0.6188 -0.2836
 6404SOL    HW130671   4.548   3.659  13.984 -1.8607  0.3081  1.7415
 6404SOL    HW230672   4.572   3.556  13.877 -0.5383  1.0100 -0.3019
 6405SOL     OW30673   0.614   2.590  12.383  0.2560 -0.2682 -0.1006
 6405SOL    HW130674   0.610   2.536  12.304  3.0432 -0.7672  0.1062
 6405SOL    HW230675   0.644   2.676  12.354 -0.5149 -0.3144 -1.0322
 6406SOL     OW30676   1.276   1.053  11.186  0.4342 -0.4689 -0.0703
 6406SOL    HW130677   1.274   0.989  11.257  1.1704  0.1349  0.5004
 6406SOL    HW230678   1.370   1.073  11.191  0.2644  0.2231  0.5067
 6407SOL     OW30679   3.035   2.842  14.931 -0.1017 -0.4566 -0.5441
 6407SOL    HW130680   3.008   2.886  15.012  0.3757  0.4442 -0.8743
 6407SOL    HW230681   3.042   2.916  14.871  0.7822  1.6596  2.1517
 6408SOL     OW30682   2.883   2.097   7.701  0.5017  0.0684 -0.2206
 6408SOL    HW130683   2.847   2.162   7.640 -1.7814 -0.8052  0.1754
 6408SOL    HW230684   2.846   2.131   7.782  1.4904 -2.5847  1.3672
 6409SOL     OW30685   4.213   3.854   4.631  0.3745 -0.2098  0.1128
 6409SOL    HW130686   4.194   3.909   4.555 -0.4534 -2.4637 -1.3460
 6409SOL    HW230687   4.281   3.910   4.666  0.8294 -0.9163  0.3662
 6410SOL     OW30688   4.487   4.567   2.092 -0.9460  0.2756  0.4115
 6410SOL    HW130689   4.410   4.510   2.087 -0.1583 -1.0131  2.8966
 6410SOL    HW230690   4.531   4.538   2.172 -0.9841  0.4323  0.4900
 6411SOL     OW30691   0.165   1.555   7.218 -0.4870  0.5500  0.5260
 6411SOL    HW130692   0.117   1.557   7.301  0.5565  0.9300  1.1176
 6411SOL    HW230693   0.194   1.645   7.209  0.6724 -0.0546 -1.7441
 6412SOL     OW30694   3.531   3.771   4.217  0.0784 -0.6788 -0.1989
 6412SOL    HW130695   3.562   3.751   4.305 -0.0180 -1.9598 -0.4526
 6412SOL    HW230696   3.613   3.783   4.169 -0.3333  2.9606  0.0131
 6413SOL     OW30697   2.135   1.895   6.016  0.4829 -0.3908  0.2900
 6413SOL    HW130698   2.179   1.812   6.000 -1.3350 -1.2309 -0.4036
 6413SOL    HW230699   2.189   1.931   6.086 -1.6607 -0.3632  1.9167
 6414SOL     OW30700   3.565   2.391   2.651 -0.3656  0.4374 -0.2550
 6414SOL    HW130701   3.593   2.353   2.734  0.1227  1.8690  0.2366
 6414SOL    HW230702   3.478   2.350   2.647  0.1403 -0.4641 -1.9228
 6415SOL     OW30703   4.488   0.976   4.537 -0.0750 -0.2767 -0.1154
 6415SOL    HW130704   4.575   0.937   4.538 -0.1831 -0.4978  0.4545
 6415SOL    HW230705   4.456   0.951   4.450 -1.1280 -1.9142  0.7393
 6416SOL     OW30706   3.061   3.172   5.622  0.8830 -0.1515  0.1315
 6416SOL    HW130707   3.125   3.125   5.568  1.0977 -0.1940  0.4274
 6416SOL    HW230708   3.044   3.113   5.695 -0.0716 -0.4000 -0.2935
 6417SOL     OW30709   4.686   0.495   3.696 -0.5826  0.1353 -0.0621
 6417SOL    HW130710   4.631   0.423   3.665  1.1903 -1.8956  1.5051
 6417SOL    HW230711   0.045   0.475   3.649  0.1838 -0.4726  1.5263
 6418SOL     OW30712   3.107   4.251   1.363 -0.4382 -0.1231 -0.2537
 6418SOL    HW130713   3.078   4.212   1.280 -1.2493 -1.0019  0.4499
 6418SOL    HW230714   3.033   4.219   1.414 -0.3833 -1.1092 -0.8073
 6419SOL     OW30715   3.160   4.665   0.669 -0.0343 -0.3043  0.1100
 6419SOL    HW130716   3.214   4.642   0.745  1.1606  0.5029 -0.5109
 6419SOL    HW230717   3.170   4.576   0.635 -3.3387 -0.0006 -1.6965
 6420SOL     OW30718   0.830   1.728   7.145  0.1767 -0.2132  0.5209
 6420SOL    HW130719   0.900   1.774   7.100 -0.5132  0.5733  0.2343
 6420SOL    HW230720   0.818   1.656   7.084 -2.6334  1.0881 -0.5123
 6421SOL     OW30721   3.428   4.344  14.202 -0.1053  0.1281  0.3233
 6421SOL    HW130722   3.374   4.410  14.159  0.8289  1.7806  1.6686
 6421SOL    HW230723   3.505   4.400  14.214  0.5442 -0.9881  1.4253
 6422SOL     OW30724   3.846   1.448   8.715 -0.3610 -0.0338 -0.3382
 6422SOL    HW130725   3.796   1.368   8.699 -0.2120 -0.3507  0.7859
 6422SOL    HW230726   3.886   1.431   8.800  0.6171 -1.0660 -0.9985
 6423SOL     OW30727   0.855   2.322  17.625 -0.0478  0.0343 -0.4634
 6423SOL    HW130728   0.791   2.382  17.587 -0.4328 -0.2558 -0.2823
 6423SOL    HW230729   0.933   2.364  17.590  0.1350  0.0872  0.0022
 6424SOL     OW30730   3.550   3.088  16.427  0.4503  0.0457 -0.4027
 6424SOL    HW130731   3.600   3.137  16.491 -0.4953  1.0117 -0.4032
 6424SOL    HW230732   3.498   3.160  16.390 -0.0745 -0.5758 -0.8744
 6425SOL     OW30733   1.965   1.052   5.144  0.4360 -0.4294 -0.5782
 6425SOL    HW130734   2.022   1.003   5.202 -1.7154  0.1457  2.0444
 6425SOL    HW230735   2.020   1.056   5.066 -0.5250  0.5591 -1.2079
 6426SOL     OW30736   4.448   4.600  14.006 -0.4781 -0.4247  0.0492
 6426SOL    HW130737   4.491   4.566  13.927  2.3495  3.9869 -0.3612
 6426SOL    HW230738   4.414   4.685  13.976  1.5020  1.0903  2.0822
 6427SOL     OW30739   0.361   1.585   0.296 -0.2882 -0.1478 -0.4875
 6427SOL    HW130740   0.308   1.532   0.356 -1.6929  0.5902 -1.0763
 6427SOL    HW230741   0.340   1.547   0.211 -1.0456 -1.3062  0.2243
 6428SOL     OW30742   1.575   0.084  10.743 -0.1061  0.6932 -0.5222
 6428SOL    HW130743   1.670   0.089  10.750 -0.1055  2.1731 -1.5983
 6428SOL    HW230744   1.577   0.032  10.663  1.2234 -0.3454  0.1750
 6429SOL     OW30745   3.290   1.216   6.793  0.3327 -0.1497 -0.3748
 6429SOL    HW130746   3.354   1.248   6.729  1.6555  1.1613  1.5847
 6429SOL    HW230747   3.299   1.286   6.858 -2.0247  0.1925 -0.4320
 6430SOL     OW30748   0.321   0.194   2.132  0.4140  0.1741  0.2024
 6430SOL    HW130749   0.252   0.241   2.179 -1.3949 -0.8398 -1.4249
 6430SOL    HW230750   0.275   0.173   2.051 -1.7043  1.4803  1.0630
 6431SOL     OW30751   0.474   2.790   5.933  0.4210 -0.1075  1.0818
 6431SOL    HW130752   0.544   2.817   5.992  2.1570 -0.5659 -0.7481
 6431SOL    HW230753   0.416   2.863   5.958  0.4613  0.2890  0.0300
 6432SOL     OW30754   0.078   1.503   4.716 -0.6345 -0.3444 -0.0381
 6432SOL    HW130755   0.043   1.560   4.785 -0.2747 -0.8414  0.5592
 6432SOL    HW230756   0.056   1.418   4.753 -0.6143 -0.3687 -0.0817
 6433SOL     OW30757   1.953   0.726   8.234  0.1883  0.9208 -0.4811
 6433SOL    HW130758   1.986   0.813   8.210 -2.5960  1.6752 -1.5582
 6433SOL    HW230759   2.034   0.690   8.270 -0.8626 -0.8877  0.0653
 6434SOL     OW30760   2.800   3.219   2.259 -0.8354 -0.5136  0.0519
 6434SOL    HW130761   2.825   3.235   2.168 -0.1745 -1.2261  0.1143
 6434SOL    HW230762   2.854   3.145   2.286  1.7026  0.7761 -1.5136
 6435SOL     OW30763   3.199   1.425   6.395 -0.9098  0.2168  0.2246
 6435SOL    HW130764   3.192   1.339   6.355  0.8333 -0.1671  0.7528
 6435SOL    HW230765   3.119   1.425   6.448 -0.4623  0.6606  0.9047
 6436SOL     OW30766   2.780   0.837   6.950 -0.2468  0.1735  0.5084
 6436SOL    HW130767   2.845   0.896   6.989  2.9569 -2.1466 -1.3502
 6436SOL    HW230768   2.813   0.752   6.979 -2.4534 -0.1917  1.9570
 6437SOL     OW30769   4.200   1.447   9.907  0.1135  0.1283 -0.0250
 6437SOL    HW130770   4.117   1.401   9.914  0.0838  0.5409  2.3264
 6437SOL    HW230771   4.176   1.534   9.938 -2.7289 -0.7330  0.2042
 6438SOL     OW30772   1.144   3.474  10.350  0.1551 -0.3708  0.4304
 6438SOL    HW130773   1.090   3.423  10.411  1.9629 -0.5993  1.8454
 6438SOL    HW230774   1.218   3.417  10.367 -0.3490 -0.7558  1.3220
 6439SOL     OW30775   2.544   0.355   0.337 -0.0111 -0.0538  0.2653
 6439SOL    HW130776   2.572   0.419   0.272  0.8983  0.4116  1.1141
 6439SOL    HW230777   2.546   0.407   0.417  0.0989 -0.1756  0.3422
 6440SOL     OW30778   3.744   3.567   7.483 -0.5460 -0.2997  0.2861
 6440SOL    HW130779   3.819   3.571   7.543  0.9499  2.0076 -1.7714
 6440SOL    HW230780   3.789   3.574   7.399 -2.2835 -1.1317 -0.7130
 6441SOL     OW30781   1.855   4.479   2.141 -0.0968  0.6306 -0.1302
 6441SOL    HW130782   1.900   4.514   2.064  0.5348 -0.4325 -0.2417
 6441SOL    HW230783   1.794   4.415   2.104  2.3117 -1.7851  0.0167
 6442SOL     OW30784   1.907   1.445   2.579 -0.1580 -0.2622 -0.2657
 6442SOL    HW130785   1.991   1.461   2.536  1.0953 -2.5715  1.3626
 6442SOL    HW230786   1.856   1.401   2.511 -0.2162 -2.2433  1.0612
 6443SOL     OW30787   1.566   3.098  13.212 -0.2288 -0.4284  0.5571
 6443SOL    HW130788   1.646   3.086  13.263  0.5696  1.0187 -0.3591
 6443SOL    HW230789   1.517   3.148  13.277 -0.3776 -0.4075  0.4296
 6444SOL     OW30790   1.994   1.856   8.029  0.2553 -0.1566  0.2249
 6444SOL    HW130791   2.035   1.883   8.111 -0.5284 -0.2615  0.6525
 6444SOL    HW230792   2.077   1.838   7.986  1.2917  1.5177  1.5178
 6445SOL     OW30793   1.680   2.647  16.936  0.3428 -0.1347 -0.1557
 6445SOL    HW130794   1.698   2.599  17.016  2.0469  0.0987 -0.3982
 6445SOL    HW230795   1.732   2.600  16.871  0.9049  2.1648 -1.3878
 6446SOL     OW30796   1.154   0.692   5.032  0.9415 -0.5091 -0.3239
 6446SOL    HW130797   1.185   0.744   4.958  2.8488 -0.6561  0.3870
 6446SOL    HW230798   1.163   0.763   5.096 -3.1478 -0.9040  0.6737
 6447SOL     OW30799   2.642   0.723   6.029 -0.4844  0.5491 -0.1391
 6447SOL    HW130800   2.645   0.723   6.125 -0.1239  0.8439 -0.1504
 6447SOL    HW230801   2.680   0.811   6.018 -0.7614  0.3706 -2.3774
 6448SOL     OW30802   1.266   1.006   2.544 -0.2335  0.1536  0.3621
 6448SOL    HW130803   1.361   1.001   2.558  0.0919 -2.5188 -2.7543
 6448SOL    HW230804   1.244   0.913   2.541  0.9095 -0.1081  0.0824
 6449SOL     OW30805   1.571   0.189  11.109 -0.2120 -0.0041  0.4583
 6449SOL    HW130806   1.487   0.234  11.093  0.2549  0.9138  0.6099
 6449SOL    HW230807   1.601   0.208  11.020 -2.3794 -1.2395 -0.5551
 6450SOL     OW30808   4.460   1.684  14.754 -0.2264 -0.3086 -0.0663
 6450SOL    HW130809   4.377   1.699  14.708 -0.3086 -2.5295 -0.6392
 6450SOL    HW230810   4.436   1.630  14.829  0.4759  2.6430  2.3172
 6451SOL     OW30811   3.543   2.136   0.512 -0.1364  0.3626 -0.0760
 6451SOL    HW130812   3.553   2.230   0.530  0.6891  0.0021  1.2971
 6451SOL    HW230813   3.591   2.098   0.584 -0.9928  0.4705  0.5591
 6452SOL     OW30814   1.052   0.692  16.393 -0.3213  0.1777  0.8155
 6452SOL    HW130815   1.062   0.772  16.444  0.6375  0.8935 -0.4902
 6452SOL    HW230816   0.997   0.629  16.440  2.2855 -2.0414  0.9316
 6453SOL     OW30817   3.765   1.386  14.720 -0.0195 -0.4838  0.0817
 6453SOL    HW130818   3.682   1.417  14.685 -0.1536  0.7261  1.4845
 6453SOL    HW230819   3.746   1.304  14.765  0.6856  0.0628  1.3858
 6454SOL     OW30820   1.708   2.337   6.484 -0.0670 -0.1907  0.1609
 6454SOL    HW130821   1.786   2.366   6.531 -0.4471  0.8260  0.1769
 6454SOL    HW230822   1.643   2.336   6.554  0.1885 -1.6039  0.3718
 6455SOL     OW30823   4.370   3.250   5.166  0.4481 -0.4425 -0.4153
 6455SOL    HW130824   4.428   3.204   5.105 -0.2681 -1.9736  0.0509
 6455SOL    HW230825   4.425   3.327   5.184  0.6185 -0.8075  0.5992
 6456SOL     OW30826   0.017   0.952   6.628 -0.0850 -0.1658  0.2348
 6456SOL    HW130827   0.064   1.033   6.609  2.4487 -2.0631 -1.5979
 6456SOL    HW230828   4.721   0.963   6.721 -0.8616 -0.6630  0.1496
 6457SOL     OW30829   2.073   0.285   3.127  0.5704  0.4043 -0.0763
 6457SOL    HW130830   2.127   0.323   3.197  0.5408  1.3868 -0.5798
 6457SOL    HW230831   2.004   0.255   3.187 -0.3086  1.7574 -0.4167
 6458SOL     OW30832   2.684   4.293  11.032  0.0380  0.3589  0.1753
 6458SOL    HW130833   2.698   4.225  10.966  1.0427  1.2309 -0.5080
 6458SOL    HW230834   2.590   4.314  11.033 -0.1406 -0.5849  1.8018
 6459SOL     OW30835   3.266   4.151   3.458 -0.4486 -0.1642 -0.7535
 6459SOL    HW130836   3.337   4.215   3.454  0.8044 -1.5681 -0.9603
 6459SOL    HW230837   3.240   4.151   3.366 -1.2569  0.5645 -0.5251
 6460SOL     OW30838   3.419   4.223  11.259  0.2811 -0.0523 -0.1361
 6460SOL    HW130839   3.409   4.317  11.270  1.3574 -0.3148  3.1545
 6460SOL    HW230840   3.328   4.195  11.248  0.3784 -0.3159 -0.2777
 6461SOL     OW30841   2.190   0.191   2.902  0.1836 -0.4961  0.4741
 6461SOL    HW130842   2.106   0.203   2.858  1.2180  1.8335 -0.8802
 6461SOL    HW230843   2.171   0.219   2.992  0.3404 -2.9902  1.2825
 6462SOL     OW30844   1.636   2.297   4.703 -0.3251 -0.3518 -0.5579
 6462SOL    HW130845   1.662   2.389   4.711 -2.1660  0.2288 -1.2391
 6462SOL    HW230846   1.598   2.299   4.616  0.4768 -0.5272 -0.9133
 6463SOL     OW30847   1.409   0.107   7.368  0.0431  0.0045  0.5101
 6463SOL    HW130848   1.351   0.033   7.381  0.0290 -0.3243 -1.3593
 6463SOL    HW230849   1.495   0.068   7.352 -0.0296  0.1633 -0.3068
 6464SOL     OW30850   1.776   1.693   6.327 -0.0431 -0.3620 -0.4880
 6464SOL    HW130851   1.871   1.686   6.336 -0.0084  1.4128  0.4803
 6464SOL    HW230852   1.747   1.689   6.418  0.4459  1.1736 -0.2508
 6465SOL     OW30853   3.002   4.067   2.298  0.6439 -0.0417 -0.0921
 6465SOL    HW130854   2.966   4.046   2.212 -0.9200 -0.8029  0.7533
 6465SOL    HW230855   2.961   4.149   2.324 -0.5794 -0.7449  0.2257
 6466SOL     OW30856   0.936   0.218   7.849 -0.0963 -0.1337 -0.2709
 6466SOL    HW130857   1.015   0.248   7.805 -0.0410 -1.3348 -0.9788
 6466SOL    HW230858   0.882   0.183   7.778  0.0624  0.8111 -0.8532
 6467SOL     OW30859   3.781   3.078  17.404  0.4809  0.1638 -0.0080
 6467SOL    HW130860   3.857   3.033  17.368  0.0498 -0.5150 -0.0576
 6467SOL    HW230861   3.757   3.004  17.459  1.4127 -0.7352 -0.8027
 6468SOL     OW30862   1.120   4.244   6.011  0.1486  0.0099 -0.0867
 6468SOL    HW130863   1.184   4.207   6.072  0.3306  0.7422  0.1759
 6468SOL    HW230864   1.096   4.165   5.963 -0.6707 -0.0071  0.3442
 6469SOL     OW30865   3.836   3.871   2.806  0.1563  0.1640  0.0213
 6469SOL    HW130866   3.791   3.955   2.810 -0.7387 -0.3215  0.2291
 6469SOL    HW230867   3.807   3.834   2.723 -0.5556 -0.6799  0.6503
 6470SOL     OW30868   1.765   4.470   2.435  0.2937 -0.0613 -0.3608
 6470SOL    HW130869   1.763   4.416   2.356  0.7096  1.0508 -1.1238
 6470SOL    HW230870   1.853   4.506   2.430  0.3240  0.0397  0.8799
 6471SOL     OW30871   3.781   2.092   1.227 -0.0117  0.7141  1.0807
 6471SOL    HW130872   3.800   2.013   1.177 -0.5037 -0.6504  3.0559
 6471SOL    HW230873   3.833   2.145   1.166  3.0373 -1.1378  2.0687
 6472SOL     OW30874   2.020   3.618  10.759  0.1714 -0.5317 -0.1044
 6472SOL    HW130875   2.079   3.556  10.802  0.7023  0.8467  1.1646
 6472SOL    HW230876   2.020   3.698  10.811 -1.1281  0.1283 -1.1090
 6473SOL     OW30877   0.475   2.623  14.672 -0.0037 -0.1237 -0.3662
 6473SOL    HW130878   0.545   2.591  14.728  0.2625  0.6659 -0.2466
 6473SOL    HW230879   0.429   2.689  14.724 -1.0690  0.9135 -2.6370
 6474SOL     OW30880   4.247   1.887   6.450 -0.3503  0.2501 -1.4791
 6474SOL    HW130881   4.183   1.896   6.379 -2.2553 -3.4921 -0.2613
 6474SOL    HW230882   4.275   1.978   6.456 -1.1453  0.2020  2.6048
 6475SOL     OW30883   0.406   0.019   0.079 -0.0467  0.1888  0.1574
 6475SOL    HW130884   0.437   4.678   0.014 -1.5397  0.0324 -0.4234
 6475SOL    HW230885   0.316   4.712   0.092 -0.4625  2.0994  1.5725
 6476SOL     OW30886   2.573   0.599   4.018  0.5388  0.2637 -0.0976
 6476SOL    HW130887   2.535   0.511   4.012 -1.4483  1.1620 -0.5242
 6476SOL    HW230888   2.652   0.577   4.068  1.4068  1.7635 -0.8012
 6477SOL     OW30889   3.310   0.184  17.270  0.0587  0.4258 -0.3339
 6477SOL    HW130890   3.325   0.118  17.202  2.5858 -0.9526  1.5852
 6477SOL    HW230891   3.378   0.251  17.263 -0.9604  1.7067  2.0248
 6478SOL     OW30892   3.154   1.886   1.845 -0.2155 -0.2229 -0.1204
 6478SOL    HW130893   3.066   1.917   1.865 -0.6865 -1.2059 -0.6553
 6478SOL    HW230894   3.184   1.960   1.794 -0.8112 -0.5216 -0.8934
 6479SOL     OW30895   2.142   2.529   6.774  0.2698 -0.7240 -0.3548
 6479SOL    HW130896   2.180   2.594   6.833 -0.3330 -0.8649  0.1821
 6479SOL    HW230897   2.220   2.481   6.747  0.2115 -1.3109  0.5405
 6480SOL     OW30898   2.319   4.120   0.531  0.0337 -1.1111 -0.1458
 6480SOL    HW130899   2.311   4.190   0.466 -0.1983 -1.8017 -0.8669
 6480SOL    HW230900   2.270   4.155   0.605  1.6634  3.0547 -1.0363
 6481SOL     OW30901   4.680   0.381  12.043 -0.0746 -0.0032  0.0120
 6481SOL    HW130902   4.687   0.416  12.132  1.7194 -0.7834  0.1849
 6481SOL    HW230903   4.649   0.291  12.044 -2.2812  0.7566 -0.8742
 6482SOL     OW30904   0.937   0.052  15.136 -0.1813 -0.0861 -0.0213
 6482SOL    HW130905   0.909   0.087  15.051  1.7158 -0.0485 -0.6264
 6482SOL    HW230906   0.873   0.098  15.191 -0.6349  0.4350 -0.9716
 6483SOL     OW30907   0.679   4.367  17.570  0.2939  0.2205  0.4170
 6483SOL    HW130908   0.750   4.409  17.620  0.1256 -0.3303  1.1122
 6483SOL    HW230909   0.696   4.408  17.485 -0.8510 -0.0651  0.0574
 6484SOL     OW30910   0.098   3.270   1.953  0.4499  0.2429  0.0918
 6484SOL    HW130911   0.031   3.338   1.961  1.8533  1.6307  0.2440
 6484SOL    HW230912   0.035   3.203   1.927 -1.9209  1.9115  1.4929
 6485SOL     OW30913   0.116   2.191   5.668 -0.1184 -0.4285 -0.0293
 6485SOL    HW130914   0.025   2.164   5.664 -0.5531  0.9585  0.7000
 6485SOL    HW230915   0.137   2.183   5.575  1.4265  0.7400  0.2083
 6486SOL     OW30916   4.103   4.469   7.428 -0.3439  0.0871 -0.2374
 6486SOL    HW130917   4.019   4.424   7.439  0.2410 -0.6467  1.1693
 6486SOL    HW230918   4.079   4.554   7.464  0.4029  0.2345 -0.0878
 6487SOL     OW30919   2.430   4.367   6.074 -0.0972 -0.2502  0.1966
 6487SOL    HW130920   2.392   4.288   6.034  1.2142 -1.0569  0.5314
 6487SOL    HW230921   2.399   4.431   6.010 -2.1662  0.6993  2.1702
 6488SOL     OW30922   2.499   3.430   9.576 -0.4025 -0.3405 -0.0243
 6488SOL    HW130923   2.503   3.349   9.628 -0.7454 -0.0625  0.4385
 6488SOL    HW230924   2.407   3.454   9.589 -0.3459  0.5658 -1.3070
 6489SOL     OW30925   0.487   3.877  12.428 -0.3124  0.2687 -0.3070
 6489SOL    HW130926   0.537   3.951  12.393 -1.5698  0.2159 -2.1855
 6489SOL    HW230927   0.545   3.801  12.425  1.9568  2.0611 -1.8925
 6490SOL     OW30928   2.011   3.146   2.500  0.0301 -0.0162 -0.2166
 6490SOL    HW130929   1.942   3.095   2.543 -0.4379  0.6659 -0.1628
 6490SOL    HW230930   1.972   3.232   2.485  2.5286  0.7609 -2.3071
 6491SOL     OW30931   0.183   4.488   4.808 -0.0612  0.0804  0.0334
 6491SOL    HW130932   0.210   4.510   4.719 -1.1885 -1.6527 -0.7203
 6491SOL    HW230933   0.096   4.523   4.826  1.0489  1.8532  1.9835
 6492SOL     OW30934   1.407   3.227  13.407  0.6075  0.3829  0.2015
 6492SOL    HW130935   1.382   3.188  13.490  0.2148  0.1196 -0.0384
 6492SOL    HW230936   1.324   3.273  13.396 -0.5835 -1.3723  1.7780
 6493SOL     OW30937   1.522   2.564   7.435  0.2347 -0.6855 -0.0318
 6493SOL    HW130938   1.534   2.512   7.514  1.1340 -1.9829 -1.0165
 6493SOL    HW230939   1.432   2.594   7.443  1.1260  1.7858  0.6269
 6494SOL     OW30940   0.098   3.882   7.468 -0.3107 -0.4288  0.1065
 6494SOL    HW130941   0.054   3.956   7.510  1.0837  1.2678 -1.4222
 6494SOL    HW230942   0.151   3.916   7.395  0.4022 -0.2025  0.7259
 6495SOL     OW30943   4.673   0.722   7.689  0.0629 -0.3784 -0.2680
 6495SOL    HW130944   0.009   0.712   7.765 -0.2074 -1.8725 -0.2703
 6495SOL    HW230945   0.002   0.784   7.637  0.1917  0.6722  1.1154
 6496SOL     OW30946   2.215   1.786   7.140  1.1772 -0.0375 -0.3748
 6496SOL    HW130947   2.253   1.702   7.117 -0.8915 -1.2599  0.6896
 6496SOL    HW230948   2.275   1.850   7.103  1.9856  0.0837  1.1461
 6497SOL     OW30949   3.730   2.493   1.228  0.4354  0.3170 -0.2532
 6497SOL    HW130950   3.738   2.564   1.164 -0.2671  0.2973 -0.3635
 6497SOL    HW230951   3.683   2.528   1.303  2.0522  1.2670  0.3099
 6498SOL     OW30952   0.521   2.314   7.043  0.2467  0.1646 -0.1929
 6498SOL    HW130953   0.480   2.231   7.020  0.3852  0.6950 -2.4125
 6498SOL    HW230954   0.524   2.357   6.957 -0.8363 -0.2393 -0.4270
 6499SOL     OW30955   2.674   4.605  13.278  0.0577 -0.1129  0.2157
 6499SOL    HW130956   2.675   4.534  13.215 -1.0676 -0.7315  0.8993
 6499SOL    HW230957   2.667   4.681  13.220 -3.1563 -0.8396 -0.3554
 6500SOL     OW30958   2.436   4.558   6.258 -0.1534 -0.2699 -0.1889
 6500SOL    HW130959   2.352   4.602   6.248 -0.4343 -0.8221 -0.2385
 6500SOL    HW230960   2.424   4.488   6.195  3.2365 -0.8538 -0.1923
 6501SOL     OW30961   2.082   2.737  16.700  0.4597 -0.5255  0.4205
 6501SOL    HW130962   2.033   2.777  16.772  1.0365 -0.3418  0.7074
 6501SOL    HW230963   2.055   2.648  16.720  0.4537  0.1826  3.5829
 6502SOL     OW30964   0.857   0.409  10.396 -0.4387 -0.5968 -0.5817
 6502SOL    HW130965   0.864   0.446  10.308 -1.3164 -1.8591 -1.1853
 6502SOL    HW230966   0.786   0.345  10.389  0.6581 -1.5533 -2.9873
 6503SOL     OW30967   2.987   0.635  13.948 -0.3397 -0.6030  0.1200
 6503SOL    HW130968   3.069   0.594  13.919  0.4137  0.1101  1.2349
 6503SOL    HW230969   3.014   0.727  13.953  1.8754 -1.3082  1.3134
 6504SOL     OW30970   1.998   4.595   2.394 -0.1014  0.1662 -0.3609
 6504SOL    HW130971   2.079   4.579   2.441  0.8598  0.1798 -2.0238
 6504SOL    HW230972   2.030   4.617   2.307 -1.1243  1.7609 -0.3527
 6505SOL     OW30973   2.118   0.907   0.958  0.8006  0.3775 -0.3078
 6505SOL    HW130974   2.042   0.949   0.999 -0.1134 -0.1625 -1.4569
 6505SOL    HW230975   2.179   0.923   1.030 -1.3247  1.0137  1.3529
 6506SOL     OW30976   4.059   0.022   5.302  0.3913 -0.6701 -0.0980
 6506SOL    HW130977   4.057   0.015   5.398  1.3735  0.1794 -0.0099
 6506SOL    HW230978   4.148   4.716   5.283  1.5653  2.5713  0.4936
 6507SOL     OW30979   3.498   4.052   2.166 -0.5532 -0.0418 -0.2693
 6507SOL    HW130980   3.488   4.096   2.081  0.3623 -0.9573 -0.8408
 6507SOL    HW230981   3.520   4.125   2.224  1.9438 -0.8781 -0.1810
 6508SOL     OW30982   3.056   1.663  13.573 -0.0090 -0.1905  0.5644
 6508SOL    HW130983   3.040   1.758  13.568 -0.5715 -0.4158 -2.1858
 6508SOL    HW230984   3.091   1.637  13.488 -0.8501  2.1518 -0.5106
 6509SOL     OW30985   4.711   2.598   5.987  0.4421  0.0625 -0.0550
 6509SOL    HW130986   4.684   2.630   5.900 -2.0232 -0.9976  0.3159
 6509SOL    HW230987   0.083   2.614   5.983  0.1047  2.0142 -0.5648
 6510SOL     OW30988   2.673   3.820   9.445  0.5802 -0.5103  0.2309
 6510SOL    HW130989   2.690   3.881   9.374  0.0551  0.6036  1.0637
 6510SOL    HW230990   2.628   3.876   9.508  1.2333  1.3419 -0.9608
 6511SOL     OW30991   1.155   4.706  11.825 -0.2637 -0.3160  0.4720
 6511SOL    HW130992   1.122   0.049  11.764 -0.7196 -1.2700 -0.3080
 6511SOL    HW230993   1.175   4.645  11.754 -0.6509  0.4436 -0.2884
 6512SOL     OW30994   4.369   3.923   7.677 -0.3888  0.3903  0.2549
 6512SOL    HW130995   4.280   3.938   7.644 -1.9217 -4.5452  2.1516
 6512SOL    HW230996   4.399   4.010   7.700  0.8583  0.5919 -2.1646
 6513SOL     OW30997   1.556   4.692   4.853 -0.2573 -0.2544 -0.3419
 6513SOL    HW130998   1.507   0.048   4.879 -1.6856 -0.7259 -1.6632
 6513SOL    HW230999   1.610   4.679   4.932 -2.4257  1.4416  1.4139
 6514SOL     OW31000   2.851   2.393   1.331  0.0939  0.1469  0.8145
 6514SOL    HW131001   2.871   2.487   1.338  1.3268 -0.1190  0.8965
 6514SOL    HW231002   2.896   2.377   1.247 -2.0865 -0.6055 -0.1997
 6515SOL     OW31003   0.418   0.026   8.330 -0.2419  0.4288 -0.0727
 6515SOL    HW131004   0.456   0.102   8.286  0.3962  0.8323  1.1932
 6515SOL    HW231005   0.394   4.700   8.251 -0.3575 -0.4739  0.5314
 6516SOL     OW31006   0.928   4.563  17.390 -0.3381 -0.2807 -0.1121
 6516SOL    HW131007   1.006   4.603  17.428 -0.1353 -1.4563  0.7093
 6516SOL    HW231008   0.856   4.623  17.409  0.5132  0.1833  1.6829
 6517SOL     OW31009   4.579   0.736  12.410 -0.3342  0.0609 -0.4426
 6517SOL    HW131010   4.664   0.764  12.441 -1.2680  3.3298 -0.8771
 6517SOL    HW231011   4.564   0.800  12.341  3.5471  0.2305 -1.1211
 6518SOL     OW31012   2.859   0.331   9.441  0.3360  0.7172  0.4358
 6518SOL    HW131013   2.905   0.272   9.380 -1.2468  0.1897 -0.2338
 6518SOL    HW231014   2.789   0.277   9.476  0.0831  0.8048  0.0649
 6519SOL     OW31015   1.899   0.139  13.726 -0.3459  0.0331 -0.0872
 6519SOL    HW131016   1.848   0.058  13.733  1.6289 -1.0115  1.9983
 6519SOL    HW231017   1.966   0.136  13.794 -0.9241 -0.8023  0.4428
 6520SOL     OW31018   2.058   1.909   9.506 -0.4306 -0.1017  0.3303
 6520SOL    HW131019   2.123   1.948   9.449  1.3477 -0.2919  2.2223
 6520SOL    HW231020   2.047   1.823   9.466  1.1063 -0.1708  0.0605
 6521SOL     OW31021   3.027   3.402   5.785  0.1316 -0.0183  0.3157
 6521SOL    HW131022   3.093   3.430   5.722  0.3004 -0.8559  0.1168
 6521SOL    HW231023   2.997   3.324   5.738  2.0578 -0.0242 -0.8867
 6522SOL     OW31024   2.722   0.962   5.976 -0.4118 -0.2872  0.0277
 6522SOL    HW131025   2.810   0.993   5.954 -0.8961  0.9339 -0.1883
 6522SOL    HW231026   2.667   1.038   5.958 -0.7160 -0.5349 -0.0763
 6523SOL     OW31027   4.072   0.572  13.679 -0.1966 -0.0094 -0.3192
 6523SOL    HW131028   4.161   0.539  13.667  0.4107  1.5498 -0.1397
 6523SOL    HW231029   4.083   0.661  13.712  0.3214  1.2427 -3.8121
 6524SOL     OW31030   2.784   4.323   3.077 -0.2073  0.3869 -0.3681
 6524SOL    HW131031   2.766   4.230   3.089 -0.0181  0.3948 -0.0248
 6524SOL    HW231032   2.788   4.331   2.982 -0.4710  1.2946 -0.3041
 6525SOL     OW31033   3.902   0.861   2.729  0.0014  0.0977  0.2005
 6525SOL    HW131034   3.954   0.863   2.649  0.6954  0.2347  0.6550
 6525SOL    HW231035   3.882   0.954   2.731  3.5102  0.9003 -2.9625
 6526SOL     OW31036   0.013   4.553   9.593  0.5500  0.1860  0.3912
 6526SOL    HW131037   4.712   4.632   9.545 -1.4545 -0.5455  0.1590
 6526SOL    HW231038   4.650   4.516   9.612 -0.1833  2.0582  0.7379
 6527SOL     OW31039   0.165   0.439   0.633 -0.0404 -0.2115 -0.2342
 6527SOL    HW131040   0.075   0.406   0.633 -0.0534 -0.2380  2.7463
 6527SOL    HW231041   0.177   0.462   0.541  0.1945 -2.4068 -0.7347
 6528SOL     OW31042   4.477   1.699   1.285 -0.5706  0.1046  0.0931
 6528SOL    HW131043   4.405   1.750   1.323 -1.3074 -0.4115 -0.6021
 6528SOL    HW231044   4.524   1.760   1.228  0.2544 -0.4544  0.1757
 6529SOL     OW31045   4.111   4.151   6.727  0.3863 -0.3485 -0.8143
 6529SOL    HW131046   4.172   4.108   6.666  0.3855 -2.5348  0.7442
 6529SOL    HW231047   4.053   4.080   6.755  1.0187 -0.0558  1.2052
 6530SOL     OW31048   0.382   4.198   0.971  0.1893 -0.1328 -0.4518
 6530SOL    HW131049   0.319   4.268   0.982  2.7994  2.2421 -0.6243
 6530SOL    HW231050   0.395   4.203   0.876  3.4071  1.3036  0.0691
 6531SOL     OW31051   1.595   3.230   4.551 -0.3156  0.1450  0.3344
 6531SOL    HW131052   1.583   3.166   4.481 -1.4445 -0.4048  1.0364
 6531SOL    HW231053   1.595   3.181   4.633 -0.5324 -0.4562 -0.0263
 6532SOL     OW31054   2.432   0.261   8.255 -0.2517 -0.0044 -0.8937
 6532SOL    HW131055   2.448   0.183   8.201  0.3672 -0.8771  0.5653
 6532SOL    HW231056   2.517   0.301   8.238 -0.2037  1.1784  2.1741
 6533SOL     OW31057   3.467   1.546   9.185 -0.1097 -0.4534 -0.5527
 6533SOL    HW131058   3.469   1.506   9.098  1.2462  1.1688 -1.2780
 6533SOL    HW231059   3.562   1.561   9.191  0.2618 -2.1294 -2.1267
 6534SOL     OW31060   1.204   2.176   6.567  0.0497 -0.0322 -0.1748
 6534SOL    HW131061   1.243   2.242   6.509 -1.1131  1.8855  1.2049
 6534SOL    HW231062   1.125   2.214   6.606  0.8398 -0.7163  2.1204
 6535SOL     OW31063   4.395   0.530   4.558  0.2266  0.0772  0.5556
 6535SOL    HW131064   4.361   0.615   4.587 -1.7443 -0.1501 -1.1239
 6535SOL    HW231065   4.319   0.473   4.567  1.4525 -1.8149 -1.1146
 6536SOL     OW31066   3.924   3.945   5.582  0.6059 -0.2475 -0.1318
 6536SOL    HW131067   3.961   4.026   5.548  1.7101 -1.0190 -0.7875
 6536SOL    HW231068   3.834   3.971   5.602  0.4458 -0.3264 -0.7605
 6537SOL     OW31069   0.519   1.947   1.806  0.3719  0.0206  0.0210
 6537SOL    HW131070   0.530   2.041   1.819 -1.4007  0.3392 -0.9292
 6537SOL    HW231071   0.428   1.935   1.831  0.8853 -0.8088  1.5546
 6538SOL     OW31072   1.024   2.826   2.447 -0.4179 -0.1409 -0.0549
 6538SOL    HW131073   1.104   2.829   2.393 -0.8920  1.4702 -0.6782
 6538SOL    HW231074   1.033   2.737   2.481  0.7392  0.1822  0.5178
 6539SOL     OW31075   1.967   2.265   3.611  0.6220 -0.2013  0.3730
 6539SOL    HW131076   1.906   2.217   3.666 -2.2319 -0.8953 -3.4074
 6539SOL    HW231077   2.041   2.207   3.630  0.8226  0.5310  1.8154
 6540SOL     OW31078   2.174   1.374  13.745 -0.4020  0.1289 -0.2387
 6540SOL    HW131079   2.093   1.330  13.770 -0.2457 -1.4283 -2.4267
 6540SOL    HW231080   2.237   1.339  13.807 -1.0333  0.4983  0.6082
 6541SOL     OW31081   1.121   1.592   5.649  0.0022 -0.5125 -0.0460
 6541SOL    HW131082   1.115   1.496   5.658 -0.6356 -0.3144  1.6233
 6541SOL    HW231083   1.201   1.593   5.596  0.1492  1.8795  0.2354
 6542SOL     OW31084   2.852   1.859   1.367 -0.0577 -0.2159 -0.0342
 6542SOL    HW131085   2.781   1.808   1.405 -0.7454  0.3269 -0.5923
 6542SOL    HW231086   2.882   1.906   1.445 -0.7004 -2.2385  1.4336
 6543SOL     OW31087   3.857   0.833  11.343  0.4591 -0.1671 -0.1814
 6543SOL    HW131088   3.836   0.819  11.435 -2.2008  0.9183 -0.6209
 6543SOL    HW231089   3.952   0.828  11.354  0.6482 -1.2696 -2.2940
 6544SOL     OW31090   1.412   2.181   6.063 -0.0345  0.1413  0.1720
 6544SOL    HW131091   1.320   2.196   6.086  0.6688  1.4244  2.0516
 6544SOL    HW231092   1.451   2.165   6.149  1.5999 -0.6095 -0.7116
 6545SOL     OW31093   0.358   2.024  13.242 -0.1711 -0.4601 -0.2891
 6545SOL    HW131094   0.350   1.983  13.328 -1.8335  0.4877  0.0110
 6545SOL    HW231095   0.384   2.110  13.274 -0.5401 -0.9190  1.2437
 6546SOL     OW31096   2.509   3.243  10.165 -0.4702 -0.2809  0.1235
 6546SOL    HW131097   2.590   3.265  10.212  0.0173  0.0966 -0.8925
 6546SOL    HW231098   2.449   3.249  10.240 -1.0486 -1.2443 -0.2593
 6547SOL     OW31099   2.367   1.841   3.137  0.6383  0.0765  0.3862
 6547SOL    HW131100   2.423   1.887   3.075 -0.5538  0.1421 -0.6349
 6547SOL    HW231101   2.290   1.821   3.084  1.6821 -0.6118 -0.8827
 6548SOL     OW31102   3.210   3.801   6.552  0.6703  0.0453 -0.4356
 6548SOL    HW131103   3.257   3.784   6.633 -0.3287  2.1820  0.5874
 6548SOL    HW231104   3.259   3.745   6.491  2.9815  1.3741  0.2012
 6549SOL     OW31105   1.387   2.675  10.906 -0.0388 -0.3902  0.2595
 6549SOL    HW131106   1.308   2.623  10.924 -0.6482  0.5022  0.1820
 6549SOL    HW231107   1.453   2.640  10.965  1.8705  0.9561 -1.0803
 6550SOL     OW31108   1.351   2.776   1.180  0.3066  0.0056 -0.1540
 6550SOL    HW131109   1.366   2.697   1.128 -1.8678  0.2896 -1.2505
 6550SOL    HW231110   1.331   2.828   1.102 -1.2919 -0.5575 -0.1332
 6551SOL     OW31111   1.962   3.010  11.389  0.0750 -0.7981 -0.6062
 6551SOL    HW131112   1.912   3.065  11.329  2.9484 -1.0074 -3.2176
 6551SOL    HW231113   2.053   3.020  11.360  1.2808 -2.5549  2.5165
 6552SOL     OW31114   0.499   3.948   3.827  0.1514 -0.4709 -0.1852
 6552SOL    HW131115   0.516   3.858   3.797  0.0991 -0.4391 -0.3084
 6552SOL    HW231116   0.404   3.953   3.829 -0.0118 -3.2243 -0.0975
 6553SOL     OW31117   4.381   1.586   7.288 -0.0034 -0.1472 -0.1887
 6553SOL    HW131118   4.296   1.583   7.330  0.1683 -0.6047  0.1302
 6553SOL    HW231119   4.362   1.512   7.230  0.9574  0.0338 -0.7353
 6554SOL     OW31120   4.700   3.763   4.619 -0.1958 -0.1124  0.3141
 6554SOL    HW131121   4.620   3.740   4.572  0.9147  1.0037 -2.1561
 6554SOL    HW231122   0.021   3.802   4.543 -0.0171 -0.0982  0.4241
 6555SOL     OW31123   4.328   0.265   0.684 -0.3922 -0.1816  0.2275
 6555SOL    HW131124   4.362   0.176   0.678 -1.3193 -0.5517  0.3998
 6555SOL    HW231125   4.248   0.243   0.732  1.1787 -1.5463  2.2103
 6556SOL     OW31126   1.480   3.417   8.860  0.3194 -0.1747  0.5468
 6556SOL    HW131127   1.421   3.381   8.793  0.6938  1.0604 -0.4439
 6556SOL    HW231128   1.416   3.454   8.920  2.0994  1.2506  1.5516
 6557SOL     OW31129   2.543   1.974   6.079 -0.4680  0.0128 -0.7716
 6557SOL    HW131130   2.490   1.919   6.138  0.5849 -1.0073 -0.7722
 6557SOL    HW231131   2.496   2.055   6.095 -0.8198 -0.6531  1.7208
 6558SOL     OW31132   0.497   4.573   7.340 -0.1773  0.3300  1.1130
 6558SOL    HW131133   0.496   4.479   7.325 -0.4147  0.6338 -0.7735
 6558SOL    HW231134   0.552   4.600   7.266 -1.3735 -0.3518 -0.0220
 6559SOL     OW31135   1.792   4.693   6.507 -0.2053 -0.2201 -0.1961
 6559SOL    HW131136   1.709   0.017   6.521 -0.2995 -0.0709 -1.1882
 6559SOL    HW231137   1.790   4.628   6.577 -1.6510  2.0494  1.8779
 6560SOL     OW31138   1.705   2.680   0.508 -0.4096  0.3725 -0.3737
 6560SOL    HW131139   1.757   2.631   0.572 -2.4048 -1.0955  0.0908
 6560SOL    HW231140   1.650   2.605   0.488  1.1599 -0.3330 -2.0722
 6561SOL     OW31141   3.450   0.189   1.932  0.6376  0.3752  0.3169
 6561SOL    HW131142   3.462   0.118   1.995  2.4666  0.7574  0.4060
 6561SOL    HW231143   3.539   0.226   1.928  0.5512  0.4660 -0.7147
 6562SOL     OW31144   2.650   3.023  10.048  0.8254  0.6684 -0.1833
 6562SOL    HW131145   2.607   2.983   9.973  0.3331  1.4759 -0.3327
 6562SOL    HW231146   2.580   3.078  10.082 -1.2050 -1.2532 -1.2466
 6563SOL     OW31147   3.571   2.310   3.632 -0.2623 -0.0971  0.5523
 6563SOL    HW131148   3.629   2.238   3.657 -2.7324 -3.1974 -2.5845
 6563SOL    HW231149   3.495   2.295   3.687  0.7826 -2.6107  1.3131
 6564SOL     OW31150   4.089   1.729   3.872 -0.7932 -0.2020 -0.3629
 6564SOL    HW131151   4.153   1.708   3.803 -1.8244 -0.4061 -1.2587
 6564SOL    HW231152   4.038   1.649   3.861 -1.1998  0.0236 -0.1000
 6565SOL     OW31153   4.554   1.520   7.842 -0.2526 -0.2371 -0.0423
 6565SOL    HW131154   4.549   1.612   7.816 -0.5660  0.0653  1.0649
 6565SOL    HW231155   4.634   1.504   7.892  0.6347  2.7993 -0.4532
 6566SOL     OW31156   1.896   1.686  14.450  1.1801  0.1234 -0.5274
 6566SOL    HW131157   1.865   1.698  14.539 -0.3906 -0.1995 -1.0375
 6566SOL    HW231158   1.979   1.732  14.461  0.4645  0.5219  3.0303
 6567SOL     OW31159   2.349   1.426   5.140  0.2877 -0.0394 -0.3528
 6567SOL    HW131160   2.414   1.461   5.079 -0.9639  0.8597 -1.1619
 6567SOL    HW231161   2.268   1.468   5.112  1.2383  0.8528 -1.7725
 6568SOL     OW31162   4.028   1.844  10.767 -0.1120 -0.0782 -0.5315
 6568SOL    HW131163   3.981   1.919  10.731 -0.6838 -1.2118 -2.1825
 6568SOL    HW231164   4.000   1.851  10.858 -0.6273  2.7382 -0.9208
 6569SOL     OW31165   1.508   0.052  16.020 -0.0683 -0.3235  0.2617
 6569SOL    HW131166   1.496   0.007  16.104  0.0591 -3.0756 -1.2031
 6569SOL    HW231167   1.474   0.140  16.038 -1.2552 -0.3216 -2.0624
 6570SOL     OW31168   1.707   0.054   5.357  0.2414 -0.0993  0.2478
 6570SOL    HW131169   1.782   0.109   5.334  1.0790 -1.0688  0.6271
 6570SOL    HW231170   1.697   0.061   5.452 -0.8059  1.3229  0.0337
 6571SOL     OW31171   3.172   0.495  10.210  0.1387 -0.0277  0.9052
 6571SOL    HW131172   3.080   0.488  10.238 -0.8046  0.9521 -1.9209
 6571SOL    HW231173   3.181   0.589  10.219 -1.6577  0.3354 -1.0905
 6572SOL     OW31174   3.157   4.109   8.266  0.8361  0.7180 -0.1156
 6572SOL    HW131175   3.141   4.027   8.219 -1.4124  0.2749  1.4119
 6572SOL    HW231176   3.218   4.150   8.205  1.8719 -0.6167  0.0262
 6573SOL     OW31177   1.334   0.268   6.985 -0.0312  0.2205 -0.3611
 6573SOL    HW131178   1.404   0.277   6.920 -0.6886  2.5104 -0.7472
 6573SOL    HW231179   1.293   0.355   6.976 -0.3692  0.1546  0.5817
 6574SOL     OW31180   0.802   0.491   5.659  0.5233 -0.2868  0.4252
 6574SOL    HW131181   0.850   0.573   5.651  0.5185 -0.0963  2.5114
 6574SOL    HW231182   0.724   0.514   5.710 -0.4658  0.9056 -1.6179
 6575SOL     OW31183   0.659   0.443  11.816 -0.0491  0.5453  0.3186
 6575SOL    HW131184   0.690   0.402  11.896 -0.2478 -3.2240 -1.5515
 6575SOL    HW231185   0.735   0.438  11.757  0.1684 -0.7692  0.7171
 6576SOL     OW31186   0.566   1.359  12.048  0.2039 -0.4796 -0.7500
 6576SOL    HW131187   0.635   1.423  12.033 -3.3215  3.1557 -1.4407
 6576SOL    HW231188   0.606   1.312  12.122  0.2320  2.3982  1.0593
 6577SOL     OW31189   3.168   0.532   7.515 -0.8921  0.0128 -0.0173
 6577SOL    HW131190   3.259   0.511   7.539 -0.7000  2.1837  1.1809
 6577SOL    HW231191   3.151   0.452   7.465 -1.9853  1.2940 -1.6853
 6578SOL     OW31192   0.417   4.208   5.288  0.1288  0.1676  0.1713
 6578SOL    HW131193   0.459   4.286   5.324  2.4558 -1.1753  0.4065
 6578SOL    HW231194   0.495   4.156   5.270 -0.7349 -1.1553  0.2594
 6579SOL     OW31195   2.671   2.030   6.418 -0.7641  0.3648 -0.1573
 6579SOL    HW131196   2.576   2.040   6.417 -0.7909 -0.1217 -2.5345
 6579SOL    HW231197   2.695   1.959   6.478 -1.5728 -0.5904 -0.9652
 6580SOL     OW31198   3.283   0.020  10.095 -0.0834 -0.0199  0.1633
 6580SOL    HW131199   3.261   0.089  10.156  0.1409  0.5665 -0.4154
 6580SOL    HW231200   3.379   0.022  10.097 -0.2346  4.0415  2.3474
 6581SOL     OW31201   4.371   2.201   9.525  0.1289 -0.7001 -0.1269
 6581SOL    HW131202   4.355   2.151   9.445 -0.2234 -0.0705 -0.4385
 6581SOL    HW231203   4.437   2.143   9.564  0.1413  0.0799  1.0164
 6582SOL     OW31204   4.644   1.908   1.772 -0.1369 -0.1675  0.4974
 6582SOL    HW131205   4.653   1.816   1.748 -1.7331 -0.2547  0.2590
 6582SOL    HW231206   4.571   1.936   1.717 -0.3213 -0.3643  0.6437
 6583SOL     OW31207   0.074   2.662   4.067 -0.1795  0.4077  0.0391
 6583SOL    HW131208   0.061   2.754   4.087  0.2460 -0.0126  2.2031
 6583SOL    HW231209   0.139   2.642   4.134 -0.4685 -1.4988 -0.2481
 6584SOL     OW31210   2.001   2.987   6.086  0.1127 -0.1257 -0.1908
 6584SOL    HW131211   2.058   3.064   6.094  1.5048 -0.9679 -1.8023
 6584SOL    HW231212   2.018   2.951   5.999  1.0947  0.8627 -0.4101
 6585SOL     OW31213   3.120   1.685  12.003 -0.2952  0.0346  0.2076
 6585SOL    HW131214   3.047   1.740  12.032  0.3757  1.3119 -0.5715
 6585SOL    HW231215   3.194   1.730  12.043 -1.3592  0.5017  1.6526
 6586SOL     OW31216   4.604   0.591  10.781  0.1300  0.3046  0.8944
 6586SOL    HW131217   4.692   0.555  10.766  0.0301  0.8546 -0.9803
 6586SOL    HW231218   4.556   0.513  10.807  1.5401 -0.7001  0.4915
 6587SOL     OW31219   0.686   4.529   0.515 -0.5975  0.1671 -0.0435
 6587SOL    HW131220   0.696   4.538   0.420 -1.3228  0.7328 -0.0649
 6587SOL    HW231221   0.763   4.475   0.532 -1.5808 -1.0640  0.5253
 6588SOL     OW31222   0.890   3.713  15.900  0.5498 -0.2678 -0.0996
 6588SOL    HW131223   0.850   3.767  15.832 -3.7937 -0.5500  2.2097
 6588SOL    HW231224   0.948   3.664  15.841 -1.9355 -1.9163 -1.1691
 6589SOL     OW31225   0.579   1.518  10.007  0.1152 -0.2302  1.2240
 6589SOL    HW131226   0.603   1.581   9.939  0.7081 -3.2844 -1.3698
 6589SOL    HW231227   0.508   1.574  10.039 -0.0916  1.4219 -2.1925
 6590SOL     OW31228   0.005   2.608   6.277  0.1512 -0.1465 -0.0817
 6590SOL    HW131229   4.715   2.612   6.183  0.7453  0.8362 -0.1135
 6590SOL    HW231230   0.027   2.514   6.280 -1.5056 -0.4595  2.9831
 6591SOL     OW31231   0.389   2.348   1.221 -0.2549 -0.6098 -0.3189
 6591SOL    HW131232   0.480   2.348   1.189 -0.8793  2.6188 -2.0422
 6591SOL    HW231233   0.413   2.325   1.311 -1.0003  1.0418  0.2871
 6592SOL     OW31234   2.471   4.659   4.133  0.5421 -0.4084 -0.0596
 6592SOL    HW131235   2.543   4.717   4.158  1.2073 -0.5105 -1.7581
 6592SOL    HW231236   2.523   4.585   4.104  1.8748  0.4049  0.2671
 6593SOL     OW31237   0.882   1.125   5.390 -0.3593 -0.6659 -0.2478
 6593SOL    HW131238   0.956   1.179   5.364  1.3188 -2.2984  1.0346
 6593SOL    HW231239   0.903   1.048   5.337  0.2424 -1.5775  1.2864
 6594SOL     OW31240   1.572   0.686  15.520  0.4137 -0.0220 -0.3307
 6594SOL    HW131241   1.497   0.729  15.479  0.1368  1.4804  1.7946
 6594SOL    HW231242   1.642   0.747  15.496 -1.0943  1.4276 -1.0384
 6595SOL     OW31243   1.917   3.093   4.793  0.0864 -0.1289 -0.2853
 6595SOL    HW131244   1.974   3.028   4.752  2.6905  2.8137 -1.3740
 6595SOL    HW231245   1.913   3.166   4.730 -2.3872  1.5372  1.8045
 6596SOL     OW31246   3.636   2.761   1.959  0.2954  0.9771  0.3399
 6596SOL    HW131247   3.615   2.841   1.911  0.1629  0.8220  0.1394
 6596SOL    HW231248   3.560   2.747   2.016  0.1849 -0.0280 -0.0504
 6597SOL     OW31249   0.741   4.238  15.830  0.6298  0.0001  0.3789
 6597SOL    HW131250   0.801   4.207  15.898 -1.1433 -0.7343  1.5916
 6597SOL    HW231251   0.742   4.161  15.773  0.0113  0.1477  0.1732
 6598SOL     OW31252   3.944   1.453  10.640 -0.0508 -0.1641 -0.2909
 6598SOL    HW131253   3.877   1.386  10.625  1.5568 -2.0691  1.1376
 6598SOL    HW231254   4.010   1.413  10.696  0.4064  0.6766 -0.2361
 6599SOL     OW31255   0.290   0.207  14.699 -0.1637 -0.6378  0.8842
 6599SOL    HW131256   0.319   0.219  14.608  0.8361 -0.8406  1.1778
 6599SOL    HW231257   0.361   0.250  14.748 -1.3343  0.4406  1.6309
 6600SOL     OW31258   0.097   3.667   3.920 -0.2858 -0.5711 -0.0728
 6600SOL    HW131259   0.172   3.688   3.864 -1.5267 -0.2293 -1.5885
 6600SOL    HW231260   0.038   3.650   3.848 -1.9773  0.6622  1.0168
 6601SOL     OW31261   3.267   3.950  15.023  0.1788 -0.1644 -0.4915
 6601SOL    HW131262   3.349   3.947  14.973  1.0291  0.8144  0.8365
 6601SOL    HW231263   3.213   4.018  14.983  1.5185  1.5415  0.5809
 6602SOL     OW31264   0.022   1.124   2.061  0.6488  0.6112  0.2187
 6602SOL    HW131265   4.707   1.125   1.973 -2.8183  1.9136  1.6806
 6602SOL    HW231266   0.065   1.039   2.070  1.8285  1.0635 -1.2334
 6603SOL     OW31267   1.341   4.071   4.085 -0.1213 -0.5242 -0.3581
 6603SOL    HW131268   1.434   4.059   4.106  0.0384  0.0958 -0.7053
 6603SOL    HW231269   1.327   4.166   4.080  0.6426 -0.4958 -1.9148
 6604SOL     OW31270   3.817   1.599   5.070  0.5990 -0.4896  0.3131
 6604SOL    HW131271   3.794   1.610   4.977 -1.4935 -2.0184  0.6328
 6604SOL    HW231272   3.802   1.504   5.075 -1.7055 -0.0701  1.5044
 6605SOL     OW31273   2.475   0.178  12.306  0.1602  0.7473 -0.1083
 6605SOL    HW131274   2.522   0.232  12.242  1.0353  1.6204  1.2825
 6605SOL    HW231275   2.395   0.223  12.333 -0.2233  0.9752 -1.6150
 6606SOL     OW31276   2.400   0.379   7.844 -0.2204  0.0699  0.2271
 6606SOL    HW131277   2.341   0.433   7.897 -1.2824  0.4506 -1.3473
 6606SOL    HW231278   2.341   0.354   7.772  0.2105 -1.4585  0.3986
 6607SOL     OW31279   1.468   1.470   6.553  0.2658 -0.2242 -0.6557
 6607SOL    HW131280   1.449   1.558   6.588  1.0912 -0.4269  0.3062
 6607SOL    HW231281   1.389   1.426   6.585  0.2605 -1.4559 -2.3844
 6608SOL     OW31282   2.776   2.637  15.911 -0.2139 -0.5853 -0.2413
 6608SOL    HW131283   2.801   2.550  15.880  2.4548  0.2408 -0.3614
 6608SOL    HW231284   2.851   2.660  15.965 -1.7753 -1.0071  2.1243
 6609SOL     OW31285   1.022   0.385   9.389 -0.0186  0.1753 -0.2056
 6609SOL    HW131286   0.935   0.354   9.364  2.0118 -1.6151 -5.0098
 6609SOL    HW231287   1.071   0.398   9.308 -0.3851 -1.8349 -0.7469
 6610SOL     OW31288   1.745   1.937   4.005  0.3109  0.6394  0.0696
 6610SOL    HW131289   1.811   1.867   4.003 -0.4726 -0.1166  1.0794
 6610SOL    HW231290   1.748   1.966   4.096 -0.8205 -1.7388  0.8655
 6611SOL     OW31291   0.433   0.230  12.936  0.0361 -0.2954 -1.2682
 6611SOL    HW131292   0.357   0.248  12.991  1.7771  0.4995  0.8747
 6611SOL    HW231293   0.483   0.169  12.990 -1.4301 -1.0046 -0.7171
 6612SOL     OW31294   3.567   1.160   0.664 -0.1044  0.6676 -0.1099
 6612SOL    HW131295   3.647   1.162   0.612 -1.0593 -1.6567 -1.6785
 6612SOL    HW231296   3.543   1.252   0.671 -0.0432  0.5514  1.7098
 6613SOL     OW31297   3.554   1.051   7.835 -0.0303 -0.1744 -0.5418
 6613SOL    HW131298   3.583   1.034   7.745  1.6536  1.0056 -0.2138
 6613SOL    HW231299   3.616   0.997   7.884  1.8421  0.0603 -2.6652
 6614SOL     OW31300   1.075   4.038   8.247  0.8852  0.0942 -0.3207
 6614SOL    HW131301   1.145   3.977   8.270 -0.2384 -0.7784  0.7969
 6614SOL    HW231302   1.090   4.106   8.312  1.5888 -1.8527  1.5835
 6615SOL     OW31303   0.472   4.583   0.803  0.0827 -0.2841  0.1442
 6615SOL    HW131304   0.427   4.639   0.866 -0.4705 -3.2194  2.3799
 6615SOL    HW231305   0.520   4.521   0.858 -0.4327 -1.4074 -0.6707
 6616SOL     OW31306   0.558   3.573   2.592 -0.2262  0.4766 -0.0251
 6616SOL    HW131307   0.489   3.637   2.609 -1.5945 -0.9026 -0.4136
 6616SOL    HW231308   0.509   3.497   2.560 -0.9486  0.3756  1.3358
 6617SOL     OW31309   2.380   1.605   6.128  0.2100  0.1643 -0.7468
 6617SOL    HW131310   2.303   1.579   6.076  0.2609 -2.1095  0.3084
 6617SOL    HW231311   2.444   1.624   6.060  0.4459  1.0794 -0.2694
 6618SOL     OW31312   2.853   3.295  13.301 -0.0342 -0.0827  0.1532
 6618SOL    HW131313   2.798   3.348  13.359 -1.1440 -1.3064  0.2243
 6618SOL    HW231314   2.824   3.319  13.213  0.6767 -2.0767 -0.6235
 6619SOL     OW31315   2.248   1.237  14.637  0.3722  0.1898  0.4461
 6619SOL    HW131316   2.301   1.190  14.701 -0.3097  1.0397  1.6498
 6619SOL    HW231317   2.246   1.171  14.568 -0.1057  0.9675 -0.2827
 6620SOL     OW31318   2.727   2.215   0.681 -0.3644  0.1594  0.3211
 6620SOL    HW131319   2.650   2.193   0.733  1.0801  1.8229  3.1998
 6620SOL    HW231320   2.800   2.180   0.732  0.8909  0.4302 -1.3175
 6621SOL     OW31321   0.651   1.009  13.051  0.5018 -0.1884 -0.4769
 6621SOL    HW131322   0.589   1.018  13.124  0.2095  0.9374 -0.8557
 6621SOL    HW231323   0.641   1.096  13.012 -1.0632  1.0266  2.6368
 6622SOL     OW31324   1.065   4.557   4.163  0.9738 -0.5141  0.1104
 6622SOL    HW131325   1.118   4.478   4.177 -0.3297 -1.5870 -0.9741
 6622SOL    HW231326   1.043   4.582   4.252 -0.7707 -0.9450 -0.2070
 6623SOL     OW31327   2.550   0.034   0.847 -0.1624  1.0078 -0.5622
 6623SOL    HW131328   2.645   0.023   0.854 -0.2229 -0.7676 -2.5023
 6623SOL    HW231329   2.515   4.668   0.846  1.9595  0.1484  0.4377
 6624SOL     OW31330   3.696   3.396  17.673 -0.1697  0.5174 -0.6051
 6624SOL    HW131331   3.697   3.349  17.589 -0.3265  3.8001 -2.4760
 6624SOL    HW231332   3.656   3.332   0.040  0.3073  0.8696  0.0862
 6625SOL     OW31333   4.074   1.677   5.620  0.4929 -0.4093  0.0173
 6625SOL    HW131334   4.000   1.620   5.598 -0.0614  0.6947 -0.9825
 6625SOL    HW231335   4.144   1.611   5.624  0.7609 -0.1360 -0.2137
 6626SOL     OW31336   1.949   3.822   7.598  0.5428 -0.4515  0.3310
 6626SOL    HW131337   1.867   3.840   7.552  1.1056  0.7779 -0.1971
 6626SOL    HW231338   1.926   3.737   7.635 -0.0633  0.6159  2.3874
 6627SOL     OW31339   3.459   1.882   0.393  0.6713  0.0302 -0.6282
 6627SOL    HW131340   3.505   1.957   0.430 -1.4674  1.2134 -0.3089
 6627SOL    HW231341   3.438   1.924   0.309  2.4101  0.7417 -0.7009
 6628SOL     OW31342   1.888   3.818   2.401  0.1709 -0.2325 -0.4472
 6628SOL    HW131343   1.835   3.872   2.342 -1.3963  1.3015  2.4051
 6628SOL    HW231344   1.926   3.888   2.452  0.5036 -0.4272 -0.4239
 6629SOL     OW31345   3.811   2.856   3.812  0.2604 -0.4596  0.1205
 6629SOL    HW131346   3.717   2.871   3.809  0.1464 -0.7176  2.2487
 6629SOL    HW231347   3.845   2.888   3.728 -0.3757 -1.9457 -0.7130
 6630SOL     OW31348   2.531   1.551  11.871  0.1756  0.2078  0.3606
 6630SOL    HW131349   2.626   1.551  11.885  0.3564 -0.0430 -0.8417
 6630SOL    HW231350   2.514   1.502  11.791  0.1118  1.3956 -0.3514
 6631SOL     OW31351   4.013   1.121   4.629 -0.3138 -0.2282  0.1393
 6631SOL    HW131352   4.068   1.071   4.568  1.5221  2.5161 -0.4686
 6631SOL    HW231353   4.009   1.055   4.698 -1.4121  0.8761  1.1350
 6632SOL     OW31354   1.895   1.129  12.467 -0.1625  0.0115  0.0304
 6632SOL    HW131355   1.867   1.092  12.383  1.9503  1.0844 -1.1301
 6632SOL    HW231356   1.866   1.219  12.457 -0.0367  0.1215  0.6444
 6633SOL     OW31357   2.052   3.528   5.180  0.0070  0.0434  0.3052
 6633SOL    HW131358   1.992   3.454   5.167 -1.8861  1.6636 -0.1247
 6633SOL    HW231359   2.005   3.581   5.244  0.4778  0.6244  0.1649
 6634SOL     OW31360   1.612   4.610  10.558  0.2792 -0.1499  0.0699
 6634SOL    HW131361   1.541   4.554  10.527  2.4754 -3.3055  0.7608
 6634SOL    HW231362   1.682   4.564  10.512 -1.8871 -1.6217 -1.7409
 6635SOL     OW31363   3.526   1.752   0.794  0.6367  0.1677 -0.6521
 6635SOL    HW131364   3.534   1.717   0.705  0.4612 -1.1601 -0.1346
 6635SOL    HW231365   3.616   1.736   0.822  0.5642 -1.7459 -1.5292
 6636SOL     OW31366   1.436   2.606  10.611 -0.0346 -0.2667 -1.0223
 6636SOL    HW131367   1.439   2.524  10.662 -1.0651  0.4833  0.2462
 6636SOL    HW231368   1.341   2.619  10.602  0.2330  2.1782 -0.2630
 6637SOL     OW31369   4.551   4.168   7.387  0.2450  0.1914 -0.1507
 6637SOL    HW131370   4.594   4.086   7.363 -2.3548 -1.7465  1.7855
 6637SOL    HW231371   4.570   4.158   7.480 -0.3866  0.5594  0.0173
 6638SOL     OW31372   3.917   4.310  15.263 -0.1750 -0.2333  0.0734
 6638SOL    HW131373   3.947   4.399  15.242 -0.5846 -0.0428  0.3041
 6638SOL    HW231374   3.987   4.252  15.234  0.2496  0.8233 -1.0295
 6639SOL     OW31375   4.301   1.015   6.432  0.0576  0.2255  0.1224
 6639SOL    HW131376   4.334   1.065   6.506  0.4407  1.7472 -1.0748
 6639SOL    HW231377   4.378   0.973   6.392  0.2272  1.8653 -1.2727
 6640SOL     OW31378   1.034   1.088   8.472 -0.7255  0.3559 -0.3678
 6640SOL    HW131379   1.017   1.137   8.552  3.8715  0.9001  0.3067
 6640SOL    HW231380   1.054   1.160   8.412  1.4915 -1.3872 -1.7278
 6641SOL     OW31381   1.968   1.072   5.570  0.5175  0.2183  0.5048
 6641SOL    HW131382   2.050   1.034   5.538  0.2822 -0.0114  0.1705
 6641SOL    HW231383   2.003   1.142   5.625 -2.3776  0.6054  1.8767
 6642SOL     OW31384   4.611   4.454   6.645 -0.1688  0.1922  0.1279
 6642SOL    HW131385   4.655   4.516   6.704 -0.5998  1.8890 -1.3204
 6642SOL    HW231386   4.678   4.451   6.577  1.8477  1.7988  2.0530
 6643SOL     OW31387   1.441   0.369   4.149  0.0751 -0.4390 -0.0674
 6643SOL    HW131388   1.523   0.363   4.198  0.6083  0.5824 -0.8174
 6643SOL    HW231389   1.449   0.456   4.109 -2.5857  0.1040  0.5792
 6644SOL     OW31390   1.959   0.225   7.700 -0.5010  0.3191 -0.5151
 6644SOL    HW131391   1.921   0.197   7.784  0.5099 -2.8396 -1.1018
 6644SOL    HW231392   1.892   0.200   7.636  0.7406  2.3351 -2.5879
 6645SOL     OW31393   3.226   4.451   9.742  0.4393  0.3238  0.1816
 6645SOL    HW131394   3.269   4.453   9.827  0.2638  1.0343  0.2547
 6645SOL    HW231395   3.268   4.526   9.698  0.2629  1.4734  1.9772
 6646SOL     OW31396   0.558   3.629   7.580  0.1365  0.3279  0.1429
 6646SOL    HW131397   0.637   3.640   7.633  0.1865  0.8384 -0.0440
 6646SOL    HW231398   0.542   3.534   7.579  1.0906  0.1875 -1.7255
 6647SOL     OW31399   4.627   4.578   8.164 -0.3679  0.2927  0.0746
 6647SOL    HW131400   4.579   4.646   8.116 -1.2626 -1.2482 -1.1902
 6647SOL    HW231401   4.548   4.530   8.191  0.0756 -0.8556 -0.6816
 6648SOL     OW31402   2.528   2.622   3.691  0.1484 -0.0046  0.0588
 6648SOL    HW131403   2.520   2.560   3.619  1.2119  0.1194 -0.1602
 6648SOL    HW231404   2.534   2.707   3.647 -0.6287  0.3451  0.6177
 6649SOL     OW31405   0.090   1.523   4.245  0.2163  0.0103  0.2412
 6649SOL    HW131406   0.072   1.599   4.301 -0.9781 -1.2088  1.5192
 6649SOL    HW231407   0.050   1.458   4.302 -1.7459 -0.5407 -1.7682
 6650SOL     OW31408   3.213   0.693  10.465  0.0364  0.0430  0.4536
 6650SOL    HW131409   3.271   0.617  10.474 -2.2064 -1.7049 -0.0225
 6650SOL    HW231410   3.228   0.737  10.381 -1.1175 -1.3536 -0.4786
 6651SOL     OW31411   2.881   1.318  13.941 -0.3833  0.1081  0.0954
 6651SOL    HW131412   2.929   1.363  14.010 -0.3696  1.4903 -0.8359
 6651SOL    HW231413   2.953   1.269  13.901 -1.1374 -1.4166  0.6038
 6652SOL     OW31414   0.907   3.963  16.091 -0.2706 -0.7767 -0.0133
 6652SOL    HW131415   0.893   3.879  16.134 -1.2884 -0.5722  0.0594
 6652SOL    HW231416   0.991   3.948  16.048  0.2436  0.9086  0.4126
 6653SOL     OW31417   2.450   4.450   2.755 -0.1511 -0.6918 -0.0261
 6653SOL    HW131418   2.508   4.526   2.749  0.3583 -1.2050 -1.3571
 6653SOL    HW231419   2.471   4.437   2.848 -2.5633  0.5404  0.7149
 6654SOL     OW31420   2.488   1.240  11.198  1.0104 -0.4907  0.0028
 6654SOL    HW131421   2.582   1.249  11.187  0.9961 -0.7127 -0.3011
 6654SOL    HW231422   2.481   1.229  11.293 -0.8037  0.2141 -0.0544
 6655SOL     OW31423   1.646   2.319   3.603 -0.3672 -1.1225  0.3738
 6655SOL    HW131424   1.627   2.239   3.556  0.2557 -0.7967 -0.4231
 6655SOL    HW231425   1.713   2.281   3.660 -1.0060 -1.6599  0.7695
 6656SOL     OW31426   1.256   1.920   9.187 -0.8237 -0.3030 -0.3658
 6656SOL    HW131427   1.191   1.985   9.161 -0.1185 -0.1070 -1.6660
 6656SOL    HW231428   1.305   1.968   9.254 -2.1088  0.4619  0.0257
 6657SOL     OW31429   3.876   0.981   3.889 -0.4618  0.6415  0.5207
 6657SOL    HW131430   3.806   1.006   3.949 -0.6201  1.2555  0.0749
 6657SOL    HW231431   3.948   0.964   3.950  0.5769 -0.3159 -0.9374
 6658SOL     OW31432   0.308   1.551  11.044  0.5377  0.1637  0.5761
 6658SOL    HW131433   0.243   1.501  10.994  1.2615 -0.9676  0.7500
 6658SOL    HW231434   0.284   1.638  11.012  1.7889  0.5015  0.5855
 6659SOL     OW31435   4.401   2.776   3.709 -0.1026  0.6800  0.0089
 6659SOL    HW131436   4.332   2.769   3.643  0.9464  0.9076 -1.1147
 6659SOL    HW231437   4.364   2.724   3.781  0.1305  0.1753 -0.2336
 6660SOL     OW31438   2.088   3.091   5.025  0.6323 -0.4366  0.8259
 6660SOL    HW131439   2.064   3.127   5.110 -0.4908 -2.6369  1.4323
 6660SOL    HW231440   2.047   3.151   4.962  0.8348 -0.4720  0.6595
 6661SOL     OW31441   1.301   1.705   8.175  0.1607  0.5996 -0.3509
 6661SOL    HW131442   1.220   1.754   8.187 -0.3791 -0.4155  0.1178
 6661SOL    HW231443   1.270   1.666   8.093  1.4374  1.1712 -1.1176
 6662SOL     OW31444   4.280   4.332  13.949 -0.3719  0.1730 -0.5459
 6662SOL    HW131445   4.361   4.296  13.983 -1.5041 -1.0102  0.9227
 6662SOL    HW231446   4.301   4.423  13.930  1.4528 -0.1419  0.0266
 6663SOL     OW31447   2.798   4.349   9.112  0.0071  0.3437 -0.1701
 6663SOL    HW131448   2.887   4.383   9.124 -0.1762  1.8920 -3.0307
 6663SOL    HW231449   2.768   4.421   9.057  0.2379  0.1810 -0.5138
 6664SOL     OW31450   1.268   1.354  10.917  0.0097 -0.2613  0.8394
 6664SOL    HW131451   1.338   1.339  10.981  0.6953  1.0872  0.3936
 6664SOL    HW231452   1.223   1.273  10.893  2.8329 -1.1338 -1.5587
 6665SOL     OW31453   0.749   4.469   9.004 -0.1246  0.4720  0.1964
 6665SOL    HW131454   0.676   4.528   8.984  1.0668  1.2915 -1.7652
 6665SOL    HW231455   0.767   4.429   8.919  0.2028  1.4967 -0.2248
 6666SOL     OW31456   2.683   4.443   3.310 -0.0520 -0.4608 -0.3091
 6666SOL    HW131457   2.751   4.501   3.277 -0.7304  0.5027 -0.0254
 6666SOL    HW231458   2.693   4.367   3.253 -2.4767  1.1070 -2.8321
 6667SOL     OW31459   2.108   0.434   6.561  0.3499 -0.2689  0.0763
 6667SOL    HW131460   2.132   0.448   6.653  0.7212  1.1779 -0.2399
 6667SOL    HW231461   2.184   0.383   6.533  2.1864  1.4096  1.9731
 6668SOL     OW31462   0.198   3.640   5.081  0.4281  0.3003  0.3756
 6668SOL    HW131463   0.229   3.662   4.994  0.6807 -3.4192 -0.4743
 6668SOL    HW231464   0.154   3.558   5.059  1.2359 -0.1133  0.2950
 6669SOL     OW31465   1.819   3.854   2.717 -0.0535  0.0382 -0.5927
 6669SOL    HW131466   1.819   3.806   2.634  1.6682 -1.2893  0.1604
 6669SOL    HW231467   1.893   3.910   2.693 -0.2108  1.2593  1.8524
 6670SOL     OW31468   3.194   0.770   7.771  0.0750  0.5730 -0.0042
 6670SOL    HW131469   3.177   0.800   7.682  1.8194  0.0008 -0.5370
 6670SOL    HW231470   3.200   0.851   7.821 -1.6962  0.1900  0.8163
 6671SOL     OW31471   3.714   3.182   3.236  0.2432 -0.2319 -0.1756
 6671SOL    HW131472   3.682   3.101   3.275  1.1922  0.0448  1.2074
 6671SOL    HW231473   3.808   3.165   3.235  0.4601  0.8191  1.2644
 6672SOL     OW31474   0.780   4.416   4.978  0.7971  0.0607 -0.4934
 6672SOL    HW131475   0.802   4.348   4.914  1.4907  0.8827 -1.1161
 6672SOL    HW231476   0.796   4.502   4.941  0.3207 -0.2938 -1.5357
 6673SOL     OW31477   2.017   2.823   3.520  0.8361  0.0488 -0.6943
 6673SOL    HW131478   2.044   2.763   3.450 -2.1096 -0.4643 -1.4089
 6673SOL    HW231479   2.063   2.901   3.487  0.2227  1.0701  0.8678
 6674SOL     OW31480   2.363   3.299  13.644  0.4363  0.2523 -0.0276
 6674SOL    HW131481   2.308   3.372  13.673 -1.3350 -1.1287  0.1388
 6674SOL    HW231482   2.308   3.240  13.696 -1.0978  1.9954  0.3519
 6675SOL     OW31483   2.230   1.863  10.643  0.3139  0.7932 -0.0273
 6675SOL    HW131484   2.170   1.823  10.706 -0.2973 -0.0229 -1.1375
 6675SOL    HW231485   2.220   1.792  10.580  0.0832 -1.2892  2.3728
 6676SOL     OW31486   1.617   4.623   9.377  0.4233  0.3905 -0.3248
 6676SOL    HW131487   1.540   4.673   9.351  1.0739  0.5655 -1.9323
 6676SOL    HW231488   1.599   4.618   9.471  1.1454 -1.3746 -0.2844
 6677SOL     OW31489   1.822   3.013   5.559 -0.3633  0.5652  0.2972
 6677SOL    HW131490   1.800   3.025   5.467  0.9755  1.3336  0.0809
 6677SOL    HW231491   1.856   2.923   5.561 -0.5706  0.4807 -0.0471
 6678SOL     OW31492   4.525   2.926   4.603 -0.0326 -0.2046 -0.1147
 6678SOL    HW131493   4.513   3.005   4.550  0.0219  1.4393  2.3735
 6678SOL    HW231494   4.468   2.866   4.555  2.2777 -2.5694  0.1093
 6679SOL     OW31495   2.864   1.249   1.988  0.3967 -0.0376 -0.2159
 6679SOL    HW131496   2.802   1.321   2.003  0.1449 -0.2223 -0.3701
 6679SOL    HW231497   2.888   1.269   1.898 -1.9597 -0.8566 -1.0183
 6680SOL     OW31498   4.674   0.071   3.682  0.2559  0.4675 -0.4555
 6680SOL    HW131499   0.039   0.089   3.650  0.7769  1.1530  1.3660
 6680SOL    HW231500   4.677   4.701   3.658 -0.5908  0.0237  1.0993
 6681SOL     OW31501   2.055   0.157   8.835 -0.3137  0.0109  0.4092
 6681SOL    HW131502   2.123   0.100   8.872  0.9655  1.5447  0.4080
 6681SOL    HW231503   2.073   0.173   8.742 -0.3697 -0.1502  0.3709
 6682SOL     OW31504   3.172   4.404   7.839  0.2491 -0.4311 -0.2317
 6682SOL    HW131505   3.155   4.372   7.750  0.6728  0.9780 -0.8284
 6682SOL    HW231506   3.123   4.337   7.887 -0.4938 -0.1304 -0.5577
 6683SOL     OW31507   0.099   2.148   5.393  0.3042  0.4247  0.0795
 6683SOL    HW131508   0.043   2.187   5.326  1.8123 -0.0184 -1.4202
 6683SOL    HW231509   0.178   2.126   5.345 -0.0159 -0.4057 -0.0590
 6684SOL     OW31510   4.703   2.527  17.330 -0.5584 -0.0361  0.1388
 6684SOL    HW131511   0.013   2.612  17.300 -1.5107  0.6728  1.0589
 6684SOL    HW231512   4.627   2.533  17.272 -0.0313 -0.9141 -0.6325
 6685SOL     OW31513   4.567   3.807   8.818 -0.0227 -0.0898  0.1278
 6685SOL    HW131514   4.473   3.823   8.817  0.4877  2.7111 -3.2089
 6685SOL    HW231515   4.584   3.785   8.726  1.1011 -0.3768  0.3986
 6686SOL     OW31516   2.620   1.408   4.541  0.0217 -0.4361 -0.0000
 6686SOL    HW131517   2.600   1.431   4.451  1.5092 -1.8513 -0.7066
 6686SOL    HW231518   2.570   1.327   4.546 -1.8903  0.6437 -1.9718
 6687SOL     OW31519   1.649   2.784   6.684 -0.0883 -0.3162 -0.3959
 6687SOL    HW131520   1.644   2.837   6.764 -0.8285 -0.7193 -0.1743
 6687SOL    HW231521   1.732   2.816   6.649 -0.5304  1.0754 -0.1922
 6688SOL     OW31522   1.175   1.099  10.958  0.3382  0.2617 -0.1714
 6688SOL    HW131523   1.097   1.044  10.965  0.0518  0.6834 -0.0732
 6688SOL    HW231524   1.208   1.103  11.048  2.7150 -1.7073 -0.9332
 6689SOL     OW31525   0.689   3.000  14.269 -0.3578  0.2465  0.3395
 6689SOL    HW131526   0.662   3.090  14.287 -3.5081 -0.6389 -0.0129
 6689SOL    HW231527   0.624   2.959  14.327  0.1799  0.7579  1.3064
 6690SOL     OW31528   0.866   3.041  17.409  0.5285  0.1495 -0.2794
 6690SOL    HW131529   0.926   3.111  17.385  1.6442 -0.1373  1.6987
 6690SOL    HW231530   0.827   3.076  17.489  1.7974  1.7191 -0.3561
 6691SOL     OW31531   4.516   1.819   5.750  0.1147 -0.3410 -0.4924
 6691SOL    HW131532   4.543   1.743   5.698  0.8611  0.0606 -0.6855
 6691SOL    HW231533   4.423   1.817   5.725 -0.1253 -1.5032  0.4546
 6692SOL     OW31534   0.621   4.658   5.109  0.2820 -0.2997 -0.3982
 6692SOL    HW131535   0.640   4.674   5.016  0.7009  0.5333 -0.1680
 6692SOL    HW231536   0.563   4.583   5.101 -1.0284  0.6014  0.8800
 6693SOL     OW31537   3.004   4.511  10.747 -0.2307 -0.0048  0.4573
 6693SOL    HW131538   2.917   4.536  10.778 -0.6633  0.9447 -1.4681
 6693SOL    HW231539   3.033   4.583  10.691  0.2777 -1.0329 -0.6146
 6694SOL     OW31540   0.527   4.672  14.656  0.3958 -0.2857 -0.1325
 6694SOL    HW131541   0.538   4.614  14.732  0.7452  1.0223  0.8106
 6694SOL    HW231542   0.509   0.040  14.682 -1.0603 -0.1318 -1.7075
 6695SOL     OW31543   1.996   1.446   8.303 -0.2476 -0.0559 -0.1720
 6695SOL    HW131544   1.911   1.401   8.301 -1.3081  2.0486 -1.3931
 6695SOL    HW231545   2.028   1.425   8.391  0.3918  0.9479 -0.1689
 6696SOL     OW31546   3.101   3.643   5.175 -0.0150 -0.5554  0.1494
 6696SOL    HW131547   3.130   3.603   5.257  1.7413  1.1744  0.3843
 6696SOL    HW231548   3.163   3.713   5.156  0.1267 -0.9430 -0.8545
 6697SOL     OW31549   4.283   1.042   5.865  0.0797 -0.0206  0.0942
 6697SOL    HW131550   4.359   0.988   5.845 -0.2558 -0.6442  0.4796
 6697SOL    HW231551   4.214   0.976   5.859 -0.3547  0.4288  0.1026
 6698SOL     OW31552   2.203   0.567   7.925  0.4308 -0.2719  0.5646
 6698SOL    HW131553   2.196   0.649   7.973 -2.2694 -1.3383  2.0207
 6698SOL    HW231554   2.130   0.520   7.965 -0.2906 -0.5946 -1.1430
 6699SOL     OW31555   2.039   2.150  17.545 -0.4997  0.1329  0.2073
 6699SOL    HW131556   2.053   2.173  17.637  0.1036  0.2369  0.0888
 6699SOL    HW231557   2.101   2.205  17.498 -0.9245  0.6481  0.2525
 6700SOL     OW31558   2.554   3.449   7.612 -0.2663  0.4193  0.6358
 6700SOL    HW131559   2.528   3.541   7.621  1.8559  1.2626 -2.0272
 6700SOL    HW231560   2.633   3.452   7.666  0.5958  0.6450 -0.6503
 6701SOL     OW31561   3.506   1.934   4.763  0.8625  0.3782 -0.0610
 6701SOL    HW131562   3.485   1.972   4.678 -0.3158 -0.6164 -0.2222
 6701SOL    HW231563   3.570   1.867   4.737  1.0382 -0.6198  2.8886
 6702SOL     OW31564   2.758   3.862   3.288  0.2033  0.2487 -0.3859
 6702SOL    HW131565   2.800   3.842   3.204  0.9259  1.4765 -0.3107
 6702SOL    HW231566   2.793   3.795   3.347 -0.2257 -0.3540 -0.8095
 6703SOL     OW31567   3.699   2.554   3.582  0.5032  0.6898 -0.0478
 6703SOL    HW131568   3.615   2.595   3.604 -0.5367 -0.9555 -0.9702
 6703SOL    HW231569   3.669   2.464   3.586  1.1382  0.4159 -1.6073
 6704SOL     OW31570   4.436   1.757   4.413 -0.9317 -0.5616  0.1526
 6704SOL    HW131571   4.340   1.755   4.404 -0.8146 -0.0270 -1.2927
 6704SOL    HW231572   4.469   1.738   4.325  0.0971 -1.2754  0.6980
 6705SOL     OW31573   2.573   1.097  15.949 -0.0490  0.5501 -0.5249
 6705SOL    HW131574   2.666   1.118  15.938 -0.2773  0.3642 -2.8640
 6705SOL    HW231575   2.551   1.154  16.023  2.5519  1.7378 -0.6604
 6706SOL     OW31576   3.008   3.072   4.852  0.5981  0.3479  0.3904
 6706SOL    HW131577   2.930   3.063   4.796  0.5635  0.9545  0.3360
 6706SOL    HW231578   3.017   2.978   4.862 -0.7637 -0.0153 -1.6729
 6707SOL     OW31579   1.438   1.952   8.204 -0.3017  0.3741 -0.3099
 6707SOL    HW131580   1.396   1.866   8.199  0.2348  0.0624  0.8085
 6707SOL    HW231581   1.371   2.013   8.170 -2.0390 -0.4700  1.6143
 6708SOL     OW31582   2.144   4.479   6.070 -0.0252  0.1212  0.1119
 6708SOL    HW131583   2.097   4.480   5.987  0.9471 -0.2241 -0.4450
 6708SOL    HW231584   2.116   4.391   6.094 -2.5860  1.1158  0.7069
 6709SOL     OW31585   4.428   3.963   3.020  0.2133 -0.5153  0.2594
 6709SOL    HW131586   4.352   3.905   3.014  0.1645 -0.4394  0.1393
 6709SOL    HW231587   4.426   3.969   3.115  0.8026  0.9325  0.1760
 6710SOL     OW31588   4.574   1.124   0.210  0.0973 -0.0574  0.0077
 6710SOL    HW131589   4.653   1.156   0.254  0.2487 -0.2339 -0.1348
 6710SOL    HW231590   4.567   1.045   0.263  1.9235  1.0576  1.9139
 6711SOL     OW31591   3.080   0.889  13.974  0.1942 -0.3762 -0.1290
 6711SOL    HW131592   3.114   0.890  14.064 -1.9920  1.9001  0.6783
 6711SOL    HW231593   3.079   0.977  13.937 -0.7922  0.8960  2.8643
 6712SOL     OW31594   0.519   2.653   4.156 -0.8651 -0.4094 -0.5184
 6712SOL    HW131595   0.448   2.589   4.159 -3.7405  2.8218  0.4580
 6712SOL    HW231596   0.586   2.595   4.121  0.0625  1.7095 -2.2500
 6713SOL     OW31597   3.531   4.333  12.364  0.1545  0.0357 -0.7787
 6713SOL    HW131598   3.536   4.418  12.409  0.3644 -1.5382  2.1458
 6713SOL    HW231599   3.613   4.335  12.315  0.0449 -3.2791 -1.0833
 6714SOL     OW31600   2.030   2.625   4.182  0.5042  0.2016 -0.0280
 6714SOL    HW131601   2.087   2.564   4.229  0.1840  0.5484  0.8178
 6714SOL    HW231602   2.043   2.598   4.091  2.6580  1.0583  0.0028
 6715SOL     OW31603   3.557   2.897  15.966 -0.4463 -0.9141  0.6861
 6715SOL    HW131604   3.647   2.869  15.947 -0.7438 -0.0055 -1.9935
 6715SOL    HW231605   3.501   2.820  15.957 -0.6666 -1.0843  3.2999
 6716SOL     OW31606   1.100   2.326  17.038  0.0947  0.2024  0.3453
 6716SOL    HW131607   1.187   2.285  17.031  0.0752 -0.2346  2.8309
 6716SOL    HW231608   1.067   2.275  17.111  1.6939 -0.4219  0.6384
 6717SOL     OW31609   3.588   2.413   3.110 -0.2170 -0.3873  0.3965
 6717SOL    HW131610   3.598   2.370   3.195 -4.0672  1.2293  1.6532
 6717SOL    HW231611   3.501   2.453   3.112 -1.0449 -2.1015 -1.0718
 6718SOL     OW31612   2.976   2.309   4.887  0.7045 -0.4364 -0.8704
 6718SOL    HW131613   2.944   2.236   4.939  0.8030  0.5349  0.5639
 6718SOL    HW231614   3.022   2.351   4.960 -0.0928 -0.0399 -0.6024
 6719SOL     OW31615   3.488   0.870  10.000  0.4948  0.8014 -0.3485
 6719SOL    HW131616   3.560   0.809   9.984  0.6583  1.3728 -1.8683
 6719SOL    HW231617   3.478   0.907   9.912 -1.4663 -0.9215 -0.8643
 6720SOL     OW31618   4.152   0.554   5.124  0.2873  0.1069  0.1328
 6720SOL    HW131619   4.132   0.460   5.128 -1.1729  0.4042 -0.0870
 6720SOL    HW231620   4.246   0.555   5.107  0.0010  1.2429 -1.2978
 6721SOL     OW31621   1.545   2.913  11.509  0.4512  0.3753 -0.7291
 6721SOL    HW131622   1.599   2.846  11.551  0.0675  0.0306 -0.7837
 6721SOL    HW231623   1.565   2.892  11.418  0.6646  1.2870 -0.8910
 6722SOL     OW31624   1.508   1.793  13.384  0.2331 -0.3379 -0.3006
 6722SOL    HW131625   1.574   1.830  13.325 -0.3929 -3.3956 -2.8928
 6722SOL    HW231626   1.521   1.845  13.463  0.2266 -0.4470 -0.2284
 6723SOL     OW31627   1.561   3.711   5.110 -0.4047  0.0407 -0.3157
 6723SOL    HW131628   1.503   3.653   5.159 -1.1953  1.3547  0.2842
 6723SOL    HW231629   1.642   3.660   5.117  0.3558  1.1937 -0.8290
 6724SOL     OW31630   3.547   0.976   2.750 -0.3190 -0.4738  0.0916
 6724SOL    HW131631   3.502   1.043   2.802  0.4713  0.3758 -0.3015
 6724SOL    HW231632   3.635   1.011   2.736 -0.6369  0.4999  0.4959
 6725SOL     OW31633   4.406   1.399  10.086 -0.0740 -0.2629  0.4993
 6725SOL    HW131634   4.375   1.481  10.126 -2.8955  0.0923 -2.4460
 6725SOL    HW231635   4.328   1.396  10.030  1.2577 -0.2192 -1.3376
 6726SOL     OW31636   0.489   1.049  16.415  0.6466  0.0671 -0.0713
 6726SOL    HW131637   0.401   1.072  16.386  1.4045 -0.0458 -2.4386
 6726SOL    HW231638   0.494   1.058  16.510 -0.3809  0.2145 -0.0398
 6727SOL     OW31639   1.130   1.017   1.650  0.7576  0.0572 -0.1142
 6727SOL    HW131640   1.155   0.926   1.665  3.2549  1.0185  1.5597
 6727SOL    HW231641   1.137   1.030   1.555 -1.1132 -1.9939 -0.5319
 6728SOL     OW31642   1.901   2.794   6.916  0.0398  0.3500 -0.3615
 6728SOL    HW131643   1.951   2.840   6.849 -1.2442 -0.8920 -2.1509
 6728SOL    HW231644   1.875   2.866   6.973  0.8607 -0.8923  1.6238
 6729SOL     OW31645   1.790   3.123   0.922 -0.6678 -0.0542 -0.3633
 6729SOL    HW131646   1.694   3.123   0.931 -0.6084 -0.2603  0.2523
 6729SOL    HW231647   1.818   3.193   0.981  0.3703 -1.5704  0.9298
 6730SOL     OW31648   2.731   3.740   2.613 -0.3669 -0.0362 -0.0065
 6730SOL    HW131649   2.758   3.780   2.531 -0.9080 -0.8720 -0.5901
 6730SOL    HW231650   2.768   3.795   2.682 -0.8672  1.6350 -1.0848
 6731SOL     OW31651   4.130   2.403   5.873 -0.0381  0.3755  0.3751
 6731SOL    HW131652   4.113   2.455   5.951  1.5968 -0.2958  1.1790
 6731SOL    HW231653   4.064   2.440   5.815  0.5538  0.1384 -0.4645
 6732SOL     OW31654   1.689   0.756   4.415  0.4129 -0.6034  0.8233
 6732SOL    HW131655   1.745   0.776   4.491  0.2711  0.9309  0.5298
 6732SOL    HW231656   1.641   0.676   4.435 -1.0960  0.0587 -0.2084
 6733SOL     OW31657   3.219   2.835   3.234 -0.3900  0.1261 -0.2178
 6733SOL    HW131658   3.309   2.857   3.208 -1.2459  0.9038 -2.4610
 6733SOL    HW231659   3.243   2.797   3.319 -0.1128  1.2077  0.1902
 6734SOL     OW31660   3.164   4.422   6.839  0.7821  0.1703 -0.3564
 6734SOL    HW131661   3.100   4.447   6.906  0.2783 -2.5679  0.1786
 6734SOL    HW231662   3.112   4.432   6.759 -0.7298  1.2726  0.7760
 6735SOL     OW31663   3.960   1.048  11.576 -0.9374  0.5333 -0.2698
 6735SOL    HW131664   3.942   1.067  11.485  2.4276  0.9915 -0.8602
 6735SOL    HW231665   3.879   1.002  11.596 -0.3950  0.6601  2.2475
 6736SOL     OW31666   4.192   4.643   6.888 -0.3663  0.0322 -0.0437
 6736SOL    HW131667   4.160   4.635   6.978 -0.2433  2.4787  0.2125
 6736SOL    HW231668   4.172   4.557   6.850 -0.5699 -0.2424  0.6816
 6737SOL     OW31669   3.110   2.461  14.789 -0.1063  0.1436  0.1865
 6737SOL    HW131670   3.036   2.522  14.786  0.1964  0.5700  1.3642
 6737SOL    HW231671   3.151   2.478  14.874 -0.9485 -0.6121  0.7314
 6738SOL     OW31672   2.368   4.672  15.594  0.6626  0.0018  0.3052
 6738SOL    HW131673   2.437   0.015  15.580  2.3289 -1.7199  0.4260
 6738SOL    HW231674   2.377   4.638  15.505  2.6694  2.1330 -0.3073
 6739SOL     OW31675   1.970   0.162  16.461  0.1906  0.5165  0.9516
 6739SOL    HW131676   1.947   0.070  16.471 -0.3308  0.7444  1.9185
 6739SOL    HW231677   1.901   0.189  16.400  0.2115  0.8484  1.0744
 6740SOL     OW31678   1.683   4.576  11.964 -0.2961 -0.7842  0.4148
 6740SOL    HW131679   1.753   4.638  11.984 -0.8723  1.0032 -3.0155
 6740SOL    HW231680   1.605   4.631  11.959 -2.2979 -3.7160 -0.2162
 6741SOL     OW31681   3.554   1.824   5.011  0.0039  0.0653  0.1607
 6741SOL    HW131682   3.559   1.909   5.055  1.7148 -0.3988  0.8542
 6741SOL    HW231683   3.553   1.858   4.921  1.1073  2.5162  1.0676
 6742SOL     OW31684   3.490   1.912  17.626 -0.2520  0.3746 -0.0788
 6742SOL    HW131685   3.396   1.892  17.629 -0.6078  1.6759 -2.0625
 6742SOL    HW231686   3.523   1.870   0.013 -0.7610  1.4701  0.7070
 6743SOL     OW31687   3.885   1.296   7.832 -1.0617 -0.1150 -0.2676
 6743SOL    HW131688   3.791   1.314   7.840 -0.5956  1.9257  0.5654
 6743SOL    HW231689   3.891   1.280   7.738  0.0714  1.4692 -0.4527
 6744SOL     OW31690   3.387   0.990   1.173 -0.4499 -0.0902 -0.3188
 6744SOL    HW131691   3.358   0.901   1.152 -0.9412 -0.1001  0.3999
 6744SOL    HW231692   3.477   0.970   1.199 -0.4416 -0.7182 -0.8337
 6745SOL     OW31693   0.876   1.570  13.795  0.2282 -0.0289  0.1751
 6745SOL    HW131694   0.834   1.630  13.734 -0.0933 -1.7597 -1.2942
 6745SOL    HW231695   0.891   1.629  13.869  0.3957  2.4482 -1.8489
 6746SOL     OW31696   3.808   0.952   6.260 -0.3567 -0.2607  0.2213
 6746SOL    HW131697   3.902   0.965   6.253 -0.8541  1.4962 -3.0267
 6746SOL    HW231698   3.783   0.946   6.168  1.8898 -0.1829 -0.4045
 6747SOL     OW31699   1.261   2.585   3.158 -0.0097  0.3415 -0.3009
 6747SOL    HW131700   1.287   2.641   3.231  2.2425 -0.6182 -0.3477
 6747SOL    HW231701   1.349   2.564   3.125 -0.9968  0.9612 -3.3290
 6748SOL     OW31702   2.761   1.279  11.221 -0.3286  0.3084  0.1469
 6748SOL    HW131703   2.812   1.314  11.294  1.3442 -1.2151 -0.2893
 6748SOL    HW231704   2.808   1.202  11.189  3.9658  2.5997  0.9415
 6749SOL     OW31705   3.534   2.670  14.592 -0.2894  0.1129  0.0503
 6749SOL    HW131706   3.618   2.715  14.601 -0.5440  0.6295 -0.1345
 6749SOL    HW231707   3.570   2.581  14.600  0.6796  0.5129  0.1902
 6750SOL     OW31708   1.358   3.988  14.954 -0.7132  0.1690  0.7281
 6750SOL    HW131709   1.433   4.038  14.987 -0.3351 -0.1798  0.4033
 6750SOL    HW231710   1.351   4.021  14.864 -0.7127  0.1116  0.7071
 6751SOL     OW31711   2.216   3.819   9.335  0.3895  0.4556 -0.1596
 6751SOL    HW131712   2.132   3.865   9.331 -0.5946 -1.4086 -0.7236
 6751SOL    HW231713   2.254   3.873   9.404  0.7991  0.6298 -0.5257
 6752SOL     OW31714   4.398   2.692   2.027  0.3326 -0.3799  0.3973
 6752SOL    HW131715   4.398   2.782   1.993  0.6891 -0.6965 -0.4612
 6752SOL    HW231716   4.317   2.698   2.078  0.8475 -0.0855  1.1814
 6753SOL     OW31717   1.864   4.470   5.047  0.1720  0.1887 -0.0003
 6753SOL    HW131718   1.892   4.400   4.987  0.1270  1.2343 -1.2382
 6753SOL    HW231719   1.950   4.500   5.077  0.0939 -0.6960  1.1212
 6754SOL     OW31720   3.316   4.212   0.740 -0.7234  0.6703  0.6952
 6754SOL    HW131721   3.252   4.271   0.700 -1.0585 -0.0337  0.1953
 6754SOL    HW231722   3.266   4.172   0.811  0.9063 -2.2197  0.1900
 6755SOL     OW31723   0.799   0.319   2.338 -0.5730 -0.0104 -0.7218
 6755SOL    HW131724   0.875   0.341   2.392 -0.5355  0.4572 -0.9671
 6755SOL    HW231725   0.836   0.292   2.254 -1.4499  1.7697 -1.6828
 6756SOL     OW31726   0.959   4.361   6.219  0.1037 -0.3033 -0.7672
 6756SOL    HW131727   1.019   4.344   6.145 -1.7096 -0.4054 -2.2128
 6756SOL    HW231728   1.017   4.390   6.289 -1.6364 -1.0796  1.0201
 6757SOL     OW31729   0.235   2.178   3.141  0.4699  0.1233 -0.1623
 6757SOL    HW131730   0.208   2.096   3.099  0.4601 -0.5020  1.0765
 6757SOL    HW231731   0.310   2.193   3.083  1.9439  0.0927  1.7365
 6758SOL     OW31732   4.149   1.862   4.597  0.1615 -0.1465  0.0409
 6758SOL    HW131733   4.125   1.824   4.512 -3.1546 -0.5361  1.1586
 6758SOL    HW231734   4.067   1.835   4.638  0.7784 -1.3713  0.4628
 6759SOL     OW31735   2.447   3.178   6.948  0.0856  0.3194  0.1967
 6759SOL    HW131736   2.374   3.140   6.997  0.0782 -0.1368 -0.1682
 6759SOL    HW231737   2.494   3.230   7.012 -0.4777 -0.6468  1.3966
 6760SOL     OW31738   3.099   3.403  12.614  0.2513  0.4791  0.3025
 6760SOL    HW131739   3.159   3.478  12.614 -1.3360  1.7649  2.7529
 6760SOL    HW231740   3.160   3.333  12.634 -1.3395 -0.1851  2.7662
 6761SOL     OW31741   0.117   3.764   6.814 -0.8733  0.9276 -0.3872
 6761SOL    HW131742   0.101   3.827   6.884 -0.9036  0.3146  0.1488
 6761SOL    HW231743   0.172   3.820   6.758  0.9366 -1.4521 -0.9930
 6762SOL     OW31744   1.467   0.045  11.912 -0.3476 -0.0262 -0.1487
 6762SOL    HW131745   1.386   0.017  11.869  0.1723 -1.7220 -0.0365
 6762SOL    HW231746   1.514   0.071  11.833 -0.9764  1.4325 -0.0484
 6763SOL     OW31747   1.105   1.239   7.867 -0.4076  0.1197  0.2731
 6763SOL    HW131748   1.020   1.226   7.827  0.2089  0.5346 -1.1541
 6763SOL    HW231749   1.129   1.309   7.807 -0.2887 -0.2119 -0.0645
 6764SOL     OW31750   0.806   3.996   4.799 -0.0340 -0.0560  0.0092
 6764SOL    HW131751   0.831   3.972   4.887  1.9137  1.3189 -0.1693
 6764SOL    HW231752   0.812   3.909   4.761 -1.2975  0.6683 -1.8853
 6765SOL     OW31753   2.432   2.997   1.017  0.4491 -0.2701  0.4127
 6765SOL    HW131754   2.342   2.980   0.988  1.1627 -0.6870 -1.4987
 6765SOL    HW231755   2.431   3.013   1.112 -1.6452  1.0040  0.1861
 6766SOL     OW31756   1.100   4.406   7.101  0.2928 -0.0967  0.1953
 6766SOL    HW131757   1.005   4.415   7.114  0.1208  1.5630 -2.0925
 6766SOL    HW231758   1.083   4.428   7.009  1.5916 -0.9439 -0.2435
 6767SOL     OW31759   1.804   4.596   3.182 -0.1980 -0.2479 -0.0194
 6767SOL    HW131760   1.730   4.557   3.136 -1.1931 -1.5612  2.6722
 6767SOL    HW231761   1.827   4.539   3.255  0.4482 -0.4941 -0.4118
 6768SOL     OW31762   1.566   3.884   8.536 -0.2350 -0.6354 -0.2425
 6768SOL    HW131763   1.498   3.951   8.525  1.5558  0.9428 -1.6965
 6768SOL    HW231764   1.518   3.804   8.515 -0.4193  0.0708 -2.6502
 6769SOL     OW31765   3.934   2.441   2.376 -0.2169 -0.6206  0.6873
 6769SOL    HW131766   3.865   2.406   2.321 -2.1578 -0.3608  2.9756
 6769SOL    HW231767   3.988   2.480   2.307 -0.8878 -0.6551  0.1460
 6770SOL     OW31768   1.514   1.079   5.819  0.9916 -0.2574 -0.4599
 6770SOL    HW131769   1.513   1.029   5.737 -0.1157  0.2096 -0.7362
 6770SOL    HW231770   1.607   1.088   5.837  1.2009 -0.6271 -1.3424
 6771SOL     OW31771   1.315   4.610  10.798 -0.0592 -0.4231  0.5698
 6771SOL    HW131772   1.394   4.656  10.824 -1.8163  1.9273  1.7019
 6771SOL    HW231773   1.252   4.637  10.865  1.3342 -1.9365  2.4814
 6772SOL     OW31774   3.816   1.730   8.803 -0.5708  0.2811  0.2117
 6772SOL    HW131775   3.730   1.745   8.842 -1.4212  1.1179 -1.9962
 6772SOL    HW231776   3.803   1.657   8.743 -0.8035 -0.3772  1.0646
 6773SOL     OW31777   3.847   0.360   0.481  0.7294 -0.6913 -0.7922
 6773SOL    HW131778   3.927   0.308   0.493  1.4612  0.4897 -0.4558
 6773SOL    HW231779   3.781   0.313   0.531  0.3322  0.2252 -0.4490
 6774SOL     OW31780   3.486   1.239  16.859 -0.1350  0.6454  0.4398
 6774SOL    HW131781   3.547   1.256  16.788 -1.5305 -1.5340 -1.3044
 6774SOL    HW231782   3.547   1.188  16.913  0.6193  0.3150 -0.7263
 6775SOL     OW31783   0.515   2.912   3.524 -0.2527 -0.5420 -0.0229
 6775SOL    HW131784   0.593   2.941   3.572 -1.3988 -0.3881  1.7522
 6775SOL    HW231785   0.547   2.947   3.441  0.2739 -0.2829  0.2827
 6776SOL     OW31786   2.661   2.541   6.617  0.3237 -0.1633 -0.4189
 6776SOL    HW131787   2.729   2.569   6.556 -0.5928  3.0560  0.0515
 6776SOL    HW231788   2.588   2.517   6.561  1.0892 -0.4751 -1.2775
 6777SOL     OW31789   1.998   0.752   5.503  0.1894 -0.0155 -0.1792
 6777SOL    HW131790   2.002   0.782   5.412  2.2644 -2.8528 -1.0385
 6777SOL    HW231791   2.089   0.740   5.529 -0.8549 -0.4495  3.3623
 6778SOL     OW31792   2.464   0.959   4.682 -0.0972 -0.2752  0.0804
 6778SOL    HW131793   2.501   0.895   4.742  1.0291  0.1711 -0.1508
 6778SOL    HW231794   2.432   0.908   4.608  2.6318 -0.4231 -0.9800
 6779SOL     OW31795   1.554   3.505  15.056  0.2334  0.2076  0.3856
 6779SOL    HW131796   1.500   3.436  15.095  1.2066 -1.5952 -1.4435
 6779SOL    HW231797   1.595   3.553  15.127 -0.6583  2.1298 -0.4106
 6780SOL     OW31798   1.067   1.536   2.333 -0.3002 -0.1971 -0.5395
 6780SOL    HW131799   1.130   1.604   2.312 -0.9871  0.5621 -0.1332
 6780SOL    HW231800   0.983   1.564   2.297  0.3102  0.7009 -1.2583
 6781SOL     OW31801   2.270   0.646  11.870 -0.0801  0.0304 -0.1022
 6781SOL    HW131802   2.329   0.623  11.942 -1.4664  1.4342  1.4804
 6781SOL    HW231803   2.234   0.723  11.913 -0.0195 -0.3490  0.6218
 6782SOL     OW31804   0.417   1.871   1.242  0.1933  0.0656  0.2383
 6782SOL    HW131805   0.507   1.905   1.244 -0.2107  1.0881  1.4413
 6782SOL    HW231806   0.404   1.871   1.337  2.4758  0.6012  0.5630
 6783SOL     OW31807   4.241   3.972   9.856 -0.1939 -0.0702 -0.1196
 6783SOL    HW131808   4.223   4.049   9.803  0.7299  0.4750  0.3480
 6783SOL    HW231809   4.289   4.007   9.932 -0.1595 -1.8758  0.6969
 6784SOL     OW31810   2.177   0.869  14.708 -0.0829 -0.2914 -0.3222
 6784SOL    HW131811   2.252   0.863  14.767 -0.5105 -3.4820 -0.1311
 6784SOL    HW231812   2.111   0.817  14.754  0.8137 -1.2139 -0.0926
 6785SOL     OW31813   1.082   4.221  11.787  0.3441 -0.6587 -0.2670
 6785SOL    HW131814   1.016   4.269  11.737 -0.8612 -0.1844  1.7662
 6785SOL    HW231815   1.101   4.289  11.851  0.2989 -1.2814  0.4104
 6786SOL     OW31816   3.166   0.004   4.126 -0.2385 -0.0362  0.0366
 6786SOL    HW131817   3.213   4.645   4.146 -0.3683  0.4187  2.2489
 6786SOL    HW231818   3.116   4.703   4.048  0.8324 -1.0985 -0.3348
 6787SOL     OW31819   3.221   4.098   2.450  0.3619 -0.0323  0.5059
 6787SOL    HW131820   3.146   4.105   2.391  1.0571 -3.2569 -0.7977
 6787SOL    HW231821   3.260   4.016   2.419 -1.2824 -0.9965  0.9741
 6788SOL     OW31822   1.766   3.399  14.173 -0.5787  0.3000  0.5939
 6788SOL    HW131823   1.726   3.450  14.103  2.3405  2.0938  0.2554
 6788SOL    HW231824   1.707   3.324  14.172  2.0402 -1.7902  2.8258
 6789SOL     OW31825   0.337   4.589   5.709  0.4643 -0.3777  0.3157
 6789SOL    HW131826   0.287   4.633   5.641 -1.4483 -1.0473  1.2776
 6789SOL    HW231827   0.303   4.502   5.689 -0.4110 -0.0707  0.5065
 6790SOL     OW31828   3.751   1.657   9.436  0.1091 -0.0981 -1.0311
 6790SOL    HW131829   3.727   1.716   9.507  1.7752  1.5796 -1.8726
 6790SOL    HW231830   3.840   1.684   9.413  0.7998 -1.2012  0.3558
 6791SOL     OW31831   1.617   2.349  11.240  0.1182  0.0715 -0.0230
 6791SOL    HW131832   1.605   2.310  11.327 -0.9843 -0.2095 -0.3107
 6791SOL    HW231833   1.711   2.335  11.233 -0.3517 -1.3215 -3.3016
 6792SOL     OW31834   2.449   2.941  11.401 -0.8678 -0.0783 -0.3143
 6792SOL    HW131835   2.436   3.036  11.408  0.5650  0.0982 -0.1174
 6792SOL    HW231836   2.395   2.913  11.475 -2.1377  0.1424 -1.1637
 6793SOL     OW31837   4.262   3.513  17.062 -0.6928 -0.0624  0.4226
 6793SOL    HW131838   4.327   3.583  17.067 -1.8481  1.0403  0.1423
 6793SOL    HW231839   4.284   3.466  16.982  1.8933 -0.0179  1.1128
 6794SOL     OW31840   1.197   1.557   4.859  0.6336  0.1339  0.0115
 6794SOL    HW131841   1.195   1.554   4.764 -2.4565 -0.2443  0.0737
 6794SOL    HW231842   1.107   1.591   4.868  0.4898 -0.0964 -0.5422
 6795SOL     OW31843   3.628   1.635   6.594 -0.2330  0.1793  0.2970
 6795SOL    HW131844   3.700   1.573   6.585 -0.2329  0.4551 -1.5282
 6795SOL    HW231845   3.572   1.615   6.519  0.4665 -1.0032  0.0817
 6796SOL     OW31846   3.093   1.807   1.265  0.2536  0.0948  0.1146
 6796SOL    HW131847   3.001   1.829   1.282  0.0446  0.0052 -0.9110
 6796SOL    HW231848   3.076   1.734   1.206  1.3374 -1.3177  1.5614
 6797SOL     OW31849   4.191   4.280  10.179  0.3645 -0.0251 -0.1118
 6797SOL    HW131850   4.123   4.317  10.236  0.2801  1.0139 -0.8824
 6797SOL    HW231851   4.132   4.220  10.133  0.1342 -0.3289  0.5680
 6798SOL     OW31852   1.927   3.187   4.186 -0.0615  0.1082 -0.2977
 6798SOL    HW131853   2.021   3.205   4.179 -0.0965  0.5458  0.3690
 6798SOL    HW231854   1.925   3.126   4.260  0.1340  0.0098 -0.3740
 6799SOL     OW31855   2.434   1.440  10.128 -0.3349 -0.6617 -0.2307
 6799SOL    HW131856   2.450   1.380  10.201  1.7787 -0.5597 -0.6273
 6799SOL    HW231857   2.506   1.502  10.139 -0.6999  0.0293 -1.7502
 6800SOL     OW31858   0.653   2.010   3.760  0.6239 -0.4923 -0.1764
 6800SOL    HW131859   0.660   2.019   3.855 -1.7203  1.6845 -0.1928
 6800SOL    HW231860   0.642   1.917   3.740 -0.9085 -0.3535  0.0339
 6801SOL     OW31861   0.893   0.554   0.126 -0.0673  0.2651 -1.0474
 6801SOL    HW131862   0.969   0.500   0.149 -0.4620  0.2550  0.2238
 6801SOL    HW231863   0.923   0.628   0.179  0.0500 -1.5591  1.4633
 6802SOL     OW31864   0.373   1.633  16.144 -0.2310  0.5407 -0.3180
 6802SOL    HW131865   0.420   1.696  16.199  1.9907  0.1739 -1.7802
 6802SOL    HW231866   0.295   1.681  16.120 -1.1366  0.2227  1.9588
 6803SOL     OW31867   4.692   1.452   5.888 -0.5834 -0.2678 -0.2033
 6803SOL    HW131868   4.601   1.481   5.894 -0.0652  1.1331  1.0089
 6803SOL    HW231869   4.697   1.371   5.837 -0.7938  0.6446 -1.6844
 6804SOL     OW31870   4.444   4.111  11.186 -0.5176 -0.7421 -0.3041
 6804SOL    HW131871   4.490   4.033  11.217 -2.5410 -1.4554  0.8770
 6804SOL    HW231872   4.509   4.156  11.132 -1.8601 -0.7370 -1.9110
 6805SOL     OW31873   3.831   4.216  12.588 -0.5260 -0.2635  0.6394
 6805SOL    HW131874   3.848   4.134  12.633 -4.3436 -0.4420  1.7307
 6805SOL    HW231875   3.846   4.191  12.497 -2.9108  2.2663 -0.4483
 6806SOL     OW31876   0.847   2.027   7.071 -0.4078  0.2177 -0.3489
 6806SOL    HW131877   0.782   2.012   7.140 -1.1138  0.1208 -1.0344
 6806SOL    HW231878   0.909   1.955   7.084 -1.1576 -0.5322 -1.0120
 6807SOL     OW31879   2.322   2.909   6.472 -0.0771 -0.0510 -0.4672
 6807SOL    HW131880   2.233   2.911   6.438 -0.2073 -2.3136 -0.2080
 6807SOL    HW231881   2.319   2.843   6.540  0.2342  0.9721  0.5429
 6808SOL     OW31882   4.477   1.596  16.284  0.0781 -0.0945 -0.6668
 6808SOL    HW131883   4.460   1.507  16.312 -2.3049  0.7297  0.4367
 6808SOL    HW231884   4.573   1.605  16.281  0.2028 -0.0967  3.9537
 6809SOL     OW31885   2.482   2.927  15.424  0.3330  0.7952  0.3760
 6809SOL    HW131886   2.390   2.912  15.400  0.3034  1.1881  0.2503
 6809SOL    HW231887   2.476   3.013  15.467  1.3720  0.2049  1.6989
 6810SOL     OW31888   4.326   0.472  13.557 -0.2490  0.2322 -0.4655
 6810SOL    HW131889   4.333   0.378  13.571  3.3736  0.8154  1.6548
 6810SOL    HW231890   4.362   0.509  13.637 -2.3222  1.7140 -0.2159
 6811SOL     OW31891   2.432   0.910   7.409 -0.4880 -0.1274 -0.1575
 6811SOL    HW131892   2.438   0.881   7.500  3.2075 -1.8801 -0.9602
 6811SOL    HW231893   2.480   0.993   7.408  0.8123 -0.8619  2.6751
 6812SOL     OW31894   2.015   1.845   4.876 -0.1874 -0.1136 -0.0365
 6812SOL    HW131895   1.969   1.929   4.869 -2.3577 -1.0766  2.7093
 6812SOL    HW231896   1.983   1.795   4.801  0.7488 -2.2286  0.9762
 6813SOL     OW31897   0.784   3.997   3.499  0.0228 -0.0763 -0.0055
 6813SOL    HW131898   0.839   4.064   3.460 -1.4094  1.2205  0.1925
 6813SOL    HW231899   0.817   3.982   3.588  2.0066  0.7059 -0.6006
 6814SOL     OW31900   3.460   4.440  12.909 -0.0162 -0.1630 -0.0873
 6814SOL    HW131901   3.446   4.390  12.828  2.2552  0.1899 -0.6951
 6814SOL    HW231902   3.374   4.421  12.947  0.4682  1.6929  1.8733
 6815SOL     OW31903   2.694   2.022   4.810 -0.5246 -0.3391 -0.2672
 6815SOL    HW131904   2.742   2.057   4.886  1.2813 -1.1918 -0.9968
 6815SOL    HW231905   2.729   2.090   4.753 -0.5917  1.7640  2.2021
 6816SOL     OW31906   4.313   3.346   4.860  0.7771 -0.1569  0.8280
 6816SOL    HW131907   4.243   3.307   4.808  0.0641  2.7956 -0.4599
 6816SOL    HW231908   4.373   3.275   4.881 -0.6854 -1.9981 -1.3336
 6817SOL     OW31909   4.688   4.088   4.675 -0.1262 -0.3240 -0.0393
 6817SOL    HW131910   0.050   4.114   4.712  0.6231 -1.6137 -0.8687
 6817SOL    HW231911   4.634   4.162   4.704 -1.4078 -0.6423 -1.6056
 6818SOL     OW31912   0.181   0.848  15.602  0.6531  0.1440 -0.2417
 6818SOL    HW131913   0.126   0.921  15.574 -1.5142 -0.9365  1.2300
 6818SOL    HW231914   0.253   0.884  15.654 -0.4585 -1.6730  2.5376
 6819SOL     OW31915   4.034   0.296   5.172 -0.0265  0.0278 -0.5534
 6819SOL    HW131916   3.988   0.344   5.241  1.2286 -1.3062  1.2013
 6819SOL    HW231917   4.060   0.215   5.215 -0.0529 -0.6813 -1.8845
 6820SOL     OW31918   0.892   2.539   8.214  0.1209 -0.0120 -0.2620
 6820SOL    HW131919   0.928   2.553   8.127 -1.2805  1.0444 -0.6810
 6820SOL    HW231920   0.973   2.542   8.264  1.5985  1.1943 -2.7222
 6821SOL     OW31921   1.143   4.069  11.576 -0.1998 -1.1960  0.2745
 6821SOL    HW131922   1.148   4.117  11.659  0.6290  0.4985 -0.7625
 6821SOL    HW231923   1.233   4.087  11.549  0.3371 -0.3281  2.5719
 6822SOL     OW31924   4.712   2.565   4.621 -0.0117  0.4264 -0.0545
 6822SOL    HW131925   4.659   2.588   4.544 -0.4265 -1.5836 -0.3607
 6822SOL    HW231926   0.080   2.584   4.599  0.3047 -1.5212 -0.3787
 6823SOL     OW31927   2.462   2.125  12.540  0.1965  0.9076  0.2771
 6823SOL    HW131928   2.553   2.107  12.561  0.0623  0.3332  0.3784
 6823SOL    HW231929   2.450   2.218  12.561  0.7378  1.0704 -0.1360
 6824SOL     OW31930   1.808   2.530   3.511  0.6760 -0.6291 -0.3807
 6824SOL    HW131931   1.873   2.471   3.548 -0.0497 -0.1936  1.5755
 6824SOL    HW231932   1.731   2.503   3.560  1.7918 -0.8260  1.2571
 6825SOL     OW31933   0.305   0.134   2.529 -0.5925  0.7492  0.1367
 6825SOL    HW131934   0.379   0.076   2.541 -0.9555  0.1564 -0.5298
 6825SOL    HW231935   0.358   0.205   2.492  2.7424 -1.2354  1.1436
 6826SOL     OW31936   3.774   0.501   0.261 -1.0686 -0.1275  0.0420
 6826SOL    HW131937   3.790   0.449   0.340  0.3511  1.6662  0.9303
 6826SOL    HW231938   3.866   0.504   0.235 -0.5955 -1.0886  1.5428
 6827SOL     OW31939   3.794   0.441   3.606 -0.9633  0.1250  0.1091
 6827SOL    HW131940   3.757   0.385   3.538  2.4147 -1.2758 -0.5623
 6827SOL    HW231941   3.748   0.411   3.684 -1.5210  0.7400  0.0200
 6828SOL     OW31942   4.553   1.050   6.133  0.2034 -0.8742 -0.2946
 6828SOL    HW131943   4.629   1.088   6.176 -0.4892  1.2206 -0.9401
 6828SOL    HW231944   4.508   1.132   6.111 -1.6611 -2.0819 -0.9968
 6829SOL     OW31945   0.043   2.508  17.019  0.2669 -0.2236  1.4846
 6829SOL    HW131946   4.706   2.433  17.018  1.3921 -1.1063  0.5506
 6829SOL    HW231947   4.719   2.586  16.990  0.0058 -0.8338  0.2768
 6830SOL     OW31948   2.957   4.277   1.019  0.1322  0.1623 -0.4460
 6830SOL    HW131949   2.908   4.222   1.080  0.7566  0.2323  0.1085
 6830SOL    HW231950   3.039   4.228   1.008 -0.1690 -0.4455 -0.0140
 6831SOL     OW31951   4.298   3.520   5.075  0.0451  0.2620  0.3385
 6831SOL    HW131952   4.292   3.439   5.024 -4.5025  0.0311  1.1975
 6831SOL    HW231953   4.352   3.572   5.016 -0.1495  0.5459  0.4139
 6832SOL     OW31954   2.353   4.366   4.805 -0.3956 -0.0904 -0.5248
 6832SOL    HW131955   2.389   4.449   4.772 -1.7035  0.6179 -0.1719
 6832SOL    HW231956   2.359   4.313   4.725  0.0058 -1.7232  0.5846
 6833SOL     OW31957   3.352   3.286   5.363 -0.7152 -0.6022  0.1517
 6833SOL    HW131958   3.267   3.249   5.339 -0.8901  0.5147 -0.9773
 6833SOL    HW231959   3.364   3.232   5.441  0.0773  0.4515  0.7450
 6834SOL     OW31960   0.210   4.218  15.655 -0.2702 -0.0583 -0.0685
 6834SOL    HW131961   0.197   4.128  15.686 -1.0994 -0.4204 -1.4850
 6834SOL    HW231962   0.141   4.259  15.707 -0.1138 -0.5201  0.5004
 6835SOL     OW31963   3.534   3.188   5.565 -0.1720 -0.6807 -0.1210
 6835SOL    HW131964   3.531   3.283   5.575 -0.1256 -0.4555 -2.2471
 6835SOL    HW231965   3.628   3.177   5.581 -0.3409 -1.0047  0.6396
 6836SOL     OW31966   0.328   4.039   7.641 -0.2811 -0.4555  0.3074
 6836SOL    HW131967   0.344   4.058   7.734  3.1953 -2.0171  0.0487
 6836SOL    HW231968   0.315   3.944   7.645 -3.1638 -0.0771 -0.5112
 6837SOL     OW31969   3.618   4.376  16.710  0.4458  0.3519  0.1989
 6837SOL    HW131970   3.660   4.399  16.628 -1.9733 -1.7768 -1.6542
 6837SOL    HW231971   3.676   4.303  16.734 -1.3857 -1.4957 -0.9422
 6838SOL     OW31972   4.673   0.370   6.362 -0.4709 -0.5955  0.2738
 6838SOL    HW131973   4.701   0.281   6.383  0.4591 -0.5685 -0.9055
 6838SOL    HW231974   4.588   0.363   6.406 -0.3358 -2.3643  0.2468
 6839SOL     OW31975   1.601   4.422   7.855  0.4295 -0.0061  0.1858
 6839SOL    HW131976   1.592   4.329   7.835 -1.0302  0.0753  0.4604
 6839SOL    HW231977   1.604   4.415   7.950  0.4344 -1.2190  0.0975
 6840SOL     OW31978   3.894   1.872   8.039 -0.4553 -0.2690 -0.2133
 6840SOL    HW131979   3.940   1.808   7.985 -0.2596  1.2968 -1.8962
 6840SOL    HW231980   3.852   1.813   8.101  0.4400 -1.8284 -1.1037
 6841SOL     OW31981   1.548   2.327   2.715  0.1220  0.2379  0.4902
 6841SOL    HW131982   1.586   2.349   2.630 -1.2642 -1.8697 -0.6546
 6841SOL    HW231983   1.631   2.321   2.763 -0.3163  1.0877  1.3588
 6842SOL     OW31984   0.065   2.920  14.779  0.1025  0.9207  0.3421
 6842SOL    HW131985   0.115   2.867  14.717 -1.4292  0.2969 -0.3521
 6842SOL    HW231986   0.059   2.847  14.840  1.5052  0.9840  0.5519
 6843SOL     OW31987   2.625   0.701  16.047  0.3247 -0.2688 -0.2841
 6843SOL    HW131988   2.567   0.758  15.997  0.3480 -0.3750 -0.4326
 6843SOL    HW231989   2.703   0.739  16.006 -0.1248  0.0154 -0.8807
 6844SOL     OW31990   4.520   2.506   3.781 -0.1829  0.3730  0.5746
 6844SOL    HW131991   4.522   2.546   3.694 -0.5701  0.6505  0.6938
 6844SOL    HW231992   4.614   2.496   3.797  0.1303  0.3886 -1.2339
 6845SOL     OW31993   3.045   0.737  10.743 -0.3499 -0.1148  0.1398
 6845SOL    HW131994   3.103   0.661  10.741 -1.5611 -0.9852 -1.5812
 6845SOL    HW231995   3.022   0.737  10.836  3.9896  0.5764  1.2056
 6846SOL     OW31996   1.215   0.638   9.699  0.0642 -0.5740  0.6913
 6846SOL    HW131997   1.189   0.657   9.609  0.8206  0.3091  0.6597
 6846SOL    HW231998   1.151   0.575   9.734  0.6867 -1.1595  0.7837
 6847SOL     OW31999   0.089   1.263   7.264  0.6642 -0.3117 -0.1067
 6847SOL    HW132000   0.041   1.243   7.344  0.2375  2.2408  0.2495
 6847SOL    HW232001   0.111   1.354   7.282  1.9376 -0.8659  1.1814
 6848SOL     OW32002   0.821   2.280   4.296  0.7198  0.0955  0.0461
 6848SOL    HW132003   0.865   2.198   4.321 -1.2911 -1.4312 -1.4329
 6848SOL    HW232004   0.899   2.329   4.270 -0.0094  0.2976 -1.7113
 6849SOL     OW32005   3.243   4.364   2.595  0.0144  0.3608 -0.6335
 6849SOL    HW132006   3.283   4.415   2.524  2.7189 -0.9635 -0.0421
 6849SOL    HW232007   3.220   4.281   2.552  1.5863 -0.6373  0.4745
 6850SOL     OW32008   3.073   1.497   0.176  0.0716 -0.0169  0.2678
 6850SOL    HW132009   3.077   1.437   0.250 -0.3575  1.3452  1.3860
 6850SOL    HW232010   3.121   1.564   0.224  0.8106 -0.7878  0.5961
 6851SOL     OW32011   2.544   0.765   3.540 -0.7193 -0.2586 -0.2849
 6851SOL    HW132012   2.628   0.720   3.548  0.0700  1.3034  0.1093
 6851SOL    HW232013   2.542   0.801   3.629 -0.1668  2.5675 -1.4238
 6852SOL     OW32014   4.125   3.107   4.031 -0.0917  0.1022  0.1339
 6852SOL    HW132015   4.202   3.140   4.077  0.7333 -0.4867 -0.8180
 6852SOL    HW232016   4.104   3.176   3.968 -0.2385 -0.3549 -0.3263
 6853SOL     OW32017   0.150   3.030   9.830  0.1651 -0.1931  0.0845
 6853SOL    HW132018   0.141   2.963   9.763 -1.7908  2.3574 -2.2156
 6853SOL    HW232019   0.131   2.979   9.909  1.1912 -0.4304  0.1795
 6854SOL     OW32020   1.538   2.993   2.627  0.0145 -0.1163  0.3959
 6854SOL    HW132021   1.497   3.027   2.548  1.3235 -2.5905 -1.3445
 6854SOL    HW232022   1.494   3.045   2.695  0.2884 -0.2291  0.6589
 6855SOL     OW32023   0.906   2.672  10.050  0.0050 -0.1543 -0.3160
 6855SOL    HW132024   0.986   2.722  10.033  1.2356 -2.4184 -1.1871
 6855SOL    HW232025   0.852   2.712   9.982 -0.6159  1.7156  1.2957
 6856SOL     OW32026   0.471   4.320   9.520 -0.1689 -0.0526 -0.0268
 6856SOL    HW132027   0.520   4.347   9.598 -0.9610  0.7286  0.1986
 6856SOL    HW232028   0.395   4.285   9.566  1.3377 -1.1521  1.6727
 6857SOL     OW32029   0.228   2.347   4.993 -0.0787 -0.4712 -0.0680
 6857SOL    HW132030   0.230   2.251   4.986  2.7249 -0.4620  0.4661
 6857SOL    HW232031   0.174   2.363   4.916  0.7432 -1.2463 -0.8164
 6858SOL     OW32032   0.573   2.010   3.372 -0.0407 -0.3681  0.1500
 6858SOL    HW132033   0.592   2.082   3.432  1.8996 -0.5611 -0.2222
 6858SOL    HW232034   0.579   2.041   3.282 -0.6615 -1.8151 -0.3784
 6859SOL     OW32035   0.681   4.666   7.138 -0.5017  0.2117  0.1708
 6859SOL    HW132036   0.622   0.002   7.091 -1.9511 -0.3829  1.2265
 6859SOL    HW232037   0.761   4.719   7.141  0.7484 -1.7739  1.9009
 6860SOL     OW32038   1.124   1.236   3.772 -0.5111  0.2282 -0.1169
 6860SOL    HW132039   1.049   1.181   3.793  1.0585 -2.0187 -0.3424
 6860SOL    HW232040   1.186   1.196   3.833 -1.6137  0.0765  0.8915
 6861SOL     OW32041   3.370   4.521   9.242 -0.0874  0.2016 -0.6530
 6861SOL    HW132042   3.453   4.561   9.265  0.0366  0.5240 -1.6634
 6861SOL    HW232043   3.374   4.438   9.291 -0.9460 -0.2809 -1.4021
 6862SOL     OW32044   2.703   3.137   5.972  0.0303  0.4288  0.2869
 6862SOL    HW132045   2.790   3.099   5.963 -0.3602 -0.4588  0.2045
 6862SOL    HW232046   2.709   3.153   6.066 -2.3071  0.7228  0.3990
 6863SOL     OW32047   2.026   2.410  12.283 -0.5088  0.2486  0.5201
 6863SOL    HW132048   1.968   2.337  12.307  0.1034 -0.3763  0.0689
 6863SOL    HW232049   1.978   2.452  12.212 -1.4192  0.8362  1.4706
 6864SOL     OW32050   1.308   3.911  16.897 -0.2492  0.0549  0.1171
 6864SOL    HW132051   1.307   3.864  16.814 -0.3175  2.3201 -1.1684
 6864SOL    HW232052   1.311   3.837  16.958  1.7719 -0.4350 -0.5932
 6865SOL     OW32053   3.260   2.357   6.015  0.2419  0.5009  0.0468
 6865SOL    HW132054   3.300   2.401   6.090  1.3265  0.0037 -0.2381
 6865SOL    HW232055   3.283   2.422   5.948  0.6017 -2.1273 -2.3428
 6866SOL     OW32056   3.028   3.711   6.781  0.3688  0.2295  0.5091
 6866SOL    HW132057   3.122   3.696   6.797  1.0795  3.2697 -0.8571
 6866SOL    HW232058   3.018   3.683   6.690  1.5528  1.0533  0.1174
 6867SOL     OW32059   3.679   1.753   4.700 -0.3673  0.3959 -0.0766
 6867SOL    HW132060   3.656   1.694   4.628  2.9097 -1.9899  0.8462
 6867SOL    HW232061   3.772   1.735   4.714 -0.8603 -0.9578  1.4111
 6868SOL     OW32062   2.350   1.277   5.595  0.3604 -0.3201  0.1985
 6868SOL    HW132063   2.422   1.268   5.532 -0.6392 -0.3330 -0.9249
 6868SOL    HW232064   2.382   1.316   5.676  0.1276  0.1261  0.0751
 6869SOL     OW32065   3.549   1.176   8.900  0.1720 -0.4062  0.3073
 6869SOL    HW132066   3.505   1.105   8.853  1.1258 -0.8020  0.0090
 6869SOL    HW232067   3.606   1.136   8.966  0.7679 -0.8384 -0.4687
 6870SOL     OW32068   2.134   1.725   0.886  0.2369 -0.2216 -0.0211
 6870SOL    HW132069   2.223   1.693   0.873 -0.4483 -1.4844 -1.5543
 6870SOL    HW232070   2.116   1.699   0.976  0.6218 -1.4939 -0.3169
 6871SOL     OW32071   0.835   3.619  12.714  0.0845 -0.2800  0.2625
 6871SOL    HW132072   0.889   3.623  12.635  0.2812 -0.3778  0.3927
 6871SOL    HW232073   0.894   3.628  12.789 -0.0756 -2.9109  0.7261
 6872SOL     OW32074   4.680   0.887   4.262  0.1309  0.1505  0.0595
 6872SOL    HW132075   4.697   0.975   4.227  0.6965 -0.2397 -0.6300
 6872SOL    HW232076   0.027   0.881   4.328 -1.0373 -2.3214  1.0836
 6873SOL     OW32077   0.421   4.632   5.961  0.0288 -0.3739  0.1358
 6873SOL    HW132078   0.424   4.546   6.003 -0.8512 -0.3292  0.2906
 6873SOL    HW232079   0.399   4.611   5.870 -0.9370  2.1924 -0.2097
 6874SOL     OW32080   4.692   2.263   0.650  0.0328  0.6092  0.0500
 6874SOL    HW132081   4.631   2.229   0.715  2.0453  0.7197  1.9925
 6874SOL    HW232082   0.001   2.344   0.690 -1.7639  1.1410  0.4000
 6875SOL     OW32083   2.888   4.665   6.736  0.1907  0.1686 -0.5595
 6875SOL    HW132084   2.857   0.028   6.706  0.1132  0.9196  1.6995
 6875SOL    HW232085   2.801   4.632   6.760  0.7852 -0.4694  0.6945
 6876SOL     OW32086   0.336   2.611   5.516 -0.8966  0.1120  0.3320
 6876SOL    HW132087   0.427   2.627   5.491 -1.2275  1.0348 -0.2634
 6876SOL    HW232088   0.343   2.535   5.574  0.9772  0.4493  0.5446
 6877SOL     OW32089   2.230   0.488   0.390 -0.8009  0.6341  0.4922
 6877SOL    HW132090   2.166   0.456   0.326 -0.2995 -2.6580  1.6188
 6877SOL    HW232091   2.261   0.566   0.345 -0.2475  0.2536  0.2001
 6878SOL     OW32092   4.045   4.406   6.491 -0.2373  0.2433 -0.0688
 6878SOL    HW132093   4.008   4.465   6.426  3.7413  2.5620 -0.2162
 6878SOL    HW232094   4.128   4.386   6.449 -1.1136  0.3933 -1.8707
 6879SOL     OW32095   3.414   3.520   2.585 -0.1507  0.0108 -0.1025
 6879SOL    HW132096   3.505   3.496   2.600 -1.1835 -2.1547  2.7148
 6879SOL    HW232097   3.391   3.448   2.526 -0.0011 -0.1784  0.0695
 6880SOL     OW32098   0.134   0.271   2.313 -0.0718  0.1234  0.2137
 6880SOL    HW132099   0.061   0.208   2.315 -0.7484  0.9235  0.9440
 6880SOL    HW232100   0.140   0.294   2.406 -2.3818  1.4697  0.0433
 6881SOL     OW32101   0.865   2.834   6.459 -0.1598  0.4813 -0.0603
 6881SOL    HW132102   0.787   2.886   6.480 -1.1594 -0.3520 -1.7575
 6881SOL    HW232103   0.819   2.775   6.400 -0.5901  0.9181 -0.1648
 6882SOL     OW32104   3.943   1.672   4.629  0.5357  0.1544 -0.6599
 6882SOL    HW132105   4.001   1.596   4.633  1.3954  0.9315  1.7340
 6882SOL    HW232106   3.885   1.646   4.557  0.4420  1.6989 -1.1339
 6883SOL     OW32107   0.418   3.098   7.630 -0.5756 -0.3495 -0.5120
 6883SOL    HW132108   0.465   3.155   7.691 -3.9531  2.3863 -0.4294
 6883SOL    HW232109   0.345   3.072   7.687 -0.5116  2.2160  0.7150
 6884SOL     OW32110   4.316   1.868   7.015 -0.0611 -0.1497  0.1938
 6884SOL    HW132111   4.374   1.942   7.034 -1.7604  1.1274  0.4078
 6884SOL    HW232112   4.290   1.842   7.103 -1.3523 -0.3250 -0.2299
 6885SOL     OW32113   3.409   0.783   1.494 -0.1589 -0.0564  1.0062
 6885SOL    HW132114   3.321   0.819   1.510 -0.6257 -1.5961  1.8555
 6885SOL    HW232115   3.447   0.867   1.468 -0.0071 -0.1224  1.0214
 6886SOL     OW32116   3.530   1.921  11.433  0.0632  0.5426 -0.0621
 6886SOL    HW132117   3.478   1.945  11.356  4.0405  0.9320 -2.6373
 6886SOL    HW232118   3.468   1.857  11.468  0.5631 -0.0640 -0.2814
 6887SOL     OW32119   1.316   1.749   8.733 -0.3652 -0.2340 -0.0749
 6887SOL    HW132120   1.354   1.778   8.816  0.6550 -1.1895 -0.2152
 6887SOL    HW232121   1.347   1.658   8.729 -0.2402 -0.2066  0.2511
 6888SOL     OW32122   0.334   3.098   6.105  0.0255 -0.0266  0.0885
 6888SOL    HW132123   0.400   3.077   6.171 -0.0245 -0.0602  0.1281
 6888SOL    HW232124   0.303   3.184   6.136  0.4238 -0.1126  0.7233
 6889SOL     OW32125   3.655   1.848   9.945  0.0172  0.5907  0.0246
 6889SOL    HW132126   3.710   1.790   9.998 -0.0761  2.2369  1.8936
 6889SOL    HW232127   3.580   1.849  10.004  0.9185  0.0395  1.1921
 6890SOL     OW32128   2.878   1.508   0.800 -0.0452  0.1573 -0.0171
 6890SOL    HW132129   2.964   1.501   0.840 -0.7130 -1.0321  1.2278
 6890SOL    HW232130   2.894   1.486   0.708 -0.8092 -1.2537  0.1780
 6891SOL     OW32131   2.724   4.540   9.658 -0.2207  0.0902 -0.4605
 6891SOL    HW132132   2.783   4.465   9.668  1.4395  1.4883  0.1151
 6891SOL    HW232133   2.737   4.559   9.566  0.2777  1.9827  0.0036
 6892SOL     OW32134   4.357   1.286   5.188 -0.0475  0.0370  0.5684
 6892SOL    HW132135   4.450   1.267   5.181  0.3054  0.8267  3.5082
 6892SOL    HW232136   4.333   1.216   5.249  0.5181 -2.0258 -1.5819
 6893SOL     OW32137   1.367   4.213   7.620  0.3477 -0.4535  0.2094
 6893SOL    HW132138   1.279   4.245   7.599  0.7537 -0.7704 -2.0208
 6893SOL    HW232139   1.348   4.196   7.712  1.4544  1.6053  0.8080
 6894SOL     OW32140   1.611   3.322  13.595  0.1985  0.1862 -0.5919
 6894SOL    HW132141   1.558   3.286  13.524 -0.4491 -1.6578  0.8420
 6894SOL    HW232142   1.678   3.373  13.549  2.0749 -2.4211 -0.7658
 6895SOL     OW32143   2.089   4.278   2.341  0.3694 -0.4335  0.4234
 6895SOL    HW132144   2.077   4.318   2.428  0.2476 -1.0494  0.6891
 6895SOL    HW232145   2.003   4.238   2.324  1.1011 -1.1493 -1.4943
 6896SOL     OW32146   0.064   0.475  15.868  0.7275 -0.4427  0.0941
 6896SOL    HW132147   0.079   0.569  15.859 -1.3495  0.0208  1.6355
 6896SOL    HW232148   0.028   0.460  15.780  0.6579  0.9340 -0.1114
 6897SOL     OW32149   0.936   1.999  10.972 -1.0053 -0.1909  0.0890
 6897SOL    HW132150   0.960   2.075  10.920 -2.1347 -0.4036 -0.7532
 6897SOL    HW232151   0.881   1.955  10.906  0.8736 -1.0430 -0.9199
 6898SOL     OW32152   4.176   0.679   1.505  0.3502 -0.4203 -0.5049
 6898SOL    HW132153   4.226   0.615   1.556 -1.2884 -1.8068 -0.6295
 6898SOL    HW232154   4.179   0.757   1.561  1.1186  0.2730 -1.5105
 6899SOL     OW32155   4.299   1.619   0.946 -0.0179 -0.4837 -0.6736
 6899SOL    HW132156   4.387   1.585   0.965  0.4574  0.6558 -0.8641
 6899SOL    HW232157   4.238   1.596   1.016  0.4108  0.4321  0.0079
 6900SOL     OW32158   0.989   0.230   6.081  0.9920 -0.2986 -0.0747
 6900SOL    HW132159   0.950   0.235   6.168  1.1386  2.7420 -0.1924
 6900SOL    HW232160   0.916   0.204   6.024  0.4417 -0.1875  0.5885
 6901SOL     OW32161   1.548   4.517  11.450 -0.4085 -0.0362  0.1137
 6901SOL    HW132162   1.629   4.553  11.413 -0.9547  1.8747  0.7824
 6901SOL    HW232163   1.479   4.572  11.414  1.8187  2.3382 -0.4921
 6902SOL     OW32164   0.528   1.233   6.908 -0.2101 -0.5432  0.1837
 6902SOL    HW132165   0.513   1.169   6.978 -0.0810 -0.5047  0.2464
 6902SOL    HW232166   0.591   1.297   6.943 -1.3042 -0.1992  1.5541
 6903SOL     OW32167   1.215   0.598   8.477  0.4594  0.6705  0.5331
 6903SOL    HW132168   1.224   0.585   8.382 -1.9420  0.3406  0.3412
 6903SOL    HW232169   1.294   0.639   8.510  1.8825 -3.8420  2.8107
 6904SOL     OW32170   2.892   2.792   5.228  0.0308 -0.5296 -0.0420
 6904SOL    HW132171   2.805   2.770   5.262 -0.1532 -0.5680 -0.5382
 6904SOL    HW232172   2.915   2.850   5.301  1.0384 -0.2550 -0.5742
 6905SOL     OW32173   2.564   0.363   3.652 -0.3661  0.3368 -0.7123
 6905SOL    HW132174   2.645   0.335   3.695 -0.5944  1.1707  0.2690
 6905SOL    HW232175   2.525   0.413   3.725  0.8726  1.3384 -0.7423
 6906SOL     OW32176   3.225   0.033   2.269  0.0418  0.3726  0.1535
 6906SOL    HW132177   3.292   0.081   2.317  0.6496 -1.1565  0.8374
 6906SOL    HW232178   3.150   0.082   2.305  0.5234  2.6027 -1.8583
 6907SOL     OW32179   2.325   2.063   8.736  0.4528 -0.0915  0.3357
 6907SOL    HW132180   2.337   2.128   8.805  0.3404 -0.8945  1.1083
 6907SOL    HW232181   2.397   2.091   8.679  0.0982  1.0747  0.4589
 6908SOL     OW32182   2.791   4.313   5.141  0.3400 -0.5885  0.2609
 6908SOL    HW132183   2.863   4.315   5.203  1.5029 -0.8832 -1.0679
 6908SOL    HW232184   2.783   4.218   5.135  5.3300 -0.9722 -0.0970
 6909SOL     OW32185   4.686   2.063   8.622  0.6198  0.5423  0.6548
 6909SOL    HW132186   4.665   2.156   8.627  0.0219  0.4439 -0.1643
 6909SOL    HW232187   4.609   2.026   8.664  0.7987 -0.4847  0.0649
 6910SOL     OW32188   3.742   1.069   8.197 -1.0723  0.4007 -0.4857
 6910SOL    HW132189   3.736   1.009   8.123  0.6408 -0.6302  0.2223
 6910SOL    HW232190   3.661   1.046   8.243 -1.0908  0.6039 -0.4143
 6911SOL     OW32191   2.681   0.121   4.170 -0.0539 -0.4278  0.2186
 6911SOL    HW132192   2.691   0.210   4.202  1.2397  0.1115 -1.7105
 6911SOL    HW232193   2.737   0.066   4.225 -1.8711 -2.6832 -0.1620
 6912SOL     OW32194   3.791   0.210   2.243 -0.3987 -0.4874 -0.6121
 6912SOL    HW132195   3.813   0.224   2.335  0.4549  1.0114 -1.0329
 6912SOL    HW232196   3.758   0.299   2.225  0.8899  0.7648  3.2461
 6913SOL     OW32197   0.844   0.955  14.727 -0.2724  0.1907  0.1573
 6913SOL    HW132198   0.788   0.919  14.796 -0.2127 -1.0410 -0.4302
 6913SOL    HW232199   0.933   0.924  14.744  0.2354  2.3139  1.4366
 6914SOL     OW32200   0.320   2.009   8.205  0.0247 -0.2232 -0.3838
 6914SOL    HW132201   0.357   2.074   8.265  0.2769  0.1396 -0.9285
 6914SOL    HW232202   0.244   1.983   8.257  1.8587 -2.3248  1.2220
 6915SOL     OW32203   3.087   3.911   8.104  0.2055  0.2281  0.0156
 6915SOL    HW132204   3.126   3.824   8.094  0.1294  0.0608  1.2676
 6915SOL    HW232205   2.998   3.901   8.070  0.8492 -0.7821 -1.3867
 6916SOL     OW32206   3.111   4.069  17.546 -0.1167  0.5609 -0.9855
 6916SOL    HW132207   3.026   4.032  17.520  0.1697  0.1492 -1.3408
 6916SOL    HW232208   3.102   4.164  17.551 -3.4311  0.3084 -1.7800
 6917SOL     OW32209   1.328   1.479   7.971  0.2243 -0.4670  0.2161
 6917SOL    HW132210   1.373   1.406   8.014  1.4046 -0.3216 -0.7469
 6917SOL    HW232211   1.238   1.451   7.984 -0.5426  0.5416 -2.9323
 6918SOL     OW32212   3.002   4.239  10.737  0.0211  0.3146 -0.4989
 6918SOL    HW132213   2.996   4.334  10.727  1.6515  0.6166  1.3713
 6918SOL    HW232214   3.094   4.224  10.715  0.3724  0.4229  0.9474
 6919SOL     OW32215   0.802   4.255   4.711 -0.4655  0.1668  0.7081
 6919SOL    HW132216   0.720   4.281   4.753 -1.0667 -1.2117  0.3790
 6919SOL    HW232217   0.789   4.179   4.655  0.3426  0.6557 -0.1416
 6920SOL     OW32218   3.205   2.031   1.333 -0.4261 -0.3228 -0.2056
 6920SOL    HW132219   3.173   1.942   1.318 -0.6174 -0.3662  0.4223
 6920SOL    HW232220   3.123   2.074   1.358 -0.4658  0.3587 -1.5068
 6921SOL     OW32221   2.304   2.825   0.755  0.0264  0.1838  0.0403
 6921SOL    HW132222   2.287   2.883   0.681  1.6402 -2.4219 -2.3848
 6921SOL    HW232223   2.249   2.863   0.824 -0.6102 -1.0531  0.2216
 6922SOL     OW32224   2.611   0.437   9.900  0.1701 -1.1052  0.6396
 6922SOL    HW132225   2.689   0.469   9.946  0.3324 -0.7389  0.1000
 6922SOL    HW232226   2.641   0.455   9.811 -0.1468 -1.0429  0.5469
 6923SOL     OW32227   2.356   0.458   5.951 -0.0493 -0.5974  0.3010
 6923SOL    HW132228   2.419   0.432   6.018  0.8836 -1.6415 -1.0079
 6923SOL    HW232229   2.337   0.542   5.993  0.2578 -0.0473 -0.6585
 6924SOL     OW32230   0.294   4.041  10.160 -0.1183 -0.7397  0.3860
 6924SOL    HW132231   0.337   4.124  10.138 -1.7829  0.4728  1.6414
 6924SOL    HW232232   0.240   4.019  10.084 -0.0078  2.6862 -0.7017
 6925SOL     OW32233   1.758   3.997   5.357  0.5107  0.2374 -0.0854
 6925SOL    HW132234   1.676   3.999   5.308 -0.2457  2.4241  1.2496
 6925SOL    HW232235   1.725   4.015   5.445 -2.7816 -1.2019 -1.0404
 6926SOL     OW32236   3.244   0.296   1.092  0.0958 -0.1277 -0.4375
 6926SOL    HW132237   3.222   0.328   1.004  0.6165 -1.5106 -1.0621
 6926SOL    HW232238   3.338   0.310   1.091  0.1662 -0.6066 -0.1237
 6927SOL     OW32239   0.835   4.349  11.675  0.1557 -0.1303  0.4838
 6927SOL    HW132240   0.782   4.388  11.745  0.3817  1.3371 -0.1698
 6927SOL    HW232241   0.772   4.284  11.642  2.4998 -1.3333 -1.5937
 6928SOL     OW32242   0.143   3.813   4.843 -0.1500  0.3876 -0.4960
 6928SOL    HW132243   0.075   3.818   4.910 -1.1837  1.6913 -1.6667
 6928SOL    HW232244   0.084   3.812   4.768 -2.0507  3.7072  0.9415
 6929SOL     OW32245   2.873   0.773   0.852  0.2191  0.4730  0.0492
 6929SOL    HW132246   2.783   0.768   0.884 -0.1961 -2.5820 -1.4869
 6929SOL    HW232247   2.854   0.795   0.761  1.2718  0.2184 -0.2360
 6930SOL     OW32248   3.966   2.957  10.698 -0.0841  0.6893  0.1952
 6930SOL    HW132249   4.007   3.029  10.746 -0.8083  2.3616 -1.6854
 6930SOL    HW232250   3.960   2.982  10.605 -0.2834  0.9544  0.2807
 6931SOL     OW32251   1.834   3.315   7.571 -0.1592 -0.2083 -0.0433
 6931SOL    HW132252   1.912   3.338   7.520  0.2534 -2.5941 -0.4791
 6931SOL    HW232253   1.860   3.224   7.581 -1.2175 -1.1260 -5.3726
 6932SOL     OW32254   4.699   0.331   1.403  0.3967  0.4983  0.3776
 6932SOL    HW132255   4.705   0.370   1.316 -1.6896 -0.1631 -0.0529
 6932SOL    HW232256   0.069   0.306   1.404  0.1476 -0.4696 -1.2844
 6933SOL     OW32257   2.751   2.973   1.463 -0.0723  0.0772  0.1635
 6933SOL    HW132258   2.669   2.925   1.453 -0.7232  1.1259  0.4299
 6933SOL    HW232259   2.731   3.052   1.513 -0.6690 -0.2705  0.4825
 6934SOL     OW32260   0.431   3.089   3.310  0.0016  0.2108 -0.0896
 6934SOL    HW132261   0.467   3.173   3.281  0.3566  0.7417  1.8564
 6934SOL    HW232262   0.387   3.118   3.390  0.0392 -0.7433  0.2734
 6935SOL     OW32263   2.420   0.590  11.646 -0.1253 -0.1984  0.2938
 6935SOL    HW132264   2.374   0.610  11.728 -1.6132 -1.8435 -0.1603
 6935SOL    HW232265   2.481   0.530  11.689  0.0335 -1.7510 -2.1260
 6936SOL     OW32266   4.158   4.158   5.238  0.2146  0.3858  0.1077
 6936SOL    HW132267   4.178   4.251   5.246  1.7230  0.1998 -1.5151
 6936SOL    HW232268   4.068   4.155   5.270  0.6224  2.3396  1.4258
 6937SOL     OW32269   3.668   2.023   0.724 -0.8705  0.4430  0.1272
 6937SOL    HW132270   3.731   1.968   0.677  0.6221  2.7029 -0.5505
 6937SOL    HW232271   3.700   2.036   0.814  1.1585  1.2668 -0.7027
 6938SOL     OW32272   3.209   3.722   8.577  0.2897  0.8838  0.2251
 6938SOL    HW132273   3.230   3.726   8.484 -1.0845 -5.4783 -0.3633
 6938SOL    HW232274   3.179   3.813   8.581 -2.6243 -0.0608 -0.1807
 6939SOL     OW32275   0.177   0.905   6.134 -0.4114  0.1683 -0.0116
 6939SOL    HW132276   0.257   0.947   6.102 -0.1638 -0.8286 -0.7378
 6939SOL    HW232277   0.139   0.982   6.175  0.4180 -0.1052  1.2685
 6940SOL     OW32278   2.862   4.520   8.509  0.1243  0.8775  0.0537
 6940SOL    HW132279   2.956   4.502   8.505  0.2532  1.9510 -1.4185
 6940SOL    HW232280   2.861   4.564   8.594  3.2754 -0.4960  0.7846
 6941SOL     OW32281   0.969   3.602   7.606  0.1164  0.1095 -0.0805
 6941SOL    HW132282   1.045   3.604   7.664 -0.4760  1.0524  0.6671
 6941SOL    HW232283   1.001   3.544   7.538  2.1876  0.4571  0.5986
 6942SOL     OW32284   2.313   0.998   6.436  0.0549 -0.5493 -0.1157
 6942SOL    HW132285   2.358   1.001   6.521  1.6006 -0.9718 -0.9082
 6942SOL    HW232286   2.280   1.087   6.437  2.5366  0.3806  0.4666
 6943SOL     OW32287   2.947   3.622  17.590  0.1678  0.2382 -0.2782
 6943SOL    HW132288   2.921   3.696  17.646 -3.4688 -0.7263 -0.6817
 6943SOL    HW232289   2.964   3.553  17.654  1.7622  0.2037 -0.7530
 6944SOL     OW32290   3.277   3.130   6.504  0.1898 -0.1765 -0.1027
 6944SOL    HW132291   3.311   3.204   6.555  1.1164 -0.1538 -0.7411
 6944SOL    HW232292   3.183   3.140   6.520  0.4277  1.1419  0.4852
 6945SOL     OW32293   3.505   0.242   5.725 -0.2294 -0.3444 -0.7009
 6945SOL    HW132294   3.589   0.207   5.756  0.1293 -0.1717 -1.4516
 6945SOL    HW232295   3.456   0.259   5.805 -0.5447 -0.5342 -0.8548
 6946SOL     OW32296   4.297   1.375   6.390  0.0718 -0.2193  0.3004
 6946SOL    HW132297   4.348   1.339   6.317  1.4967 -1.5880  1.9760
 6946SOL    HW232298   4.250   1.446   6.345  0.9385  0.4805  0.4930
 6947SOL     OW32299   4.162   0.092   3.818  0.0487 -0.5934 -0.3882
 6947SOL    HW132300   4.257   0.098   3.823 -0.0225  0.3030 -0.0395
 6947SOL    HW232301   4.130   0.132   3.899  0.4386 -1.7926  0.3649
 6948SOL     OW32302   1.968   1.031   4.571 -0.2816 -0.0521  0.2166
 6948SOL    HW132303   1.925   0.945   4.568 -2.7504  1.1716  0.6171
 6948SOL    HW232304   1.962   1.063   4.661  2.2554  2.9720 -0.7272
 6949SOL     OW32305   3.448   2.095   3.283 -0.6349  0.1251  0.3738
 6949SOL    HW132306   3.418   2.100   3.192  1.5510 -0.2147 -0.3657
 6949SOL    HW232307   3.372   2.130   3.328 -1.3990 -0.5357 -0.4009
 6950SOL     OW32308   3.528   3.007   7.715 -0.9254 -0.5540  0.6280
 6950SOL    HW132309   3.524   2.932   7.774 -0.8752 -1.3296 -0.3519
 6950SOL    HW232310   3.494   2.967   7.635  2.0140  0.1850 -0.9810
 6951SOL     OW32311   3.520   0.681   7.013 -0.1264  0.1801 -0.7345
 6951SOL    HW132312   3.600   0.629   7.016 -1.0008 -1.1869 -0.7278
 6951SOL    HW232313   3.496   0.669   7.105  2.7512 -0.2176 -0.0546
 6952SOL     OW32314   4.174   0.274  16.052  0.0617 -0.0330 -0.7398
 6952SOL    HW132315   4.247   0.242  16.105  0.3678 -1.5074 -2.0504
 6952SOL    HW232316   4.111   0.300  16.118  1.1224  0.9901 -0.1348
 6953SOL     OW32317   0.646   1.682  13.152  0.1108 -0.2308  0.6166
 6953SOL    HW132318   0.684   1.630  13.081 -0.1485 -2.8362  2.3826
 6953SOL    HW232319   0.709   1.647  13.214  0.3065 -1.5852 -0.3303
 6954SOL     OW32320   3.898   3.736   3.811  0.4304  0.0850  0.4670
 6954SOL    HW132321   3.881   3.676   3.883  0.5342 -2.4765 -1.6590
 6954SOL    HW232322   3.870   3.688   3.733  1.1954 -1.7990  1.3702
 6955SOL     OW32323   0.132   1.613  14.984 -0.1151  0.2032 -0.2173
 6955SOL    HW132324   0.114   1.564  15.064 -0.9042 -0.6954 -0.9509
 6955SOL    HW232325   0.204   1.561  14.948 -0.5549 -1.8220  1.8310
 6956SOL     OW32326   4.249   4.717  14.377 -0.4261  0.5703  0.1889
 6956SOL    HW132327   4.284   4.659  14.309 -0.9055  2.1585 -1.3966
 6956SOL    HW232328   4.231   4.652  14.445  1.2536 -1.0441 -0.9036
 6957SOL     OW32329   1.414   3.751   0.253  0.5150 -0.2295 -0.2474
 6957SOL    HW132330   1.489   3.767   0.309 -0.5421  3.5528  0.1180
 6957SOL    HW232331   1.385   3.665   0.282  1.1752 -0.6266 -0.7863
 6958SOL     OW32332   0.371   4.189   4.378  0.2157 -0.1052 -0.0733
 6958SOL    HW132333   0.292   4.242   4.389 -0.8052 -1.6130 -0.2457
 6958SOL    HW232334   0.354   4.112   4.432 -1.8893 -0.4828 -1.2843
 6959SOL     OW32335   1.814   3.739   8.629 -0.5186  0.0672  0.4563
 6959SOL    HW132336   1.825   3.824   8.671 -0.3188 -0.7592  2.0801
 6959SOL    HW232337   1.726   3.754   8.593  0.3303  2.4429 -0.5896
 6960SOL     OW32338   3.620   3.786   7.844  0.3833 -0.2952 -0.3325
 6960SOL    HW132339   3.597   3.693   7.841 -0.8186  0.0858 -2.3831
 6960SOL    HW232340   3.549   3.821   7.898 -1.8464 -0.8251 -2.9543
 6961SOL     OW32341   3.780   0.685   8.168  0.1465  0.3272 -0.3898
 6961SOL    HW132342   3.771   0.724   8.254 -4.2383  1.3189 -1.3027
 6961SOL    HW232343   3.758   0.592   8.171 -0.9615  0.5786 -0.7565
 6962SOL     OW32344   2.768   3.160   5.444  0.5930 -0.1090 -0.4633
 6962SOL    HW132345   2.809   3.246   5.453  0.3546  0.1541 -1.7741
 6962SOL    HW232346   2.731   3.153   5.356  2.2882  0.9725 -1.2681
 6963SOL     OW32347   1.288   1.542  11.791  0.9853 -0.0772 -0.2272
 6963SOL    HW132348   1.295   1.491  11.710 -0.1900  0.3942 -0.6269
 6963SOL    HW232349   1.382   1.551  11.806  1.3966 -3.8556 -0.4538
 6964SOL     OW32350   4.124   2.394   2.931  0.1455  0.2993 -0.2484
 6964SOL    HW132351   4.208   2.435   2.911  1.5733 -2.3190  0.3800
 6964SOL    HW232352   4.106   2.361   2.843  3.9981 -1.6489 -0.3257
 6965SOL     OW32353   3.281   4.059   2.932 -0.1254  0.1385  0.1103
 6965SOL    HW132354   3.311   4.111   3.007  0.0612 -0.8474  0.7245
 6965SOL    HW232355   3.192   4.092   2.919  1.0334  2.7482 -1.3206
 6966SOL     OW32356   0.326   4.513   5.228 -0.2060 -0.2476  0.2631
 6966SOL    HW132357   0.306   4.606   5.231 -0.9589 -0.3969 -0.1760
 6966SOL    HW232358   0.415   4.507   5.265 -0.4843  1.3816  1.2096
 6967SOL     OW32359   4.566   0.373   6.712  0.1922  0.7172  0.1203
 6967SOL    HW132360   4.628   0.307   6.680 -0.4820 -0.7510  1.7764
 6967SOL    HW232361   4.493   0.346   6.657  1.7678 -3.0932 -0.0840
 6968SOL     OW32362   3.520   4.107   6.839  0.1526 -0.2870  0.4439
 6968SOL    HW132363   3.560   4.090   6.754  0.4804 -1.0812  0.7589
 6968SOL    HW232364   3.478   4.024   6.860 -2.5292  0.7097 -0.9109
 6969SOL     OW32365   2.218   4.536   2.544  0.5422 -0.3708 -0.4338
 6969SOL    HW132366   2.252   4.467   2.601  0.1223 -0.8530 -0.7641
 6969SOL    HW232367   2.180   4.584   2.618  1.2836  3.3364 -2.4625
 6970SOL     OW32368   0.942   1.036   6.175 -0.3658  0.6699 -0.1947
 6970SOL    HW132369   0.946   1.014   6.267 -2.5900  0.1439 -0.2429
 6970SOL    HW232370   0.989   1.120   6.181  0.3297  0.3137 -0.6620
 6971SOL     OW32371   1.072   3.493   8.513 -0.1851  0.1628 -0.2382
 6971SOL    HW132372   1.128   3.448   8.450  0.2129  0.2895  0.0221
 6971SOL    HW232373   0.980   3.475   8.491 -0.7033  1.1357  1.0967
 6972SOL     OW32374   4.214   1.839   3.334  0.4236  0.1990  0.4635
 6972SOL    HW132375   4.306   1.821   3.313 -0.2005  0.1915 -2.3173
 6972SOL    HW232376   4.182   1.752   3.357 -1.4956  0.3151 -1.7670
 6973SOL     OW32377   2.513   1.219   8.036 -0.2826 -0.1848  0.0120
 6973SOL    HW132378   2.530   1.228   7.942  1.7620 -2.3236  0.1968
 6973SOL    HW232379   2.561   1.139   8.058  1.2566  0.5824 -0.6167
 6974SOL     OW32380   3.278   2.711   7.985  0.0982 -0.1772 -0.5147
 6974SOL    HW132381   3.288   2.727   8.078 -0.9309  0.4022 -0.5019
 6974SOL    HW232382   3.371   2.711   7.966 -0.0308 -0.0332 -1.1452
 6975SOL     OW32383   0.205   4.289   8.092 -0.2351 -0.0730  0.3411
 6975SOL    HW132384   0.258   4.292   8.172  2.1518 -1.1519 -1.2016
 6975SOL    HW232385   0.117   4.285   8.131 -0.2112  2.4127  0.6464
 6976SOL     OW32386   3.434   1.769   1.234 -0.1908 -0.0288 -0.3017
 6976SOL    HW132387   3.474   1.841   1.283 -0.9009  0.1183  0.0579
 6976SOL    HW232388   3.356   1.817   1.206 -0.3994 -0.4340 -0.4150
 6977SOL     OW32389   1.066   3.196   7.384  0.1365 -0.3815 -0.2980
 6977SOL    HW132390   1.061   3.189   7.480  0.7282  1.0595 -0.1467
 6977SOL    HW232391   0.983   3.238   7.361 -0.0750 -1.0639 -0.7563
 6978SOL     OW32392   1.282   4.077   3.400 -0.0489 -0.2038  0.5823
 6978SOL    HW132393   1.360   4.040   3.441  0.7623  1.5201  0.5893
 6978SOL    HW232394   1.308   4.129   3.324 -1.5336  0.6184  0.6429
 6979SOL     OW32395   3.293   3.026   5.523 -0.2552 -0.2927 -0.0747
 6979SOL    HW132396   3.290   2.931   5.532  0.3798 -0.1276  1.9189
 6979SOL    HW232397   3.372   3.062   5.564 -1.2552  0.4418  1.2547
 6980SOL     OW32398   0.262   2.756   9.754  0.3195  0.2427  0.0192
 6980SOL    HW132399   0.267   2.677   9.700 -1.9482  0.1488 -0.0625
 6980SOL    HW232400   0.351   2.789   9.746  0.2765 -0.1117 -1.8750
 6981SOL     OW32401   3.187   0.265   1.909  0.6062 -0.1055 -0.1196
 6981SOL    HW132402   3.170   0.289   1.818 -0.2092  1.5076  0.4602
 6981SOL    HW232403   3.283   0.265   1.916  0.6522  3.5118 -1.0554
 6982SOL     OW32404   3.088   1.661   8.323  0.4197 -0.0136 -0.1868
 6982SOL    HW132405   3.045   1.615   8.395 -1.5583 -0.2827 -1.5382
 6982SOL    HW232406   3.027   1.649   8.251 -0.9824  0.5909  0.9165
 6983SOL     OW32407   1.285   0.432   4.410 -0.0407 -0.5767  0.3922
 6983SOL    HW132408   1.295   0.443   4.315 -0.4170 -0.4408  0.3693
 6983SOL    HW232409   1.229   0.356   4.422 -1.2286  0.5718  2.0205
 6984SOL     OW32410   1.944   1.319   5.254  0.2646  0.4395 -0.4924
 6984SOL    HW132411   1.952   1.224   5.240  0.8361  0.4460 -0.2123
 6984SOL    HW232412   1.888   1.341   5.179 -0.6205 -0.8996 -0.2319
 6985SOL     OW32413   1.367   3.311   7.022  0.1061 -0.0312  0.0368
 6985SOL    HW132414   1.275   3.333   7.007  0.6138 -0.2380 -3.5239
 6985SOL    HW232415   1.357   3.287   7.114 -0.3066 -0.3752 -0.1011
 6986SOL     OW32416   1.904   3.509   7.207  0.5165  0.4184 -0.4683
 6986SOL    HW132417   1.826   3.489   7.258  0.6753 -0.6996 -0.6648
 6986SOL    HW232418   1.949   3.425   7.195 -2.0209 -1.3717  2.5755
 6987SOL     OW32419   1.412   1.957   3.098 -0.0604  0.2347 -0.3449
 6987SOL    HW132420   1.409   1.895   3.171 -0.9223 -0.1413 -0.6896
 6987SOL    HW232421   1.483   2.013   3.128 -1.7609  2.0392  0.3846
 6988SOL     OW32422   0.655   1.411   4.869 -0.0576  0.8744 -0.1405
 6988SOL    HW132423   0.664   1.475   4.798  3.3862 -0.2140 -0.6946
 6988SOL    HW232424   0.591   1.352   4.828  0.0489  0.0373  0.9166
 6989SOL     OW32425   4.706   1.552   2.351  0.2828 -0.2054 -0.3081
 6989SOL    HW132426   0.077   1.565   2.366  0.0569 -0.9229  1.7163
 6989SOL    HW232427   4.698   1.568   2.257 -1.3487  0.0932 -0.1214
 6990SOL     OW32428   3.409   0.797   2.635 -0.4132 -0.0321  0.6586
 6990SOL    HW132429   3.448   0.870   2.682  1.1125  0.2627 -1.0769
 6990SOL    HW232430   3.426   0.831   2.548 -0.0271 -0.3734  0.5973
 6991SOL     OW32431   2.907   1.687  15.041  0.5494 -0.1434  0.5357
 6991SOL    HW132432   2.849   1.639  15.100  2.6411 -1.8274  1.2128
 6991SOL    HW232433   2.865   1.668  14.957  0.4068  0.0212  0.5678
 6992SOL     OW32434   0.405   3.286   6.521 -0.0745  0.0282 -0.2955
 6992SOL    HW132435   0.384   3.192   6.520 -0.9134  0.2198 -0.2985
 6992SOL    HW232436   0.316   3.313   6.542  1.2555  1.4288  3.5709
 6993SOL     OW32437   2.257   0.614   7.655  0.6028  0.0183  0.0384
 6993SOL    HW132438   2.314   0.590   7.728 -0.4670  0.0541  0.8947
 6993SOL    HW232439   2.176   0.649   7.694 -0.9403 -1.4273 -1.8656
 6994SOL     OW32440   3.215   4.681   7.131 -0.5038  0.0962 -0.4402
 6994SOL    HW132441   3.244   4.604   7.180 -1.7764  1.0893  1.8270
 6994SOL    HW232442   3.130   4.644   7.109  0.6986 -2.6110 -0.5578
 6995SOL     OW32443   0.223   0.821  16.824  0.6151  0.1934  0.0831
 6995SOL    HW132444   0.202   0.728  16.813 -1.0869  0.6837 -0.8065
 6995SOL    HW232445   0.315   0.827  16.800  0.6445 -2.6725 -0.5552
 6996SOL     OW32446   1.170   0.038  11.026  0.1997 -0.2808 -0.0112
 6996SOL    HW132447   1.215   0.123  11.030  1.0179 -0.8310  2.7963
 6996SOL    HW232448   1.228   4.713  11.085 -2.9799 -2.1076  1.6401
 6997SOL     OW32449   1.292   0.329  16.103  0.0616  0.1370  0.5132
 6997SOL    HW132450   1.215   0.386  16.100 -0.5635 -0.7888 -1.7316
 6997SOL    HW232451   1.251   0.250  16.068  0.2747  0.8922 -1.4822
 6998SOL     OW32452   4.483   0.515   7.775  0.5875 -0.3335  0.2274
 6998SOL    HW132453   4.537   0.589   7.745 -1.4888 -0.1134 -2.9687
 6998SOL    HW232454   4.443   0.568   7.845  0.7985  0.1843 -0.0412
 6999SOL     OW32455   3.926   0.148   9.538 -1.0787 -0.2562  0.2092
 6999SOL    HW132456   3.839   0.132   9.574 -1.0792 -0.8210 -0.0573
 6999SOL    HW232457   3.931   0.068   9.487 -1.4235  0.3051 -0.7086
 7000SOL     OW32458   1.880   0.537  15.385  0.6153  0.3823 -0.2132
 7000SOL    HW132459   1.882   0.616  15.439  0.1024  0.6753 -0.6272
 7000SOL    HW232460   1.942   0.484  15.436  0.6718  0.7722  0.1227
 7001SOL     OW32461   1.226   0.910   9.473 -0.3685 -0.1039 -0.3002
 7001SOL    HW132462   1.211   0.978   9.408  0.0619 -0.3266 -0.6319
 7001SOL    HW232463   1.174   0.839   9.436  1.7020 -1.1716 -1.1770
 7002SOL     OW32464   2.946   3.225   6.456 -0.1981  0.0871  0.3774
 7002SOL    HW132465   2.915   3.138   6.482 -1.6296  1.1508  2.2041
 7002SOL    HW232466   2.959   3.273   6.537 -0.1689 -1.6303  1.3843
 7003SOL     OW32467   4.330   3.566   6.284 -0.9134  0.2737 -0.3323
 7003SOL    HW132468   4.285   3.631   6.230 -0.4278  0.8597 -0.0343
 7003SOL    HW232469   4.398   3.628   6.311  0.6290 -2.0801  1.1291
 7004SOL     OW32470   1.066   2.406   2.370 -0.3049 -0.5669 -0.3346
 7004SOL    HW132471   1.047   2.349   2.444  2.7616 -0.6252  0.4241
 7004SOL    HW232472   1.118   2.481   2.397  0.3588 -1.6867  1.4799
 7005SOL     OW32473   1.589   1.823   5.986 -0.2735 -0.1649  0.0888
 7005SOL    HW132474   1.651   1.874   5.934 -1.1920  0.5457 -0.3166
 7005SOL    HW232475   1.590   1.735   5.946  0.7800  0.6322 -1.6556
 7006SOL     OW32476   2.402   4.525   5.853  0.1306  0.2306  0.6805
 7006SOL    HW132477   2.479   4.582   5.856  0.9050 -0.8195  0.6363
 7006SOL    HW232478   2.329   4.586   5.849  1.6514  2.0052 -0.1288
 7007SOL     OW32479   0.672   4.106   5.238  0.4717 -0.4684 -0.3895
 7007SOL    HW132480   0.724   4.175   5.196  0.2507  0.0185  0.1434
 7007SOL    HW232481   0.721   4.111   5.321 -0.6748 -1.1020  0.3261
 7008SOL     OW32482   0.272   4.029   4.566  0.2117  0.1169 -0.2110
 7008SOL    HW132483   0.227   4.092   4.622  1.7029 -0.8924  2.1214
 7008SOL    HW232484   0.291   3.960   4.631 -0.3104  0.3816  0.2173
 7009SOL     OW32485   3.708   1.334   2.100 -0.0517 -0.4285 -0.4474
 7009SOL    HW132486   3.621   1.352   2.134 -0.2077 -1.0402 -0.5316
 7009SOL    HW232487   3.760   1.310   2.177 -0.9291 -0.0861  0.2480
 7010SOL     OW32488   3.287   1.717   9.011  0.0510 -0.0388  0.6055
 7010SOL    HW132489   3.257   1.776   9.081  0.1095 -0.5083  1.0222
 7010SOL    HW232490   3.343   1.655   9.058 -0.1017  0.9978  2.1532
 7011SOL     OW32491   2.926   2.804   5.920  0.1078 -0.1320  0.0949
 7011SOL    HW132492   2.940   2.782   6.012  1.1195  0.4723  0.0884
 7011SOL    HW232493   2.975   2.735   5.876 -0.7547 -1.4604  1.2341
 7012SOL     OW32494   2.311   1.528   8.963 -0.3761  0.0230  0.0291
 7012SOL    HW132495   2.366   1.606   8.950  3.7885 -3.3437 -2.5704
 7012SOL    HW232496   2.315   1.518   9.058  1.9267 -1.8463 -0.2537
 7013SOL     OW32497   4.423   4.671   1.200  0.0594 -0.0888 -0.4479
 7013SOL    HW132498   4.364   4.651   1.273  1.8134  0.4473  1.0953
 7013SOL    HW232499   4.511   4.669   1.238 -0.0437 -1.0664 -0.2493
 7014SOL     OW32500   2.422   4.004   5.373 -0.7501  0.4220  0.2957
 7014SOL    HW132501   2.504   4.046   5.399  0.0821 -1.9516  1.5332
 7014SOL    HW232502   2.459   3.921   5.342 -0.7064  1.6799 -3.0347
 7015SOL     OW32503   0.077   0.841  11.119 -0.1600  0.6691  0.4429
 7015SOL    HW132504   0.124   0.898  11.180 -0.3633  1.4752 -0.1533
 7015SOL    HW232505   0.108   0.760  11.160 -0.9792 -1.6586 -3.4776
 7016SOL     OW32506   2.925   3.984  11.627  0.2239 -0.3459  0.5451
 7016SOL    HW132507   2.900   4.070  11.593 -0.3527 -1.4011 -1.7096
 7016SOL    HW232508   2.841   3.946  11.653  0.9893 -1.5121  1.2987
 7017SOL     OW32509   1.539   0.538   4.456 -0.4643 -0.1086  0.2762
 7017SOL    HW132510   1.580   0.466   4.408 -2.0654 -0.4681 -0.5482
 7017SOL    HW232511   1.449   0.509   4.466 -0.6355  0.4332  0.3358
 7018SOL     OW32512   3.707   4.580  13.168 -0.2566  0.3790 -0.1909
 7018SOL    HW132513   3.720   4.542  13.255 -1.9278 -0.9988 -0.5459
 7018SOL    HW232514   3.720   4.673  13.190 -4.0882  1.7734 -3.8679
 7019SOL     OW32515   1.964   0.116   4.200 -0.2896 -0.3130  0.0785
 7019SOL    HW132516   1.880   0.115   4.154  1.0886  0.3734 -2.4095
 7019SOL    HW232517   1.946   0.162   4.283  2.5246 -1.4683  1.3125
 7020SOL     OW32518   3.713   2.646   1.483 -0.0249  0.7892  0.3285
 7020SOL    HW132519   3.743   2.573   1.537 -0.0310  0.0752 -0.6194
 7020SOL    HW232520   3.635   2.672   1.533  0.2541  0.9577  0.6769
 7021SOL     OW32521   1.372   2.584  16.859  0.8020 -0.4397  0.4738
 7021SOL    HW132522   1.413   2.671  16.865 -0.5334  0.1866  0.5012
 7021SOL    HW232523   1.449   2.529  16.872  0.6750 -0.6378  0.3852
 7022SOL     OW32524   0.080   1.156   7.956 -0.0484 -0.2194  0.0455
 7022SOL    HW132525   0.113   1.097   7.889 -1.1331 -0.7095 -0.0540
 7022SOL    HW232526   0.155   1.217   7.955  0.0737 -0.3713 -0.4698
 7023SOL     OW32527   3.424   2.297   4.934 -0.3512 -0.1803  0.1915
 7023SOL    HW132528   3.496   2.268   4.878 -0.3003 -0.4192  0.3811
 7023SOL    HW232529   3.462   2.352   5.002 -0.4373  1.4255 -1.0713
 7024SOL     OW32530   2.264   3.147   4.382 -0.1377  0.7907 -0.7082
 7024SOL    HW132531   2.318   3.226   4.376  1.0036  0.1543  1.3215
 7024SOL    HW232532   2.203   3.163   4.454  0.0669  1.4533 -0.6827
 7025SOL     OW32533   3.779   0.142   5.712  0.5214  0.4286 -0.7441
 7025SOL    HW132534   3.823   0.097   5.785 -0.5542  0.2787 -0.1826
 7025SOL    HW232535   3.834   0.220   5.709 -1.1653  1.6589  0.6637
 7026SOL     OW32536   4.145   0.645   4.164 -0.6381  0.4108  0.0187
 7026SOL    HW132537   4.074   0.613   4.221  0.4966  1.1061  1.7853
 7026SOL    HW232538   4.221   0.608   4.209  0.2429  0.6378 -1.2976
 7027SOL     OW32539   3.515   0.582   1.969 -0.2004 -0.4296  0.1217
 7027SOL    HW132540   3.538   0.538   1.887  2.4276  2.0683 -0.4633
 7027SOL    HW232541   3.568   0.661   1.970  1.7389 -1.7265  0.5602
 7028SOL     OW32542   1.257   0.332   8.600 -0.3399 -0.0866  0.5013
 7028SOL    HW132543   1.240   0.423   8.574  0.8648 -0.7451 -2.4905
 7028SOL    HW232544   1.216   0.278   8.533 -2.2992 -0.7887  2.2307
 7029SOL     OW32545   0.638   3.731   6.487  0.3654  0.2319 -0.3558
 7029SOL    HW132546   0.571   3.682   6.534  1.2639 -0.6107  0.0432
 7029SOL    HW232547   0.687   3.773   6.557  0.6034 -0.9314  0.1722
 7030SOL     OW32548   0.228   0.700   7.178  0.1699 -0.6172  0.6585
 7030SOL    HW132549   0.160   0.641   7.210 -0.2414 -0.4697  0.0700
 7030SOL    HW232550   0.192   0.788   7.168  2.3848  0.1247 -0.7890
 7031SOL     OW32551   2.583   3.573   8.433 -0.5953  0.3804  0.3124
 7031SOL    HW132552   2.535   3.640   8.480  2.0649  0.4988  2.8728
 7031SOL    HW232553   2.571   3.492   8.482 -0.4810 -0.3862 -0.9071
 7032SOL     OW32554   1.104   0.838   4.100 -0.1695 -0.0882 -0.7271
 7032SOL    HW132555   1.169   0.769   4.092  0.2053  0.4694 -2.4986
 7032SOL    HW232556   1.027   0.810   4.050 -0.2773 -0.6264 -0.2586
 7033SOL     OW32557   2.972   3.073   5.935 -0.5988 -0.0062 -0.1905
 7033SOL    HW132558   2.956   2.981   5.917 -0.6951  0.2989 -1.6394
 7033SOL    HW232559   3.049   3.067   5.992 -1.5867  0.6966  1.2182
 7034SOL     OW32560   2.773   0.565  10.108 -1.1121  0.1855 -1.2396
 7034SOL    HW132561   2.835   0.603  10.046 -0.8048  1.1447 -0.3446
 7034SOL    HW232562   2.835   0.541  10.177 -1.9070  0.3946 -0.4518
 7035SOL     OW32563   2.958   1.167   2.306  0.4153 -0.2622  0.2737
 7035SOL    HW132564   3.028   1.102   2.308 -0.1161 -0.8167  0.5562
 7035SOL    HW232565   2.963   1.176   2.211  2.7650  0.2054  0.4389
 7036SOL     OW32566   3.840   3.003   2.857 -0.5430  0.6351 -0.4368
 7036SOL    HW132567   3.888   2.991   2.939 -0.0658  1.3429 -0.6142
 7036SOL    HW232568   3.780   2.929   2.857  0.3562 -0.1040 -5.4046
 7037SOL     OW32569   2.992   4.499   6.148 -0.2457  0.0505  0.1491
 7037SOL    HW132570   3.006   4.524   6.057 -1.2227  1.6251  0.4324
 7037SOL    HW232571   2.968   4.410   6.126  0.8065 -0.1873 -0.0399
 7038SOL     OW32572   4.504   0.745   1.787  0.2480 -0.5912 -0.0950
 7038SOL    HW132573   4.466   0.678   1.843 -1.1295  0.5158  0.2997
 7038SOL    HW232574   4.575   0.703   1.738 -1.4248 -1.5905 -1.6334
 7039SOL     OW32575   1.240   3.652   6.877  0.0294  0.1420 -0.1930
 7039SOL    HW132576   1.296   3.630   6.803 -1.1985 -0.9187 -0.8212
 7039SOL    HW232577   1.173   3.584   6.868 -0.3994  0.4118  0.9850
 7040SOL     OW32578   0.920   0.478   3.735  0.6603 -0.3956  0.3427
 7040SOL    HW132579   0.844   0.441   3.690  0.6148  1.9901 -1.5346
 7040SOL    HW232580   0.959   0.401   3.778 -3.1685 -2.6198 -0.1818
 7041SOL     OW32581   1.624   0.170   3.086 -0.2972  0.3301 -0.3946
 7041SOL    HW132582   1.584   0.084   3.096  0.1624 -0.2152 -3.1272
 7041SOL    HW232583   1.600   0.201   3.173  0.3496 -0.7600  0.1732
 7042SOL     OW32584   4.603   2.158   4.343  0.5768 -0.5420  0.5356
 7042SOL    HW132585   4.615   2.078   4.292  0.4320 -0.0450 -0.2756
 7042SOL    HW232586   4.602   2.217   4.268 -1.9978  0.0974  1.0764
 7043SOL     OW32587   4.680   1.761   5.393  0.0081  0.2691 -0.6022
 7043SOL    HW132588   4.716   1.765   5.481 -0.9088 -1.1960 -0.1455
 7043SOL    HW232589   4.704   1.674   5.359  1.0145 -0.6580  2.4355
 7044SOL     OW32590   2.168   0.307   7.226  0.9675 -0.2228 -0.1457
 7044SOL    HW132591   2.238   0.349   7.277  0.6052  1.7817 -1.2971
 7044SOL    HW232592   2.155   0.379   7.164 -0.0169 -0.4624 -0.2157
 7045SOL     OW32593   1.363   3.201   7.644 -0.1575 -0.6518  0.3699
 7045SOL    HW132594   1.349   3.111   7.614  0.8501 -1.0569  1.1254
 7045SOL    HW232595   1.392   3.182   7.734 -1.4511  0.0561  0.9409
 7046SOL     OW32596   1.546   1.017   2.596  0.4357  0.0506  0.0920
 7046SOL    HW132597   1.604   0.955   2.640  0.8191 -0.5408 -1.2664
 7046SOL    HW232598   1.608   1.061   2.538  1.1897 -1.0151  0.0944
 7047SOL     OW32599   4.158   3.989   8.041  0.1803  0.5223 -0.5242
 7047SOL    HW132600   4.226   3.996   8.107 -1.0195 -0.6099  0.8481
 7047SOL    HW232601   4.090   4.040   8.086  0.4232  0.4558 -0.0852
 7048SOL     OW32602   0.125   1.060   1.285  0.1640  0.0721 -0.0450
 7048SOL    HW132603   0.084   1.055   1.372  0.5221 -0.3305  0.1036
 7048SOL    HW232604   0.051   1.102   1.241  2.5359  3.8122 -0.4352
 7049SOL     OW32605   1.202   2.689  11.329 -0.0894  0.1140  0.1689
 7049SOL    HW132606   1.141   2.639  11.275  3.2003 -2.3480 -1.2601
 7049SOL    HW232607   1.141   2.737  11.384 -1.1788  0.4037 -1.3121
 7050SOL     OW32608   0.644   4.669   5.734 -0.1838 -0.6657  0.1295
 7050SOL    HW132609   0.550   4.675   5.719  0.0283 -0.9531 -1.3278
 7050SOL    HW232610   0.655   4.592   5.790  0.7627 -0.8331 -0.2879
 7051SOL     OW32611   3.387   0.851   3.143  0.3235  0.0705 -0.4583
 7051SOL    HW132612   3.327   0.916   3.180  0.5266 -1.0932  1.9202
 7051SOL    HW232613   3.404   0.798   3.221 -2.2338  0.7734  0.5566
 7052SOL     OW32614   3.788   2.142  11.657 -0.2409 -0.3093  0.4399
 7052SOL    HW132615   3.716   2.134  11.719 -1.9766  0.2771 -1.4815
 7052SOL    HW232616   3.777   2.063  11.604 -0.3529 -1.6577  2.4954
 7053SOL     OW32617   1.720   4.611   8.322 -0.0314 -0.4173 -0.1703
 7053SOL    HW132618   1.639   4.637   8.277 -0.2115 -0.4051  0.1549
 7053SOL    HW232619   1.680   4.580   8.404  1.1944  1.7394  1.2234
 7054SOL     OW32620   1.865   3.332   3.960  0.1702  0.6740  0.6059
 7054SOL    HW132621   1.917   3.286   4.026  1.4840  0.5277 -0.5523
 7054SOL    HW232622   1.870   3.275   3.883  1.6816 -0.7454  1.7461
 7055SOL     OW32623   3.810   4.209  15.030  0.6936 -0.4624 -0.1582
 7055SOL    HW132624   3.838   4.288  14.984 -0.0962  0.7984  1.5057
 7055SOL    HW232625   3.815   4.237  15.121  1.9698  1.6897 -0.8723
 7056SOL     OW32626   4.111   3.219  11.133  0.3936 -0.3097 -0.4129
 7056SOL    HW132627   4.075   3.150  11.189  2.1207 -0.9239 -0.0899
 7056SOL    HW232628   4.033   3.268  11.105  0.3835 -1.5774 -2.6371
 7057SOL     OW32629   4.478   1.217  11.234  0.1480  0.1714 -0.2362
 7057SOL    HW132630   4.515   1.299  11.201  1.3763  0.5926  2.1550
 7057SOL    HW232631   4.508   1.161  11.163  1.6882 -1.1128  1.4365
 7058SOL     OW32632   1.502   2.436   3.350 -0.3033  0.1870  0.2453
 7058SOL    HW132633   1.438   2.476   3.409 -1.0115 -0.8219  0.1587
 7058SOL    HW232634   1.467   2.349   3.332 -1.2418  0.9364 -1.6901
 7059SOL     OW32635   2.184   0.466   2.796 -0.0446 -0.1100  0.7307
 7059SOL    HW132636   2.131   0.543   2.819  0.3780 -0.5823  3.2473
 7059SOL    HW232637   2.250   0.471   2.865  0.6021 -0.4952  0.1381
 7060SOL     OW32638   0.908   0.844  12.308  0.1260 -0.3976 -0.2738
 7060SOL    HW132639   0.940   0.757  12.330 -1.7991 -1.0833 -0.1997
 7060SOL    HW232640   0.983   0.878  12.257 -0.5664  2.6635  0.7268
 7061SOL     OW32641   2.222   1.143   3.159 -0.2328  0.6923  0.1911
 7061SOL    HW132642   2.152   1.143   3.094  0.1159 -0.7979 -0.1883
 7061SOL    HW232643   2.208   1.056   3.197 -1.9397  1.0138  0.2747
 7062SOL     OW32644   2.704   1.610  17.611  0.0682  0.1999  0.6039
 7062SOL    HW132645   2.690   1.517  17.594  1.4675  0.5734 -2.6109
 7062SOL    HW232646   2.688   1.631   0.011 -0.9159 -1.8889  0.9066
 7063SOL     OW32647   2.142   2.231  12.747 -0.1166 -0.3768  0.0864
 7063SOL    HW132648   2.217   2.227  12.805 -0.0618  0.1961  0.0579
 7063SOL    HW232649   2.069   2.230  12.810 -0.2238 -0.9253 -0.0459
 7064SOL     OW32650   0.014   3.463   4.957  0.8077  0.2864  0.2202
 7064SOL    HW132651   0.028   3.369   4.941  1.2618  0.0770  1.8235
 7064SOL    HW232652   4.675   3.485   4.887  1.3179 -0.0813 -0.3475
 7065SOL     OW32653   4.381   3.838   2.612  0.6533  0.1835  0.0768
 7065SOL    HW132654   4.441   3.787   2.667 -1.3150 -2.4312 -0.2091
 7065SOL    HW232655   4.348   3.906   2.670  1.7220 -0.2769  1.2155
 7066SOL     OW32656   0.874   3.212   4.107 -0.0531  0.3842  0.3665
 7066SOL    HW132657   0.787   3.251   4.104 -0.2612 -0.0150  1.3669
 7066SOL    HW232658   0.908   3.273   4.041  0.0374 -0.2911 -0.2031
 7067SOL     OW32659   1.956   2.470   2.546  0.1996  0.5345 -0.1989
 7067SOL    HW132660   1.926   2.522   2.472 -1.5802  1.7206  1.3547
 7067SOL    HW232661   1.963   2.381   2.511 -0.5301  0.2496  0.3671
 7068SOL     OW32662   3.581   1.691   6.872 -0.2880 -0.1450  0.4529
 7068SOL    HW132663   3.571   1.654   6.784 -0.0553  0.7454  0.0485
 7068SOL    HW232664   3.660   1.646   6.902 -0.2187 -2.1297 -2.6608
 7069SOL     OW32665   4.626   1.293   6.778 -0.4542  0.9790  0.0905
 7069SOL    HW132666   4.709   1.317   6.821 -1.5692  0.7665  2.3581
 7069SOL    HW232667   4.563   1.287   6.849 -0.4489 -2.2755 -0.2087
 7070SOL     OW32668   4.067   2.445   4.347 -0.9183 -0.1796 -0.0623
 7070SOL    HW132669   4.128   2.487   4.288 -2.2838  0.4674 -1.0108
 7070SOL    HW232670   4.034   2.380   4.285  0.0556  0.0236 -0.7834
 7071SOL     OW32671   3.735   4.100   8.388 -0.3349 -0.3488  0.1486
 7071SOL    HW132672   3.666   4.163   8.367  1.3364  1.2769 -0.4028
 7071SOL    HW232673   3.784   4.130   8.464 -1.5377  1.6314  0.1298
 7072SOL     OW32674   1.598   2.340  10.296  0.3308  0.1851 -0.2821
 7072SOL    HW132675   1.568   2.257  10.258 -0.6624  0.1770  0.5234
 7072SOL    HW232676   1.660   2.363  10.226  0.6098 -0.3436 -0.2042
 7073SOL     OW32677   3.280   4.582   6.200  0.6170  0.2625 -0.1746
 7073SOL    HW132678   3.216   4.545   6.139  2.9851 -0.5960 -2.1606
 7073SOL    HW232679   3.239   4.534   6.272 -0.5087 -0.2170 -1.1177
 7074SOL     OW32680   4.290   0.421   2.864  0.1893 -0.2527 -0.0851
 7074SOL    HW132681   4.242   0.458   2.937 -2.6200 -1.9673 -1.0761
 7074SOL    HW232682   4.317   0.500   2.817 -0.2177  0.3354  0.6734
 7075SOL     OW32683   1.374   0.578   5.394 -0.1181  0.2891 -0.0573
 7075SOL    HW132684   1.326   0.661   5.389  0.1502  0.4449 -0.0405
 7075SOL    HW232685   1.300   0.519   5.405  2.0481 -2.4051  0.0290
 7076SOL     OW32686   3.940   3.387  10.328  0.2543 -0.0377 -0.4160
 7076SOL    HW132687   4.019   3.347  10.292  0.3062 -1.1760  0.9731
 7076SOL    HW232688   3.962   3.371  10.420 -0.7004  0.8856 -0.0275
 7077SOL     OW32689   0.322   0.343   0.988 -0.1063 -0.5540 -0.4831
 7077SOL    HW132690   0.230   0.318   0.981 -0.5790  0.4726  1.9974
 7077SOL    HW232691   0.312   0.435   0.961 -3.4732 -0.9552 -0.6287
 7078SOL     OW32692   2.133   0.175   7.955 -0.5593 -0.4100  0.3480
 7078SOL    HW132693   2.144   0.160   7.861  1.5145 -1.1094  0.7189
 7078SOL    HW232694   2.099   0.264   7.950  0.5794  0.0409  0.8688
 7079SOL     OW32695   3.879   3.069   2.177 -0.1189 -0.2381 -0.1626
 7079SOL    HW132696   3.841   3.034   2.258 -0.4042  0.9700  0.2243
 7079SOL    HW232697   3.956   3.106   2.219  0.4280  1.6786 -2.8782
 7080SOL     OW32698   4.449   0.585   1.369 -0.0865  0.1239 -0.5119
 7080SOL    HW132699   4.414   0.507   1.412  0.2918 -0.0185 -0.4583
 7080SOL    HW232700   4.388   0.650   1.405  0.4502 -0.6399  1.7606
 7081SOL     OW32701   3.717   0.485   3.222  0.0709  0.1408  0.0069
 7081SOL    HW132702   3.789   0.431   3.255  0.1441  0.0565 -0.2913
 7081SOL    HW232703   3.657   0.464   3.294  0.0495  0.9018  0.2112
 7082SOL     OW32704   0.607   0.643   8.858  0.1887  0.1860 -0.3922
 7082SOL    HW132705   0.694   0.613   8.886  0.0674  0.7183  0.5360
 7082SOL    HW232706   0.546   0.577   8.892  1.0155 -0.5377 -0.3230
 7083SOL     OW32707   4.433   2.338  15.331 -0.5526 -0.2858  0.0281
 7083SOL    HW132708   4.480   2.421  15.339 -0.1791 -0.6993  2.0615
 7083SOL    HW232709   4.368   2.348  15.261  0.4828  0.2291 -0.8491
 7084SOL     OW32710   2.069   0.994   2.345  0.2709 -0.3223 -0.5689
 7084SOL    HW132711   2.057   0.927   2.278 -0.2089  0.4309 -1.2334
 7084SOL    HW232712   2.102   1.062   2.286 -0.7058  2.5102  2.1839
 7085SOL     OW32713   1.095   3.846  14.979 -0.8108 -0.7223  0.1390
 7085SOL    HW132714   1.073   3.927  14.933 -1.4062 -0.5493  0.7326
 7085SOL    HW232715   1.187   3.853  14.952 -0.1466  0.5648  2.7516
 7086SOL     OW32716   1.495   1.232   6.997 -0.2039 -0.2079 -0.1487
 7086SOL    HW132717   1.400   1.231   6.983 -0.0515 -0.6026 -1.1489
 7086SOL    HW232718   1.496   1.320   7.035  2.9279  1.0644 -3.1919
 7087SOL     OW32719   4.312   2.454   7.755 -0.0153  0.7729 -0.0072
 7087SOL    HW132720   4.229   2.498   7.740  0.5923  2.2541  0.8792
 7087SOL    HW232721   4.346   2.508   7.827 -0.3098  0.4570  0.3684
 7088SOL     OW32722   1.162   3.348   3.134 -0.1577 -0.2588 -0.3061
 7088SOL    HW132723   1.188   3.305   3.215  1.5370  1.6174  0.1486
 7088SOL    HW232724   1.240   3.338   3.080 -0.7945 -0.4883 -1.1822
 7089SOL     OW32725   3.700   0.319   2.893 -0.1422  0.0198  0.1142
 7089SOL    HW132726   3.631   0.384   2.900  0.2184  0.5236 -0.9696
 7089SOL    HW232727   3.657   0.252   2.947 -3.1940  2.3276  0.5062
 7090SOL     OW32728   2.598   0.211   3.392  0.0210 -0.5383  0.1752
 7090SOL    HW132729   2.653   0.155   3.447  0.7705  1.2274  1.2124
 7090SOL    HW232730   2.559   0.268   3.458 -0.3325 -0.9135  0.2867
 7091SOL     OW32731   3.968   4.564   1.361  0.0238 -0.3061 -0.1456
 7091SOL    HW132732   3.988   4.489   1.418  1.3314 -0.7542 -1.1986
 7091SOL    HW232733   3.970   4.520   1.276 -0.6576  0.5692 -0.6226
 7092SOL     OW32734   3.066   1.411  16.634 -0.2916  0.2029 -0.9338
 7092SOL    HW132735   3.158   1.397  16.653 -1.7956 -1.7538  4.9009
 7092SOL    HW232736   3.035   1.469  16.703 -1.4348 -1.0278 -0.4043
 7093SOL     OW32737   4.511   0.140   5.414 -0.0016  0.1432 -0.1854
 7093SOL    HW132738   4.514   0.191   5.333 -0.3999  0.6549  0.1232
 7093SOL    HW232739   4.474   0.055   5.389 -2.5650  0.7986  1.3543
 7094SOL     OW32740   2.709   3.262   7.486 -0.4635  0.4321  0.0607
 7094SOL    HW132741   2.756   3.302   7.413 -0.0027 -1.8121 -0.8713
 7094SOL    HW232742   2.656   3.335   7.517  0.7110  0.7318  1.3430
 7095SOL     OW32743   2.313   3.286   3.883 -0.1905  0.1739 -0.3815
 7095SOL    HW132744   2.262   3.205   3.891  1.1189 -0.6399 -0.1000
 7095SOL    HW232745   2.321   3.305   3.790 -0.0228 -1.9522 -0.7964
 7096SOL     OW32746   1.627   0.124   9.063 -0.1476  0.1789 -0.1215
 7096SOL    HW132747   1.719   0.101   9.076 -0.7921 -1.3923  1.7109
 7096SOL    HW232748   1.619   0.163   8.976  2.2634  2.1976  0.5499
 7097SOL     OW32749   2.790   4.145  11.867 -0.2217  0.2204 -0.5362
 7097SOL    HW132750   2.830   4.232  11.866 -0.5261  0.3968  1.4314
 7097SOL    HW232751   2.747   4.156  11.783 -1.1608 -1.9873 -0.3527
 7098SOL     OW32752   0.305   2.382   4.438 -0.3341 -0.0631  0.1400
 7098SOL    HW132753   0.326   2.349   4.526  0.6699 -0.2136 -0.1506
 7098SOL    HW232754   0.344   2.320   4.376 -0.7164 -0.7043  0.5396
 7099SOL     OW32755   4.496   0.312   1.605 -0.2060 -0.1202 -0.8529
 7099SOL    HW132756   4.524   0.315   1.513 -0.5378  1.3185 -0.9002
 7099SOL    HW232757   4.520   0.226   1.639  0.4015  1.5033  2.7926
 7100SOL     OW32758   2.914   0.037  11.150 -0.3002 -0.5371  0.4767
 7100SOL    HW132759   2.994   4.706  11.147  1.1119  1.5706  0.5817
 7100SOL    HW232760   2.939   0.105  11.213  0.3127 -0.0952 -0.2392
 7101SOL     OW32761   2.193   0.855   2.713  0.1972 -0.1736 -0.4492
 7101SOL    HW132762   2.174   0.822   2.625 -0.9090  0.3465 -0.3975
 7101SOL    HW232763   2.289   0.855   2.704  0.4290  0.0619  2.0111
 7102SOL     OW32764   3.379   3.711   3.790 -0.5579 -0.5714 -1.2689
 7102SOL    HW132765   3.334   3.750   3.715 -0.7031  1.1433 -0.2876
 7102SOL    HW232766   3.461   3.684   3.749  0.7114  1.7681 -0.3029
 7103SOL     OW32767   2.010   3.667   2.015  0.1007  0.4112  0.4916
 7103SOL    HW132768   2.054   3.583   2.005 -0.0934  0.2070  1.3529
 7103SOL    HW232769   2.062   3.705   2.086 -1.9271 -0.0010  2.2331
 7104SOL     OW32770   3.421   3.887  15.244 -0.2897 -0.8588 -0.2400
 7104SOL    HW132771   3.346   3.897  15.186  0.4599 -1.5188 -1.3390
 7104SOL    HW232772   3.431   3.974  15.282 -0.6315 -1.3666  0.9784
 7105SOL     OW32773   0.944   3.097   2.593  0.3011 -0.0375  0.5331
 7105SOL    HW132774   0.904   3.148   2.663 -0.3632 -1.8709  1.5037
 7105SOL    HW232775   1.004   3.049   2.650  0.2643  0.1896  0.7600
 7106SOL     OW32776   1.902   2.723   3.770  0.3042  0.6084  0.1739
 7106SOL    HW132777   1.902   2.762   3.683  0.1551  0.1248 -0.0407
 7106SOL    HW232778   1.852   2.643   3.753 -0.6666  1.4678 -0.9975
 7107SOL     OW32779   0.241   3.368   6.142  0.6457 -0.1706  0.3582
 7107SOL    HW132780   0.281   3.427   6.205 -0.6091  1.4055 -0.3299
 7107SOL    HW232781   0.148   3.391   6.136  0.3847 -0.9392  1.3713
 7108SOL     OW32782   2.843   3.598   7.389 -0.1461  0.3705 -0.7102
 7108SOL    HW132783   2.772   3.655   7.417  0.9279  1.6467 -0.6068
 7108SOL    HW232784   2.926   3.634   7.420  0.0556  0.6497 -1.5577
 7109SOL     OW32785   3.416   3.878   5.598 -0.1173  0.6002  0.4777
 7109SOL    HW132786   3.335   3.921   5.569 -0.2371 -0.5774 -0.9803
 7109SOL    HW232787   3.380   3.817   5.662  0.7320  2.5923  2.8055
 7110SOL     OW32788   2.488   2.467   7.270 -0.1169 -0.7394  0.0765
 7110SOL    HW132789   2.416   2.409   7.296 -0.5177  0.3869  1.4995
 7110SOL    HW232790   2.567   2.417   7.291  0.6940 -0.4139 -2.2201
 7111SOL     OW32791   2.543   1.330   6.789 -0.4235  0.4468  0.1797
 7111SOL    HW132792   2.520   1.259   6.849 -0.0762  0.1524 -0.0384
 7111SOL    HW232793   2.453   1.342   6.760  0.0500  0.7959 -1.1261
 7112SOL     OW32794   2.497   2.149   4.082 -0.5079  0.0069  0.3859
 7112SOL    HW132795   2.532   2.112   4.163 -2.5912 -1.2391  0.6951
 7112SOL    HW232796   2.569   2.128   4.023 -1.2354 -1.6981  0.1134
 7113SOL     OW32797   3.882   0.606   0.635 -0.3550 -0.4400  0.5971
 7113SOL    HW132798   3.963   0.643   0.599  1.1320 -1.3484  3.0774
 7113SOL    HW232799   3.875   0.537   0.569 -0.9742 -0.9560  1.2101
 7114SOL     OW32800   4.659   0.480   1.180  0.0433 -0.2680  0.6813
 7114SOL    HW132801   0.022   0.508   1.147  0.7156 -2.6743  0.4433
 7114SOL    HW232802   4.633   0.554   1.236  0.1664  0.1443  0.2004
 7115SOL     OW32803   3.218   0.283  14.069 -0.3232  0.3113  0.1631
 7115SOL    HW132804   3.127   0.313  14.072 -0.8988 -1.6471  2.6239
 7115SOL    HW232805   3.209   0.202  14.120  0.1740 -0.6691 -1.3161
 7116SOL     OW32806   2.653   4.501  10.773  0.2067 -0.2408 -0.5866
 7116SOL    HW132807   2.678   4.476  10.684  1.9593 -1.4229  0.2382
 7116SOL    HW232808   2.577   4.443  10.776 -0.7113  1.0407  0.6790
 7117SOL     OW32809   1.249   1.348   4.649 -0.0528  0.3062 -0.6579
 7117SOL    HW132810   1.337   1.384   4.647 -0.3986  1.1098 -1.5771
 7117SOL    HW232811   1.234   1.317   4.560 -1.3308  0.2308 -0.4273
 7118SOL     OW32812   2.300   3.600   0.789 -0.0107 -0.2395 -0.4322
 7118SOL    HW132813   2.385   3.600   0.744  0.9619 -2.3163  1.3854
 7118SOL    HW232814   2.254   3.524   0.754 -0.2283  0.2126 -1.1179
 7119SOL     OW32815   4.618   1.867   1.134  0.5941  0.1570 -0.0156
 7119SOL    HW132816   4.695   1.837   1.086  1.3374 -0.4704  1.5656
 7119SOL    HW232817   4.582   1.920   1.062  0.5844  1.9979  1.3427
 7120SOL     OW32818   0.678   1.091   5.229 -0.3005  0.2601  0.4335
 7120SOL    HW132819   0.716   1.144   5.159  2.1900 -0.6903  1.0444
 7120SOL    HW232820   0.728   1.115   5.307 -1.1811  0.9125  0.7979
 7121SOL     OW32821   0.212   1.503  11.295 -0.9264  0.3134  0.1318
 7121SOL    HW132822   0.282   1.523  11.233 -3.1522 -1.9280 -3.1255
 7121SOL    HW232823   0.133   1.528  11.245 -0.6931  2.1899  0.6891
 7122SOL     OW32824   1.422   0.889   2.905  0.4123 -0.3490 -0.0048
 7122SOL    HW132825   1.487   0.847   2.848 -0.1341 -1.5465  0.2667
 7122SOL    HW232826   1.369   0.814   2.931  0.5382  0.0856  1.5156
 7123SOL     OW32827   2.632   0.643   3.183  0.0566 -0.5590 -0.0710
 7123SOL    HW132828   2.611   0.559   3.143 -0.9739 -0.3651  0.0753
 7123SOL    HW232829   2.682   0.601   3.253  3.0721  1.4705 -1.0024
 7124SOL     OW32830   1.814   3.110   2.687 -0.1514 -0.0126 -0.8933
 7124SOL    HW132831   1.731   3.063   2.690  0.4638 -1.1339 -1.3546
 7124SOL    HW232832   1.791   3.196   2.721 -2.0414 -0.4022 -1.2021
 7125SOL     OW32833   4.182   0.717   0.920  0.2848 -0.2018  0.4273
 7125SOL    HW132834   4.211   0.806   0.897 -0.0385 -0.4340 -0.8802
 7125SOL    HW232835   4.239   0.667   0.861 -0.3374 -0.1308 -0.2420
 7126SOL     OW32836   4.421   0.025   4.155  0.2249 -0.0079 -0.4325
 7126SOL    HW132837   4.418   4.653   4.139  1.2209  0.0936 -1.2156
 7126SOL    HW232838   4.340   0.025   4.205  0.4212  0.0137 -0.1103
 7127SOL     OW32839   3.595   0.874   0.368 -0.8687 -0.0049 -0.0370
 7127SOL    HW132840   3.644   0.940   0.417  0.2162 -1.8345  1.3328
 7127SOL    HW232841   3.509   0.882   0.410 -0.1804 -1.1888  1.5956
 7128SOL     OW32842   1.189   1.051   7.463 -0.1789  0.1228  0.1438
 7128SOL    HW132843   1.163   0.959   7.458  0.6963 -0.0906 -0.4943
 7128SOL    HW232844   1.266   1.043   7.520 -0.1621 -0.0632  0.0949
 7129SOL     OW32845   3.288   2.443   3.412  0.3355 -0.4898 -0.9504
 7129SOL    HW132846   3.218   2.477   3.467  0.4884 -1.0131 -0.4308
 7129SOL    HW232847   3.362   2.462   3.470 -2.1820 -0.9866  2.4284
 7130SOL     OW32848   4.214   4.417   0.071 -0.1782  0.2782  0.0159
 7130SOL    HW132849   4.264   4.494   0.044  1.0886 -0.4396  0.3385
 7130SOL    HW232850   4.176   4.386  17.681 -0.8686 -0.3692  0.5803
 7131SOL     OW32851   3.254   1.664   3.738  0.7559 -0.6591  0.5097
 7131SOL    HW132852   3.228   1.690   3.649  1.3418 -2.0818 -0.0713
 7131SOL    HW232853   3.187   1.711   3.788  1.0175 -0.0885  0.3342
 7132SOL     OW32854   1.981   2.863   3.109 -0.0051 -0.5305 -0.4023
 7132SOL    HW132855   1.904   2.813   3.084 -0.0090 -0.2979 -0.8580
 7132SOL    HW232856   1.985   2.930   3.040 -2.0347  0.1272  0.1404
 7133SOL     OW32857   3.938   4.686   9.307 -0.0171 -0.0245  0.6617
 7133SOL    HW132858   3.953   4.607   9.256 -0.6700 -0.4700  1.1479
 7133SOL    HW232859   3.846   4.703   9.285  0.1116  0.4795  0.5096
 7134SOL     OW32860   3.093   2.945   1.130  0.9667  0.2396 -0.0186
 7134SOL    HW132861   3.121   2.921   1.042 -0.9859 -1.9804 -0.0186
 7134SOL    HW232862   2.999   2.935   1.120  0.5933  2.7159  1.0123
 7135SOL     OW32863   4.004   2.120   7.885 -0.0162  0.3779 -0.1212
 7135SOL    HW132864   4.099   2.124   7.900 -0.5224  0.3440  3.1928
 7135SOL    HW232865   3.977   2.030   7.902  0.9158  0.0120 -0.5767
 7136SOL     OW32866   4.017   3.604   6.839 -0.2837  0.6574 -0.1397
 7136SOL    HW132867   3.947   3.539   6.840 -2.0418  2.5660  1.3744
 7136SOL    HW232868   4.094   3.547   6.839 -2.1912 -1.8982 -0.4161
 7137SOL     OW32869   0.795   3.036   4.321 -0.0340 -0.0208  0.9008
 7137SOL    HW132870   0.708   3.034   4.359 -1.5058 -1.0777 -2.5265
 7137SOL    HW232871   0.808   3.118   4.272 -0.8966 -0.4528 -0.0358
 7138SOL     OW32872   1.014   0.242   7.462  0.8591 -0.1861  0.0998
 7138SOL    HW132873   1.039   0.149   7.465  0.8266 -0.2466 -1.5609
 7138SOL    HW232874   0.919   0.236   7.468  0.8258 -1.5866 -1.5897
 7139SOL     OW32875   0.159   1.359  17.358 -0.3429 -0.0506  0.1699
 7139SOL    HW132876   0.232   1.379  17.416  0.7726  1.4760 -1.7294
 7139SOL    HW232877   0.175   1.408  17.277 -1.3696 -0.9813 -0.6021
 7140SOL     OW32878   1.848   4.656  10.358  0.1877  0.1783 -0.0455
 7140SOL    HW132879   1.910   4.664  10.286  0.8542 -0.7935  0.4178
 7140SOL    HW232880   1.904   4.636  10.433 -0.5656  0.4167  0.5826
 7141SOL     OW32881   2.708   0.166   8.647  0.3894  0.9178 -0.1607
 7141SOL    HW132882   2.675   0.105   8.581  0.4229  0.5323  0.1825
 7141SOL    HW232883   2.626   0.208   8.672  0.4979  0.1807  1.4078
 7142SOL     OW32884   2.507   3.668   4.735 -0.3015  0.0699  0.5435
 7142SOL    HW132885   2.599   3.694   4.737 -0.7207  1.6385 -0.4618
 7142SOL    HW232886   2.456   3.749   4.743 -1.6847 -0.8997  1.6173
 7143SOL     OW32887   0.012   0.428   1.696 -0.3414 -0.1218 -0.2995
 7143SOL    HW132888   0.015   0.520   1.669 -2.0026  0.0327  0.0050
 7143SOL    HW232889   4.671   0.396   1.631 -1.4935  2.2566 -0.3637
 7144SOL     OW32890   2.528   3.429   2.390 -0.2840 -0.1893 -0.2408
 7144SOL    HW132891   2.503   3.517   2.363  1.1295  0.1380 -0.5146
 7144SOL    HW232892   2.602   3.445   2.449 -0.1676  0.1153 -0.4715
 7145SOL     OW32893   2.486   4.174   3.964  0.1939  0.2717 -0.4705
 7145SOL    HW132894   2.404   4.182   4.013  0.2210  1.5884 -0.6485
 7145SOL    HW232895   2.484   4.080   3.950  0.9292  0.4407 -1.6393
 7146SOL     OW32896   4.407   1.700   9.971  0.1480 -0.3642 -0.3845
 7146SOL    HW132897   4.451   1.785   9.976 -0.5533  0.0703 -1.7509
 7146SOL    HW232898   4.317   1.729   9.986  0.4139  0.2665  0.0139
 7147SOL     OW32899   4.138   4.186   8.486  0.6041  0.3568  0.2119
 7147SOL    HW132900   4.097   4.187   8.399 -1.1142 -2.2859  0.9778
 7147SOL    HW232901   4.227   4.219   8.473  1.2410 -1.2303  0.5253
 7148SOL     OW32902   0.572   2.896  13.191  0.0941 -0.5724 -0.2114
 7148SOL    HW132903   0.636   2.844  13.239  0.4860  0.5955  0.5079
 7148SOL    HW232904   0.559   2.858  13.104 -2.7018 -1.9236  0.7847
 7149SOL     OW32905   3.247   4.357  16.110 -0.6664 -0.4039  1.0707
 7149SOL    HW132906   3.189   4.410  16.164 -1.8284 -0.5375 -0.0623
 7149SOL    HW232907   3.186   4.307  16.056  1.3965  0.1910 -1.8658
 7150SOL     OW32908   2.936   2.620  14.056 -0.2932 -0.1661  0.0493
 7150SOL    HW132909   2.981   2.537  14.045  0.5039  0.0533  1.7051
 7150SOL    HW232910   2.917   2.631  13.963  2.1705  0.2143 -0.3954
 7151SOL     OW32911   3.456   0.041   0.600 -0.1824 -1.0976  0.3491
 7151SOL    HW132912   3.392   0.060   0.668  0.7516  2.6738  0.1920
 7151SOL    HW232913   3.398   0.042   0.524 -0.6623 -1.6343  0.7100
 7152SOL     OW32914   0.744   3.619   2.395 -0.3867 -0.3813  0.0288
 7152SOL    HW132915   0.711   3.695   2.348  1.0102 -0.3612 -0.9130
 7152SOL    HW232916   0.679   3.597   2.462  0.0196 -0.9883  0.2257
 7153SOL     OW32917   4.155   0.279   4.301 -0.5072 -0.3594 -0.3579
 7153SOL    HW132918   4.232   0.304   4.250 -0.7478 -1.4998 -1.2659
 7153SOL    HW232919   4.105   0.360   4.310  3.1546  1.6386  2.2110
 7154SOL     OW32920   3.183   2.631   7.368 -0.1781 -0.2490  0.2108
 7154SOL    HW132921   3.130   2.688   7.312  1.0679 -0.0786 -0.8078
 7154SOL    HW232922   3.164   2.660   7.457 -0.0357 -0.0472  0.1763
 7155SOL     OW32923   1.044   1.368   2.923 -0.5359  0.4696  0.1397
 7155SOL    HW132924   1.139   1.354   2.927 -0.2056  2.6508  0.1532
 7155SOL    HW232925   1.023   1.341   2.834  0.1470 -2.9572  1.0043
 7156SOL     OW32926   0.445   4.593   4.903  0.2101  0.0355  0.1397
 7156SOL    HW132927   0.358   4.556   4.893  0.4320 -0.0753 -1.3765
 7156SOL    HW232928   0.485   4.543   4.831 -1.9515  2.5883 -2.8237
 7157SOL     OW32929   4.267   3.114  11.394 -0.2615 -0.1339 -0.7480
 7157SOL    HW132930   4.261   3.021  11.372 -0.8615  0.3322 -2.5636
 7157SOL    HW232931   4.345   3.127  11.449 -0.4064 -0.7251 -0.4042
 7158SOL     OW32932   1.713   3.772   3.707  0.3670  0.5008  0.7373
 7158SOL    HW132933   1.807   3.763   3.717  0.4332  0.5682  0.1742
 7158SOL    HW232934   1.694   3.756   3.799 -1.6926  1.1605  0.4302
 7159SOL     OW32935   0.903   3.897   7.926 -0.1963  0.3551  1.0542
 7159SOL    HW132936   0.991   3.866   7.949 -0.1666 -1.9477 -2.0650
 7159SOL    HW232937   0.919   3.971   7.869 -0.0318 -0.6496 -0.2033
 7160SOL     OW32938   3.809   3.388   6.516  0.0068 -0.4473 -0.5472
 7160SOL    HW132939   3.844   3.422   6.598 -0.7189  0.0931 -0.4617
 7160SOL    HW232940   3.719   3.420   6.516 -0.0826 -0.6925 -0.1781
 7161SOL     OW32941   4.351   2.411   6.229 -0.3122 -0.0159 -0.0659
 7161SOL    HW132942   4.422   2.370   6.182  1.6016  1.6192  1.3847
 7161SOL    HW232943   4.397   2.455   6.301 -2.9625 -1.2196  2.4063
 7162SOL     OW32944   4.260   4.559   1.762  0.6012  0.1916  0.0393
 7162SOL    HW132945   4.178   4.513   1.778  0.7906 -0.5502 -1.0984
 7162SOL    HW232946   4.248   4.628   1.828 -1.1377 -0.1843  0.1285
 7163SOL     OW32947   4.365   2.738   0.832  0.0121 -0.1999 -0.2284
 7163SOL    HW132948   4.440   2.697   0.790  0.3756 -1.0369  1.2462
 7163SOL    HW232949   4.298   2.723   0.765  2.0019  0.1735 -2.3079
 7164SOL     OW32950   1.543   4.344   7.388  0.1292  0.4612  0.4136
 7164SOL    HW132951   1.491   4.353   7.308 -1.2824  0.7087  1.3584
 7164SOL    HW232952   1.467   4.329   7.444 -1.2751  1.0659 -1.3236
 7165SOL     OW32953   2.065   0.005   9.238  0.4148 -0.0243 -0.0937
 7165SOL    HW132954   2.023   0.043   9.315  0.5930  4.0655 -2.0191
 7165SOL    HW232955   2.110   0.083   9.205 -2.3979  1.3024 -0.7636
 7166SOL     OW32956   2.204   0.365  11.542 -0.1002 -0.3311 -0.1746
 7166SOL    HW132957   2.195   0.384  11.635 -0.7372  0.5131 -0.4071
 7166SOL    HW232958   2.236   0.450  11.512 -2.1447  0.8677  1.0772
 7167SOL     OW32959   1.447   1.624  16.451  0.1921  0.0849  0.1682
 7167SOL    HW132960   1.436   1.532  16.424 -0.5282 -0.6565  2.9876
 7167SOL    HW232961   1.541   1.632  16.434 -0.0048 -0.5590 -1.2223
 7168SOL     OW32962   3.172   0.589   4.564  0.1429 -0.6891  0.1666
 7168SOL    HW132963   3.236   0.647   4.606 -1.2484  1.0277 -0.0865
 7168SOL    HW232964   3.188   0.631   4.479 -3.1256  0.6103  0.1824
 7169SOL     OW32965   4.350   3.463  17.328  0.7837 -0.4272  0.5910
 7169SOL    HW132966   4.327   3.370  17.324  0.6628 -0.4753  2.8173
 7169SOL    HW232967   4.337   3.484  17.235  1.6739 -0.0207  0.5559
 7170SOL     OW32968   1.969   4.306   4.843  0.6920 -0.7690  0.2475
 7170SOL    HW132969   1.930   4.291   4.756 -0.6609  1.4949  0.4744
 7170SOL    HW232970   2.018   4.224   4.853  1.8084  0.0168  1.2118
 7171SOL     OW32971   2.396   3.290   7.793 -0.3623 -0.0184 -0.0414
 7171SOL    HW132972   2.371   3.342   7.870 -2.6362 -0.2106 -0.6723
 7171SOL    HW232973   2.440   3.355   7.738  0.3732  1.3950  2.1984
 7172SOL     OW32974   1.231   0.916   7.825  0.7219 -0.6369  0.3180
 7172SOL    HW132975   1.258   0.976   7.895 -0.1528  0.0711  0.0524
 7172SOL    HW232976   1.309   0.927   7.770  0.5335 -0.0302  0.1608
 7173SOL     OW32977   3.995   0.289   8.247  0.0601 -0.5366  0.1324
 7173SOL    HW132978   4.080   0.256   8.276 -0.3349 -0.7294  1.0383
 7173SOL    HW232979   3.983   0.253   8.159  2.4052 -1.2607  0.0990
 7174SOL     OW32980   3.894   2.115   6.622  1.1145 -0.3106  0.6128
 7174SOL    HW132981   3.929   2.100   6.710 -1.6142  1.4073  1.9921
 7174SOL    HW232982   3.898   2.029   6.579  0.4134  0.9695 -2.0085
 7175SOL     OW32983   0.315   2.929   5.481 -0.6919 -0.3132 -0.0705
 7175SOL    HW132984   0.407   2.939   5.454 -0.5478 -0.5586  0.3209
 7175SOL    HW232985   0.306   2.834   5.489 -1.1188 -0.4209 -1.8341
 7176SOL     OW32986   0.922   3.917   6.514  0.3393  0.0194  0.8194
 7176SOL    HW132987   0.940   3.905   6.421 -0.4309  1.4587  0.4919
 7176SOL    HW232988   0.993   3.871   6.559  0.5299  1.2332  1.7613
 7177SOL     OW32989   4.356   1.979   4.025 -0.6290  0.4765 -0.5820
 7177SOL    HW132990   4.353   2.027   4.108  3.1973  2.9140 -1.8402
 7177SOL    HW232991   4.449   1.977   4.000 -0.4796  0.3951 -0.0089
 7178SOL     OW32992   1.331   1.962   3.969 -0.2328 -0.3580  0.0932
 7178SOL    HW132993   1.349   1.878   4.013 -0.3285 -1.9611 -2.9512
 7178SOL    HW232994   1.251   1.948   3.919 -0.2522  1.5221 -0.3901
 7179SOL     OW32995   1.249   4.146   9.502  0.0419  0.2993 -0.7663
 7179SOL    HW132996   1.177   4.110   9.555  0.4337  0.8074  0.1183
 7179SOL    HW232997   1.318   4.108   9.557 -0.7144 -1.1985 -0.8498
 7180SOL     OW32998   2.311   3.569   8.891 -0.2370  0.3983  0.0155
 7180SOL    HW132999   2.265   3.527   8.963  1.9119  0.4936  1.4434
 7180SOL    HW233000   2.342   3.651   8.929  0.1890  0.7166 -1.0028
 7181SOL     OW33001   2.719   0.454   5.986  0.2012  0.2480  0.1059
 7181SOL    HW133002   2.711   0.548   5.999 -0.6582  0.1274  0.4330
 7181SOL    HW233003   2.655   0.418   6.047 -0.3210 -0.9020 -1.0990
 7182SOL     OW33004   3.443   3.923   8.973 -0.2088 -0.3402  0.2347
 7182SOL    HW133005   3.352   3.905   8.949 -0.7515  1.4363  0.9392
 7182SOL    HW233006   3.412   3.948   9.060 -2.5134  1.9176 -1.2196
 7183SOL     OW33007   1.151   1.337   3.523 -0.1662  0.1420 -0.0626
 7183SOL    HW133008   1.121   1.293   3.603  2.3241 -0.5964  0.4566
 7183SOL    HW233009   1.179   1.257   3.477  2.0776  0.1396  1.2775
 7184SOL     OW33010   1.184   4.101   6.826  0.1272 -0.3105  0.4819
 7184SOL    HW133011   1.143   4.130   6.745  0.4632  0.0802  0.4531
 7184SOL    HW233012   1.109   4.081   6.882 -0.1797  3.2498  1.3137
 7185SOL     OW33013   3.660   1.227  16.651 -0.2483 -0.1572 -0.0330
 7185SOL    HW133014   3.631   1.246  16.561 -0.1329  0.2849  0.0251
 7185SOL    HW233015   3.746   1.190  16.631 -0.1085  0.7512 -1.1473
 7186SOL     OW33016   4.569   0.067   0.877 -0.1494 -0.1286  0.2495
 7186SOL    HW133017   4.613   4.711   0.908  0.1907  0.5044  1.3756
 7186SOL    HW233018   4.544   0.050   0.786  0.3806 -2.5789  0.5719
 7187SOL     OW33019   4.651   4.317   3.417 -0.1158 -0.0314 -0.3255
 7187SOL    HW133020   0.024   4.326   3.412 -0.2498  0.0314 -2.7536
 7187SOL    HW233021   4.642   4.233   3.461 -0.7303  0.6037  0.7537
 7188SOL     OW33022   4.541   1.574  11.360 -0.2240 -0.0039  1.3252
 7188SOL    HW133023   4.577   1.596  11.274  0.0186  0.0755  1.4468
 7188SOL    HW233024   4.464   1.523  11.334  0.2425 -0.1595  0.2443
 7189SOL     OW33025   0.425   3.018  14.972 -0.2180 -0.0389  0.2815
 7189SOL    HW133026   0.441   3.005  14.878  0.7258 -1.0516  0.6028
 7189SOL    HW233027   0.494   3.072  15.010 -0.3331  0.6903 -0.5108
 7190SOL     OW33028   0.391   1.346  11.835  0.3466 -0.5887  1.0621
 7190SOL    HW133029   0.435   1.401  11.769 -1.7224  2.0760  1.8997
 7190SOL    HW233030   0.459   1.339  11.901  0.5632 -0.3037  0.8705
 7191SOL     OW33031   1.495   1.255   8.968  0.1200  0.1567  0.8472
 7191SOL    HW133032   1.487   1.284   9.059  0.2076 -0.0249  0.9124
 7191SOL    HW233033   1.583   1.287   8.952 -0.9546  2.4247 -0.5955
 7192SOL     OW33034   0.669   2.143   2.876  0.4719  0.6838 -0.1338
 7192SOL    HW133035   0.737   2.076   2.864 -0.0236  0.3709 -1.1437
 7192SOL    HW233036   0.629   2.129   2.791  0.4830  3.4746 -0.6051
 7193SOL     OW33037   3.229   4.154  14.459 -0.0369 -0.7221 -0.3632
 7193SOL    HW133038   3.168   4.108  14.403 -1.2852 -0.1902  0.5658
 7193SOL    HW233039   3.257   4.089  14.523  0.9112 -0.3781 -0.4192
 7194SOL     OW33040   0.494   0.135  15.375  0.3700  0.0672 -0.0031
 7194SOL    HW133041   0.404   0.108  15.397  0.4828 -0.7760 -0.6020
 7194SOL    HW233042   0.511   0.205  15.438  0.5241 -0.9983  1.1419
 7195SOL     OW33043   0.544   1.331   5.379  0.2052  0.2526  0.2794
 7195SOL    HW133044   0.566   1.259   5.320 -1.5525  0.6767 -0.8721
 7195SOL    HW233045   0.456   1.305   5.405  0.2520 -0.2937 -0.1227
 7196SOL     OW33046   2.304   0.141  14.070 -0.3450 -0.1390 -0.2510
 7196SOL    HW133047   2.396   0.150  14.046 -0.5329 -0.8923 -1.2510
 7196SOL    HW233048   2.313   0.086  14.148  0.2679  0.5502  0.1646
 7197SOL     OW33049   2.408   4.160  13.334 -0.0816  0.0923  0.5940
 7197SOL    HW133050   2.420   4.120  13.420  1.4783 -4.6082 -1.7742
 7197SOL    HW233051   2.330   4.215  13.340  1.0688  1.8601 -0.7084
 7198SOL     OW33052   3.119   4.217   5.847  0.1119  0.5617 -0.0462
 7198SOL    HW133053   3.092   4.293   5.898 -0.9260  0.6848 -0.7642
 7198SOL    HW233054   3.163   4.157   5.907 -0.6473  1.4518  1.3963
 7199SOL     OW33055   0.273   2.979   5.753 -0.1845  0.0786 -0.0127
 7199SOL    HW133056   0.354   3.014   5.790  0.7516 -1.4733 -0.5832
 7199SOL    HW233057   0.290   2.994   5.660  0.2704 -0.6024 -0.0399
 7200SOL     OW33058   2.225   4.487   8.925  0.1072  0.2983 -0.1278
 7200SOL    HW133059   2.146   4.491   8.871 -1.6838  0.4336  2.4720
 7200SOL    HW233060   2.247   4.580   8.930 -0.0280  0.3202  0.0414
 7201SOL     OW33061   2.781   1.680  14.767 -0.0783  0.1654  0.1058
 7201SOL    HW133062   2.711   1.745  14.777  0.4556  0.9320 -1.0841
 7201SOL    HW233063   2.825   1.702  14.685  0.3136  0.9091  0.5058
 7202SOL     OW33064   3.030   2.316   3.268 -0.2323 -0.6106 -0.0301
 7202SOL    HW133065   3.035   2.346   3.177  1.2604 -1.5070 -0.2501
 7202SOL    HW233066   2.957   2.366   3.303 -0.5322 -0.7699 -0.4229
 7203SOL     OW33067   3.499   3.001  11.093 -0.0305  0.0114  0.4926
 7203SOL    HW133068   3.532   2.955  11.171 -0.0394  0.1060  0.5523
 7203SOL    HW233069   3.576   3.053  11.073 -0.2796  0.1511 -0.0925
 7204SOL     OW33070   4.331   4.568   3.282 -0.0290  0.0674  0.5594
 7204SOL    HW133071   4.251   4.603   3.321 -0.4800 -2.4430  1.8938
 7204SOL    HW233072   4.293   4.548   3.196 -0.0685  0.7294  0.4249
 7205SOL     OW33073   2.117   2.333  13.978  0.4882 -0.0466 -0.3547
 7205SOL    HW133074   2.053   2.267  13.953 -0.1512 -0.0183  1.2357
 7205SOL    HW233075   2.200   2.287  13.962  0.0562 -0.9182 -0.0942
 7206SOL     OW33076   1.678   1.834   8.297 -0.0271  0.5109 -0.0722
 7206SOL    HW133077   1.724   1.821   8.214  0.3493 -0.1056  0.2295
 7206SOL    HW233078   1.597   1.880   8.276  0.3696  1.1697 -0.1799
 7207SOL     OW33079   1.295   0.672   6.212  0.1696 -0.0465 -0.5615
 7207SOL    HW133080   1.272   0.763   6.230  3.2704  0.3333  1.5966
 7207SOL    HW233081   1.286   0.675   6.117 -1.0336 -1.4553 -0.4986
 7208SOL     OW33082   0.154   3.193   2.209 -0.5382 -0.4783 -0.5098
 7208SOL    HW133083   0.141   3.231   2.122 -0.6346  2.2045  0.6883
 7208SOL    HW233084   0.205   3.117   2.179 -0.6059 -2.0692  3.4698
 7209SOL     OW33085   0.105   0.244  17.024 -0.1939 -0.1401  0.1204
 7209SOL    HW133086   0.195   0.211  17.027 -0.3769 -0.7685 -0.9828
 7209SOL    HW233087   0.118   0.331  17.061 -0.6605  0.0593 -0.1834
 7210SOL     OW33088   0.713   4.131   8.630 -0.4567 -0.2062 -0.0564
 7210SOL    HW133089   0.643   4.125   8.565 -0.1790 -2.0507 -0.1872
 7210SOL    HW233090   0.780   4.072   8.596 -1.5690 -0.2637 -2.1721
 7211SOL     OW33091   0.098   0.108   7.668  0.0447  0.0548  0.6028
 7211SOL    HW133092   0.181   0.063   7.650 -1.2479 -2.2454  0.4672
 7211SOL    HW233093   0.131   0.166   7.737  0.4369 -0.5670  0.9401
 7212SOL     OW33094   3.270   0.111   6.539  0.5195  0.1084 -0.2058
 7212SOL    HW133095   3.215   0.068   6.474 -0.1266  2.0055 -0.8942
 7212SOL    HW233096   3.339   0.109   6.473  0.4132 -0.2816 -0.3086
 7213SOL     OW33097   2.677   4.142   3.311  0.3115 -0.0724 -0.0821
 7213SOL    HW133098   2.709   4.052   3.303  0.6921 -0.0226  0.8962
 7213SOL    HW233099   2.755   4.193   3.333  0.2760 -0.6967  1.4930
 7214SOL     OW33100   1.965   1.862   7.100  0.2225  0.7799 -0.5883
 7214SOL    HW133101   2.055   1.831   7.090  1.0803  2.5557  1.6547
 7214SOL    HW233102   1.935   1.815   7.023 -2.0145 -0.9804  1.3511
 7215SOL     OW33103   1.845   4.149   3.471  0.3357  0.1317  0.1119
 7215SOL    HW133104   1.929   4.103   3.476 -0.7888 -1.9450 -0.5173
 7215SOL    HW233105   1.796   4.105   3.402  1.5963 -0.2206 -0.5639
 7216SOL     OW33106   0.257   2.267   1.798 -0.1326  0.6210  0.5491
 7216SOL    HW133107   0.263   2.295   1.707 -2.4705 -2.9905 -0.6988
 7216SOL    HW233108   0.177   2.215   1.786  1.2349 -1.4498  0.4850
 7217SOL     OW33109   4.401   2.505  15.048  0.2495  0.1363  0.2316
 7217SOL    HW133110   4.311   2.512  15.017  0.1343  0.9668  0.7479
 7217SOL    HW233111   4.448   2.566  14.991 -0.8697  0.0313 -0.8068
 7218SOL     OW33112   2.050   3.973   9.023  0.6610 -0.6282 -0.4335
 7218SOL    HW133113   2.065   4.062   9.054  0.8073 -1.2490  1.2725
 7218SOL    HW233114   2.032   3.928   9.105 -1.1188 -0.7461 -0.8924
 7219SOL     OW33115   2.681   0.659   7.425 -0.4034  0.1385 -0.3367
 7219SOL    HW133116   2.637   0.616   7.498 -1.0059  0.9789 -0.2046
 7219SOL    HW233117   2.774   0.648   7.442 -0.5330  1.4765  1.1848
 7220SOL     OW33118   1.219   1.248   7.008  0.9464 -0.0977  0.0719
 7220SOL    HW133119   1.203   1.253   7.103  1.9605  0.9287  0.1915
 7220SOL    HW233120   1.198   1.341   6.994  1.0460 -0.0750  0.0756
 7221SOL     OW33121   4.441   3.726   4.936 -0.3175  0.0720  0.1702
 7221SOL    HW133122   4.443   3.796   4.871 -0.4538  0.4605  0.5816
 7221SOL    HW233123   4.502   3.767   4.997 -2.7409 -0.3168  2.8684
 7222SOL     OW33124   0.459   2.444   8.104  0.0244 -0.4795 -0.2272
 7222SOL    HW133125   0.402   2.388   8.050 -0.6927 -1.1971  1.2805
 7222SOL    HW233126   0.438   2.424   8.195  2.7292  0.7825  0.6796
 7223SOL     OW33127   2.798   2.966  11.757 -0.2153 -0.6903  0.3747
 7223SOL    HW133128   2.749   3.009  11.686 -1.1106  1.8457  2.5152
 7223SOL    HW233129   2.818   2.877  11.728  0.0411 -0.5014 -0.0382
 7224SOL     OW33130   3.879   2.974  12.776 -0.3733  0.0985  0.0625
 7224SOL    HW133131   3.949   3.013  12.829 -1.0078  1.9332 -0.4558
 7224SOL    HW233132   3.803   2.974  12.834 -0.6450 -2.2218 -0.2950
 7225SOL     OW33133   2.633   1.366   2.264  0.2433 -0.1030  0.4671
 7225SOL    HW133134   2.602   1.364   2.174  4.0539  0.1648 -0.8376
 7225SOL    HW233135   2.639   1.271   2.272 -0.8873 -0.3949 -2.0585
 7226SOL     OW33136   0.564   0.432   8.398 -0.5060 -0.1872  0.3003
 7226SOL    HW133137   0.620   0.465   8.327 -1.4028  1.1395  0.2116
 7226SOL    HW233138   0.475   0.457   8.371  0.7777  2.2312 -1.7194
 7227SOL     OW33139   3.579   2.372   0.620 -0.2161  0.0572  0.2609
 7227SOL    HW133140   3.660   2.401   0.663 -0.6283  3.0131 -0.9663
 7227SOL    HW233141   3.521   2.381   0.696  1.4451 -0.1476  1.5674
 7228SOL     OW33142   4.279   0.279   8.350  0.9182  0.2107 -0.4137
 7228SOL    HW133143   4.359   0.229   8.338  0.2603 -0.8477 -0.4107
 7228SOL    HW233144   4.315   0.366   8.338  0.5790  0.6216  1.6122
 7229SOL     OW33145   2.302   2.460  15.054  0.1215  0.1289  0.2105
 7229SOL    HW133146   2.359   2.477  14.979 -0.7978  0.9595 -0.2956
 7229SOL    HW233147   2.272   2.371  15.035 -2.5850  1.2536 -0.8468
 7230SOL     OW33148   0.877   1.626   8.310 -0.1165  0.6615  0.2223
 7230SOL    HW133149   0.941   1.605   8.378 -1.3132  1.4055  1.5821
 7230SOL    HW233150   0.805   1.565   8.326  1.0076 -1.2421 -2.1265
 7231SOL     OW33151   4.149   3.068   7.808 -0.1911 -0.3045  0.6544
 7231SOL    HW133152   4.130   3.162   7.801  0.0244 -0.3835 -0.9931
 7231SOL    HW233153   4.177   3.053   7.718 -0.7004 -1.5633  0.7085
 7232SOL     OW33154   4.671   1.963   3.496  0.6217 -0.1298  0.3077
 7232SOL    HW133155   0.006   1.892   3.469  0.7019 -0.7398  2.1014
 7232SOL    HW233156   4.678   1.969   3.591  0.5034 -0.2886  0.3271
 7233SOL     OW33157   3.184   3.098  10.726  0.3534 -0.2491  0.2063
 7233SOL    HW133158   3.204   3.030  10.790 -0.7791 -1.3381 -0.6289
 7233SOL    HW233159   3.239   3.173  10.752  0.3431 -0.5716  1.1403
 7234SOL     OW33160   3.089   3.524   3.045 -0.0193  0.2747  0.5986
 7234SOL    HW133161   3.178   3.499   3.018  0.2171 -1.7082  3.1534
 7234SOL    HW233162   3.100   3.607   3.091 -0.1935  1.4124 -1.4046
 7235SOL     OW33163   1.538   4.585   3.793  0.0484  0.6050 -0.5162
 7235SOL    HW133164   1.511   4.592   3.885  0.5025  1.1918 -0.4318
 7235SOL    HW233165   1.546   4.674   3.758 -2.3209  0.2885 -1.8822
 7236SOL     OW33166   3.971   2.576   5.700  0.1588  0.1805  0.1013
 7236SOL    HW133167   4.047   2.634   5.695 -0.0237  0.4165  0.1154
 7236SOL    HW233168   3.973   2.542   5.610  0.6569 -3.0210  1.3204
 7237SOL     OW33169   2.220   0.424   4.275 -0.0395  0.2440 -0.1141
 7237SOL    HW133170   2.154   0.427   4.206 -0.7429 -2.2089  0.4520
 7237SOL    HW233171   2.169   0.412   4.355 -1.1433 -1.4774 -1.0675
 7238SOL     OW33172   4.104   1.706  16.449  0.4854 -1.1029  0.3154
 7238SOL    HW133173   4.067   1.788  16.483  2.7446 -0.5819  1.4838
 7238SOL    HW233174   4.124   1.723  16.357  2.4543 -0.7279  0.8051
 7239SOL     OW33175   2.592   2.377   1.696 -0.2797 -0.1030 -0.0631
 7239SOL    HW133176   2.517   2.414   1.743 -0.6587 -0.6480 -0.2407
 7239SOL    HW233177   2.558   2.361   1.608  0.8079  1.7334 -0.8259
 7240SOL     OW33178   0.821   2.321  16.629 -0.4061  0.1887 -0.1569
 7240SOL    HW133179   0.858   2.319  16.540  1.8347  0.1249  0.7730
 7240SOL    HW233180   0.888   2.267  16.672 -0.6546 -0.7199 -0.8894
 7241SOL     OW33181   1.016   1.283   4.063 -0.3411  0.1514 -0.6010
 7241SOL    HW133182   1.037   1.202   4.017 -0.7954 -0.6263  0.5288
 7241SOL    HW233183   0.920   1.291   4.061 -0.4016  0.2027  2.4937
 7242SOL     OW33184   1.896   2.754  11.801  0.0840  0.2650 -0.0750
 7242SOL    HW133185   1.802   2.765  11.784  0.1125  0.8089  0.1171
 7242SOL    HW233186   1.900   2.821  11.870  2.1781 -1.4625  1.4606
 7243SOL     OW33187   4.535   3.513   4.780  0.0080  0.1815  0.0464
 7243SOL    HW133188   4.449   3.478   4.805 -0.6639  1.9420  0.2575
 7243SOL    HW233189   4.511   3.604   4.763 -1.7582 -0.4888 -1.0460
 7244SOL     OW33190   0.349   3.557   2.035 -0.0229  0.0721 -0.2048
 7244SOL    HW133191   0.259   3.563   2.003  0.2132  2.8916 -0.3220
 7244SOL    HW233192   0.357   3.624   2.103 -0.8792 -0.2804  0.2469
 7245SOL     OW33193   3.250   1.700   2.093 -0.0996 -0.4013  0.4300
 7245SOL    HW133194   3.269   1.639   2.165  3.4034  0.9537  0.6527
 7245SOL    HW233195   3.283   1.787   2.115  0.3183 -0.1898 -1.0624
 7246SOL     OW33196   1.065   3.540   4.420  0.1273  0.3335  0.5304
 7246SOL    HW133197   1.056   3.445   4.406  1.0810 -0.1445  3.1245
 7246SOL    HW233198   1.068   3.576   4.332 -0.2922 -0.5784  0.1482
 7247SOL     OW33199   0.811   0.903   4.345 -0.4722  0.8204 -0.5335
 7247SOL    HW133200   0.902   0.880   4.364 -0.5750 -0.0953 -1.1714
 7247SOL    HW233201   0.774   0.828   4.391 -0.8688  0.3891 -1.5458
 7248SOL     OW33202   3.792   0.008   5.470 -0.2790 -0.0057  0.0676
 7248SOL    HW133203   3.791   4.641   5.503 -0.2637  0.6323  1.7891
 7248SOL    HW233204   3.792   0.065   5.547 -0.1959 -1.2763  0.9935
 7249SOL     OW33205   1.017   3.061   6.087 -0.2569 -0.2542  0.0989
 7249SOL    HW133206   1.073   3.003   6.035 -0.5893  0.6736 -1.3142
 7249SOL    HW233207   1.029   3.028   6.176 -1.9114  1.5296  0.9807
 7250SOL     OW33208   3.415   3.320  16.319 -0.3785 -0.6937 -0.2899
 7250SOL    HW133209   3.351   3.311  16.248 -0.8710  0.2065  0.0388
 7250SOL    HW233210   3.370   3.354  16.396  0.9049 -1.0460  0.6101
 7251SOL     OW33211   1.654   0.644  13.984 -0.2534  0.2156 -0.6427
 7251SOL    HW133212   1.687   0.592  13.910 -1.7130 -1.4136 -0.1568
 7251SOL    HW233213   1.616   0.712  13.929  1.4998  0.9101 -1.0002
 7252SOL     OW33214   4.349   1.056   2.412  0.4390  0.5335 -0.2088
 7252SOL    HW133215   4.356   0.967   2.445  1.0124  0.3096 -0.9279
 7252SOL    HW233216   4.436   1.066   2.372 -0.8723  0.7378 -3.0097
 7253SOL     OW33217   4.428   0.125   3.873 -0.1260  0.3278 -0.3102
 7253SOL    HW133218   4.498   0.124   3.808 -1.9722  1.0470 -2.2905
 7253SOL    HW233219   4.452   0.061   3.941  0.4311 -0.6613 -1.4268
 7254SOL     OW33220   2.745   2.079   3.914  0.2143 -0.3287 -0.1585
 7254SOL    HW133221   2.791   2.126   3.984  0.0507 -0.8785  0.3185
 7254SOL    HW233222   2.800   2.000   3.920 -0.2167 -0.5992  0.1968
 7255SOL     OW33223   1.528   2.791   4.078  0.3579 -0.2464 -0.0974
 7255SOL    HW133224   1.622   2.799   4.063  0.5694 -0.0450  1.3558
 7255SOL    HW233225   1.500   2.773   3.988 -1.3735  0.2877  0.3185
 7256SOL     OW33226   4.357   4.289  11.412 -0.1866 -0.3088  0.5731
 7256SOL    HW133227   4.425   4.242  11.363 -0.3579  0.0787 -0.0361
 7256SOL    HW233228   4.339   4.232  11.487  1.2818 -1.0046  0.4050
 7257SOL     OW33229   1.140   2.995   3.412  0.2049  0.7063 -0.2317
 7257SOL    HW133230   1.234   2.997   3.394  0.2422  0.8736 -0.0203
 7257SOL    HW233231   1.088   2.966   3.337 -0.1233 -1.4920  0.8709
 7258SOL     OW33232   1.062   2.861   6.277  0.0594  0.5460 -0.0712
 7258SOL    HW133233   1.144   2.878   6.323 -0.8593  0.4632  1.5801
 7258SOL    HW233234   1.002   2.844   6.349 -0.5337 -0.8614 -0.8898
 7259SOL     OW33235   3.959   4.570   5.729 -0.0533 -0.6665  0.1596
 7259SOL    HW133236   4.016   4.526   5.666 -0.5358  0.3322 -0.9559
 7259SOL    HW233237   4.026   4.589   5.795  0.6617 -1.7525 -0.2588
 7260SOL     OW33238   1.258   4.513  15.566 -0.6298  0.0200  0.0403
 7260SOL    HW133239   1.271   4.586  15.506  0.2906 -0.7056 -0.6625
 7260SOL    HW233240   1.167   4.491  15.548 -0.5947 -0.6715  0.6958
 7261SOL     OW33241   1.670   0.798   1.977 -0.4777 -0.4510 -0.4913
 7261SOL    HW133242   1.588   0.842   1.997  1.5002  1.8396  2.5615
 7261SOL    HW233243   1.635   0.712   1.951 -0.7412 -0.6508  0.5029
 7262SOL     OW33244   2.976   0.991   0.975 -0.6272 -0.0871  0.4143
 7262SOL    HW133245   2.929   0.908   0.964 -0.4553 -0.2182  0.6801
 7262SOL    HW233246   2.978   1.010   1.068  1.1241 -0.2766  0.4218
 7263SOL     OW33247   0.313   3.441   2.291 -0.2465  0.2746 -0.2354
 7263SOL    HW133248   0.293   3.508   2.226 -2.4116  1.0155  1.1834
 7263SOL    HW233249   0.257   3.369   2.266 -0.1812  1.1859 -2.9660
 7264SOL     OW33250   0.151   2.526   5.248 -0.3670 -0.7809  0.0031
 7264SOL    HW133251   0.238   2.486   5.252 -0.9069 -2.0512 -0.8040
 7264SOL    HW233252   0.097   2.454   5.217 -0.3310 -1.1938  0.8953
 7265SOL     OW33253   2.095   0.780   4.669 -0.6471 -0.5236 -0.1707
 7265SOL    HW133254   2.057   0.837   4.603  0.8444  1.5882  0.7799
 7265SOL    HW233255   2.020   0.725   4.694 -0.9240 -0.9317 -1.9545
 7266SOL     OW33256   1.446   1.465  17.165 -0.2442  0.2221 -0.4507
 7266SOL    HW133257   1.484   1.542  17.122 -1.1892  1.6478  1.2502
 7266SOL    HW233258   1.356   1.495  17.177 -0.6618 -1.5849  0.8963
 7267SOL     OW33259   3.833   1.756  14.569  0.1182  0.1447  0.5368
 7267SOL    HW133260   3.912   1.705  14.587 -0.6208 -1.1369  0.1074
 7267SOL    HW233261   3.775   1.696  14.616  1.8053 -2.2035 -0.3540
 7268SOL     OW33262   0.967   3.285   4.356  0.9105 -0.4657  0.1642
 7268SOL    HW133263   0.951   3.274   4.262  0.0953 -0.6958  0.3262
 7268SOL    HW233264   0.896   3.233   4.395  1.0827  0.0567  1.1762
 7269SOL     OW33265   2.953   2.082   0.792 -0.7752  0.2749 -0.5303
 7269SOL    HW133266   2.927   2.071   0.883  2.9374 -0.9207  0.4046
 7269SOL    HW233267   2.997   2.167   0.789 -0.7784  0.3415  1.1119
 7270SOL     OW33268   3.133   2.966   0.837  0.3571  0.3453 -0.4772
 7270SOL    HW133269   3.040   2.973   0.814  0.5950  2.8581 -0.6895
 7270SOL    HW233270   3.173   3.045   0.800  3.1478 -0.9331 -0.2329
 7271SOL     OW33271   1.937   4.047   8.206 -0.2535 -0.1840 -0.0927
 7271SOL    HW133272   1.857   4.081   8.165 -0.3869 -0.4647 -0.0676
 7271SOL    HW233273   1.989   4.127   8.206 -0.4835 -0.0197 -1.9582
 7272SOL     OW33274   0.975   2.053   4.318  0.3663 -0.0385  0.0244
 7272SOL    HW133275   0.967   2.027   4.410 -0.5271 -0.3815 -0.1505
 7272SOL    HW233276   1.062   2.021   4.293  0.4861  1.6396 -1.7609
 7273SOL     OW33277   3.809   3.769   8.731 -0.0572  0.0957  0.1182
 7273SOL    HW133278   3.868   3.842   8.717 -0.0062 -0.5211 -2.7489
 7273SOL    HW233279   3.724   3.808   8.708  0.6995  2.0178  0.5870
 7274SOL     OW33280   1.338   3.378   4.457 -0.5474 -0.3805  0.6450
 7274SOL    HW133281   1.387   3.460   4.461  0.8817 -1.2015  0.1232
 7274SOL    HW233282   1.407   3.314   4.477  1.3026  0.8781 -1.6874
 7275SOL     OW33283   1.530   0.313   5.424 -0.1507 -0.4157  0.1355
 7275SOL    HW133284   1.499   0.223   5.419 -0.5724 -0.4515  3.4167
 7275SOL    HW233285   1.487   0.337   5.507  1.4031 -0.1839  0.8659
 7276SOL     OW33286   4.561   2.578  10.569  0.5676 -0.1641  0.2865
 7276SOL    HW133287   4.600   2.495  10.543 -0.3868 -0.4777 -0.1303
 7276SOL    HW233288   4.484   2.573  10.513 -1.0101  1.5045  2.2907
 7277SOL     OW33289   4.074   3.902   3.645 -0.2715  0.8398 -0.1461
 7277SOL    HW133290   4.042   3.868   3.728 -0.1237  3.3506  0.9229
 7277SOL    HW233291   4.034   3.834   3.590  0.5347 -0.6772  1.1305
 7278SOL     OW33292   2.104   0.536   0.757 -0.3929  0.0301 -0.3820
 7278SOL    HW133293   2.070   0.625   0.746  0.0288  0.2369 -0.0468
 7278SOL    HW233294   2.154   0.525   0.676  1.6559  2.3026  0.5490
 7279SOL     OW33295   4.472   2.693   2.759 -0.4177  0.0374 -0.4777
 7279SOL    HW133296   4.392   2.659   2.719 -0.7227  1.2688 -0.9406
 7279SOL    HW233297   4.441   2.713   2.847  0.1872  1.8858 -0.6800
 7280SOL     OW33298   1.440   0.797   8.087  0.0966 -0.4650 -0.2909
 7280SOL    HW133299   1.482   0.840   8.012  0.0518  1.8693  1.0209
 7280SOL    HW233300   1.428   0.710   8.049  0.0151 -0.6519  0.1643
 7281SOL     OW33301   2.607   3.813   5.231 -0.1610  0.0188  0.0950
 7281SOL    HW133302   2.572   3.765   5.157 -1.6188  0.9023  0.2006
 7281SOL    HW233303   2.699   3.785   5.231 -0.4115 -0.7796 -2.0953
 7282SOL     OW33304   1.452   3.778  13.686 -1.2077 -0.2138 -0.1642
 7282SOL    HW133305   1.523   3.792  13.624 -2.1283  3.5310 -0.3674
 7282SOL    HW233306   1.453   3.683  13.699 -1.3235 -0.2030 -0.0821
 7283SOL     OW33307   2.380   3.099   8.531  0.3695  0.7377 -0.0565
 7283SOL    HW133308   2.297   3.105   8.484 -0.6340 -0.6345  1.5336
 7283SOL    HW233309   2.398   3.007   8.509 -2.2497  0.2769 -0.2579
 7284SOL     OW33310   0.583   1.301   5.749 -0.4823  0.1735  0.8056
 7284SOL    HW133311   0.566   1.368   5.815  0.6112  0.7832  0.4685
 7284SOL    HW233312   0.505   1.245   5.752 -1.0273  1.0394  2.5662
 7285SOL     OW33313   1.385   4.115   5.827 -0.0834  0.4867  0.7043
 7285SOL    HW133314   1.356   4.188   5.882 -1.4970  0.3635  0.1091
 7285SOL    HW233315   1.404   4.166   5.748 -2.9977 -0.6639 -0.6970
 7286SOL     OW33316   3.614   0.008   0.910 -0.2843  0.1806 -0.1250
 7286SOL    HW133317   3.596   0.083   0.852 -1.2933 -0.2205 -0.3337
 7286SOL    HW233318   3.544   4.666   0.900 -0.8928  0.7321  0.5171
 7287SOL     OW33319   0.070   0.678  14.504  0.6655  0.3664 -0.0829
 7287SOL    HW133320   0.056   0.604  14.445 -0.2891  0.3458  0.1823
 7287SOL    HW233321   4.715   0.733  14.497  0.5280  0.1709 -0.0866
 7288SOL     OW33322   0.625   0.179   3.921 -0.7253  0.1573 -0.5511
 7288SOL    HW133323   0.636   0.236   3.997  0.2894 -0.5668 -0.1689
 7288SOL    HW233324   0.702   0.123   3.926 -0.2259  0.8639 -0.2864
 7289SOL     OW33325   3.988   4.471   9.162 -0.0993  0.2394 -0.6358
 7289SOL    HW133326   3.900   4.440   9.179 -0.5221  1.0477 -1.3301
 7289SOL    HW233327   4.043   4.421   9.222 -1.7376 -0.0041  0.6554
 7290SOL     OW33328   2.147   3.212   3.235 -0.0852  0.6731  0.4247
 7290SOL    HW133329   2.233   3.196   3.198 -0.3029  2.1058 -0.7117
 7290SOL    HW233330   2.100   3.203   3.151  1.0519 -3.1199  0.2211
 7291SOL     OW33331   0.693   1.645  15.103 -0.2994 -0.2709 -0.1077
 7291SOL    HW133332   0.725   1.571  15.053 -3.0911 -1.6041  0.0949
 7291SOL    HW233333   0.739   1.718  15.061 -3.4521  1.6141 -0.3663
 7292SOL     OW33334   3.136   4.611  17.299  0.3394  0.0334 -0.0500
 7292SOL    HW133335   3.230   4.597  17.303  0.4211  0.5377 -0.2434
 7292SOL    HW233336   3.132   4.677  17.229  0.5956 -1.0014 -1.0507
 7293SOL     OW33337   3.863   0.352  10.647 -0.1873 -0.0444 -0.0054
 7293SOL    HW133338   3.925   0.323  10.714 -2.9427 -1.4605  1.9833
 7293SOL    HW233339   3.785   0.324  10.695  0.8438 -0.2606  1.5553
 7294SOL     OW33340   0.215   2.148   7.569  0.1735  0.6322 -0.3173
 7294SOL    HW133341   0.240   2.089   7.640 -1.7552  3.5327  2.7335
 7294SOL    HW233342   0.303   2.173   7.542  1.0784 -1.7357  0.4239
 7295SOL     OW33343   3.140   0.416   7.058  0.2448 -0.4240 -0.1436
 7295SOL    HW133344   3.186   0.473   6.997 -1.5733  0.4808 -0.6820
 7295SOL    HW233345   3.207   0.362   7.099  1.3986  1.9009  0.9935
 7296SOL     OW33346   1.264   1.957   4.657  0.3196 -0.2387  0.2423
 7296SOL    HW133347   1.251   1.994   4.745 -1.2648  0.7451 -0.3856
 7296SOL    HW233348   1.171   1.964   4.635  0.9192 -0.1843 -2.2349
 7297SOL     OW33349   1.807   4.018   1.290  0.9680  0.6937 -0.4846
 7297SOL    HW133350   1.766   3.966   1.359 -2.0239 -0.5614 -3.2283
 7297SOL    HW233351   1.896   4.009   1.324  0.8480 -0.7687 -0.5928
 7298SOL     OW33352   1.961   3.043  16.445  0.1758  0.5376 -0.6720
 7298SOL    HW133353   1.987   2.951  16.444 -1.8187 -0.0554  0.8523
 7298SOL    HW233354   1.997   3.062  16.532 -2.2619  2.2368 -0.0448
 7299SOL     OW33355   4.503   0.839   8.607 -0.2528  0.4402  0.0912
 7299SOL    HW133356   4.463   0.898   8.671  2.1751 -0.8484  2.7787
 7299SOL    HW233357   4.568   0.894   8.562  1.7793 -0.9717  1.2835
 7300SOL     OW33358   1.067   1.894  13.858  0.4228  0.2648  0.2438
 7300SOL    HW133359   1.138   1.956  13.873  1.4314 -1.0158  0.7284
 7300SOL    HW233360   1.015   1.897  13.938 -0.6057 -0.7067 -0.3903
 7301SOL     OW33361   3.939   0.355   5.724  0.0469 -0.4389 -0.9133
 7301SOL    HW133362   3.959   0.344   5.817  0.5915 -2.8155 -1.3243
 7301SOL    HW233363   4.004   0.419   5.695 -0.7386  0.5174 -0.5646
 7302SOL     OW33364   0.481   3.944   4.138  0.0742 -0.2480  0.6627
 7302SOL    HW133365   0.505   4.008   4.205  0.1715 -0.4751  0.8451
 7302SOL    HW233366   0.526   3.860   4.155 -1.2874 -0.7019  1.9918
 7303SOL     OW33367   4.252   1.648   9.288  0.1607 -0.6164 -0.3754
 7303SOL    HW133368   4.343   1.629   9.313  0.3688 -2.5301 -2.6101
 7303SOL    HW233369   4.246   1.732   9.332  1.5774 -0.3313 -0.7173
 7304SOL     OW33370   1.207   1.782   4.431 -0.3904  0.5609 -0.5394
 7304SOL    HW133371   1.241   1.835   4.358  0.1814 -0.5564 -1.0817
 7304SOL    HW233372   1.224   1.832   4.511  0.1437 -0.2892 -0.1332
 7305SOL     OW33373   3.443   4.523   2.177 -0.6948 -0.1378  0.1326
 7305SOL    HW133374   3.398   4.490   2.099  0.3793 -0.6262 -0.2696
 7305SOL    HW233375   3.486   4.603   2.150 -1.1389 -0.7045 -2.2879
 7306SOL     OW33376   2.547   2.062   4.328  0.1689  0.6564  0.2550
 7306SOL    HW133377   2.641   2.059   4.346 -0.0507  1.0268  1.4854
 7306SOL    HW233378   2.518   2.103   4.410  0.6540 -0.8871  1.1849
 7307SOL     OW33379   0.276   2.904  14.011 -0.6083  0.2737 -0.3538
 7307SOL    HW133380   0.338   2.928  13.943  0.8758 -1.4717  0.4160
 7307SOL    HW233381   0.239   2.825  13.973  1.3315 -0.5822 -0.4221
 7308SOL     OW33382   0.875   2.272   3.627 -0.4924  0.4978  0.0830
 7308SOL    HW133383   0.850   2.194   3.678 -0.2719  0.3776  0.0093
 7308SOL    HW233384   0.831   2.252   3.545 -0.8522 -0.4057  0.4937
 7309SOL     OW33385   3.693   3.211   1.992 -0.0633  0.1783  0.0003
 7309SOL    HW133386   3.753   3.211   1.917 -0.1542  2.0528 -0.0689
 7309SOL    HW233387   3.748   3.162   2.053  0.7296 -0.2574 -1.0633
 7310SOL     OW33388   2.952   4.489   4.623 -0.6175  0.2854 -0.3240
 7310SOL    HW133389   3.001   4.560   4.580 -0.9176  0.5142 -0.2850
 7310SOL    HW233390   2.929   4.441   4.543  0.6192  0.2667 -0.6745
 7311SOL     OW33391   4.531   2.701  14.066 -0.6200  0.4714 -0.6877
 7311SOL    HW133392   4.538   2.797  14.059  1.9152  0.2812 -0.8525
 7311SOL    HW233393   4.610   2.684  14.117 -1.4644  0.7235  0.7209
 7312SOL     OW33394   1.127   3.262  13.380  0.0434 -0.4686 -0.2292
 7312SOL    HW133395   1.124   3.168  13.362  0.6760 -0.0974 -2.3323
 7312SOL    HW233396   1.060   3.287  13.316  0.1876 -0.2276 -0.2852
 7313SOL     OW33397   3.706   2.544   5.325  0.0741 -0.0004 -0.4640
 7313SOL    HW133398   3.785   2.490   5.329 -0.6521 -1.0140 -0.0714
 7313SOL    HW233399   3.754   2.618   5.363 -0.6490  0.0418  0.3515
 7314SOL     OW33400   0.946   1.255   5.624 -0.0689 -0.4954  0.3967
 7314SOL    HW133401   0.918   1.194   5.556 -2.9589 -0.2680  1.3922
 7314SOL    HW233402   0.871   1.314   5.628 -0.2810 -0.6849 -1.0826
 7315SOL     OW33403   1.213   1.612  11.522  0.2177  0.0924  0.4515
 7315SOL    HW133404   1.224   1.629  11.616 -1.0109 -0.2966  0.6615
 7315SOL    HW233405   1.279   1.676  11.496  0.7185 -1.6035 -2.4574
 7316SOL     OW33406   2.007   2.239  11.444 -0.0369 -0.2672 -0.3429
 7316SOL    HW133407   2.062   2.301  11.492  2.2612 -1.2334 -1.7137
 7316SOL    HW233408   2.074   2.170  11.444 -0.0971 -0.3172  1.1290
 7317SOL     OW33409   2.364   2.704   9.002  0.2669 -0.6256  0.2963
 7317SOL    HW133410   2.336   2.780   8.951 -1.3621 -0.9440  0.7191
 7317SOL    HW233411   2.452   2.729   9.031  0.5134 -2.5469  1.1859
 7318SOL     OW33412   0.786   2.253   8.549  0.1910 -0.1120  0.3744
 7318SOL    HW133413   0.827   2.340   8.553  0.4546 -0.1931 -0.7602
 7318SOL    HW233414   0.852   2.201   8.504  0.2784  2.7819 -2.8081
 7319SOL     OW33415   0.646   0.538   2.338 -0.0515 -0.2213  1.2500
 7319SOL    HW133416   0.714   0.472   2.327 -0.4004 -0.1909 -1.1201
 7319SOL    HW233417   0.568   0.497   2.302  1.0407 -2.6584  1.6349
 7320SOL     OW33418   0.291   3.735   2.642 -0.0551 -0.0199  0.1170
 7320SOL    HW133419   0.221   3.776   2.692  0.1848  0.0726  0.3829
 7320SOL    HW233420   0.290   3.777   2.557 -0.0411 -0.4463 -0.0965
 7321SOL     OW33421   3.291   2.218  14.479 -0.0637 -0.1172  0.2029
 7321SOL    HW133422   3.341   2.159  14.423 -0.2983 -0.4874  0.3868
 7321SOL    HW233423   3.202   2.187  14.460  0.3780  0.7126 -3.3405
 7322SOL     OW33424   4.013   4.088   1.480 -0.1759 -0.0753  0.0242
 7322SOL    HW133425   4.101   4.079   1.516 -1.1260  0.9632  2.6176
 7322SOL    HW233426   4.026   4.021   1.413 -0.1679 -1.6751  1.6121
 7323SOL     OW33427   1.602   3.619   0.946 -0.0971  0.3613  0.0848
 7323SOL    HW133428   1.672   3.559   0.922  1.3703  1.8315  0.6986
 7323SOL    HW233429   1.603   3.641   1.039 -1.7190 -0.4341  0.3081
 7324SOL     OW33430   2.498   3.060  12.844  0.1849 -0.2311 -0.3188
 7324SOL    HW133431   2.575   3.096  12.888 -0.5897  0.9231  0.1066
 7324SOL    HW233432   2.481   3.121  12.772  1.0427 -0.4401 -0.6981
 7325SOL     OW33433   0.617   0.772   4.992 -0.1854  0.2224  0.1277
 7325SOL    HW133434   0.677   0.846   5.003 -0.1320  0.1984 -0.0048
 7325SOL    HW233435   0.673   0.695   4.984 -1.1609 -0.7734  2.7460
 7326SOL     OW33436   2.909   1.613   3.258 -0.1774 -0.2942 -0.0230
 7326SOL    HW133437   2.825   1.600   3.214 -0.0900  0.8154 -0.5283
 7326SOL    HW233438   2.965   1.647   3.188 -0.7913 -0.4206 -0.5774
 7327SOL     OW33439   3.849   1.351   6.001  0.6779  0.1515 -0.7307
 7327SOL    HW133440   3.931   1.396   6.024  2.0453 -2.6150 -0.1789
 7327SOL    HW233441   3.802   1.360   6.084  1.1061 -2.4096 -0.2038
 7328SOL     OW33442   2.660   0.577   2.833 -0.5127 -0.7411  0.1955
 7328SOL    HW133443   2.727   0.625   2.785 -1.1676 -0.2581 -0.2291
 7328SOL    HW233444   2.585   0.578   2.774 -1.0125 -2.7821  0.7898
 7329SOL     OW33445   1.841   3.425   5.434 -0.1408  0.0405 -0.0080
 7329SOL    HW133446   1.910   3.431   5.500 -0.4290 -1.7882  0.4693
 7329SOL    HW233447   1.835   3.514   5.402  0.1404 -0.1223 -0.5107
 7330SOL     OW33448   2.681   3.131   5.180 -0.3069 -1.0743 -0.4579
 7330SOL    HW133449   2.639   3.183   5.111 -0.5258 -0.1803  0.3427
 7330SOL    HW233450   2.715   3.054   5.134 -3.1510 -2.0986 -0.8030
 7331SOL     OW33451   1.502   2.351   9.273 -0.3597 -0.1627 -0.1497
 7331SOL    HW133452   1.469   2.419   9.214  0.0550  1.1115  1.0866
 7331SOL    HW233453   1.594   2.373   9.286 -0.9587  1.5043  1.2793
 7332SOL     OW33454   0.291   2.087   4.531 -0.5760 -0.2776 -0.0378
 7332SOL    HW133455   0.302   2.137   4.611 -1.4370  2.0361 -1.3581
 7332SOL    HW233456   0.349   2.125   4.465  0.6156 -0.3518  0.9553
 7333SOL     OW33457   2.503   3.641  13.541  0.0758 -0.3655 -0.0296
 7333SOL    HW133458   2.494   3.736  13.552  0.1575 -0.5983  1.9827
 7333SOL    HW233459   2.477   3.605  13.626  0.0455  0.0543  0.1394
 7334SOL     OW33460   3.236   2.760   3.518  0.4717 -0.6969 -0.1099
 7334SOL    HW133461   3.214   2.828   3.581 -0.3365 -2.5211  1.5780
 7334SOL    HW233462   3.173   2.689   3.530 -1.9900  1.9012  2.3377
 7335SOL     OW33463   1.594   3.584   3.582  0.1769  0.0742 -0.6815
 7335SOL    HW133464   1.630   3.665   3.617 -0.5158 -0.4354  1.2445
 7335SOL    HW233465   1.678   3.553   3.547  1.7184  2.2094  1.2084
 7336SOL     OW33466   1.446   2.493   7.832 -0.0253  0.7628  0.0331
 7336SOL    HW133467   1.496   2.488   7.750  2.0393  0.9609  1.2998
 7336SOL    HW233468   1.515   2.465   7.892 -0.6373  0.1716  0.4590
 7337SOL     OW33469   0.695   3.980   3.143  0.1418  0.0400 -0.1236
 7337SOL    HW133470   0.636   4.020   3.206 -0.6002 -0.2322 -0.6428
 7337SOL    HW233471   0.680   3.887   3.160 -0.5250 -0.2681 -2.3039
 7338SOL     OW33472   2.323   3.594   5.381  0.5882  0.1257 -0.7696
 7338SOL    HW133473   2.304   3.600   5.288 -0.8337 -0.5892 -0.5247
 7338SOL    HW233474   2.240   3.607   5.427  2.3205 -3.3805  3.3584
 7339SOL     OW33475   1.521   2.678  11.265 -0.2513  0.4133  0.0670
 7339SOL    HW133476   1.533   2.606  11.326  0.1939 -1.2393 -1.9656
 7339SOL    HW233477   1.425   2.680  11.263 -0.2740 -0.8320  0.0726
 7340SOL     OW33478   3.206   0.038   1.069  0.0060 -0.1833  0.6072
 7340SOL    HW133479   3.176   0.018   1.158 -0.9530  0.8643  0.5297
 7340SOL    HW233480   3.198   0.133   1.074 -0.0224 -0.1982  0.8966
 7341SOL     OW33481   3.878   4.571   7.041  0.5006 -0.3061 -0.2389
 7341SOL    HW133482   3.845   4.526   6.964  2.2302 -1.3998 -0.3452
 7341SOL    HW233483   3.878   4.494   7.097 -0.5918  0.5706  0.9557
 7342SOL     OW33484   3.594   3.170  12.677 -0.1350  0.2052 -0.1956
 7342SOL    HW133485   3.672   3.116  12.694  1.0020  2.2796  1.0929
 7342SOL    HW233486   3.578   3.141  12.587 -1.4398  0.8636 -0.1753
 7343SOL     OW33487   3.265   0.572   9.864 -0.1971  0.5091  0.2103
 7343SOL    HW133488   3.333   0.604   9.923 -0.3598  0.0274  0.6562
 7343SOL    HW233489   3.296   0.602   9.778 -0.4193  0.8442  0.2449
 7344SOL     OW33490   1.659   1.708   6.593 -0.1554 -0.2594 -0.0550
 7344SOL    HW133491   1.724   1.642   6.618  2.5311  2.3772 -0.0387
 7344SOL    HW233492   1.620   1.739   6.675 -2.4803 -2.4859 -0.3457
 7345SOL     OW33493   0.721   3.909  14.925 -0.0793  0.0778 -0.5960
 7345SOL    HW133494   0.733   3.826  14.972 -0.9012 -0.3578 -1.1645
 7345SOL    HW233495   0.742   3.883  14.836  1.8103  0.9744 -0.4098
 7346SOL     OW33496   1.970   3.430   2.451 -0.0862  0.0166  0.0301
 7346SOL    HW133497   1.925   3.468   2.526 -2.2836  0.0647 -1.3326
 7346SOL    HW233498   1.929   3.475   2.378  0.1858 -1.4504 -1.0262
 7347SOL     OW33499   0.912   2.712   3.979  0.1804 -0.1183  0.1304
 7347SOL    HW133500   0.900   2.749   4.066 -0.1243 -1.7094  0.7603
 7347SOL    HW233501   0.830   2.664   3.965 -0.4147  0.7204  0.7480
 7348SOL     OW33502   3.331   0.189   3.353 -0.0894  0.4199  0.2842
 7348SOL    HW133503   3.306   0.097   3.355 -0.9609  0.6368 -0.5472
 7348SOL    HW233504   3.325   0.211   3.260  0.9166 -1.9808 -0.3503
 7349SOL     OW33505   3.676   1.770   2.142 -0.9852 -0.2290 -0.4841
 7349SOL    HW133506   3.711   1.855   2.119 -1.4154  0.1710  0.3148
 7349SOL    HW233507   3.696   1.717   2.065  0.4396 -2.0096  1.0965
 7350SOL     OW33508   0.856   3.140   5.293  0.0897 -0.2265  0.2544
 7350SOL    HW133509   0.807   3.216   5.261  0.2776 -0.5813 -0.8619
 7350SOL    HW233510   0.884   3.169   5.380  0.2219  1.2468 -0.2833
 7351SOL     OW33511   1.000   2.205   2.542  0.2609 -0.3621 -0.0737
 7351SOL    HW133512   1.021   2.126   2.493  3.1050  0.5585 -0.3458
 7351SOL    HW233513   0.933   2.175   2.603  1.6129 -0.2470  1.4617
 7352SOL     OW33514   1.390   2.550   6.122 -0.6368  0.7384 -0.0822
 7352SOL    HW133515   1.307   2.597   6.113 -0.7410  0.8937  1.6782
 7352SOL    HW233516   1.450   2.622   6.099  0.4886 -0.6396 -1.4193
 7353SOL     OW33517   1.984   3.221   1.999 -0.5428 -0.3202  0.2759
 7353SOL    HW133518   2.042   3.289   2.033 -1.8122  1.4054 -0.9625
 7353SOL    HW233519   1.989   3.252   1.908  1.1726 -2.2919 -0.2871
 7354SOL     OW33520   2.496   1.239   2.573 -0.1096  0.2623  0.0577
 7354SOL    HW133521   2.423   1.260   2.632  1.3594  0.5699  1.7776
 7354SOL    HW233522   2.456   1.222   2.488  0.3454 -1.7620  0.2548
 7355SOL     OW33523   1.617   0.877  11.891 -0.7111 -0.0951  0.0723
 7355SOL    HW133524   1.565   0.798  11.877 -0.0776 -0.7503  1.4005
 7355SOL    HW233525   1.549   0.943  11.887  1.3337  1.9953 -0.0267
 7356SOL     OW33526   3.592   0.348   4.750  0.1479  0.0885 -0.1737
 7356SOL    HW133527   3.566   0.310   4.834  0.2916 -1.7285 -0.9683
 7356SOL    HW233528   3.591   0.443   4.766  0.6947  0.1938 -0.7904
 7357SOL     OW33529   1.381   3.740   8.401 -0.4437  0.3599 -0.2655
 7357SOL    HW133530   1.292   3.750   8.435 -0.5817  0.1931 -0.5825
 7357SOL    HW233531   1.375   3.810   8.336  0.3593  1.7756  1.1958
 7358SOL     OW33532   0.636   0.796   4.099 -0.5305 -0.1537  0.1077
 7358SOL    HW133533   0.691   0.811   4.176 -2.1798  1.1095  1.0457
 7358SOL    HW233534   0.703   0.760   4.042  0.1428 -0.7680  1.2825
 7359SOL     OW33535   1.939   2.910   7.954  0.1754  0.2570 -0.0364
 7359SOL    HW133536   1.952   2.827   8.000  3.1160  0.1679 -1.0509
 7359SOL    HW233537   2.026   2.944   7.976 -0.6151  1.4161  1.3277
 7360SOL     OW33538   3.953   1.200   8.499 -0.0077 -0.5652  0.2549
 7360SOL    HW133539   3.973   1.131   8.437 -0.7737 -0.2227 -0.3737
 7360SOL    HW233540   3.907   1.155   8.570 -0.6070 -1.1487 -0.5118
 7361SOL     OW33541   2.232   2.563  17.557  0.2298  0.1178  0.4559
 7361SOL    HW133542   2.203   2.502  17.625  0.5933 -1.3386 -0.6969
 7361SOL    HW233543   2.322   2.585  17.583 -0.3267  0.4873  2.1062
 7362SOL     OW33544   1.410   3.907  13.942  0.3850  0.2998  0.2415
 7362SOL    HW133545   1.402   3.882  13.849 -2.9715  0.3632  0.4962
 7362SOL    HW233546   1.477   3.850  13.977  1.0543  0.7738 -0.2657
 7363SOL     OW33547   0.489   1.046   0.921  0.3908 -0.6060 -0.2459
 7363SOL    HW133548   0.489   1.123   0.979  0.9515 -0.0127 -1.0335
 7363SOL    HW233549   0.573   1.007   0.945  0.9982  1.5764  1.2359
 7364SOL     OW33550   2.846   4.640  14.378  0.4056  0.3639  0.0224
 7364SOL    HW133551   2.807   4.608  14.459  0.7779  0.2143  0.1426
 7364SOL    HW233552   2.771   4.669  14.326 -0.0804 -0.1499  0.4385
 7365SOL     OW33553   3.756   4.506  17.149  0.8301 -0.3151  0.5962
 7365SOL    HW133554   3.802   4.427  17.120  1.4747 -0.5748  2.3377
 7365SOL    HW233555   3.721   4.536  17.065  0.3089  0.3038  1.0338
 7366SOL     OW33556   2.943   2.676  10.783  0.0519 -0.6313  0.1236
 7366SOL    HW133557   2.890   2.607  10.741  1.7872 -0.0682 -2.9516
 7366SOL    HW233558   3.004   2.696  10.712  1.7835 -0.2350  1.7342
 7367SOL     OW33559   2.739   3.836  12.743 -0.3805  0.0561 -0.3263
 7367SOL    HW133560   2.782   3.893  12.679  1.0353 -1.0895 -0.4163
 7367SOL    HW233561   2.656   3.884  12.750 -0.0540  0.5040  0.4435
 7368SOL     OW33562   1.436   1.588  13.819 -0.0292 -0.0250 -0.1926
 7368SOL    HW133563   1.342   1.571  13.823  0.3284 -1.8774  0.6840
 7368SOL    HW233564   1.468   1.498  13.825 -0.4569 -0.2575 -1.4176
 7369SOL     OW33565   3.667   4.687  13.794  0.1576 -0.4957  0.2893
 7369SOL    HW133566   3.583   0.001  13.823 -1.5028 -2.4056 -2.1919
 7369SOL    HW233567   3.645   4.595  13.781 -0.4356 -0.4092  0.7111
 7370SOL     OW33568   1.539   2.784  10.439 -0.1517 -0.1299  0.3482
 7370SOL    HW133569   1.518   2.711  10.498 -2.1220 -0.6635 -1.0346
 7370SOL    HW233570   1.462   2.837  10.458 -0.1461 -0.0888  0.2561
 7371SOL     OW33571   4.198   2.773   5.772 -0.2454  0.2480 -0.2430
 7371SOL    HW133572   4.284   2.750   5.805 -0.9289  0.3132  1.5915
 7371SOL    HW233573   4.216   2.851   5.719 -0.3061  1.5810  1.6798
 7372SOL     OW33574   0.160   0.108  13.933 -0.4606  0.0255 -0.7343
 7372SOL    HW133575   0.091   0.143  13.877 -0.3395 -0.0675 -0.9413
 7372SOL    HW233576   0.243   0.144  13.900  0.6061 -1.8855 -0.1749
 7373SOL     OW33577   4.655   1.399  13.231 -0.1815  0.2472  0.5608
 7373SOL    HW133578   4.682   1.482  13.191  0.5753  0.5411  1.6875
 7373SOL    HW233579   4.566   1.384  13.201  0.3450 -0.7521 -0.5315
 7374SOL     OW33580   1.042   0.227   3.695 -0.3291  0.3349 -0.0201
 7374SOL    HW133581   1.102   0.165   3.736 -2.4844 -1.5195  0.3078
 7374SOL    HW233582   1.003   0.171   3.629  0.3572 -2.4882  1.9725
 7375SOL     OW33583   3.152   1.537  10.671  0.2819 -0.0811 -0.5022
 7375SOL    HW133584   3.136   1.607  10.608 -1.7233 -0.3932 -0.3664
 7375SOL    HW233585   3.211   1.584  10.730 -0.9642  0.6203  0.1926
 7376SOL     OW33586   0.059   3.353  15.294 -0.0067  0.5107 -0.1207
 7376SOL    HW133587   0.143   3.386  15.326  0.0888  0.0658  0.0900
 7376SOL    HW233588   0.083   3.292  15.225  0.2601  0.6366 -0.1423
 7377SOL     OW33589   0.201   1.872   3.200  0.4075  0.2725 -0.2370
 7377SOL    HW133590   0.186   1.778   3.215  0.9860  0.0123 -1.3211
 7377SOL    HW233591   0.125   1.895   3.147 -0.4410 -0.4812  0.6475
 7378SOL     OW33592   0.296   1.042   2.727  0.6265  0.4334  0.6187
 7378SOL    HW133593   0.361   0.987   2.683 -0.5766  1.0580 -1.9259
 7378SOL    HW233594   0.219   0.994   2.695 -1.2894  2.1544  2.6073
 7379SOL     OW33595   3.247   0.233  10.253 -0.3253 -0.2632  0.5173
 7379SOL    HW133596   3.322   0.229  10.311  0.7135  0.1130 -0.7838
 7379SOL    HW233597   3.225   0.327  10.256 -1.4180 -0.5348  1.0323
 7380SOL     OW33598   0.174   3.850   9.980 -0.1226 -0.4235 -0.3800
 7380SOL    HW133599   0.095   3.836  10.031 -0.5798  0.0954 -0.9399
 7380SOL    HW233600   0.151   3.825   9.891  0.4153 -0.6027 -0.4693
 7381SOL     OW33601   4.549   0.677  11.041 -0.2676  0.4285  0.0106
 7381SOL    HW133602   4.564   0.671  10.946  0.4702 -2.6890  0.3402
 7381SOL    HW233603   4.640   0.686  11.069 -0.5891 -0.6693  1.3995
 7382SOL     OW33604   1.178   0.751  10.292  0.2869  0.0525 -0.3395
 7382SOL    HW133605   1.162   0.682  10.357  0.1539 -0.5276 -0.9950
 7382SOL    HW233606   1.245   0.801  10.339 -2.0049  2.7671  0.0667
 7383SOL     OW33607   4.447   1.841  16.031  0.7749  0.0175 -1.1530
 7383SOL    HW133608   4.404   1.895  15.966 -1.3586 -0.9047 -0.5084
 7383SOL    HW233609   4.523   1.897  16.047  1.7545 -1.4042 -0.7787
 7384SOL     OW33610   0.143   4.591   3.274  0.1917 -0.8924 -0.1046
 7384SOL    HW133611   0.122   4.662   3.333  0.3073 -1.5869  0.7674
 7384SOL    HW233612   0.230   4.609   3.238 -0.6478  1.3887 -0.9923
 7385SOL     OW33613   4.480   1.695   7.506  0.1062  0.4076 -0.3637
 7385SOL    HW133614   4.476   1.654   7.420  0.0683 -0.8744  0.2538
 7385SOL    HW233615   4.424   1.768   7.480  0.1229  1.2407  1.8684
 7386SOL     OW33616   0.389   3.240   7.158 -0.0039  0.0706  0.2165
 7386SOL    HW133617   0.301   3.212   7.182  0.9849 -1.1631  2.3963
 7386SOL    HW233618   0.431   3.224   7.242  0.3467 -0.4809 -0.0592
 7387SOL     OW33619   4.013   2.280   6.375  0.0055 -0.1732 -0.1186
 7387SOL    HW133620   4.004   2.283   6.470  0.5797 -0.4681 -0.0547
 7387SOL    HW233621   3.928   2.313   6.346  0.6829  1.6331 -0.0568
 7388SOL     OW33622   3.273   4.422   4.544  0.2496 -0.2056 -0.4317
 7388SOL    HW133623   3.265   4.458   4.632 -0.0078 -0.3955 -0.3767
 7388SOL    HW233624   3.248   4.499   4.493  1.1578 -0.0980 -0.7186
 7389SOL     OW33625   0.819   0.900  13.328  0.6157  0.2074  0.0126
 7389SOL    HW133626   0.847   0.847  13.254  0.0342  0.5731 -0.4669
 7389SOL    HW233627   0.725   0.882  13.334  0.4627  0.4691 -1.7755
 7390SOL     OW33628   4.305   0.435  16.646 -0.2768 -0.1009  0.1715
 7390SOL    HW133629   4.290   0.529  16.660 -1.1160  0.2009 -2.7122
 7390SOL    HW233630   4.334   0.441  16.555 -1.0988 -0.4317 -0.1100
 7391SOL     OW33631   2.008   1.284   3.968 -0.1700 -0.3154 -0.0288
 7391SOL    HW133632   2.085   1.250   4.015  0.5012 -0.7972 -1.4808
 7391SOL    HW233633   2.020   1.264   3.875  0.6643 -1.7760  0.3830
 7392SOL     OW33634   2.043   0.787   0.665 -0.1812 -0.0292 -0.7052
 7392SOL    HW133635   1.955   0.807   0.633 -1.2646  0.0906  2.3477
 7392SOL    HW233636   2.037   0.865   0.721 -1.2694 -2.3723  2.4232
 7393SOL     OW33637   0.550   3.693   3.675 -0.4227  0.4501 -0.2615
 7393SOL    HW133638   0.564   3.613   3.624  0.3755  0.9085 -0.7575
 7393SOL    HW233639   0.612   3.679   3.747  1.0999 -3.6698 -2.3651
 7394SOL     OW33640   3.479   0.181   4.594 -0.2340 -0.1479 -0.7368
 7394SOL    HW133641   3.396   0.228   4.603 -0.4068  0.0786 -3.3988
 7394SOL    HW233642   3.534   0.255   4.622 -2.4809  1.3723 -0.3420
 7395SOL     OW33643   2.515   1.610  10.710  0.2813 -0.0014 -0.3115
 7395SOL    HW133644   2.553   1.527  10.741  0.5223 -0.1242 -0.9491
 7395SOL    HW233645   2.506   1.589  10.617  0.4164  0.0996 -0.3471
 7396SOL     OW33646   1.076   2.721   5.587 -0.2065 -0.8040 -0.2473
 7396SOL    HW133647   1.140   2.746   5.521  0.2659  0.7950  0.8191
 7396SOL    HW233648   0.998   2.692   5.539 -1.7034  1.2144  0.9683
 7397SOL     OW33649   1.222   0.090   9.434  0.4133  0.8519 -0.2230
 7397SOL    HW133650   1.302   0.058   9.393  0.2179 -0.6150  0.5515
 7397SOL    HW233651   1.164   0.102   9.358 -2.8279 -1.3978  1.9213
 7398SOL     OW33652   2.461   2.056   0.560 -0.6405  0.3473 -0.2970
 7398SOL    HW133653   2.442   1.973   0.517 -0.5130  1.0959 -1.8118
 7398SOL    HW233654   2.478   2.117   0.488 -1.7607 -0.0133 -0.8706
 7399SOL     OW33655   2.066   4.432   4.141  0.4716  0.2971 -0.4020
 7399SOL    HW133656   2.052   4.497   4.071 -1.9586 -0.9508 -1.0732
 7399SOL    HW233657   2.104   4.493   4.204  0.1661 -1.7533  1.7295
 7400SOL     OW33658   1.738   3.262   2.139 -0.2482  0.5998  0.2197
 7400SOL    HW133659   1.727   3.172   2.169 -2.4370  0.3160 -1.4124
 7400SOL    HW233660   1.820   3.254   2.091  1.8516  1.6830  3.6216
 7401SOL     OW33661   0.182   0.278   7.851 -0.6956 -0.0190  0.4816
 7401SOL    HW133662   0.180   0.199   7.906 -1.5721  1.6106  2.8088
 7401SOL    HW233663   0.161   0.341   7.919 -0.5392  1.5843 -0.9723
 7402SOL     OW33664   0.874   2.814   5.762  0.1964 -0.0480  0.1848
 7402SOL    HW133665   0.875   2.910   5.771 -3.0163  0.0350 -0.1680
 7402SOL    HW233666   0.958   2.800   5.719  0.5603  1.7239  0.2947
 7403SOL     OW33667   2.840   3.940   7.150 -0.7933 -0.0511  0.2365
 7403SOL    HW133668   2.842   3.855   7.105  1.5542  0.1075 -0.0029
 7403SOL    HW233669   2.810   4.000   7.082 -1.2693  0.9589  1.3424
 7404SOL     OW33670   3.062   3.358   7.939  0.1555  0.2862  0.9365
 7404SOL    HW133671   3.014   3.275   7.942  0.6975 -0.0997 -1.1804
 7404SOL    HW233672   3.103   3.362   8.025  1.6925  0.1248  0.2033
 7405SOL     OW33673   1.800   1.461  13.201 -0.3553  0.1479  0.1705
 7405SOL    HW133674   1.750   1.381  13.211 -0.7802  0.5027  0.8903
 7405SOL    HW233675   1.869   1.455  13.267  0.5204 -0.5096 -0.8082
 7406SOL     OW33676   1.773   3.051  13.402  0.1543 -0.3764 -0.0186
 7406SOL    HW133677   1.862   3.054  13.438 -0.1318 -0.8233  0.7266
 7406SOL    HW233678   1.727   3.063  13.486  0.2958 -2.4973  0.3861
 7407SOL     OW33679   4.321   4.401   8.999 -0.2043 -0.1487  0.1502
 7407SOL    HW133680   4.393   4.339   9.012 -3.2698 -3.8230 -0.6930
 7407SOL    HW233681   4.298   4.419   9.090 -1.1968  0.3288 -0.1928
 7408SOL     OW33682   3.741   1.311  12.585  0.5763  0.3870 -0.2003
 7408SOL    HW133683   3.798   1.324  12.510 -0.2315  0.9948 -0.7104
 7408SOL    HW233684   3.739   1.216  12.592 -0.8305  0.5097  1.1112
 7409SOL     OW33685   2.489   3.143   6.530  0.2088  0.3447 -0.0473
 7409SOL    HW133686   2.446   3.061   6.509 -0.5760  0.9995 -1.0125
 7409SOL    HW233687   2.439   3.172   6.606 -1.2076 -2.8664  0.2315
 7410SOL     OW33688   1.171   1.471  13.771 -0.1710 -0.7721 -0.3564
 7410SOL    HW133689   1.172   1.377  13.785  1.4475 -0.9861 -2.0371
 7410SOL    HW233690   1.078   1.482  13.751 -0.3948 -0.8576  0.5981
 7411SOL     OW33691   3.984   4.319   2.227  0.2027 -0.1786 -0.2963
 7411SOL    HW133692   4.052   4.261   2.262  0.4621 -0.5846 -1.4814
 7411SOL    HW233693   4.040   4.389   2.192 -1.0876  0.8879 -0.2378
 7412SOL     OW33694   0.402   2.839  11.210 -0.3717 -0.1501  0.1919
 7412SOL    HW133695   0.442   2.898  11.146  0.8437 -0.4522  0.6762
 7412SOL    HW233696   0.351   2.900  11.262  2.0924  1.4958  0.6920
 7413SOL     OW33697   0.571   4.379   3.355  0.1905  0.5744 -0.1407
 7413SOL    HW133698   0.664   4.393   3.376 -0.4981  2.4808  1.6332
 7413SOL    HW233699   0.549   4.472   3.363 -0.2743  0.4161  0.5059
 7414SOL     OW33700   1.455   4.629   8.206  0.3180  0.0072  0.2655
 7414SOL    HW133701   1.368   4.589   8.197  0.5846 -0.6052  0.3706
 7414SOL    HW233702   1.484   4.615   8.116  2.1769  0.1928  0.8260
 7415SOL     OW33703   2.557   3.680   7.378 -0.0017  0.3470  0.1149
 7415SOL    HW133704   2.488   3.702   7.316  0.9715 -1.2211 -1.5042
 7415SOL    HW233705   2.594   3.613   7.321 -0.1920  1.1772 -0.9778
 7416SOL     OW33706   0.447   1.864  14.753  0.2615 -0.2888  0.2245
 7416SOL    HW133707   0.435   1.773  14.779 -0.2208 -0.0642  0.8126
 7416SOL    HW233708   0.483   1.904  14.832  0.8562 -2.0891  0.8693
 7417SOL     OW33709   0.643   2.001   7.252  0.5898  0.1892 -0.3467
 7417SOL    HW133710   0.634   2.006   7.347 -1.3234 -0.8328 -0.4746
 7417SOL    HW233711   0.553   2.025   7.229  0.2754  1.0838  1.8021
 7418SOL     OW33712   1.645   2.962   6.919  0.3917 -0.0460  0.6817
 7418SOL    HW133713   1.663   3.045   6.876  0.0154 -0.7591 -0.8555
 7418SOL    HW233714   1.556   2.977   6.950  0.7092 -3.0484  3.0697
 7419SOL     OW33715   2.186   3.117  10.870 -0.5479 -1.1785 -0.0518
 7419SOL    HW133716   2.243   3.174  10.818 -1.4254  0.6876  1.0795
 7419SOL    HW233717   2.206   3.157  10.954  1.3166  2.0537 -2.0247
 7420SOL     OW33718   1.100   3.740   5.182  0.3204  0.0708  0.1776
 7420SOL    HW133719   1.193   3.761   5.178  0.3337 -0.4281 -1.7791
 7420SOL    HW233720   1.101   3.676   5.253  0.1362 -0.0869  0.0355
 7421SOL     OW33721   3.683   1.060   2.426 -0.0240 -0.0090 -0.2956
 7421SOL    HW133722   3.725   1.131   2.377  1.1328 -0.0175  0.6914
 7421SOL    HW233723   3.680   1.111   2.507  2.2117  0.1172 -0.2906
 7422SOL     OW33724   0.178   2.267   2.590  0.1168 -0.0179  0.1644
 7422SOL    HW133725   0.273   2.255   2.583 -0.0523 -1.6164  0.5117
 7422SOL    HW233726   0.155   2.270   2.497  0.9104  1.3145  0.0153
 7423SOL     OW33727   0.747   3.923  11.008  0.1777 -0.3092 -0.2628
 7423SOL    HW133728   0.820   3.932  11.069  0.2461  0.1618 -0.4108
 7423SOL    HW233729   0.679   3.897  11.070 -0.3152 -1.2513 -1.1917
 7424SOL     OW33730   0.438   3.183   0.269  0.0602  0.1117  0.2871
 7424SOL    HW133731   0.526   3.149   0.254 -0.1330 -0.8284  1.2625
 7424SOL    HW233732   0.390   3.153   0.192 -1.0407 -1.9407  1.7789
 7425SOL     OW33733   3.558   3.264   5.138  0.0489  0.1073 -0.1467
 7425SOL    HW133734   3.492   3.277   5.207 -0.6770 -1.4022 -0.5424
 7425SOL    HW233735   3.620   3.223   5.198  0.2755  2.2944  1.1143
 7426SOL     OW33736   3.121   2.477   1.614 -0.4124 -0.0237 -0.3683
 7426SOL    HW133737   3.048   2.538   1.623  1.7994  2.5799  0.0270
 7426SOL    HW233738   3.086   2.388   1.612 -1.4984  0.4217 -1.5117
 7427SOL     OW33739   0.401   2.728   4.782 -0.0021  0.5283 -0.7872
 7427SOL    HW133740   0.329   2.721   4.720  2.5500 -2.0022 -3.4908
 7427SOL    HW233741   0.452   2.649   4.766  0.8852  0.9096  0.1180
 7428SOL     OW33742   3.100   1.484  15.033 -0.0314 -0.1855  0.4659
 7428SOL    HW133743   3.021   1.538  15.030 -1.7442 -2.7605 -0.6818
 7428SOL    HW233744   3.162   1.545  15.072  0.7312 -1.2243  0.8774
 7429SOL     OW33745   4.011   2.843  17.030  0.0855 -0.3370  0.1999
 7429SOL    HW133746   4.001   2.754  17.063 -1.1865 -1.2173 -2.6124
 7429SOL    HW233747   4.013   2.832  16.935  0.3900  3.2465 -0.2203
 7430SOL     OW33748   0.760   2.673   6.910 -0.6285 -0.2636 -0.1769
 7430SOL    HW133749   0.793   2.644   6.825 -0.4064 -0.5612  0.0065
 7430SOL    HW233750   0.782   2.766   6.905  1.2299 -0.6654  0.5471
 7431SOL     OW33751   3.886   0.112   6.847  0.4790  0.3754 -0.1935
 7431SOL    HW133752   3.793   0.119   6.827  0.1723  2.0388  1.8152
 7431SOL    HW233753   3.923   0.157   6.772 -1.3279  1.4411 -0.4553
 7432SOL     OW33754   0.391   0.754   4.119 -0.2361 -0.2926  0.2114
 7432SOL    HW133755   0.486   0.757   4.133 -0.4687 -1.4940  2.0855
 7432SOL    HW233756   0.376   0.660   4.122  0.7172 -0.4202  0.8117
 7433SOL     OW33757   3.844   3.621   8.965  0.6460 -0.5193  0.1347
 7433SOL    HW133758   3.750   3.603   8.972  0.0602  1.9967 -1.4821
 7433SOL    HW233759   3.846   3.645   8.872  0.3354  0.0293  0.2750
 7434SOL     OW33760   0.982   3.713   3.894  0.1976  0.0361  0.0086
 7434SOL    HW133761   1.043   3.774   3.935 -0.0795 -0.8730  1.7666
 7434SOL    HW233762   1.050   3.658   3.856  3.6440  4.4479 -0.2521
 7435SOL     OW33763   0.525   4.585   2.930 -0.1521  0.0782  0.1530
 7435SOL    HW133764   0.469   4.587   2.852 -1.0145 -0.0381  0.7691
 7435SOL    HW233765   0.495   4.508   2.979  1.1635 -1.1389 -0.9563
 7436SOL     OW33766   2.074   0.924   6.192  0.1952  0.4550 -0.1291
 7436SOL    HW133767   2.039   0.920   6.281 -1.7607  2.6715 -0.8122
 7436SOL    HW233768   2.014   0.984   6.148  0.0133  0.2818 -0.1175
 7437SOL     OW33769   3.025   1.984   2.387 -0.0773 -0.2188  0.1154
 7437SOL    HW133770   3.041   2.052   2.321  0.7146  2.6625  3.1992
 7437SOL    HW233771   3.010   1.907   2.334 -2.0732  0.1544  0.1642
 7438SOL     OW33772   2.642   4.335   1.918 -0.4709  0.6240 -0.1579
 7438SOL    HW133773   2.638   4.405   1.984  2.0369  0.0152  0.6363
 7438SOL    HW233774   2.550   4.324   1.896  0.1088  0.2604 -2.3632
 7439SOL     OW33775   3.700   0.169   0.599 -0.7410 -0.1881  0.2153
 7439SOL    HW133776   3.618   0.123   0.589 -0.8702 -0.1004  0.8376
 7439SOL    HW233777   3.682   0.221   0.678  0.8356  0.0772  0.4184
 7440SOL     OW33778   3.654   3.773   5.716  0.4653 -0.1838 -0.0090
 7440SOL    HW133779   3.696   3.731   5.641 -1.3310 -1.1772 -0.4614
 7440SOL    HW233780   3.606   3.846   5.675 -0.9900 -0.4479  1.2424
 7441SOL     OW33781   3.850   1.325   5.206 -0.2141  0.1751  0.4144
 7441SOL    HW133782   3.817   1.294   5.290 -1.9624 -2.2522 -1.1743
 7441SOL    HW233783   3.877   1.242   5.167 -0.9060  0.1758 -0.0645
 7442SOL     OW33784   1.914   1.548   6.860  0.0172 -0.1918 -0.8811
 7442SOL    HW133785   1.873   1.583   6.939  0.2211  0.8191 -1.2157
 7442SOL    HW233786   1.832   1.536   6.813 -0.3662 -0.5112 -0.1362
 7443SOL     OW33787   1.651   0.542   6.516 -1.3314 -0.3391  0.1491
 7443SOL    HW133788   1.687   0.486   6.585 -0.0725 -0.7170 -0.8115
 7443SOL    HW233789   1.704   0.504   6.446 -3.0776 -0.1293 -1.3078
 7444SOL     OW33790   0.885   1.758   2.470 -0.0384  0.2055 -0.3014
 7444SOL    HW133791   0.860   1.846   2.501  1.3905  0.0750  1.2222
 7444SOL    HW233792   0.809   1.734   2.418 -0.2951 -0.0223  0.1790
 7445SOL     OW33793   3.683   3.498   2.660 -0.2207 -0.0107  0.3641
 7445SOL    HW133794   3.731   3.417   2.642  0.0306  0.0483  0.7445
 7445SOL    HW233795   3.713   3.554   2.588 -1.0004 -0.1123 -0.0338
 7446SOL     OW33796   3.264   2.248   7.832 -0.4190 -0.0348  0.2953
 7446SOL    HW133797   3.341   2.285   7.875  0.1635 -1.0821  0.1683
 7446SOL    HW233798   3.194   2.310   7.852  0.0191  0.7472 -0.6145
 7447SOL     OW33799   3.188   1.439   3.029 -0.1118 -0.0657  0.4495
 7447SOL    HW133800   3.234   1.363   3.063  2.7970  1.9376  0.9739
 7447SOL    HW233801   3.103   1.398   3.012 -0.8356  1.0824  1.2681
 7448SOL     OW33802   0.488   3.315   4.562 -0.5923  1.0639  0.1393
 7448SOL    HW133803   0.414   3.266   4.525 -0.4711  2.1258 -1.4826
 7448SOL    HW233804   0.561   3.304   4.502  0.8415  0.2957  2.0306
 7449SOL     OW33805   3.335   0.023  13.158 -0.4572  0.6313 -0.6407
 7449SOL    HW133806   3.256   4.692  13.150  0.5701 -0.8696 -0.7840
 7449SOL    HW233807   3.372   4.715  13.241  1.8783  1.3616 -1.4388
 7450SOL     OW33808   3.793   4.491   3.604  0.3453 -0.2511 -0.6934
 7450SOL    HW133809   3.782   4.422   3.670 -0.2131  0.2250 -0.2806
 7450SOL    HW233810   3.871   4.542   3.626  0.2100 -0.8178  1.0718
 7451SOL     OW33811   4.428   1.248  10.481  0.4653 -0.1754  0.1764
 7451SOL    HW133812   4.337   1.244  10.453  0.5662  0.4241 -0.2300
 7451SOL    HW233813   4.475   1.249  10.397 -1.0773 -0.1941 -0.6827
 7452SOL     OW33814   4.296   1.006   7.178  0.2223 -0.4000  0.5692
 7452SOL    HW133815   4.313   0.969   7.092 -0.3703 -1.5408  0.9477
 7452SOL    HW233816   4.220   1.061   7.158  0.5972 -0.0222  0.1672
 7453SOL     OW33817   0.789   0.919   7.225 -0.2945 -0.4067 -0.1079
 7453SOL    HW133818   0.857   0.985   7.241  1.6595 -1.8694 -2.2621
 7453SOL    HW233819   0.782   0.926   7.129  0.9088  0.0337 -0.1634
 7454SOL     OW33820   0.705   0.361  13.026 -0.0821 -0.2170 -0.2602
 7454SOL    HW133821   0.619   0.386  12.995  0.6576  3.2126  0.4559
 7454SOL    HW233822   0.744   0.447  13.008 -0.4357  0.1459  0.7015
 7455SOL     OW33823   0.198   4.518   4.547 -0.0861 -0.2118  0.1367
 7455SOL    HW133824   0.126   4.582   4.548 -0.5948 -0.8333  2.6892
 7455SOL    HW233825   0.218   4.523   4.453  1.5536  0.1788  0.5121
 7456SOL     OW33826   4.344   0.946  11.755  0.2296 -0.1124 -0.1431
 7456SOL    HW133827   4.362   0.876  11.692 -0.9109  0.3926 -1.0509
 7456SOL    HW233828   4.432   0.983  11.761 -0.9806  3.0468 -1.6012
 7457SOL     OW33829   3.826   2.606   9.229 -0.4249  0.6371  0.3613
 7457SOL    HW133830   3.746   2.613   9.280  0.2695 -0.2887  1.5848
 7457SOL    HW233831   3.874   2.546   9.287 -0.9145  0.5764  0.7006
 7458SOL     OW33832   4.300   1.650   1.971  0.3239 -0.6664 -0.3447
 7458SOL    HW133833   4.378   1.599   1.948  1.3448 -0.3845  2.4433
 7458SOL    HW233834   4.247   1.580   2.009 -0.4817  0.6687  1.0057
 7459SOL     OW33835   4.121   2.656  15.848  0.2953 -0.0018 -0.0398
 7459SOL    HW133836   4.057   2.590  15.873 -0.7539  1.3384  0.7738
 7459SOL    HW233837   4.072   2.738  15.849  0.1850 -0.1176  3.7753
 7460SOL     OW33838   3.898   2.995   4.127 -0.4536  0.1935  0.2369
 7460SOL    HW133839   3.971   3.013   4.067 -0.1272  0.9231  0.8612
 7460SOL    HW233840   3.908   3.070   4.185  0.3102 -1.2901  2.0117
 7461SOL     OW33841   4.660   1.901   3.089  0.3454  0.1594  0.2902
 7461SOL    HW133842   4.598   1.863   3.151 -0.2850  0.1120 -0.3675
 7461SOL    HW233843   4.627   1.990   3.076 -0.4205  0.0990  1.9097
 7462SOL     OW33844   4.083   3.859   7.670  0.1871 -0.4406  0.1062
 7462SOL    HW133845   4.044   3.779   7.633  2.4201 -1.1023 -0.8142
 7462SOL    HW233846   4.130   3.824   7.745  1.7446 -0.2630 -0.8036
 7463SOL     OW33847   2.043   0.370  15.544  0.4087 -0.2496 -0.2008
 7463SOL    HW133848   2.102   0.440  15.571  0.3036 -1.1445  2.3305
 7463SOL    HW233849   2.033   0.333  15.632 -1.4404 -1.1116 -0.7764
 7464SOL     OW33850   2.147   2.188  11.813 -0.3508 -0.6835  0.1613
 7464SOL    HW133851   2.186   2.137  11.885  0.5516 -2.5428 -1.6531
 7464SOL    HW233852   2.117   2.116  11.757  1.2529 -0.7776 -0.5664
 7465SOL     OW33853   2.983   2.959  11.237  0.0065 -0.3147  0.0886
 7465SOL    HW133854   3.068   2.971  11.195 -0.8229  1.9299 -0.9468
 7465SOL    HW233855   2.962   3.052  11.252 -0.7748 -0.4739 -0.0187
 7466SOL     OW33856   2.764   2.056  15.196  0.6088  0.0707  0.5130
 7466SOL    HW133857   2.706   2.133  15.192 -0.7256 -0.9201  0.7957
 7466SOL    HW233858   2.773   2.041  15.290  0.0336 -1.5777  0.2930
 7467SOL     OW33859   3.342   3.371   6.296 -0.0919  0.6186 -0.2167
 7467SOL    HW133860   3.251   3.343   6.294 -0.0812  0.3590  2.7248
 7467SOL    HW233861   3.375   3.349   6.209 -0.1307  0.6641 -0.2429
 7468SOL     OW33862   1.058   4.251   5.606  0.0937 -0.1206  0.0412
 7468SOL    HW133863   1.115   4.178   5.580 -0.5047 -0.2098 -0.9970
 7468SOL    HW233864   1.128   4.317   5.600 -0.1369 -0.0670 -1.9688
 7469SOL     OW33865   1.142   0.061   7.974  0.7932  0.3244  0.2728
 7469SOL    HW133866   1.078   0.131   7.982 -0.2412 -0.7497  1.3134
 7469SOL    HW233867   1.192   0.087   7.897  2.8715  1.9381  2.1635
 7470SOL     OW33868   0.186   0.730   1.458 -0.5761 -0.5615  0.2414
 7470SOL    HW133869   0.261   0.753   1.405 -0.1040 -0.3432  1.0005
 7470SOL    HW233870   0.115   0.737   1.394 -0.6030 -0.7432  0.2517
 7471SOL     OW33871   0.548   1.683   7.253 -0.3433  0.0220 -0.0760
 7471SOL    HW133872   0.497   1.736   7.193  0.1033 -1.5717 -1.8653
 7471SOL    HW233873   0.631   1.730   7.243 -0.0215 -0.6916 -0.7792
 7472SOL     OW33874   1.638   3.216   6.785  0.1676  0.0069  0.7470
 7472SOL    HW133875   1.623   3.305   6.817  0.7012 -0.3124  1.8822
 7472SOL    HW233876   1.546   3.188   6.782 -0.0140  0.7332 -0.1374
 7473SOL     OW33877   0.692   3.174   3.830 -0.8036 -0.0991  0.5370
 7473SOL    HW133878   0.644   3.196   3.751 -0.7917 -0.8246  0.3335
 7473SOL    HW233879   0.785   3.191   3.814 -0.7189  1.7384  2.8992
 7474SOL     OW33880   4.254   1.298   5.935  0.3417  0.1730 -0.4566
 7474SOL    HW133881   4.259   1.207   5.908 -1.7069 -0.1227  0.1173
 7474SOL    HW233882   4.161   1.322   5.929  0.8853  3.0719  2.2899
 7475SOL     OW33883   1.815   3.024  15.786 -0.2961  0.0655 -0.1035
 7475SOL    HW133884   1.864   2.952  15.747  1.6209  1.4952 -0.3569
 7475SOL    HW233885   1.770   3.054  15.707  0.4803 -0.9970 -0.9542
 7476SOL     OW33886   3.679   4.386  13.556  0.2473 -0.0567 -0.0558
 7476SOL    HW133887   3.765   4.400  13.515  0.6930  1.1228  1.2677
 7476SOL    HW233888   3.623   4.429  13.492  0.0544 -2.9843 -1.8871
 7477SOL     OW33889   0.743   1.784   3.457  0.0356 -0.4833 -0.2847
 7477SOL    HW133890   0.667   1.839   3.476 -0.6063 -1.3359 -0.3487
 7477SOL    HW233891   0.706   1.727   3.389 -0.9153 -1.2816  0.8861
 7478SOL     OW33892   2.519   0.490   6.875  0.6273  0.0976  0.1206
 7478SOL    HW133893   2.498   0.524   6.962 -0.1518 -0.9766  0.3436
 7478SOL    HW233894   2.548   0.400   6.887 -0.8051 -0.3494  0.1560
 7479SOL     OW33895   1.988   1.144   3.035 -0.9097  0.2085  0.4794
 7479SOL    HW133896   2.014   1.163   2.945 -0.9793  0.5878  0.5409
 7479SOL    HW233897   1.897   1.116   3.026 -0.2952 -2.0818  1.4940
 7480SOL     OW33898   2.283   2.291   2.362  0.1653  0.3599  0.0133
 7480SOL    HW133899   2.215   2.329   2.305 -0.5065  0.0279  0.5987
 7480SOL    HW233900   2.293   2.358   2.430  1.1735  0.1305  0.0830
 7481SOL     OW33901   1.433   3.963   0.641 -0.2477 -0.2550 -0.7049
 7481SOL    HW133902   1.474   3.877   0.642  1.8186  0.7568 -0.1957
 7481SOL    HW233903   1.460   4.014   0.717  0.1765 -0.1994 -0.8943
 7482SOL     OW33904   4.607   2.777   3.261 -0.2897 -0.2071 -0.2336
 7482SOL    HW133905   4.649   2.776   3.347 -1.2536  2.0543  0.2777
 7482SOL    HW233906   4.672   2.720   3.220 -1.8176 -2.6666  0.7638
 7483SOL     OW33907   1.600   2.924  13.021 -0.7277  0.1446  0.1951
 7483SOL    HW133908   1.524   2.868  13.032 -0.6385 -0.1087 -0.5135
 7483SOL    HW233909   1.592   2.980  13.098 -1.9480  1.5560 -0.9834
 7484SOL     OW33910   4.644   1.340  11.542 -0.1621  0.0239  0.1932
 7484SOL    HW133911   0.017   1.348  11.544 -0.0078 -1.7427 -0.3809
 7484SOL    HW233912   4.632   1.340  11.448  0.5691 -0.1482  0.1003
 7485SOL     OW33913   3.657   4.593  16.915 -0.8904 -0.4434  0.6078
 7485SOL    HW133914   3.605   4.530  16.864  0.1740 -0.4415 -0.4763
 7485SOL    HW233915   3.729   4.594  16.852 -1.1826 -0.7740  0.2595
 7486SOL     OW33916   2.415   3.560   3.970 -0.0324 -0.4295 -0.3375
 7486SOL    HW133917   2.464   3.510   3.905 -0.0511 -0.3076 -0.4463
 7486SOL    HW233918   2.385   3.627   3.908  1.5942  1.2709  0.6813
 7487SOL     OW33919   1.839   1.727   7.668  0.0590  0.2234 -0.8120
 7487SOL    HW133920   1.827   1.633   7.677 -0.2016  0.5014  1.7656
 7487SOL    HW233921   1.934   1.738   7.679 -0.0578  0.4249 -0.0514
 7488SOL     OW33922   3.315   4.178   6.359 -0.4499  0.6681  0.6107
 7488SOL    HW133923   3.238   4.126   6.334  0.7603  0.3834 -2.5827
 7488SOL    HW233924   3.380   4.112   6.332  0.2601  1.7785 -0.4169
 7489SOL     OW33925   4.022   4.397   7.861 -0.2046  0.5428 -0.2250
 7489SOL    HW133926   3.956   4.427   7.924 -1.7237 -1.6602 -0.7216
 7489SOL    HW233927   4.042   4.480   7.818  2.0932  0.5541  0.8810
 7490SOL     OW33928   1.754   3.197   5.012 -0.2308  0.1397 -0.1351
 7490SOL    HW133929   1.671   3.167   4.974 -0.7865  0.2114  1.0042
 7490SOL    HW233930   1.812   3.186   4.937 -1.5712  1.2563 -1.3430
 7491SOL     OW33931   1.905   4.035  12.816  0.4144 -0.1635 -0.0098
 7491SOL    HW133932   1.883   4.118  12.774 -0.6911 -2.3332 -3.6370
 7491SOL    HW233933   1.911   4.048  12.911 -1.9197 -0.3856  0.1722
 7492SOL     OW33934   0.816   1.213   8.954  0.7051 -0.0210 -0.0834
 7492SOL    HW133935   0.804   1.119   8.939 -2.6410  0.3469  0.0968
 7492SOL    HW233936   0.885   1.224   9.019 -0.7991 -1.9160  1.8260
 7493SOL     OW33937   3.636   1.857   6.374 -0.4404  0.0557  0.2058
 7493SOL    HW133938   3.618   1.932   6.318 -0.0427 -0.3381 -0.4494
 7493SOL    HW233939   3.589   1.880   6.455 -1.6757 -0.4209 -0.3903
 7494SOL     OW33940   2.742   3.178   4.238 -0.3842  0.1832 -0.4152
 7494SOL    HW133941   2.672   3.242   4.222  0.1784  1.3096  1.6823
 7494SOL    HW233942   2.696   3.098   4.212 -3.3816  2.4300 -2.0230
 7495SOL     OW33943   4.116   0.522  17.576  0.2672  0.1010 -0.1680
 7495SOL    HW133944   4.103   0.431  17.605  1.3015 -0.0481 -0.1823
 7495SOL    HW233945   4.119   0.507  17.482  1.5840  2.8314 -0.5517
 7496SOL     OW33946   0.321   0.907   5.265  0.1692 -1.0088  0.7394
 7496SOL    HW133947   0.345   0.831   5.318  1.1359 -0.5373  0.9842
 7496SOL    HW233948   0.227   0.901   5.251  0.2008  1.6737 -0.6322
 7497SOL     OW33949   2.584   1.202  16.237 -0.0954 -0.0107  0.5618
 7497SOL    HW133950   2.611   1.145  16.309  1.4323  1.8716  1.5029
 7497SOL    HW233951   2.515   1.257  16.275 -1.8694 -1.1516 -1.0535
 7498SOL     OW33952   3.365   1.090  17.600  0.2449 -0.0468 -0.4401
 7498SOL    HW133953   3.402   1.086  17.512  0.3002  2.6605 -0.5609
 7498SOL    HW233954   3.448   1.103  17.645 -1.1924 -0.6615  2.3804
 7499SOL     OW33955   0.011   3.518  12.768  0.2321 -0.1530  0.5248
 7499SOL    HW133956   0.092   3.547  12.810 -0.5768  2.8432  0.0213
 7499SOL    HW233957   4.704   3.600  12.729 -1.5429 -1.1654 -0.2477
 7500SOL     OW33958   4.608   1.893   6.552 -0.2054 -0.0627 -0.1100
 7500SOL    HW133959   4.643   1.819   6.603 -1.4132 -0.5511  0.0255
 7500SOL    HW233960   4.551   1.854   6.486 -0.7684  0.2731  0.1763
 7501SOL     OW33961   3.952   2.248   1.749  0.1798 -0.0361 -0.3862
 7501SOL    HW133962   3.954   2.292   1.834  1.3356 -1.1640  0.1579
 7501SOL    HW233963   4.041   2.214   1.742  0.4455  0.7901 -0.9865
 7502SOL     OW33964   3.571   4.045   3.331 -0.1341  0.0182  0.5170
 7502SOL    HW133965   3.651   4.001   3.300  0.6122  1.4467  0.3910
 7502SOL    HW233966   3.597   4.088   3.412 -1.8051  1.8016  0.0998
 7503SOL     OW33967   1.738   4.034   5.613  0.0532 -0.2610 -0.0910
 7503SOL    HW133968   1.796   4.109   5.605 -0.1687 -0.1096 -0.2791
 7503SOL    HW233969   1.703   4.040   5.702 -0.5501 -0.4079 -0.3164
 7504SOL     OW33970   3.764   4.327   7.091  0.2271 -0.0410  0.2926
 7504SOL    HW133971   3.671   4.335   7.071  0.3313 -1.4231 -0.7091
 7504SOL    HW233972   3.750   4.293   7.179 -2.0278 -1.5358 -0.6516
 7505SOL     OW33973   0.588   0.106   6.317  0.3213 -0.0064 -0.3251
 7505SOL    HW133974   0.676   0.083   6.289  0.8451 -0.1820  1.4756
 7505SOL    HW233975   0.607   0.175   6.380  2.0844 -0.1329 -0.7256
 7506SOL     OW33976   0.249   3.925   3.001 -0.2508  0.3829  0.2971
 7506SOL    HW133977   0.332   3.968   2.982  0.7962 -1.4619  0.6253
 7506SOL    HW233978   0.229   3.986   3.072  0.7935  1.6286 -0.4865
 7507SOL     OW33979   4.137   0.530   5.643 -0.1711 -0.0306 -0.2497
 7507SOL    HW133980   4.183   0.534   5.727 -1.1106 -0.1587  0.2611
 7507SOL    HW233981   4.189   0.585   5.583 -0.7392  2.4967  1.5874
 7508SOL     OW33982   0.481   3.820   7.375  0.5427  0.1604  0.6146
 7508SOL    HW133983   0.494   3.768   7.455  0.9678  0.6233  0.8487
 7508SOL    HW233984   0.575   3.834   7.358  1.4118 -3.4530  2.3996
 7509SOL     OW33985   4.167   3.617   3.795  0.1178 -0.3765 -0.1783
 7509SOL    HW133986   4.103   3.647   3.731 -0.5875  0.0705  0.7471
 7509SOL    HW233987   4.179   3.695   3.848  0.2930  1.2765 -2.6576
 7510SOL     OW33988   1.421   1.242   2.692 -0.1880 -0.2372  0.1545
 7510SOL    HW133989   1.474   1.264   2.616  1.4869  2.5184  2.1098
 7510SOL    HW233990   1.438   1.148   2.699 -0.5275 -0.3436 -0.5092
 7511SOL     OW33991   2.843   1.273   8.138  0.1666 -0.1651  0.1387
 7511SOL    HW133992   2.829   1.190   8.183  0.0352 -0.3328 -0.2116
 7511SOL    HW233993   2.813   1.249   8.050 -0.8838  1.2311  0.1278
 7512SOL     OW33994   4.694   3.813   5.592  0.1677  0.0367 -1.0417
 7512SOL    HW133995   4.621   3.791   5.650 -0.2840  3.4555 -0.3043
 7512SOL    HW233996   0.010   3.726   5.586 -0.4554 -0.1763 -1.9821
 7513SOL     OW33997   0.399   2.427  14.492  0.0714 -0.1292 -0.0933
 7513SOL    HW133998   0.488   2.393  14.485  0.8831  1.9179  0.0489
 7513SOL    HW233999   0.421   2.504  14.545  2.1798 -1.8220  1.4873
 7514SOL     OW34000   0.764   4.235  16.244 -0.2759 -0.3778  0.2275
 7514SOL    HW134001   0.677   4.197  16.240 -0.9418  1.1046  0.5512
 7514SOL    HW234002   0.811   4.152  16.241 -0.0333 -0.2312 -0.0157
 7515SOL     OW34003   0.042   4.187  16.863  0.4125 -0.0578  0.1374
 7515SOL    HW134004   4.702   4.115  16.860  1.2669 -0.7308 -1.2598
 7515SOL    HW234005   0.098   4.158  16.935  0.5631 -1.2749 -0.4659
 7516SOL     OW34006   3.984   1.322  11.203 -0.0143  0.2542 -0.5517
 7516SOL    HW134007   3.929   1.254  11.242 -0.2854  0.5354 -0.4429
 7516SOL    HW234008   4.018   1.355  11.287 -2.0148 -0.9715  0.7203
 7517SOL     OW34009   3.008   2.212   2.651  0.2139 -0.0971  0.2484
 7517SOL    HW134010   2.977   2.129   2.614 -0.2767  1.1900 -2.2445
 7517SOL    HW234011   3.035   2.178   2.736 -0.5282  1.3854  1.0669
 7518SOL     OW34012   0.266   2.065   5.838  0.1960 -0.1692 -0.3000
 7518SOL    HW134013   0.359   2.064   5.814  0.0304 -0.5839 -0.9071
 7518SOL    HW234014   0.223   2.109   5.765 -0.0905 -0.4864 -0.3178
 7519SOL     OW34015   3.050   2.822   3.989 -0.3352  0.3681  0.3897
 7519SOL    HW134016   3.035   2.783   4.075  1.6724 -1.4314 -0.0713
 7519SOL    HW234017   3.126   2.877   4.009 -1.4041  0.6686  3.6554
 7520SOL     OW34018   0.178   3.499   3.108 -0.4628 -0.4311  0.0043
 7520SOL    HW134019   0.249   3.530   3.165 -0.5130  2.5742 -1.5384
 7520SOL    HW234020   0.208   3.422   3.061  0.0332  0.4152 -1.0541
 7521SOL     OW34021   2.375   4.079   6.788 -0.0215  0.0895  0.0343
 7521SOL    HW134022   2.392   4.166   6.824  0.9143 -0.7681  1.6766
 7521SOL    HW234023   2.455   4.031   6.763  1.1029  1.0596  1.7581
 7522SOL     OW34024   4.507   3.004   2.208  0.2774  0.0343 -0.2478
 7522SOL    HW134025   4.578   3.065   2.231 -0.4389  0.9283 -0.4284
 7522SOL    HW234026   4.447   3.060   2.160 -0.7282 -0.8848 -0.0639
 7523SOL     OW34027   2.391   3.860  13.221  0.1425  0.0289 -0.0085
 7523SOL    HW134028   2.339   3.938  13.203 -0.3406 -0.4431 -0.6241
 7523SOL    HW234029   2.480   3.891  13.238 -1.2775  3.1662  1.7250
 7524SOL     OW34030   4.042   3.548   4.097  0.7005  0.1745 -0.4303
 7524SOL    HW134031   4.070   3.479   4.038  2.2092  0.8324 -0.4852
 7524SOL    HW234032   4.006   3.501   4.172 -0.0455 -0.4603 -1.1923
 7525SOL     OW34033   1.184   4.599   8.170 -0.0746  0.6868  0.7567
 7525SOL    HW134034   1.167   4.675   8.115  0.5532  0.4872  0.2787
 7525SOL    HW234035   1.132   4.626   8.245 -0.9922  0.1345  0.3245
 7526SOL     OW34036   1.236   3.686   1.624 -0.7079  0.5482  0.3235
 7526SOL    HW134037   1.242   3.778   1.596 -1.3478  0.5146  0.0610
 7526SOL    HW234038   1.141   3.683   1.640 -0.5631  0.3496  1.1299
 7527SOL     OW34039   3.310   0.062   7.467 -0.0154  0.3210 -0.7418
 7527SOL    HW134040   3.304   4.693   7.494  0.9547  0.3132 -0.5533
 7527SOL    HW234041   3.405   0.074   7.459 -0.1873  1.6658 -0.8101
 7528SOL     OW34042   1.060   2.879   6.644  0.2166 -0.0029  0.0541
 7528SOL    HW134043   1.118   2.803   6.656 -0.4128 -0.2036  1.8048
 7528SOL    HW234044   1.010   2.853   6.567  1.9935  0.7581 -1.3573
 7529SOL     OW34045   2.349   1.559  13.652  0.1138  0.6707  0.1815
 7529SOL    HW134046   2.402   1.497  13.602 -0.6331 -0.0111  0.2330
 7529SOL    HW234047   2.288   1.493  13.685  1.0584  0.1146  0.8168
 7530SOL     OW34048   2.786   0.714  16.691 -0.5371  0.2429  0.0642
 7530SOL    HW134049   2.719   0.782  16.699 -1.0716 -0.1980 -0.7645
 7530SOL    HW234050   2.867   0.766  16.696 -0.4766 -0.0164  1.7359
 7531SOL     OW34051   1.416   3.433   2.590 -0.3522  0.0813  0.2684
 7531SOL    HW134052   1.505   3.467   2.578 -1.4968  2.7230 -0.6389
 7531SOL    HW234053   1.412   3.381   2.510 -0.0779  0.0180  0.2957
 7532SOL     OW34054   1.043   3.394  12.893  0.0712 -0.9024 -0.1730
 7532SOL    HW134055   1.079   3.472  12.850 -2.3271  1.5805  2.3199
 7532SOL    HW234056   0.967   3.381  12.837  0.2294 -1.1751 -0.3273
 7533SOL     OW34057   3.934   2.394   5.390 -0.4889 -0.4128  0.0783
 7533SOL    HW134058   4.010   2.448   5.368  0.0521 -1.2175 -0.0110
 7533SOL    HW234059   3.937   2.338   5.313 -0.9573  0.3613 -0.5089
 7534SOL     OW34060   1.959   0.294  15.793 -0.8735  0.0029 -0.0186
 7534SOL    HW134061   1.874   0.265  15.826 -1.7604  0.5947 -1.7881
 7534SOL    HW234062   2.009   0.325  15.869 -0.6384  3.0747 -1.4396
 7535SOL     OW34063   2.411   4.126   4.300  0.0582  0.3391 -0.7976
 7535SOL    HW134064   2.442   4.054   4.246 -0.6387  1.1286 -2.2347
 7535SOL    HW234065   2.346   4.165   4.241  1.3176  0.8289 -1.8689
 7536SOL     OW34066   3.781   3.307   5.803 -0.9096 -0.0192  0.9692
 7536SOL    HW134067   3.808   3.257   5.881  0.6875 -1.5422 -0.5440
 7536SOL    HW234068   3.867   3.308   5.761  0.0796 -1.5323  2.9603
 7537SOL     OW34069   4.347   2.652   0.435 -0.3441  0.3559 -0.0647
 7537SOL    HW134070   4.282   2.698   0.488 -1.8527 -1.6099 -0.2147
 7537SOL    HW234071   4.305   2.651   0.348  0.9620  1.4477 -0.7084
 7538SOL     OW34072   3.981   1.028   1.609  0.4575  0.1336 -0.2002
 7538SOL    HW134073   4.000   1.122   1.620  3.2243 -0.2127 -2.0797
 7538SOL    HW234074   3.953   1.024   1.518  0.5552 -2.0474 -0.1297
 7539SOL     OW34075   1.639   2.105   2.332 -0.5562  0.2026 -0.2182
 7539SOL    HW134076   1.693   2.051   2.390  1.1701 -0.8488 -2.8169
 7539SOL    HW234077   1.563   2.110   2.391  0.3760  0.5768  0.9597
 7540SOL     OW34078   3.240   0.774   9.590  0.6436 -1.2342  0.4230
 7540SOL    HW134079   3.155   0.792   9.549  0.4036 -2.7376  0.2368
 7540SOL    HW234080   3.242   0.843   9.656  0.4342  0.4622 -1.3566
 7541SOL     OW34081   2.948   1.284   4.387 -0.3004 -0.4926 -0.1897
 7541SOL    HW134082   2.990   1.286   4.473 -0.4587  0.4125 -0.1256
 7541SOL    HW234083   2.952   1.378   4.368 -0.3282 -0.1560  1.4975
 7542SOL     OW34084   4.499   4.045   7.037 -0.1474 -0.2340 -0.2853
 7542SOL    HW134085   4.480   4.139   7.040 -0.6667 -0.2527 -3.2356
 7542SOL    HW234086   4.581   4.040   7.086 -0.7293 -2.6985  0.4120
 7543SOL     OW34087   4.710   4.720   1.307 -0.6977  0.4630  0.0835
 7543SOL    HW134088   0.046   4.661   1.260  0.0879 -0.8660  2.7441
 7543SOL    HW234089   0.040   0.074   1.329  2.1496 -2.0344  2.0057
 7544SOL     OW34090   0.211   4.305   3.451  0.8078 -0.3290 -0.3122
 7544SOL    HW134091   0.236   4.289   3.542  1.4032 -0.0569 -0.4297
 7544SOL    HW234092   0.264   4.378   3.420  2.4294 -1.6139 -0.5303
 7545SOL     OW34093   1.307   2.944  15.104 -0.1378 -1.2574 -0.3515
 7545SOL    HW134094   1.288   2.934  15.197  0.9343 -1.7807 -0.1894
 7545SOL    HW234095   1.384   2.889  15.090  0.9960  0.2454 -0.0433
 7546SOL     OW34096   2.359   2.615  14.591  0.3035  0.1538  0.4787
 7546SOL    HW134097   2.395   2.528  14.608 -0.5877 -0.2579  0.2345
 7546SOL    HW234098   2.325   2.608  14.502 -0.6827  0.2644  0.8455
 7547SOL     OW34099   1.090   3.291   2.404  0.7242  0.7838 -0.3160
 7547SOL    HW134100   1.103   3.363   2.342 -0.0205  0.2781 -1.0609
 7547SOL    HW234101   0.997   3.300   2.426  1.5521  2.1529  2.6741
 7548SOL     OW34102   2.573   2.449   4.953  0.1512 -0.6336 -0.3771
 7548SOL    HW134103   2.550   2.500   4.876 -0.8675 -0.8100 -0.2008
 7548SOL    HW234104   2.491   2.443   5.004  0.5577 -1.3681  0.1948
 7549SOL     OW34105   4.362   3.447  12.365 -0.6038 -0.1102 -0.2180
 7549SOL    HW134106   4.327   3.514  12.423 -2.9896 -0.9866 -0.6180
 7549SOL    HW234107   4.367   3.369  12.419  0.4576  0.4585  0.4983
 7550SOL     OW34108   4.486   3.642   5.629  0.5924 -0.5065  0.0722
 7550SOL    HW134109   4.526   3.645   5.541  0.6086 -0.8717  0.0682
 7550SOL    HW234110   4.395   3.645   5.600 -0.5046 -0.8978  3.6028
 7551SOL     OW34111   0.703   1.923   9.186 -0.5438  0.2897  0.4170
 7551SOL    HW134112   0.645   1.932   9.111  3.0945 -1.4563 -2.5491
 7551SOL    HW234113   0.775   1.872   9.151 -0.0734  0.3677  1.2752
 7552SOL     OW34114   0.801   3.169  12.080 -0.1920  0.0411 -0.8332
 7552SOL    HW134115   0.779   3.087  12.124  0.9832 -0.1521 -0.5892
 7552SOL    HW234116   0.811   3.123  11.997 -2.1077  0.0467 -1.0492
 7553SOL     OW34117   1.641   1.017   9.598 -0.1518 -0.1028 -0.2217
 7553SOL    HW134118   1.564   1.061   9.635  0.4242  1.2016 -0.5857
 7553SOL    HW234119   1.603   0.972   9.523  0.4919 -2.2451  0.7485
 7554SOL     OW34120   3.834   2.439  12.750 -0.7076  0.3148  0.2828
 7554SOL    HW134121   3.776   2.366  12.769 -1.1349  0.2642 -1.2131
 7554SOL    HW234122   3.858   2.429  12.658  0.0219  4.0224  0.0643
 7555SOL     OW34123   3.175   0.703   9.213 -0.3193 -0.2581 -0.8028
 7555SOL    HW134124   3.156   0.617   9.177 -2.4625 -0.0052 -0.2868
 7555SOL    HW234125   3.130   0.697   9.298 -0.7068 -0.3960 -1.0158
 7556SOL     OW34126   4.605   3.739   2.073 -0.3094 -0.3278  0.3443
 7556SOL    HW134127   4.628   3.830   2.092  3.0361 -1.1778  0.2498
 7556SOL    HW234128   4.519   3.751   2.032  0.0860  2.2691  0.2567
 7557SOL     OW34129   4.452   0.628  12.609 -0.0415 -0.2945 -0.1000
 7557SOL    HW134130   4.546   0.622  12.629 -0.2386  1.1516  1.2121
 7557SOL    HW234131   4.466   0.688  12.536  3.1142 -0.7306  0.1355
 7558SOL     OW34132   3.251   1.035   3.281 -0.1297 -0.7904 -0.1834
 7558SOL    HW134133   3.157   1.049   3.270  0.0407 -0.9893 -1.9366
 7558SOL    HW234134   3.257   1.011   3.373  0.1814  0.1509  0.0497
 7559SOL     OW34135   0.016   2.762   6.926  0.2377  0.0484  0.0126
 7559SOL    HW134136   4.692   2.843   6.948  1.1038  0.7617 -0.7427
 7559SOL    HW234137   0.004   2.714   7.007 -1.5382 -0.4656 -0.5721
 7560SOL     OW34138   2.823   2.658  11.444 -0.1674 -0.0068 -0.4529
 7560SOL    HW134139   2.768   2.726  11.406 -0.3907 -0.6956 -1.3613
 7560SOL    HW234140   2.906   2.676  11.399 -0.2788  2.1714  0.2487
 7561SOL     OW34141   0.962   1.690   8.852  0.9536  0.0082 -0.0561
 7561SOL    HW134142   0.927   1.750   8.786 -0.5315 -1.0143 -0.1900
 7561SOL    HW234143   0.939   1.740   8.930 -1.5503 -0.2773 -0.6137
 7562SOL     OW34144   0.337   0.953   2.989  0.3133  0.6012 -0.2991
 7562SOL    HW134145   0.249   0.976   3.017 -0.7054 -0.2525 -2.7924
 7562SOL    HW234146   0.319   0.975   2.897 -0.3777 -1.0479 -0.5675
 7563SOL     OW34147   4.551   4.241  17.364 -0.7783 -0.8774  0.1639
 7563SOL    HW134148   4.515   4.329  17.353  3.0921  0.7491  0.5349
 7563SOL    HW234149   4.474   4.208  17.410 -1.2457 -0.5368 -0.3806
 7564SOL     OW34150   4.654   1.321   3.784  0.1492  0.1663  0.1561
 7564SOL    HW134151   4.710   1.397   3.799 -1.1223  1.1398  0.0018
 7564SOL    HW234152   4.604   1.312   3.865 -2.3302  2.6993 -1.0728
 7565SOL     OW34153   3.011   2.680  16.085 -0.0246 -0.0347 -0.6254
 7565SOL    HW134154   3.036   2.591  16.110 -2.8815 -0.6102  0.1959
 7565SOL    HW234155   3.095   2.713  16.054  1.7059 -1.3288  2.6330
 7566SOL     OW34156   3.497   3.604  15.168 -0.0941  0.5720  0.0110
 7566SOL    HW134157   3.507   3.601  15.263 -1.1948  2.1471  0.1680
 7566SOL    HW234158   3.475   3.697  15.163  0.7081  0.7230 -0.6234
 7567SOL     OW34159   1.263   4.400  13.576 -0.0676  0.8471 -0.6155
 7567SOL    HW134160   1.226   4.456  13.507  0.7284  0.4442 -1.3596
 7567SOL    HW234161   1.355   4.407  13.554 -0.5441  2.5186 -2.0343
 7568SOL     OW34162   1.357   0.225   3.474 -0.3629 -0.0171 -0.1413
 7568SOL    HW134163   1.321   0.288   3.536 -0.4378 -0.4220  0.2281
 7568SOL    HW234164   1.299   0.238   3.399 -1.0577 -0.9127  0.2374
 7569SOL     OW34165   0.808   3.828   7.173 -0.0299 -0.0507  0.0739
 7569SOL    HW134166   0.716   3.856   7.176  0.3624  0.9324  2.3476
 7569SOL    HW234167   0.836   3.871   7.254  1.1285  1.3688 -1.0846
 7570SOL     OW34168   0.078   2.010   7.343  0.0129 -0.3409 -0.0288
 7570SOL    HW134169   0.160   2.055   7.365  0.4653 -1.0281 -0.3131
 7570SOL    HW234170   0.054   2.045   7.257  0.8918 -1.1366 -0.6036
 7571SOL     OW34171   2.380   0.950   5.224  0.0122  0.0868  0.6223
 7571SOL    HW134172   2.393   0.995   5.141  0.2410 -1.3163 -0.1025
 7571SOL    HW234173   2.299   0.908   5.195 -0.2699  0.4578  0.8719
 7572SOL     OW34174   0.508   2.809   2.365  0.1147 -0.4023  0.0814
 7572SOL    HW134175   0.576   2.868   2.333 -2.7627  1.9677 -1.5604
 7572SOL    HW234176   0.538   2.766   2.445 -0.0779  0.4942  0.6335
 7573SOL     OW34177   4.355   1.766   2.980 -0.7239  0.0882 -0.8481
 7573SOL    HW134178   4.445   1.736   2.971 -1.0111 -1.1906  0.4345
 7573SOL    HW234179   4.358   1.861   2.991 -1.1709 -0.0455  0.4985
 7574SOL     OW34180   3.818   0.156  12.692  0.4988  0.2307  0.5950
 7574SOL    HW134181   3.820   0.103  12.772 -3.3948 -2.7410 -1.3218
 7574SOL    HW234182   3.901   0.200  12.711  1.1707  0.1733 -2.2503
 7575SOL     OW34183   2.225   2.122  12.108  0.5975 -0.0306  0.1197
 7575SOL    HW134184   2.291   2.190  12.114 -1.1203  1.7337 -1.0816
 7575SOL    HW234185   2.256   2.076  12.186 -1.9123  0.4849  1.4504
 7576SOL     OW34186   2.818   3.534  16.015  0.4626  0.1869  0.3127
 7576SOL    HW134187   2.751   3.552  15.949  1.0594  2.0773  0.2367
 7576SOL    HW234188   2.832   3.618  16.057 -0.0565 -0.3419  1.5461
 7577SOL     OW34189   1.952   3.605   6.631 -0.0223 -0.3901 -0.3974
 7577SOL    HW134190   1.967   3.600   6.725 -1.9065 -0.9798 -0.1148
 7577SOL    HW234191   2.001   3.526   6.608  0.6973 -0.3184  0.9122
 7578SOL     OW34192   1.955   4.245   7.442 -0.7282  0.2922  0.0967
 7578SOL    HW134193   2.020   4.290   7.387 -0.4347 -0.0176  0.1893
 7578SOL    HW234194   1.963   4.153   7.415  0.4742  0.2059  0.7734
 7579SOL     OW34195   3.640   4.611  11.188  0.3632 -0.0687  0.4764
 7579SOL    HW134196   3.731   4.612  11.218  0.2177 -0.2590  0.9249
 7579SOL    HW234197   3.645   4.530  11.138 -1.5919 -0.4022  0.8163
 7580SOL     OW34198   4.364   0.622   9.392 -0.7541  0.0407  0.8651
 7580SOL    HW134199   4.440   0.582   9.350 -0.4639 -0.5277  1.9469
 7580SOL    HW234200   4.291   0.581   9.346  0.1782  1.2493 -1.6738
 7581SOL     OW34201   4.535   0.716   7.260  0.0290  0.0180 -0.2561
 7581SOL    HW134202   4.465   0.674   7.210 -0.3043  2.2364 -1.6972
 7581SOL    HW234203   4.612   0.661   7.246  1.0543  0.8735  1.9475
 7582SOL     OW34204   0.062   1.968  11.849 -0.0092 -0.0933 -0.1689
 7582SOL    HW134205   4.718   1.988  11.783 -0.1679 -2.0811 -0.6056
 7582SOL    HW234206   0.055   1.874  11.864  0.0278  0.0970  1.0607
 7583SOL     OW34207   2.679   4.541   2.085 -0.2275 -0.0555 -0.0528
 7583SOL    HW134208   2.723   4.583   2.159  0.5135  1.4165 -1.3395
 7583SOL    HW234209   2.735   4.568   2.012 -1.1056 -0.8138 -1.0098
 7584SOL     OW34210   3.935   1.413  14.426  0.5119  0.1285 -0.0771
 7584SOL    HW134211   3.987   1.472  14.480  0.7329  0.0734 -0.2305
 7584SOL    HW234212   3.949   1.454  14.341  0.0734  1.1722  0.3597
 7585SOL     OW34213   4.155   1.131   7.739  0.0480  0.3818  0.1712
 7585SOL    HW134214   4.138   1.223   7.720 -0.8705 -0.1145 -1.3870
 7585SOL    HW234215   4.235   1.112   7.692 -0.1822  1.9982 -0.8758
 7586SOL     OW34216   0.629   1.696   8.009 -0.4161 -0.4113 -0.3561
 7586SOL    HW134217   0.577   1.687   7.929 -1.1924  1.6527 -0.0830
 7586SOL    HW234218   0.712   1.716   7.966 -0.7761  1.2545 -0.2920
 7587SOL     OW34219   0.417   4.226   2.290  0.2053  0.4594  0.1917
 7587SOL    HW134220   0.405   4.321   2.283 -0.5045  0.2680 -1.1595
 7587SOL    HW234221   0.362   4.193   2.220 -0.2575 -0.4811  0.9967
 7588SOL     OW34222   0.992   1.658   4.309  0.0368 -0.5901  0.2295
 7588SOL    HW134223   0.993   1.735   4.251 -1.9512 -1.4337 -0.9122
 7588SOL    HW234224   1.061   1.687   4.369 -0.5851  0.4358  0.4440
 7589SOL     OW34225   2.227   3.703   4.148 -0.6413  0.1680  0.0600
 7589SOL    HW134226   2.231   3.689   4.243  1.1921 -0.0251 -0.0444
 7589SOL    HW234227   2.247   3.617   4.111  1.2983  0.0652  1.3444
 7590SOL     OW34228   2.063   0.592   6.312  0.7092 -0.7590  0.4252
 7590SOL    HW134229   2.098   0.568   6.398  2.3486 -0.0730 -0.0395
 7590SOL    HW234230   2.141   0.642   6.285 -2.1786  2.3704 -2.1281
 7591SOL     OW34231   3.447   0.249   3.730 -0.5496 -0.2928 -0.1016
 7591SOL    HW134232   3.509   0.189   3.771  0.4913  0.5285 -0.4715
 7591SOL    HW234233   3.388   0.258   3.804  1.1406  2.3862  0.9393
 7592SOL     OW34234   1.153   3.762   7.915 -0.4970  0.0391  0.3564
 7592SOL    HW134235   1.187   3.694   7.858  0.1416 -0.0094  0.7876
 7592SOL    HW234236   1.233   3.777   7.966 -1.2238  0.1362  1.4791
 7593SOL     OW34237   1.332   1.615   2.280  0.1960  0.0130 -0.1646
 7593SOL    HW134238   1.317   1.524   2.254 -1.2573  0.1954  0.0008
 7593SOL    HW234239   1.358   1.649   2.195  2.1014  0.7329  0.7087
 7594SOL     OW34240   0.309   0.212   9.587  0.2609 -0.1484 -0.2000
 7594SOL    HW134241   0.369   0.201   9.660 -1.2910 -2.1206  0.7715
 7594SOL    HW234242   0.343   0.295   9.551 -1.5882  0.7049  0.0257
 7595SOL     OW34243   2.216   3.453   9.573  0.3188  0.3820 -0.0995
 7595SOL    HW134244   2.183   3.366   9.597  0.0641  0.6725  0.6168
 7595SOL    HW234245   2.138   3.501   9.601 -2.0233 -2.9027 -1.0107
 7596SOL     OW34246   1.389   1.579  12.951  0.7179 -0.1313  0.0269
 7596SOL    HW134247   1.317   1.533  12.994  0.2496  1.6953  1.1956
 7596SOL    HW234248   1.368   1.665  12.987 -0.3746  0.2884 -1.6342
 7597SOL     OW34249   1.537   1.951   4.597  0.8218  0.4490 -0.1494
 7597SOL    HW134250   1.583   1.958   4.680  0.6939  1.5337 -0.1632
 7597SOL    HW234251   1.446   1.969   4.621  0.2789 -0.3131 -1.6074
 7598SOL     OW34252   3.830   1.982   6.872 -0.2359 -0.0645 -0.0132
 7598SOL    HW134253   3.860   2.073   6.872 -2.5104  0.6876 -0.1189
 7598SOL    HW234254   3.840   1.968   6.966 -2.0243 -1.5993 -0.0413
 7599SOL     OW34255   0.532   3.824   8.243 -0.0645 -0.4065 -0.1085
 7599SOL    HW134256   0.625   3.813   8.225  0.4453 -0.6916  2.6222
 7599SOL    HW234257   0.525   3.844   8.337 -0.6398  0.5435 -0.3540
 7600SOL     OW34258   2.342   3.307   6.730 -0.0718  0.0095  0.2591
 7600SOL    HW134259   2.355   3.400   6.746  0.6966  0.3394 -2.2778
 7600SOL    HW234260   2.392   3.268   6.802 -0.0806 -1.2114 -0.3983
 7601SOL     OW34261   1.038   3.011  16.069  0.4494 -0.0695  0.0022
 7601SOL    HW134262   0.995   2.938  16.025  0.2102  1.0246 -1.5571
 7601SOL    HW234263   1.025   3.084  16.009 -2.9711  0.8438  1.8448
 7602SOL     OW34264   4.347   4.310   8.367  0.0142 -0.0620  0.3197
 7602SOL    HW134265   4.351   4.386   8.310  0.9255  0.5999  1.2701
 7602SOL    HW234266   4.427   4.318   8.420  1.1761 -0.5225 -1.3686
 7603SOL     OW34267   1.845   0.690   7.757 -0.2822  0.5437 -0.2849
 7603SOL    HW134268   1.851   0.764   7.696 -1.2519  0.3335 -0.6440
 7603SOL    HW234269   1.840   0.619   7.693  1.7556 -2.6044  3.0718
 7604SOL     OW34270   4.304   4.672   1.454  0.0266  0.6853  0.1632
 7604SOL    HW134271   4.326   4.656   1.546 -0.2133 -2.3794 -0.3142
 7604SOL    HW234272   4.242   0.021   1.470 -1.8182 -0.6534 -1.1372
 7605SOL     OW34273   1.334   4.112   3.770 -0.0476 -0.3784 -0.2613
 7605SOL    HW134274   1.413   4.115   3.823 -0.5339 -0.3377  0.4562
 7605SOL    HW234275   1.352   4.183   3.707  1.7914 -0.2857  0.3694
 7606SOL     OW34276   1.868   2.113   6.778 -0.8691  0.0489 -0.6481
 7606SOL    HW134277   1.886   2.204   6.802  2.9055 -0.5581 -1.1657
 7606SOL    HW234278   1.853   2.121   6.684  0.4144  0.1759 -0.8393
 7607SOL     OW34279   3.231   2.820  12.004 -0.1301 -0.4901 -0.1451
 7607SOL    HW134280   3.213   2.827  11.910 -3.9380  2.8020  0.8449
 7607SOL    HW234281   3.176   2.744  12.025 -0.5080 -0.0169  0.5657
 7608SOL     OW34282   1.154   1.496   7.010  0.3156 -0.2615 -0.0208
 7608SOL    HW134283   1.089   1.552   7.053  0.2128 -0.0559 -0.4511
 7608SOL    HW234284   1.232   1.525   7.058 -0.3204 -2.0985  2.1199
 7609SOL     OW34285   2.043   4.560   4.737 -0.0488 -0.7452 -0.9617
 7609SOL    HW134286   1.956   4.592   4.712  1.4004  3.0688 -1.0933
 7609SOL    HW234287   2.014   4.473   4.765  0.7905 -0.2068  1.5754
 7610SOL     OW34288   2.539   0.870   9.292 -0.4838 -0.3283  0.6017
 7610SOL    HW134289   2.514   0.957   9.323 -0.4407 -0.3196  0.6127
 7610SOL    HW234290   2.487   0.853   9.213 -0.4087 -0.7540  0.6413
 7611SOL     OW34291   4.435   1.023   4.064 -0.5907 -0.3084 -0.4502
 7611SOL    HW134292   4.500   1.023   3.994  1.7793 -1.6091  1.7794
 7611SOL    HW234293   4.415   1.117   4.071 -0.4855 -0.2916 -0.3784
 7612SOL     OW34294   2.338   2.671  16.727 -0.2610 -0.1223 -0.5787
 7612SOL    HW134295   2.381   2.756  16.726  0.7673 -0.6267  1.5342
 7612SOL    HW234296   2.247   2.696  16.715  0.4710  1.5150 -2.7297
 7613SOL     OW34297   0.918   3.425   3.623  0.0565 -0.3609  0.1339
 7613SOL    HW134298   0.893   3.508   3.583  1.1441 -0.3827 -0.5987
 7613SOL    HW234299   0.960   3.379   3.550  0.9354  0.7187 -0.0475
 7614SOL     OW34300   2.256   2.989   9.959  0.2085 -0.1186  0.7447
 7614SOL    HW134301   2.194   2.987   9.885  0.0477 -3.3225  0.9331
 7614SOL    HW234302   2.266   3.081   9.982 -0.1780  0.8111 -2.8093
 7615SOL     OW34303   1.392   4.686   1.418 -0.0475  0.0143  0.0120
 7615SOL    HW134304   1.439   4.701   1.335  3.9994  2.3101  2.7141
 7615SOL    HW234305   1.302   4.674   1.388 -0.2973  0.0251  0.7741
 7616SOL     OW34306   4.396   4.693   0.640 -0.5921  0.1284  0.0887
 7616SOL    HW134307   4.309   4.654   0.648 -0.5555  0.0733  0.2277
 7616SOL    HW234308   4.436   4.659   0.560  2.2556  1.2118  1.0611
 7617SOL     OW34309   3.624   3.058   6.034  0.3707  0.7594 -0.1903
 7617SOL    HW134310   3.707   3.105   6.026  0.5309  0.7487  1.3777
 7617SOL    HW234311   3.661   2.971   6.044 -2.2588 -0.2984  0.2326
 7618SOL     OW34312   1.112   4.679  10.100 -0.5696  0.5892  0.3824
 7618SOL    HW134313   1.099   4.695  10.193  0.1931  0.2270  0.5452
 7618SOL    HW234314   1.206   4.664  10.102 -0.5227  0.6808 -0.6839
 7619SOL     OW34315   0.684   1.670   5.321 -0.2261  0.0352  0.1028
 7619SOL    HW134316   0.599   1.639   5.350 -0.6079  0.1210 -0.9150
 7619SOL    HW234317   0.728   1.692   5.403  0.1849  0.0400 -0.1165
 7620SOL     OW34318   1.809   0.316   7.057 -0.3183  0.0762  0.2409
 7620SOL    HW134319   1.866   0.362   6.995  1.4379 -1.8117  0.4321
 7620SOL    HW234320   1.789   0.228   7.024  0.9652  0.1695 -0.7873
 7621SOL     OW34321   4.069   1.326   1.320  0.0972  0.2283  0.1487
 7621SOL    HW134322   4.003   1.269   1.280  3.4522 -2.5275 -1.4150
 7621SOL    HW234323   4.023   1.340   1.403 -0.9364 -1.1581 -0.1901
 7622SOL     OW34324   1.605   1.397  16.180 -0.2152 -0.7176  0.3423
 7622SOL    HW134325   1.572   1.365  16.095 -0.9295 -0.0374  0.3656
 7622SOL    HW234326   1.538   1.373  16.244 -1.2457 -0.6624 -0.7030
 7623SOL     OW34327   2.482   3.573  13.804  0.0216 -0.1464 -0.2061
 7623SOL    HW134328   2.494   3.609  13.892 -2.6395 -1.7839  0.8200
 7623SOL    HW234329   2.386   3.572  13.804 -0.0408  3.3002 -1.4135
 7624SOL     OW34330   0.841   1.570  11.506 -0.2650 -0.0102 -0.3693
 7624SOL    HW134331   0.814   1.494  11.557 -0.4749  0.4057  0.1446
 7624SOL    HW234332   0.767   1.588  11.447 -0.4481  0.1113 -0.1063
 7625SOL     OW34333   4.574   3.006   7.463  0.1212  0.4573 -0.3550
 7625SOL    HW134334   4.619   2.938   7.413 -1.1982 -0.1326 -0.7400
 7625SOL    HW234335   4.592   2.989   7.556 -1.1443 -1.0552 -0.3930
 7626SOL     OW34336   2.803   0.508   9.111  0.3089 -0.3908 -0.1697
 7626SOL    HW134337   2.740   0.556   9.057 -0.2915  0.6869  1.5011
 7626SOL    HW234338   2.782   0.416   9.127 -2.2727  0.0762 -0.8392
 7627SOL     OW34339   0.237   1.324  14.128 -0.2411 -0.3893  0.5694
 7627SOL    HW134340   0.144   1.347  14.120 -0.9388 -3.1836  0.9982
 7627SOL    HW234341   0.266   1.333  14.037 -0.6284  1.7065  0.6324
 7628SOL     OW34342   0.149   2.667   0.581 -0.2362  0.2529 -0.2921
 7628SOL    HW134343   0.085   2.627   0.522  1.1146  0.1068 -1.6445
 7628SOL    HW234344   0.158   2.593   0.642 -1.4303  2.2565  2.2935
 7629SOL     OW34345   4.156   0.681   5.389  0.8599  0.2149  0.5039
 7629SOL    HW134346   4.241   0.718   5.412  1.7229 -1.1232 -0.5092
 7629SOL    HW234347   4.180   0.594   5.357  0.0736  0.8623 -1.8264
 7630SOL     OW34348   1.773   0.028   7.042 -1.0137  0.3128 -0.4597
 7630SOL    HW134349   1.841   0.042   7.108  0.9192 -0.8173 -2.2168
 7630SOL    HW234350   1.752   4.659   7.058 -1.3493  0.5083  0.2566
 7631SOL     OW34351   2.889   4.487   7.726 -0.6506 -0.8200 -0.2829
 7631SOL    HW134352   2.911   4.493   7.819 -0.0193 -1.1054 -0.4125
 7631SOL    HW234353   2.830   4.412   7.734 -2.9110  0.9560 -0.4831
 7632SOL     OW34354   3.606   0.695   0.681 -0.4141  0.0931  0.5177
 7632SOL    HW134355   3.698   0.673   0.667 -0.7239  0.3711 -1.9538
 7632SOL    HW234356   3.574   0.620   0.631 -0.7329  0.3377  0.3489
 7633SOL     OW34357   3.417   3.926   8.009  0.1337  0.4729 -0.2561
 7633SOL    HW134358   3.377   3.853   8.057 -0.8272  0.4814 -1.0413
 7633SOL    HW234359   3.362   4.002   8.026 -1.6015 -1.1211  1.2472
 7634SOL     OW34360   0.791   3.133  17.683  0.4365 -0.1063 -0.7915
 7634SOL    HW134361   0.868   3.150   0.045 -1.2698  1.5430  1.0799
 7634SOL    HW234362   0.739   3.081   0.052 -0.3146  1.9296  0.2754
 7635SOL     OW34363   1.271   0.656   0.808 -0.4647  0.2777  0.2497
 7635SOL    HW134364   1.226   0.572   0.798  1.7396 -0.5187 -2.8000
 7635SOL    HW234365   1.225   0.691   0.884 -0.4815 -1.3511  0.9978
 7636SOL     OW34366   4.333   1.106  10.792  0.0066  0.0692 -0.9337
 7636SOL    HW134367   4.239   1.123  10.798  0.2237  1.4354 -1.2465
 7636SOL    HW234368   4.337   1.012  10.779 -2.5792 -0.3301  1.1569
 7637SOL     OW34369   0.873   2.476  16.869  0.0191  0.0208  0.1638
 7637SOL    HW134370   0.960   2.512  16.852  0.4302  0.2767  2.7873
 7637SOL    HW234371   0.871   2.499  16.962 -1.1635  0.1922  0.0888
 7638SOL     OW34372   2.979   3.756   6.279 -0.0058  0.0654 -0.9226
 7638SOL    HW134373   2.911   3.764   6.212  0.0125  1.3605 -0.7819
 7638SOL    HW234374   3.042   3.713   6.221 -0.0682 -0.4661 -0.5895
 7639SOL     OW34375   3.159   4.589   1.684 -0.1072 -0.0869 -0.0501
 7639SOL    HW134376   3.081   4.562   1.637  0.0570 -0.2659 -0.2203
 7639SOL    HW234377   3.190   4.665   1.634  1.2577 -0.8421 -0.3507
 7640SOL     OW34378   4.526   0.661   3.315  0.1372  0.4896 -0.0073
 7640SOL    HW134379   4.471   0.699   3.246 -2.0061 -1.9726  0.3936
 7640SOL    HW234380   4.519   0.731   3.380 -1.1900  1.3996 -1.1196
 7641SOL     OW34381   1.282   4.279  14.933 -0.3184 -0.1006 -0.3933
 7641SOL    HW134382   1.342   4.317  14.869  0.5218 -0.1739  0.3512
 7641SOL    HW234383   1.317   4.294  15.021 -0.5779  1.6939 -0.6039
 7642SOL     OW34384   3.237   0.621   3.075 -0.0657 -0.0654  0.1734
 7642SOL    HW134385   3.329   0.640   3.091 -0.3207  0.5093  0.9521
 7642SOL    HW234386   3.238   0.605   2.981  1.3608 -0.3811  0.2501
 7643SOL     OW34387   1.321   1.266   9.271 -0.0828  0.2245 -0.0836
 7643SOL    HW134388   1.251   1.265   9.336 -0.4600 -1.1442 -0.5152
 7643SOL    HW234389   1.326   1.171   9.256 -2.0386  0.0057  0.5888
 7644SOL     OW34390   1.071   0.844   4.370 -0.6225 -0.1793  0.2776
 7644SOL    HW134391   1.076   0.880   4.282 -0.1981 -2.0153 -0.4498
 7644SOL    HW234392   1.159   0.807   4.373 -0.2541  0.6920  0.0839
 7645SOL     OW34393   3.958   4.509   2.467 -0.0928 -0.1017 -0.1127
 7645SOL    HW134394   3.968   4.416   2.446  2.6615  0.2124 -0.1607
 7645SOL    HW234395   3.945   4.551   2.382 -3.0933  0.0733  0.4334
 7646SOL     OW34396   1.083   1.724  10.917 -0.2382  0.0088  0.2341
 7646SOL    HW134397   1.154   1.787  10.909 -1.4951  1.5437  1.1106
 7646SOL    HW234398   1.011   1.779  10.886 -1.0210  0.9003  3.5281
 7647SOL     OW34399   0.669   1.437   3.712  0.2064  0.4642  0.6600
 7647SOL    HW134400   0.702   1.348   3.706 -2.5952 -0.2537 -3.8700
 7647SOL    HW234401   0.592   1.427   3.656  0.4215 -0.5027  0.5375
 7648SOL     OW34402   3.872   3.188   7.383  0.1351 -0.1997  0.0322
 7648SOL    HW134403   3.806   3.167   7.449  0.3090  0.7846  0.5102
 7648SOL    HW234404   3.816   3.199   7.305  1.2826 -0.1946 -0.7914
 7649SOL     OW34405   4.109   3.879   7.186  0.7223 -0.3630 -0.0903
 7649SOL    HW134406   4.106   3.973   7.205 -0.8053 -0.9869  2.6427
 7649SOL    HW234407   4.136   3.840   7.268 -0.1015 -1.2537 -0.2545
 7650SOL     OW34408   4.026   0.769   1.156 -0.4949  0.4032  0.1816
 7650SOL    HW134409   4.017   0.687   1.205 -0.4917  0.1343 -0.2652
 7650SOL    HW234410   4.096   0.728   1.105 -0.7632 -0.9099  0.8675
 7651SOL     OW34411   4.300   4.111   4.253 -0.1694 -0.2913  0.4647
 7651SOL    HW134412   4.383   4.147   4.221 -1.0713  1.2039 -0.2098
 7651SOL    HW234413   4.234   4.132   4.188  1.0553  1.6259 -0.1585
 7652SOL     OW34414   1.251   1.154   3.348 -0.1661 -0.3072  0.1395
 7652SOL    HW134415   1.340   1.137   3.317 -0.2067 -1.5899  0.7247
 7652SOL    HW234416   1.202   1.174   3.269  0.1504  0.2588  0.0919
 7653SOL     OW34417   0.839   1.448   8.565  0.2198 -0.3767  0.6463
 7653SOL    HW134418   0.791   1.459   8.647  0.2736  1.2667  0.4602
 7653SOL    HW234419   0.914   1.398   8.594  0.6304 -0.1193  0.0390
 7654SOL     OW34420   3.184   1.022   6.932  0.4807 -0.1808 -0.1731
 7654SOL    HW134421   3.208   1.088   6.867  1.1776 -1.4636 -1.2265
 7654SOL    HW234422   3.264   0.970   6.924  1.2506  0.6149  2.5518
 7655SOL     OW34423   0.039   3.785   8.098  0.6735  0.5169 -0.1581
 7655SOL    HW134424   0.044   3.863   8.154 -1.0215 -1.1327  2.3231
 7655SOL    HW234425   0.132   3.767   8.087  0.5863  0.8696 -1.4434
 7656SOL     OW34426   3.721   3.625  12.116 -0.4165  0.7039 -0.5993
 7656SOL    HW134427   3.766   3.697  12.072  0.8146 -1.4008 -2.7922
 7656SOL    HW234428   3.631   3.659  12.114 -0.0613  1.7736  2.6179
 7657SOL     OW34429   2.943   3.124  16.736  0.2304  0.0590 -0.0394
 7657SOL    HW134430   2.917   3.156  16.823 -1.5144  0.3235 -0.6617
 7657SOL    HW234431   2.863   3.088  16.697  0.0166  0.0307  0.4199
 7658SOL     OW34432   2.669   4.705  11.242  0.9822  0.0256  0.0625
 7658SOL    HW134433   2.629   4.663  11.166  1.7031  2.1134 -1.4505
 7658SOL    HW234434   2.760   4.704  11.211  0.6951 -0.0442 -0.7705
 7659SOL     OW34435   1.557   0.131   6.626 -0.0195 -0.2785  0.2328
 7659SOL    HW134436   1.569   0.079   6.705 -0.2331 -1.2506 -0.3825
 7659SOL    HW234437   1.470   0.167   6.643  0.4032  0.6960  0.3561
 7660SOL     OW34438   0.475   1.995   5.380  0.2782 -0.4070  0.0305
 7660SOL    HW134439   0.404   2.004   5.317  1.3062  2.1998 -0.7577
 7660SOL    HW234440   0.534   2.066   5.356 -0.1807  0.4691  1.5015
 7661SOL     OW34441   2.580   0.197   6.478 -0.3798 -0.2760 -0.5712
 7661SOL    HW134442   2.659   0.225   6.524 -1.1488 -1.6680  1.5935
 7661SOL    HW234443   2.610   0.126   6.422  0.2221 -0.7683  0.3682
 7662SOL     OW34444   3.304   1.897  13.482  0.2200  0.1974 -0.1112
 7662SOL    HW134445   3.215   1.914  13.513 -0.6088 -1.8439 -1.3609
 7662SOL    HW234446   3.283   1.877  13.391  1.7288  0.7657 -0.5853
 7663SOL     OW34447   3.565   4.682   8.390 -0.1163  0.0796  0.1158
 7663SOL    HW134448   3.483   4.672   8.342  0.7050  0.3524 -1.3351
 7663SOL    HW234449   3.537   0.004   8.470 -2.9260  1.1272 -1.4745
 7664SOL     OW34450   0.682   2.439   5.292  0.0842 -0.0133  0.1566
 7664SOL    HW134451   0.681   2.503   5.364 -0.4499  0.6972 -0.4827
 7664SOL    HW234452   0.589   2.444   5.269  0.5184  0.1582 -1.5837
 7665SOL     OW34453   2.863   2.299   5.807 -0.0243  0.1724 -0.0516
 7665SOL    HW134454   2.807   2.222   5.816  0.1285  0.4061  3.1361
 7665SOL    HW234455   2.822   2.362   5.866 -1.2219 -0.5469 -0.1225
 7666SOL     OW34456   3.007   0.436   4.989  0.1787 -0.6781  0.3057
 7666SOL    HW134457   2.983   0.449   4.897 -2.1147 -0.6962  0.9122
 7666SOL    HW234458   2.922   0.448   5.030  0.1254  0.4388 -0.1513
 7667SOL     OW34459   2.645   4.454   8.800  0.5089  0.4881 -0.1198
 7667SOL    HW134460   2.599   4.467   8.717  0.2036 -1.3967 -0.2334
 7667SOL    HW234461   2.734   4.484   8.784  0.1012  2.0547  0.5064
 7668SOL     OW34462   1.579   1.970   6.822  0.2481  0.1437 -0.1343
 7668SOL    HW134463   1.513   2.011   6.878 -0.8001 -2.8687  0.8284
 7668SOL    HW234464   1.544   2.002   6.738 -0.5521  0.1193  0.1914
 7669SOL     OW34465   2.352   3.789   9.038 -0.6290 -0.2131 -0.1858
 7669SOL    HW134466   2.431   3.839   9.018 -1.4008  1.0413 -0.0753
 7669SOL    HW234467   2.329   3.828   9.123  0.8216  2.1884 -0.9060
 7670SOL     OW34468   2.693   3.501   3.192 -0.2220 -0.2146  0.1116
 7670SOL    HW134469   2.738   3.422   3.164 -0.2507 -0.6761  1.3560
 7670SOL    HW234470   2.724   3.566   3.130  1.1739  0.7625  1.8229
 7671SOL     OW34471   1.333   2.937   8.153  0.4766  0.2645  0.0336
 7671SOL    HW134472   1.249   2.930   8.108  0.1414  3.1116  0.2321
 7671SOL    HW234473   1.373   2.852   8.137  1.6820  1.1876 -1.9238
 7672SOL     OW34474   2.997   0.827   9.494  0.1205 -0.0680  0.3485
 7672SOL    HW134475   3.012   0.892   9.425 -3.4960 -1.5145 -1.7793
 7672SOL    HW234476   2.957   0.756   9.444  0.1245  0.0340  0.2011
 7673SOL     OW34477   3.973   2.046   0.133  0.0148  0.2939  0.4973
 7673SOL    HW134478   3.923   2.124   0.110  0.5953 -0.2670 -2.7611
 7673SOL    HW234479   3.951   1.994   0.056 -0.3082  3.3812 -1.4809
 7674SOL     OW34480   2.309   0.011  14.311 -0.0061  0.0326 -0.0812
 7674SOL    HW134481   2.367   0.069  14.360  1.3130 -0.6762 -0.7977
 7674SOL    HW234482   2.226   0.018  14.359  0.4438 -2.4436  1.1034
 7675SOL     OW34483   1.022   3.380  10.634  0.4671  0.1524 -0.0765
 7675SOL    HW134484   0.964   3.449  10.667  2.0216  1.0953  0.6625
 7675SOL    HW234485   1.038   3.320  10.707 -0.9734 -1.0372 -0.7293
 7676SOL     OW34486   3.988   2.927   5.183 -0.4713  0.6452  0.4889
 7676SOL    HW134487   3.999   2.878   5.101  0.1952  1.4944  0.0759
 7676SOL    HW234488   3.911   2.977   5.158 -0.0360  0.3048 -1.5254
 7677SOL     OW34489   2.801   3.469   7.831  0.8235  0.4929 -0.0278
 7677SOL    HW134490   2.749   3.413   7.888  0.0641  0.1180 -1.0776
 7677SOL    HW234491   2.881   3.467   7.882 -0.2680 -2.3098  1.5593
 7678SOL     OW34492   2.577   0.113  15.480 -0.3574  0.2453  0.3613
 7678SOL    HW134493   2.604   0.201  15.454 -0.3846  0.2807  0.4519
 7678SOL    HW234494   2.660   0.066  15.467 -0.3115  0.3930  0.1395
 7679SOL     OW34495   0.227   1.085   9.238  0.1872  0.3552  0.1972
 7679SOL    HW134496   0.208   0.996   9.270 -1.1378  0.9904  1.1611
 7679SOL    HW234497   0.321   1.100   9.244  0.5069 -1.4745 -0.1736
 7680SOL     OW34498   1.869   3.478  12.030  0.1088 -0.4975  0.3167
 7680SOL    HW134499   1.916   3.408  12.074  2.1170 -0.4421 -1.7470
 7680SOL    HW234500   1.851   3.542  12.099 -0.4287  0.4711 -0.7187
 7681SOL     OW34501   2.498   1.790  17.480  0.4674 -0.7716 -0.2328
 7681SOL    HW134502   2.560   1.740  17.533 -0.5415 -1.4627  0.2939
 7681SOL    HW234503   2.565   1.834  17.428 -0.4939 -2.7412 -3.1273
 7682SOL     OW34504   3.065   3.833   3.485  0.0822  0.5130 -0.3973
 7682SOL    HW134505   2.981   3.877   3.496  0.3689  0.1797  2.9402
 7682SOL    HW234506   3.043   3.752   3.531  0.6495  1.3415  1.3344
 7683SOL     OW34507   1.120   2.974  13.781 -0.8690  0.3840 -0.4572
 7683SOL    HW134508   1.198   2.954  13.833  0.2658 -0.0377 -2.3314
 7683SOL    HW234509   1.118   2.896  13.726  0.0572  0.3484 -0.4298
 7684SOL     OW34510   4.604   2.841  15.108 -0.4801  0.0928  0.0566
 7684SOL    HW134511   4.547   2.897  15.159  0.9453  1.6508 -0.0534
 7684SOL    HW234512   4.559   2.822  15.026  2.7511  0.2959 -1.7781
 7685SOL     OW34513   4.211   0.190   6.736  0.2784 -0.4739  0.0867
 7685SOL    HW134514   4.211   0.270   6.789 -0.3578 -1.4112  1.5148
 7685SOL    HW234515   4.171   0.130   6.800 -0.4387  1.6270  1.6013
 7686SOL     OW34516   1.450   4.676   3.151 -0.1240 -0.5391  0.0650
 7686SOL    HW134517   1.453   4.611   3.221 -0.2813 -1.2840 -0.6260
 7686SOL    HW234518   1.467   4.619   3.076 -2.6953 -1.5550  0.2539
 7687SOL     OW34519   1.575   0.456   7.095 -0.7541 -0.0436 -0.1978
 7687SOL    HW134520   1.533   0.469   7.010 -0.4147 -1.3977 -0.5806
 7687SOL    HW234521   1.657   0.412   7.075  0.0805  0.6614  1.6995
 7688SOL     OW34522   2.465   4.708   4.997  0.4189 -0.1695 -0.0677
 7688SOL    HW134523   2.534   0.047   5.020 -0.2055  0.1209  1.0309
 7688SOL    HW234524   2.488   4.631   5.048 -0.9691 -0.0198  0.7786
 7689SOL     OW34525   3.588   3.657   8.911 -0.7620 -0.3880  0.1781
 7689SOL    HW134526   3.625   3.649   8.822  0.3139  0.1036  0.5797
 7689SOL    HW234527   3.534   3.735   8.904  0.6516  0.3987 -2.1570
 7690SOL     OW34528   0.640   3.571   8.454 -0.1858 -0.0050  0.0540
 7690SOL    HW134529   0.568   3.510   8.461 -1.6794  1.6166 -1.0949
 7690SOL    HW234530   0.678   3.533   8.375 -1.6654 -0.7735 -0.2787
 7691SOL     OW34531   3.774   1.034   3.267  0.3284  0.1654  0.3496
 7691SOL    HW134532   3.734   0.997   3.188 -0.1144  1.1187  0.1365
 7691SOL    HW234533   3.759   0.951   3.312 -0.0761 -0.1155 -0.3024
 7692SOL     OW34534   0.916   3.665  12.443  0.3031  0.3346  0.6410
 7692SOL    HW134535   0.908   3.758  12.463  1.1228  0.5487 -0.0176
 7692SOL    HW234536   0.992   3.652  12.500  1.6652  1.4780 -0.9173
 7693SOL     OW34537   4.025   4.647  11.082  0.2049 -0.0908  0.1594
 7693SOL    HW134538   4.112   4.609  11.093 -0.0786 -0.8084 -0.1018
 7693SOL    HW234539   3.977   4.619  11.160  0.0750  0.6752  0.3550
 7694SOL     OW34540   3.439   1.793  17.354  0.0115 -0.1884 -0.2515
 7694SOL    HW134541   3.481   1.823  17.435 -1.3214  1.7671 -0.2747
 7694SOL    HW234542   3.449   1.700  17.377  0.7631  0.5600  2.3872
 7695SOL     OW34543   0.740   2.178   5.292  0.0577  0.3563 -0.1679
 7695SOL    HW134544   0.743   2.180   5.388  1.4747  1.9163 -0.2329
 7695SOL    HW234545   0.729   2.271   5.271 -1.0425 -0.0677 -1.4154
 7696SOL     OW34546   4.193   0.255  10.977  0.3669  0.0661  0.0316
 7696SOL    HW134547   4.211   0.173  11.024 -0.0028  0.1884  0.3791
 7696SOL    HW234548   4.102   0.239  10.951  0.5555 -1.6479  0.3892
 7697SOL     OW34549   3.278   2.364  12.068 -0.4556  0.3975  0.1842
 7697SOL    HW134550   3.194   2.331  12.037 -1.6496  3.0148  0.5698
 7697SOL    HW234551   3.341   2.321  12.010 -0.8232 -1.0196  0.8437
 7698SOL     OW34552   0.884   0.781   1.855 -0.4078  0.0876 -0.3375
 7698SOL    HW134553   0.944   0.714   1.821  1.1335  1.0912  0.4455
 7698SOL    HW234554   0.839   0.811   1.776  0.8922  0.6420 -0.8664
 7699SOL     OW34555   1.602   2.164   4.980 -0.2959  0.1513  0.1519
 7699SOL    HW134556   1.606   2.230   5.049  2.2232 -0.4941  0.6324
 7699SOL    HW234557   1.631   2.221   4.908  1.6640 -2.2768 -0.9935
 7700SOL     OW34558   1.509   3.285   6.087 -0.0756  0.6234  0.3384
 7700SOL    HW134559   1.591   3.241   6.063 -0.6411  0.4593 -1.2234
 7700SOL    HW234560   1.451   3.257   6.017 -1.4061  0.5603  1.4762
 7701SOL     OW34561   2.900   2.649   0.757  0.3438 -0.3745  0.1949
 7701SOL    HW134562   2.842   2.597   0.701 -0.8694  1.0967  0.0700
 7701SOL    HW234563   2.987   2.613   0.743 -0.6160 -2.1652 -1.2160
 7702SOL     OW34564   4.653   0.095   2.363 -0.1574  0.3835 -0.6660
 7702SOL    HW134565   4.662   0.109   2.457 -0.8132  1.7482 -0.8120
 7702SOL    HW234566   4.627   0.003   2.353 -0.9046  0.8496 -2.9670
 7703SOL     OW34567   2.753   4.470   5.486  0.2202 -0.5621  0.2656
 7703SOL    HW134568   2.812   4.406   5.526 -0.0997  0.2422  2.0147
 7703SOL    HW234569   2.813   4.543   5.471 -0.8512 -0.1203 -1.9116
 7704SOL     OW34570   3.779   1.417   4.267  0.2640  0.2589  0.0799
 7704SOL    HW134571   3.837   1.396   4.194  0.5503 -1.1158  0.7180
 7704SOL    HW234572   3.699   1.427   4.215  1.5897  0.5076 -1.9307
 7705SOL     OW34573   2.962   3.741  17.325  0.3535 -0.1726  0.1250
 7705SOL    HW134574   2.943   3.824  17.369 -2.8899  0.9634 -3.4598
 7705SOL    HW234575   2.974   3.685  17.402  1.7535 -0.1413 -0.0738
 7706SOL     OW34576   3.651   2.395  15.884 -0.3398 -0.5445  0.3616
 7706SOL    HW134577   3.566   2.370  15.849 -0.1781  0.7778 -0.9550
 7706SOL    HW234578   3.717   2.345  15.835  0.9528  0.9352  0.5990
 7707SOL     OW34579   0.534   3.219   2.732 -0.8544  0.1768  0.3242
 7707SOL    HW134580   0.483   3.295   2.705 -1.6891  0.4416  2.6999
 7707SOL    HW234581   0.561   3.181   2.648  1.7425  0.9070  0.8255
 7708SOL     OW34582   3.705   2.193  12.723 -0.3867  0.0151 -0.3695
 7708SOL    HW134583   3.683   2.190  12.630  0.2713 -0.2489 -0.5119
 7708SOL    HW234584   3.785   2.141  12.722  1.2519  2.5102  1.7413
 7709SOL     OW34585   4.380   1.214   6.613 -0.2403  0.5837  0.1257
 7709SOL    HW134586   4.332   1.269   6.551 -0.0992  1.5047  0.8513
 7709SOL    HW234587   4.457   1.264   6.639  1.1093 -2.0038  1.1650
 7710SOL     OW34588   3.976   1.530   5.333 -0.3370  0.1172  0.0979
 7710SOL    HW134589   3.932   1.460   5.284 -1.2029  0.4292  0.4247
 7710SOL    HW234590   3.995   1.490   5.418 -0.4359 -1.8565 -0.7988
 7711SOL     OW34591   1.100   1.317   6.216  0.5190 -0.4690 -0.2138
 7711SOL    HW134592   1.134   1.357   6.136  1.5211 -2.4985 -0.7865
 7711SOL    HW234593   1.020   1.369   6.223  1.3161  0.5662  1.3017
 7712SOL     OW34594   4.347   4.100   3.702 -0.3115 -0.1845  0.1824
 7712SOL    HW134595   4.300   4.028   3.659 -0.0070 -0.6911  0.7049
 7712SOL    HW234596   4.362   4.067   3.790  3.3893  0.4421 -0.2071
 7713SOL     OW34597   4.096   2.919  11.069 -0.5475 -0.0707  0.5883
 7713SOL    HW134598   4.102   2.961  10.983 -2.8927  0.6350  0.7822
 7713SOL    HW234599   4.002   2.906  11.070 -1.0406  3.2147 -1.9731
 7714SOL     OW34600   0.608   4.001   9.093  0.1062 -0.1297 -0.9142
 7714SOL    HW134601   0.585   4.082   9.047  0.1845  0.0371 -0.6595
 7714SOL    HW234602   0.521   3.963   9.106  0.5139 -0.9723 -0.6573
 7715SOL     OW34603   1.592   3.199  14.117  0.3115 -0.4453 -0.6030
 7715SOL    HW134604   1.586   3.209  14.022  1.2867  0.1949 -0.6022
 7715SOL    HW234605   1.506   3.164  14.138 -0.5349  2.0164 -0.0290
 7716SOL     OW34606   0.303   1.284   2.860  0.0003 -0.0866  0.2485
 7716SOL    HW134607   0.216   1.314   2.832  0.3379  0.3989 -0.2784
 7716SOL    HW234608   0.300   1.206   2.805 -0.8521  0.8518 -1.0530
 7717SOL     OW34609   3.929   1.728   4.131 -0.3306  0.3802 -0.8005
 7717SOL    HW134610   3.982   1.735   4.051  1.5245 -3.8855  0.0408
 7717SOL    HW234611   3.941   1.635   4.152  3.7470  0.9119 -0.7310
 7718SOL     OW34612   1.644   1.886  16.416 -0.3495  0.2802 -0.1851
 7718SOL    HW134613   1.691   1.901  16.333 -1.6253 -0.4493 -1.0353
 7718SOL    HW234614   1.669   1.794  16.427 -0.0276  0.3044 -0.7245
 7719SOL     OW34615   2.630   0.787  14.517  0.1649  0.2444 -0.0269
 7719SOL    HW134616   2.589   0.871  14.497  1.5047  0.7594 -0.6073
 7719SOL    HW234617   2.627   0.794  14.612  2.2331  0.6742  0.0091
 7720SOL     OW34618   0.116   0.004  14.198 -0.1514 -0.4069  0.0242
 7720SOL    HW134619   0.073   0.089  14.188  1.7934  0.8213  2.0441
 7720SOL    HW234620   0.172   0.009  14.276 -0.8748  0.3678  0.4926
 7721SOL     OW34621   2.120   1.822   0.578  0.2210 -0.6705 -0.8039
 7721SOL    HW134622   2.122   1.736   0.538 -0.4785 -1.7741  1.4995
 7721SOL    HW234623   2.101   1.799   0.669 -1.2719  1.8744 -0.4611
 7722SOL     OW34624   2.040   3.611   0.192  0.2026 -0.1316  0.2074
 7722SOL    HW134625   1.967   3.621   0.253  1.0475 -1.4939  1.4312
 7722SOL    HW234626   1.998   3.555   0.127  0.0961 -0.5885  0.6721
 7723SOL     OW34627   0.973   3.208  13.777 -0.5690 -0.2216 -0.4077
 7723SOL    HW134628   1.013   3.121  13.778  0.7485  0.3443 -2.7019
 7723SOL    HW234629   0.918   3.211  13.855 -0.4510 -0.2305 -0.3250
 7724SOL     OW34630   2.366   4.102   8.920  0.7991 -0.2479  0.5500
 7724SOL    HW134631   2.279   4.133   8.946 -0.0155 -1.8438 -0.2603
 7724SOL    HW234632   2.416   4.183   8.916  0.4345 -0.1602 -2.4035
 7725SOL     OW34633   2.235   1.683   2.024 -0.0570  0.5289 -0.2904
 7725SOL    HW134634   2.225   1.727   2.108 -3.4683 -0.0424 -0.3748
 7725SOL    HW234635   2.316   1.718   1.987  0.9226 -1.2985  0.1129
 7726SOL     OW34636   2.963   0.380   2.749  0.1009  0.2289  0.0489
 7726SOL    HW134637   2.906   0.305   2.768  0.9455 -0.0341  1.4787
 7726SOL    HW234638   2.958   0.423   2.834  0.4142 -0.3195  0.3472
 7727SOL     OW34639   0.845   3.348   4.705 -0.7523  0.1179 -0.2738
 7727SOL    HW134640   0.937   3.369   4.689 -0.1319 -1.0431  1.6512
 7727SOL    HW234641   0.858   3.274   4.765 -0.1177  0.5215  0.0917
 7728SOL     OW34642   2.926   1.966  14.995  0.5325 -0.0846 -0.5969
 7728SOL    HW134643   2.874   1.982  15.074 -1.9806 -0.7700 -2.1146
 7728SOL    HW234644   2.942   1.873  15.011  0.4116  0.3559  2.0721
 7729SOL     OW34645   0.022   1.492   5.351 -0.4888  0.8771 -0.0420
 7729SOL    HW134646   4.718   1.402   5.332 -1.9539  0.7913  2.3626
 7729SOL    HW234647   0.098   1.492   5.293  1.3437  0.5841  2.3384
 7730SOL     OW34648   0.234   0.181   3.710  0.1398 -0.1287 -0.0821
 7730SOL    HW134649   0.281   0.161   3.791  1.8191 -0.9632 -1.2602
 7730SOL    HW234650   0.240   0.276   3.706  1.8038 -0.2510 -0.7144
 7731SOL     OW34651   0.803   3.137  14.550  0.2115  0.5954 -0.3531
 7731SOL    HW134652   0.755   3.214  14.580 -1.3525 -1.5635  2.7325
 7731SOL    HW234653   0.892   3.150  14.583  0.2327 -1.1355  0.2803
 7732SOL     OW34654   2.036   2.966   6.767  0.1618  0.0252  0.5421
 7732SOL    HW134655   2.128   2.940   6.768 -0.5674 -2.5180 -0.0649
 7732SOL    HW234656   2.053   3.059   6.783  1.2357 -0.1982  0.7185
 7733SOL     OW34657   2.459   4.656   3.061  0.0078 -0.0856 -0.1371
 7733SOL    HW134658   2.379   4.666   3.114  0.6947  2.9728  0.3611
 7733SOL    HW234659   2.455   4.564   3.036  0.9682 -0.3754  0.7567
 7734SOL     OW34660   2.994   4.366  11.350 -0.0125  0.5863  0.3473
 7734SOL    HW134661   2.906   4.330  11.342 -0.4080  1.7188 -0.3317
 7734SOL    HW234662   3.001   4.409  11.435 -1.4160 -0.7013  1.1078
 7735SOL     OW34663   0.104   3.354   4.326 -0.2809  0.0926  0.4122
 7735SOL    HW134664   0.010   3.342   4.332 -0.3661 -0.3286 -1.5413
 7735SOL    HW234665   0.097   3.349   4.230  0.1672  0.4102  0.3625
 7736SOL     OW34666   4.584   4.608   5.098  0.2984  0.4452  0.1676
 7736SOL    HW134667   4.626   4.591   5.183  0.3618 -0.9423 -0.1396
 7736SOL    HW234668   4.608   4.526   5.055  0.2909  0.7968 -0.4955
 7737SOL     OW34669   3.880   4.701   1.942  0.0661  0.7514 -0.2368
 7737SOL    HW134670   3.819   0.043   1.905 -1.8995 -0.0221  1.6540
 7737SOL    HW234671   3.874   4.625   1.885  1.4987  1.3157 -1.1493
 7738SOL     OW34672   3.217   2.820   2.809  0.5162 -0.3010 -0.2965
 7738SOL    HW134673   3.207   2.775   2.725 -3.2680  1.4555 -0.7965
 7738SOL    HW234674   3.280   2.890   2.794 -1.1314  1.4396  0.9552
 7739SOL     OW34675   2.901   4.397   0.771 -0.2487  0.0147  0.3227
 7739SOL    HW134676   2.936   4.376   0.858 -0.1048  0.5938  0.4039
 7739SOL    HW234677   2.838   4.325   0.765  1.3027 -1.3764  0.8802
 7740SOL     OW34678   3.861   2.766   0.818  1.1331  0.8142 -0.0198
 7740SOL    HW134679   3.809   2.746   0.896  2.3340 -0.5128  0.4492
 7740SOL    HW234680   3.912   2.834   0.862  1.7655 -0.2081  0.8278
 7741SOL     OW34681   1.723   1.465   6.676 -0.8146 -0.0463 -0.2222
 7741SOL    HW134682   1.634   1.472   6.641 -0.8926  0.7720  0.1351
 7741SOL    HW234683   1.726   1.375   6.707  0.6084  0.7436  1.9462
 7742SOL     OW34684   4.061   0.257   6.265  0.1532 -0.4222  0.1953
 7742SOL    HW134685   3.997   0.247   6.335  1.7833 -0.7723  1.6268
 7742SOL    HW234686   4.115   0.326   6.303  0.2993  1.6967 -3.8202
 7743SOL     OW34687   1.126   0.778   7.470 -0.3123 -0.9306  0.0448
 7743SOL    HW134688   1.062   0.731   7.415 -0.6706  0.8568 -1.0779
 7743SOL    HW234689   1.198   0.723   7.440 -0.1653 -1.1551  0.8227
 7744SOL     OW34690   3.359   0.939   4.490  0.7787  0.2473 -0.4750
 7744SOL    HW134691   3.312   1.018   4.462 -3.3582 -1.7786  0.6740
 7744SOL    HW234692   3.343   0.881   4.416 -1.0159 -0.0952  0.1620
 7745SOL     OW34693   1.632   0.540  13.493  0.5847 -0.3383  0.5099
 7745SOL    HW134694   1.639   0.603  13.565  1.7476 -0.7035  0.7288
 7745SOL    HW234695   1.621   0.458  13.541  1.1370  0.3888  1.8973
 7746SOL     OW34696   0.660   2.251   7.595  0.1901  0.1998  0.2570
 7746SOL    HW134697   0.658   2.169   7.644  0.1807 -0.3297 -0.6293
 7746SOL    HW234698   0.748   2.257   7.560 -0.0590  1.4308 -0.1686
 7747SOL     OW34699   3.942   3.798   0.787 -0.5101 -0.5489 -0.9571
 7747SOL    HW134700   3.925   3.863   0.719  0.0061 -1.5408 -2.0608
 7747SOL    HW234701   4.034   3.783   0.763  0.3944 -0.1288  2.2939
 7748SOL     OW34702   0.531   3.495   4.345 -0.7652  0.5540 -0.8909
 7748SOL    HW134703   0.442   3.494   4.382 -0.1043 -0.7663  0.6509
 7748SOL    HW234704   0.578   3.484   4.427  1.9975  0.9889 -2.4281
 7749SOL     OW34705   3.198   4.001  14.691 -0.5467  0.5816 -0.5596
 7749SOL    HW134706   3.141   3.988  14.766  0.7720  1.5287  0.6035
 7749SOL    HW234707   3.206   3.911  14.660  0.5881  0.5437 -0.1475
 7750SOL     OW34708   0.905   1.325   4.708  0.3715 -0.0365 -0.5382
 7750SOL    HW134709   0.959   1.339   4.630  0.3153 -0.6512 -0.6841
 7750SOL    HW234710   0.843   1.398   4.709  1.9305  1.2964 -0.7267
 7751SOL     OW34711   3.594   4.061  12.417 -0.1009 -0.3786  0.1842
 7751SOL    HW134712   3.594   4.079  12.511 -1.2548  0.2412  0.0566
 7751SOL    HW234713   3.574   4.150  12.387  0.7048 -0.3187 -0.1919
 7752SOL     OW34714   4.293   3.059   6.029 -0.5433  0.6005 -0.3220
 7752SOL    HW134715   4.373   3.007   6.021 -0.3321  1.2501 -2.5197
 7752SOL    HW234716   4.321   3.123   6.094  0.1706  1.5517 -1.5640
 7753SOL     OW34717   1.050   0.064   9.240  0.4205  0.5902  0.5227
 7753SOL    HW134718   1.008   4.706   9.211  0.2002  0.8565  0.0921
 7753SOL    HW234719   1.082   0.096   9.155 -1.9912  0.0491 -0.6126
 7754SOL     OW34720   1.425   2.981   2.325 -0.0014 -0.0568  0.4431
 7754SOL    HW134721   1.334   2.995   2.351  0.2448  0.0911  1.2174
 7754SOL    HW234722   1.434   2.887   2.308  0.7991  0.4208 -1.8209
 7755SOL     OW34723   3.494   3.979   7.122 -0.4163 -0.0113 -0.5619
 7755SOL    HW134724   3.577   4.021   7.099  0.2740 -0.9324  0.2295
 7755SOL    HW234725   3.504   3.958   7.215 -0.3508 -1.6627 -0.9291
 7756SOL     OW34726   4.507   1.611   1.565 -0.1162  0.0614 -0.1382
 7756SOL    HW134727   4.497   1.633   1.473 -2.0216 -0.4095 -0.0367
 7756SOL    HW234728   4.446   1.674   1.604  0.2388  0.4767 -0.2474
 7757SOL     OW34729   2.936   4.656   9.010  0.2034 -0.3438  0.3449
 7757SOL    HW134730   3.002   4.615   9.065  1.0842 -0.5195 -0.8359
 7757SOL    HW234731   2.883   4.700   9.077  1.4732  1.2360  0.3201
 7758SOL     OW34732   1.264   0.462   2.618  0.5822 -0.3164 -0.4956
 7758SOL    HW134733   1.223   0.400   2.678  1.0642  0.0827  0.2447
 7758SOL    HW234734   1.299   0.396   2.559  0.1888  1.0795 -2.2805
 7759SOL     OW34735   3.504   1.990  12.754  0.0259 -0.1544 -0.5314
 7759SOL    HW134736   3.580   1.944  12.717  0.2426 -0.4792  0.3086
 7759SOL    HW234737   3.557   2.055  12.799  1.3018 -0.7557 -1.1608
 7760SOL     OW34738   2.609   1.107   1.956  0.4399  0.0256 -0.6451
 7760SOL    HW134739   2.602   1.194   1.995 -1.5082 -0.4865  0.1476
 7760SOL    HW234740   2.697   1.109   1.919  1.0477 -1.5578  0.7116
 7761SOL     OW34741   2.524   2.373   8.363  0.5672 -0.6248 -0.3641
 7761SOL    HW134742   2.465   2.447   8.350  1.8922  0.5641  0.3567
 7761SOL    HW234743   2.501   2.346   8.452 -1.1776 -1.6719 -1.1347
 7762SOL     OW34744   0.779   2.872   5.363  0.2864  0.0886  0.1622
 7762SOL    HW134745   0.770   2.950   5.308  2.1090  0.2042  0.0057
 7762SOL    HW234746   0.751   2.910   5.446 -0.7406  1.2135 -0.6964
 7763SOL     OW34747   4.100   4.545   8.865  0.1917 -0.5651  0.0561
 7763SOL    HW134748   4.171   4.562   8.803  2.2730 -2.0056  2.0549
 7763SOL    HW234749   4.150   4.502   8.934 -0.8381  0.1266  1.2279
 7764SOL     OW34750   2.512   3.315   8.555  0.0167 -0.9324  0.2690
 7764SOL    HW134751   2.598   3.274   8.561  1.2211  1.5991  0.4715
 7764SOL    HW234752   2.459   3.238   8.571 -1.4619 -0.1701 -0.9894
 7765SOL     OW34753   4.456   4.569  10.892 -0.4523 -0.1939 -0.2227
 7765SOL    HW134754   4.418   4.497  10.841 -0.2694  0.2221 -0.9521
 7765SOL    HW234755   4.539   4.526  10.915 -0.3933 -0.5572 -1.0943
 7766SOL     OW34756   1.794   1.741  14.693  0.1463  0.0785 -0.0955
 7766SOL    HW134757   1.702   1.766  14.690  0.1798  0.1168 -0.7925
 7766SOL    HW234758   1.823   1.769  14.780 -1.8694  0.2931  0.5030
 7767SOL     OW34759   4.692   4.303   8.231  0.9220  0.0781  0.2059
 7767SOL    HW134760   4.717   4.390   8.264  2.3018  0.2197 -1.2162
 7767SOL    HW234761   4.610   4.315   8.183  2.1096  0.6788 -1.6416
 7768SOL     OW34762   2.894   3.228  11.517  1.0974  0.4792 -0.4632
 7768SOL    HW134763   2.813   3.192  11.553  1.9503  0.0672  1.0223
 7768SOL    HW234764   2.885   3.210  11.423  0.5532 -0.2515 -0.2727
 7769SOL     OW34765   2.773   2.532   9.085 -0.0592 -0.0432 -0.3172
 7769SOL    HW134766   2.703   2.471   9.109  0.0221 -0.1781 -0.4294
 7769SOL    HW234767   2.841   2.492   9.140 -0.4958  0.5175  0.6433
 7770SOL     OW34768   3.601   2.170   6.535  0.4797  0.5435 -0.0126
 7770SOL    HW134769   3.696   2.165   6.523  0.5313  0.0541  0.6428
 7770SOL    HW234770   3.587   2.132   6.622 -0.8637  0.4383 -0.2733
 7771SOL     OW34771   2.463   2.973   7.862 -0.3416 -0.9442 -0.2003
 7771SOL    HW134772   2.524   2.988   7.934 -0.6539  1.9524 -0.5088
 7771SOL    HW234773   2.388   2.967   7.922 -0.5027  1.4674 -0.1655
 7772SOL     OW34774   4.156   1.135   6.970  0.3782 -0.0433  0.1475
 7772SOL    HW134775   4.158   1.213   6.915  1.0918 -0.2031 -0.0640
 7772SOL    HW234776   4.063   1.117   6.984  0.1492  1.3170  0.4372
 7773SOL     OW34777   3.618   0.964   4.243 -0.2286  0.1544 -0.0646
 7773SOL    HW134778   3.569   0.882   4.249 -1.5526  1.0736  1.5170
 7773SOL    HW234779   3.557   1.015   4.296 -0.0248  0.5250 -0.1904
 7774SOL     OW34780   0.936   1.014  10.722  0.3155  0.0481 -0.0149
 7774SOL    HW134781   0.944   0.933  10.773 -0.2240  0.4790  0.7589
 7774SOL    HW234782   0.850   1.047  10.749  0.7625  0.8316  0.4606
 7775SOL     OW34783   3.670   0.227   6.003  1.0140  0.1670  0.2913
 7775SOL    HW134784   3.712   0.302   5.960  1.1188 -0.4807 -0.7267
 7775SOL    HW234785   3.585   0.268   6.020  1.1185 -0.2047  1.7140
 7776SOL     OW34786   3.390   1.132   1.512  0.1033 -0.7261  0.0486
 7776SOL    HW134787   3.341   1.104   1.435  0.3520 -1.2073  0.0662
 7776SOL    HW234788   3.316   1.174   1.556 -0.0252 -2.1911  1.2541
 7777SOL     OW34789   1.156   4.497   4.825  0.4347 -0.4064 -0.4823
 7777SOL    HW134790   1.199   4.564   4.879  2.1533 -2.4899  0.7628
 7777SOL    HW234791   1.240   4.455   4.805 -0.0815 -1.3444 -0.6709
 7778SOL     OW34792   3.466   4.624   0.072  0.4020  0.2276 -0.3329
 7778SOL    HW134793   3.377   4.659   0.076  0.9778  1.9498 -2.6466
 7778SOL    HW234794   3.450   4.551   0.012  0.3777 -0.1978  0.1938
 7779SOL     OW34795   0.829   1.613   7.415  0.0967 -0.2213  0.5192
 7779SOL    HW134796   0.899   1.548   7.425 -0.5249 -1.2246 -1.5916
 7779SOL    HW234797   0.836   1.635   7.322 -3.8248 -1.4054 -0.0485
 7780SOL     OW34798   4.335   0.206   2.722 -0.3753 -0.0901  0.1134
 7780SOL    HW134799   4.325   0.151   2.800  2.2885  0.9681  1.1672
 7780SOL    HW234800   4.305   0.284   2.768 -1.9034 -0.1997 -0.6966
 7781SOL     OW34801   2.093   3.585   6.256  0.1697  0.2947  0.0367
 7781SOL    HW134802   2.093   3.663   6.312  1.7598  0.2430  0.1186
 7781SOL    HW234803   2.032   3.621   6.191 -0.1468 -1.2898 -0.5440
 7782SOL     OW34804   4.442   4.163  13.243  0.3794  0.4758  0.7097
 7782SOL    HW134805   4.411   4.126  13.326 -1.9541 -0.4117 -0.5395
 7782SOL    HW234806   4.474   4.084  13.200 -1.1000  0.9823 -1.3343
 7783SOL     OW34807   0.746   3.888   5.837  0.3520 -0.5899  0.3864
 7783SOL    HW134808   0.714   3.975   5.862  1.0464 -0.3455  0.4236
 7783SOL    HW234809   0.709   3.832   5.905  0.5120 -1.4472 -0.2273
 7784SOL     OW34810   4.302   3.476  14.623  0.2798 -1.3212 -0.1835
 7784SOL    HW134811   4.354   3.397  14.614  0.9236 -0.9966  0.6158
 7784SOL    HW234812   4.266   3.479  14.535 -0.1491  0.2282  0.0309
 7785SOL     OW34813   4.686   4.271   2.272  0.2170  0.3832 -0.3931
 7785SOL    HW134814   0.029   4.336   2.245  1.3962 -0.0961  1.2877
 7785SOL    HW234815   4.694   4.275   2.368  1.1062  0.3232 -0.4622
 7786SOL     OW34816   4.333   2.974   7.092  0.3213 -0.1447 -0.1679
 7786SOL    HW134817   4.338   3.069   7.103 -0.2668 -0.3637  1.9461
 7786SOL    HW234818   4.246   2.965   7.055  0.7265 -0.3905 -1.0735
 7787SOL     OW34819   1.471   0.956   1.704  0.0446 -0.4409  0.1604
 7787SOL    HW134820   1.404   0.891   1.685  1.3373 -1.2694 -1.5657
 7787SOL    HW234821   1.490   0.936   1.796  1.6127 -0.7697 -0.2194
 7788SOL     OW34822   4.478   4.285   8.057  0.4299  0.0399 -0.4237
 7788SOL    HW134823   4.384   4.272   8.052  0.4733 -1.1933  1.9366
 7788SOL    HW234824   4.489   4.341   7.979 -1.5718 -0.6887 -1.2184
 7789SOL     OW34825   4.193   2.007   1.749  0.3684 -0.6751  0.0209
 7789SOL    HW134826   4.223   1.972   1.833  0.7907 -0.3666  0.0008
 7789SOL    HW234827   4.192   2.101   1.762 -0.1414 -0.6665 -0.0616
 7790SOL     OW34828   4.552   0.107  10.865 -0.3855  0.0473  0.3803
 7790SOL    HW134829   4.495   0.031  10.872 -0.7180  0.1495 -1.2392
 7790SOL    HW234830   4.631   0.057  10.846 -0.5190 -0.0569  0.0985
 7791SOL     OW34831   2.543   3.140   2.351  0.2817 -0.0809  0.4321
 7791SOL    HW134832   2.637   3.144   2.333  0.6742  1.5479  2.7361
 7791SOL    HW234833   2.525   3.234   2.358  1.9745  0.0683  2.8413
 7792SOL     OW34834   0.238   0.916  15.963 -1.2141 -0.2215 -0.0332
 7792SOL    HW134835   0.185   0.850  15.918  0.6843 -0.1594 -2.3652
 7792SOL    HW234836   0.306   0.929  15.897 -1.8567  0.8622 -0.4751
 7793SOL     OW34837   0.567   0.160   6.639  0.2028  0.0662 -0.0259
 7793SOL    HW134838   0.538   0.203   6.719  1.9595  0.2624  0.5142
 7793SOL    HW234839   0.495   0.100   6.619 -0.1335  0.4161  0.1433
 7794SOL     OW34840   0.828   0.970   8.631 -0.1804 -0.1491  0.1805
 7794SOL    HW134841   0.883   1.014   8.567  2.8221  1.2785  3.7629
 7794SOL    HW234842   0.767   1.038   8.660  0.1059 -0.8958  2.5685
 7795SOL     OW34843   1.138   2.295   3.413 -0.6672 -0.6688 -0.4287
 7795SOL    HW134844   1.070   2.353   3.380  0.3862  1.8749  1.9323
 7795SOL    HW234845   1.095   2.261   3.492  1.7930 -1.0691  0.7262
 7796SOL     OW34846   0.170   3.024   7.738 -0.3149 -0.2619 -0.1119
 7796SOL    HW134847   0.143   3.097   7.793  0.6728 -1.5095  2.0179
 7796SOL    HW234848   0.127   2.948   7.778 -0.3826 -0.6429 -0.9067
 7797SOL     OW34849   4.393   1.010   7.647 -0.3020  0.1866  0.0743
 7797SOL    HW134850   4.422   1.063   7.572  1.1376  0.8496  1.0944
 7797SOL    HW234851   4.434   1.054   7.722 -1.1575  0.2824  0.4859
 7798SOL     OW34852   4.641   1.981  14.004  0.2594  0.2670  0.3970
 7798SOL    HW134853   4.590   1.930  14.068  3.0584 -0.6005  1.9565
 7798SOL    HW234854   4.655   1.918  13.933  1.4804  0.0108  0.8689
 7799SOL     OW34855   2.315   2.106   6.223 -0.2360 -0.0234  0.5905
 7799SOL    HW134856   2.250   2.159   6.270  0.9383 -0.1372  2.3282
 7799SOL    HW234857   2.307   2.019   6.262 -0.6416  0.5399  1.7641
 7800SOL     OW34858   3.998   3.014   1.930  0.5852  0.2045  0.4789
 7800SOL    HW134859   3.976   3.067   1.854  1.2725 -1.8455 -1.1692
 7800SOL    HW234860   3.935   3.047   1.993 -0.7349  0.1968 -0.8182
 7801SOL     OW34861   4.051   3.348   7.497  0.2743 -0.7295 -0.0787
 7801SOL    HW134862   4.051   3.323   7.590 -1.9730 -1.4237 -0.2739
 7801SOL    HW234863   3.995   3.286   7.451  0.6717 -1.3508  0.2691
 7802SOL     OW34864   1.091   1.658  11.983 -0.2010 -0.4929 -0.0433
 7802SOL    HW134865   1.080   1.693  11.895 -2.5647  2.0019  1.2724
 7802SOL    HW234866   1.148   1.584  11.961  0.7148 -0.6247  2.7468
 7803SOL     OW34867   3.158   1.817   3.981  0.9696  0.0632 -0.0877
 7803SOL    HW134868   3.163   1.728   4.017 -3.6872 -1.2744 -2.8149
 7803SOL    HW234869   3.073   1.840   4.017  1.0123 -0.1983  0.1861
 7804SOL     OW34870   2.163   2.655   7.738  0.2281  0.0430 -0.8619
 7804SOL    HW134871   2.135   2.574   7.781 -3.0180  1.5716  0.0063
 7804SOL    HW234872   2.159   2.725   7.804  0.5259  0.1904 -1.0026
 7805SOL     OW34873   0.639   0.445   0.137  0.1392 -0.3919 -0.1911
 7805SOL    HW134874   0.624   0.452   0.232  1.3979 -0.3067  0.0071
 7805SOL    HW234875   0.717   0.500   0.137  0.0738 -0.2851  0.6441
 7806SOL     OW34876   4.561   3.255  16.715 -0.0485 -0.1098 -0.5474
 7806SOL    HW134877   4.539   3.199  16.640  2.0870  1.6981 -2.5577
 7806SOL    HW234878   4.592   3.338  16.678  0.7284 -0.1563 -0.0093
 7807SOL     OW34879   0.964   2.465   8.597  0.2568 -0.1249  0.1796
 7807SOL    HW134880   0.975   2.552   8.558  1.4149 -0.9959 -1.3827
 7807SOL    HW234881   1.053   2.430   8.592  0.4193  0.2805  0.2244
 7808SOL     OW34882   1.758   1.486  17.340  0.3352 -0.5929  0.1877
 7808SOL    HW134883   1.837   1.532  17.313  0.8582 -2.5386 -1.5532
 7808SOL    HW234884   1.791   1.399  17.362  0.9725 -1.2774 -3.5395
 7809SOL     OW34885   3.352   0.391   2.867 -0.2049 -0.3731  0.1282
 7809SOL    HW134886   3.338   0.375   2.773  1.1701 -1.3182  0.0865
 7809SOL    HW234887   3.433   0.440   2.856 -1.0710  0.5072 -2.4070
 7810SOL     OW34888   2.286   2.813   9.305  0.5457 -0.2444  1.2246
 7810SOL    HW134889   2.323   2.728   9.327 -1.3711 -1.5877 -0.8153
 7810SOL    HW234890   2.334   2.846   9.230  0.9427 -1.7921  0.8075
 7811SOL     OW34891   0.350   3.603  11.364 -0.9860 -0.4812 -0.0609
 7811SOL    HW134892   0.383   3.687  11.397  0.8577 -0.6666 -1.4358
 7811SOL    HW234893   0.274   3.601  11.422  0.4983 -1.2905  1.8369
 7812SOL     OW34894   3.052   3.237   0.531 -0.4698  0.1944  0.3193
 7812SOL    HW134895   2.991   3.307   0.552 -1.3992 -0.8361  1.0856
 7812SOL    HW234896   3.105   3.219   0.609 -0.7194 -0.0642  0.4306
 7813SOL     OW34897   0.140   3.287  14.537  0.3939 -0.1990 -0.0846
 7813SOL    HW134898   0.183   3.202  14.527  1.9351  0.5697 -0.0447
 7813SOL    HW234899   0.117   3.299  14.629  3.5197 -1.4267  0.8729
 7814SOL     OW34900   4.053   1.820   2.984  0.4270 -0.1167  0.2270
 7814SOL    HW134901   4.135   1.772   2.993  0.2787 -0.1535  1.3505
 7814SOL    HW234902   4.085   1.910   2.984  1.6621 -0.5522  0.3473
 7815SOL     OW34903   0.002   4.498   5.334  0.6335 -0.5964 -0.1569
 7815SOL    HW134904   0.047   4.543   5.406  0.8586 -0.9808 -0.0547
 7815SOL    HW234905   0.067   4.440   5.294  0.4846 -1.2498  0.5390
 7816SOL     OW34906   2.974   1.848   5.463 -0.2969 -0.3267  0.0358
 7816SOL    HW134907   2.925   1.907   5.406  1.3051  1.8468  0.9063
 7816SOL    HW234908   3.017   1.798   5.394  3.3024 -0.8006  2.6387
 7817SOL     OW34909   2.881   3.951   2.089  0.1983 -0.2531 -0.6944
 7817SOL    HW134910   2.797   3.994   2.076 -0.4601 -0.9950  1.1582
 7817SOL    HW234911   2.876   3.871   2.036  1.1004 -0.0450 -1.1025
 7818SOL     OW34912   2.392   1.435   5.838  0.3995 -0.5470 -0.2886
 7818SOL    HW134913   2.427   1.509   5.887  0.8067 -0.3100 -0.9337
 7818SOL    HW234914   2.333   1.398   5.903  0.7055 -0.2151  0.1756
 7819SOL     OW34915   4.603   4.651   7.639 -0.4408  0.1935 -0.6661
 7819SOL    HW134916   4.643   4.570   7.671 -1.2475 -0.1680 -0.5966
 7819SOL    HW234917   4.672   4.715   7.659 -0.4210  0.5443 -1.8349
 7820SOL     OW34918   3.239   1.797   4.432  0.5663  0.0140  0.0472
 7820SOL    HW134919   3.181   1.866   4.399  1.0266 -0.4728 -1.7956
 7820SOL    HW234920   3.176   1.737   4.471  0.4155 -0.8821 -1.5817
 7821SOL     OW34921   1.217   2.979   7.786  0.2254 -0.3166  0.4985
 7821SOL    HW134922   1.255   2.897   7.818  0.8828  0.3162  1.3293
 7821SOL    HW234923   1.130   2.951   7.756  0.1518 -0.9094  1.2420
 7822SOL     OW34924   4.311   0.905  11.157 -0.3990  0.1483  0.0153
 7822SOL    HW134925   4.386   0.927  11.102  0.0322 -0.4600  0.3617
 7822SOL    HW234926   4.337   0.960  11.232 -0.4064 -0.6643  0.6146
 7823SOL     OW34927   0.248   0.636   4.376  0.3351  0.0004 -0.1084
 7823SOL    HW134928   0.270   0.688   4.453 -2.0060  0.6410  0.1397
 7823SOL    HW234929   0.295   0.692   4.314 -0.8553  0.2106 -0.8242
 7824SOL     OW34930   3.101   2.643  11.837 -0.2015 -0.1933 -0.2662
 7824SOL    HW134931   3.017   2.632  11.791 -0.3503  0.3408 -0.1282
 7824SOL    HW234932   3.144   2.564  11.805  1.6925 -0.1108  2.1150
 7825SOL     OW34933   4.345   3.736   1.339  0.0065  0.2662 -0.3738
 7825SOL    HW134934   4.409   3.789   1.292  0.0839  0.9421  0.4906
 7825SOL    HW234935   4.370   3.644   1.329  2.4988  0.5470  3.3704
 7826SOL     OW34936   1.298   1.797  13.081  0.2310  0.4819 -0.6925
 7826SOL    HW134937   1.213   1.763  13.110 -0.0316  1.6690 -0.0807
 7826SOL    HW234938   1.311   1.868  13.145 -0.7551 -0.3583  0.4571
 7827SOL     OW34939   3.394   3.146   9.242  0.4349  0.7193  0.0373
 7827SOL    HW134940   3.299   3.144   9.234  0.4785  0.8959 -0.5354
 7827SOL    HW234941   3.414   3.074   9.302  2.8110  2.7472  1.6856
 7828SOL     OW34942   0.525   1.380   6.694  0.4603  0.1394  0.2583
 7828SOL    HW134943   0.522   1.312   6.762 -0.2261  0.5882  0.6812
 7828SOL    HW234944   0.503   1.462   6.739  1.2428 -0.9419  2.6137
 7829SOL     OW34945   1.705   4.070   7.311 -0.1314  0.1884 -0.3881
 7829SOL    HW134946   1.689   3.978   7.331 -1.3793  0.6203  0.6450
 7829SOL    HW234947   1.615   4.101   7.323 -0.4578 -1.3597  1.1548
 7830SOL     OW34948   3.733   0.639   7.209  0.6034  0.1424 -0.3937
 7830SOL    HW134949   3.739   0.623   7.303  0.4397 -0.8261 -0.5496
 7830SOL    HW234950   3.699   0.555   7.179 -1.8544  0.7183  0.7795
 7831SOL     OW34951   2.515   2.884  16.374 -0.2248 -0.7223  0.5468
 7831SOL    HW134952   2.600   2.851  16.406  0.0866  0.1138  0.5684
 7831SOL    HW234953   2.502   2.955  16.437 -1.0244  0.5127 -1.0384
 7832SOL     OW34954   4.699   0.705   0.248 -0.3888  0.2219  0.7313
 7832SOL    HW134955   0.033   0.659   0.310  1.3390  3.0510  1.2607
 7832SOL    HW234956   4.637   0.638   0.221  0.9825 -0.6755 -0.2373
 7833SOL     OW34957   2.134   0.892  16.884 -0.2484  0.7611  0.1527
 7833SOL    HW134958   2.212   0.947  16.875  1.4038 -1.7269 -0.4932
 7833SOL    HW234959   2.078   0.954  16.932  0.1536  0.7501  0.6340
 7834SOL     OW34960   2.475   3.967  12.733  0.2164 -0.6308 -0.2568
 7834SOL    HW134961   2.442   3.981  12.644  0.2064  2.3976  0.2165
 7834SOL    HW234962   2.394   3.952  12.781  0.4245 -0.3459  0.1848
 7835SOL     OW34963   1.280   4.400   5.580  0.7067 -0.0249  0.1842
 7835SOL    HW134964   1.276   4.495   5.584  2.4878  0.0327  0.5715
 7835SOL    HW234965   1.354   4.398   5.640 -0.2417 -0.8390  1.3378
 7836SOL     OW34966   0.396   3.633   3.235  0.8164 -0.3870  0.0210
 7836SOL    HW134967   0.461   3.684   3.285 -0.9395  2.1014 -0.2262
 7836SOL    HW234968   0.440   3.619   3.152  1.5073  2.1503 -0.0410
 7837SOL     OW34969   4.710   0.569   4.273 -0.3762 -0.6563 -0.5132
 7837SOL    HW134970   4.676   0.480   4.280 -1.0814 -0.4254 -0.9612
 7837SOL    HW234971   0.053   0.581   4.341 -0.0323  4.1485 -1.6692
 7838SOL     OW34972   2.182   1.695   4.317  0.2920  0.4871  0.1963
 7838SOL    HW134973   2.276   1.689   4.335  0.3664 -1.3971 -0.8227
 7838SOL    HW234974   2.168   1.789   4.305 -0.8026  0.1241 -1.4617
 7839SOL     OW34975   0.843   1.787   5.802  0.0136  0.7137 -0.6229
 7839SOL    HW134976   0.843   1.871   5.848  1.3047 -0.7388  2.0442
 7839SOL    HW234977   0.923   1.746   5.834 -0.3243  0.3293 -0.2753
 7840SOL     OW34978   1.052   3.789   6.720 -0.1792  0.4421  0.0635
 7840SOL    HW134979   1.026   3.838   6.797  1.9522  1.7684 -0.0503
 7840SOL    HW234980   1.123   3.744   6.766 -0.3068 -0.4830 -0.6385
 7841SOL     OW34981   3.538   1.871   7.162  0.4932 -0.1093  0.4726
 7841SOL    HW134982   3.529   1.846   7.070  0.9929  0.5682  0.2401
 7841SOL    HW234983   3.472   1.940   7.159  2.8366  2.0994 -0.6505
 7842SOL     OW34984   3.121   3.154  17.015  0.2491 -0.1818  0.4582
 7842SOL    HW134985   3.139   3.097  17.090  0.9474 -0.7892 -0.1816
 7842SOL    HW234986   3.209   3.187  16.997 -0.3449  0.8311 -0.5821
 7843SOL     OW34987   1.624   1.004   3.831 -0.4792 -0.9168  0.5273
 7843SOL    HW134988   1.679   1.037   3.759  1.1972  0.2609  2.3365
 7843SOL    HW234989   1.564   1.078   3.838 -1.6212 -1.5871 -2.2410
 7844SOL     OW34990   2.868   3.093   7.172  0.5797 -0.1888  0.4876
 7844SOL    HW134991   2.878   3.104   7.078  1.7752  0.0950  0.6548
 7844SOL    HW234992   2.820   3.174   7.187 -2.1206 -1.4224 -1.5859
 7845SOL     OW34993   4.211   2.889   6.679 -0.0966  0.2572 -0.0506
 7845SOL    HW134994   4.196   2.824   6.610  3.9695  2.0580 -2.6606
 7845SOL    HW234995   4.269   2.946   6.629  0.5719 -0.6299 -0.2955
 7846SOL     OW34996   3.699   2.343  17.554  0.1615 -0.1372  0.1746
 7846SOL    HW134997   3.780   2.342  17.503 -0.3454  1.7136 -0.6659
 7846SOL    HW234998   3.632   2.379  17.496 -0.5678  0.3316  1.2954
 7847SOL     OW34999   1.768   4.262  11.793 -0.2420  0.4100  0.6890
 7847SOL    HW135000   1.674   4.255  11.782 -0.1375 -0.2420  0.1896
 7847SOL    HW235001   1.789   4.345  11.752  0.3955 -0.7766 -1.4089
 7848SOL     OW35002   3.917   3.299   1.853  0.5143 -0.1089 -0.2855
 7848SOL    HW135003   3.948   3.349   1.929 -1.6242  1.5057 -0.4715
 7848SOL    HW235004   3.906   3.368   1.788  1.0258  0.8085  0.6016
 7849SOL     OW35005   3.312   4.676   0.374 -0.4321  0.1458  0.3326
 7849SOL    HW135006   3.246   4.606   0.370 -0.0858 -0.1073 -1.0117
 7849SOL    HW235007   3.309   4.721   0.290 -0.0549  1.2640  0.9185
 7850SOL     OW35008   0.242   3.926   7.267  0.3055 -0.2060 -0.1503
 7850SOL    HW135009   0.317   3.973   7.305 -0.7333 -0.1738  1.8528
 7850SOL    HW235010   0.292   3.853   7.230  4.0017  0.6255  3.1535
 7851SOL     OW35011   2.511   2.172   0.339 -0.4546  0.2014  0.6345
 7851SOL    HW135012   2.462   2.139   0.263 -2.1027  1.0765  1.3097
 7851SOL    HW235013   2.517   2.267   0.329  0.6666  0.1765  1.1441
 7852SOL     OW35014   2.796   3.623   3.406  0.1068  0.7187 -0.1080
 7852SOL    HW135015   2.847   3.552   3.443  1.3313  0.9869 -1.2860
 7852SOL    HW235016   2.762   3.579   3.328 -0.2832  0.7263  0.0599
 7853SOL     OW35017   1.702   1.237   2.920 -0.1882 -0.0287 -0.4344
 7853SOL    HW135018   1.728   1.157   2.874  0.7084 -0.5224  0.9384
 7853SOL    HW235019   1.631   1.199   2.972 -0.5494 -1.3721 -1.9201
 7854SOL     OW35020   3.722   1.386   4.842  0.6490  0.4507  0.2453
 7854SOL    HW135021   3.734   1.360   4.751 -1.0678  1.9808 -0.4144
 7854SOL    HW235022   3.704   1.299   4.877  0.4223  0.7386  0.8345
 7855SOL     OW35023   3.350   1.164   7.570 -0.4348  0.1908 -0.1450
 7855SOL    HW135024   3.415   1.222   7.531 -0.5547  0.4255  0.0086
 7855SOL    HW235025   3.316   1.221   7.638 -1.1076 -0.8789  0.4087
 7856SOL     OW35026   3.485   2.761   0.980 -0.4601 -0.0019  0.1076
 7856SOL    HW135027   3.559   2.727   1.031  0.3094  2.7210  0.8086
 7856SOL    HW235028   3.480   2.849   1.016 -0.5048  0.8129 -1.9296
 7857SOL     OW35029   4.406   4.563   4.868 -0.0373  0.3979 -0.0837
 7857SOL    HW135030   4.493   4.580   4.832 -0.4289 -0.7219 -1.5796
 7857SOL    HW235031   4.400   4.622   4.943  0.3654 -0.6037  0.7351
 7858SOL     OW35032   0.730   0.750   0.424  0.1915 -0.7168  0.0398
 7858SOL    HW135033   0.821   0.769   0.401  0.1336 -0.7420 -0.2118
 7858SOL    HW235034   0.738   0.682   0.490  0.4718  0.8079  1.5552
 7859SOL     OW35035   3.732   1.095   4.902  0.2705 -0.4748  0.1044
 7859SOL    HW135036   3.646   1.084   4.942 -0.2063  1.5943 -0.3741
 7859SOL    HW235037   3.787   1.087   4.980  0.3599  0.4650  0.1319
 7860SOL     OW35038   3.888   4.466  14.948 -0.4621  0.1942  0.1152
 7860SOL    HW135039   3.928   4.509  14.873 -2.4044  1.8214  0.0027
 7860SOL    HW235040   3.928   4.507  15.024  0.3320 -0.2745 -0.0470
 7861SOL     OW35041   1.893   2.294  11.175 -0.2705  0.5119  0.5501
 7861SOL    HW135042   1.948   2.246  11.237  1.5938  1.6358 -0.2468
 7861SOL    HW235043   1.918   2.384  11.198 -1.7978  1.7107 -2.3460
 7862SOL     OW35044   2.614   2.181   6.781 -0.0217  0.6091  0.5145
 7862SOL    HW135045   2.627   2.088   6.798 -0.2674  0.2066 -1.5361
 7862SOL    HW235046   2.519   2.192   6.783  0.1198  1.5234  2.0920
 7863SOL     OW35047   3.025   3.640  17.096 -0.1106  0.1353  0.0673
 7863SOL    HW135048   2.946   3.675  17.056 -0.3781  0.1038  0.5720
 7863SOL    HW235049   3.023   3.667  17.188 -1.4611 -1.7621  0.5915
 7864SOL     OW35050   2.227   1.753   7.951  0.1591 -0.2305 -0.3395
 7864SOL    HW135051   2.322   1.762   7.948  0.1778 -0.4173 -0.2803
 7864SOL    HW235052   2.230   1.696   8.027 -2.4975 -0.7351 -0.6084
 7865SOL     OW35053   0.692   2.525  14.801 -0.2020 -0.4657  0.1043
 7865SOL    HW135054   0.733   2.462  14.859 -1.3359  0.1465  1.5806
 7865SOL    HW235055   0.726   2.487  14.720 -2.9044 -1.3962 -0.6092
 7866SOL     OW35056   2.400   3.279  10.752 -0.0703  0.5826 -0.1541
 7866SOL    HW135057   2.439   3.194  10.729 -2.8195 -0.6785 -0.1178
 7866SOL    HW235058   2.477   3.330  10.776  0.4459  0.5908 -1.8446
 7867SOL     OW35059   0.215   0.644   1.713  0.7434 -0.5677 -0.2785
 7867SOL    HW135060   0.211   0.669   1.620 -0.0818  0.6222  0.0772
 7867SOL    HW235061   0.296   0.594   1.709  0.6649 -0.6458 -0.8671
 7868SOL     OW35062   3.911   0.728   7.741  0.0142 -0.2366 -0.0449
 7868SOL    HW135063   4.001   0.711   7.769 -0.2480 -2.2632 -0.4398
 7868SOL    HW235064   3.914   0.822   7.723 -0.6853 -0.5240 -1.5725
 7869SOL     OW35065   4.452   3.203   3.841 -0.0502  0.1287  0.1828
 7869SOL    HW135066   4.432   3.125   3.892  2.0151 -0.1597  0.5205
 7869SOL    HW235067   4.387   3.193   3.771 -1.7307 -2.4919  2.1095
 7870SOL     OW35068   3.494   1.522   6.374  0.6869  0.0671  0.4364
 7870SOL    HW135069   3.435   1.448   6.387  0.5307  0.2222  0.5980
 7870SOL    HW235070   3.468   1.552   6.287  0.1972  1.7894  1.1883
 7871SOL     OW35071   2.937   0.596   9.359 -0.3482 -0.1037 -0.3021
 7871SOL    HW135072   2.880   0.631   9.290  0.0341 -0.1460 -0.6389
 7871SOL    HW235073   2.897   0.514   9.387  1.0189 -0.3165  1.0325
 7872SOL     OW35074   4.335   3.560  10.608 -0.7068  0.1529 -0.4353
 7872SOL    HW135075   4.415   3.567  10.556 -0.2268 -2.3759 -0.0468
 7872SOL    HW235076   4.291   3.643  10.593 -1.1307  0.2512  1.4061
 7873SOL     OW35077   0.652   3.090  16.638  0.2606  0.0869  0.4852
 7873SOL    HW135078   0.650   3.014  16.580 -1.1127 -0.9863  1.9632
 7873SOL    HW235079   0.560   3.085  16.664 -0.0875  3.9732  0.0282
 7874SOL     OW35080   3.928   1.577   7.957  0.1882 -0.5767 -0.3402
 7874SOL    HW135081   3.905   1.484   7.956  1.1087 -0.8373  1.8344
 7874SOL    HW235082   3.955   1.592   8.048  0.2067 -2.0214 -0.1063
 7875SOL     OW35083   1.160   3.417   9.353  0.8207 -0.0983  0.3683
 7875SOL    HW135084   1.245   3.452   9.381  0.1025  0.1235  2.3197
 7875SOL    HW235085   1.098   3.487   9.372  0.1373  0.1831 -2.9741
 7876SOL     OW35086   2.168   1.161  15.542 -0.5400 -0.0326  0.3854
 7876SOL    HW135087   2.125   1.235  15.500 -0.3170  0.1626  0.5019
 7876SOL    HW235088   2.196   1.188  15.630  1.5497  1.4776 -0.7721
 7877SOL     OW35089   4.211   2.439   8.280  0.3159 -0.6935  0.2968
 7877SOL    HW135090   4.140   2.417   8.341 -0.2293  1.8070  0.5542
 7877SOL    HW235091   4.159   2.441   8.200  1.6112 -1.7639 -0.5732
 7878SOL     OW35092   3.454   1.460   5.808 -0.0281  0.6032  0.2825
 7878SOL    HW135093   3.464   1.542   5.857 -0.0146  0.8939 -0.2125
 7878SOL    HW235094   3.360   1.439   5.813 -0.3980  2.0317 -0.5896
 7879SOL     OW35095   4.349   2.846   4.353 -0.5067 -0.0039  0.5625
 7879SOL    HW135096   4.319   2.757   4.339 -0.4276  0.4463 -2.5039
 7879SOL    HW235097   4.442   2.825   4.342 -0.2502  0.9856  0.8339
 7880SOL     OW35098   2.596   1.564   8.150  0.2003  0.6988  0.0810
 7880SOL    HW135099   2.642   1.506   8.089 -0.3872 -0.3274  0.6018
 7880SOL    HW235100   2.662   1.589   8.215 -1.1428 -1.1278  2.1880
 7881SOL     OW35101   0.586   2.490  12.096  0.1469 -0.0086 -0.0628
 7881SOL    HW135102   0.509   2.515  12.045 -1.1743 -3.1436  0.4440
 7881SOL    HW235103   0.652   2.489  12.027 -0.6689  1.8419 -0.8563
 7882SOL     OW35104   1.319   2.936   5.202  0.6005 -0.6915 -0.0337
 7882SOL    HW135105   1.305   2.910   5.293 -0.4717  0.6910  0.1998
 7882SOL    HW235106   1.227   2.953   5.182 -0.2046 -1.4163  3.1035
 7883SOL     OW35107   4.419   3.106   2.979  0.3897  0.1889  0.0571
 7883SOL    HW135108   4.473   3.030   2.959  0.6362  0.3680  0.0454
 7883SOL    HW235109   4.474   3.155   3.040 -0.7551 -0.9668  2.0049
 7884SOL     OW35110   2.526   2.296   8.658  0.6197 -0.5090  0.5737
 7884SOL    HW135111   2.575   2.358   8.712  0.5918  0.2880 -0.3105
 7884SOL    HW235112   2.564   2.217   8.698 -0.3837 -1.4381 -0.3181
 7885SOL     OW35113   3.215   2.157   8.329  0.2487 -0.1147 -0.4329
 7885SOL    HW135114   3.269   2.096   8.380  0.6730  0.2276 -0.4698
 7885SOL    HW235115   3.284   2.169   8.264 -1.1473  2.0628 -1.5184
 7886SOL     OW35116   0.798   3.949   3.769 -0.0743  0.2282 -0.4816
 7886SOL    HW135117   0.886   3.960   3.806  0.3048 -1.3217 -0.8904
 7886SOL    HW235118   0.740   3.971   3.842  2.2033  2.2998  0.7144
 7887SOL     OW35119   4.352   3.789   8.680 -0.1862  0.0898  0.8320
 7887SOL    HW135120   4.426   3.780   8.621 -1.6855 -1.0605 -0.8872
 7887SOL    HW235121   4.290   3.833   8.622 -0.5215  1.3168  2.1170
 7888SOL     OW35122   0.205   0.848   3.455 -0.2737  0.2149 -1.2448
 7888SOL    HW135123   0.261   0.909   3.407  1.5880 -0.4261  0.1414
 7888SOL    HW235124   0.173   0.803   3.376  1.1023  1.1220 -2.3199
 7889SOL     OW35125   2.441   4.216   8.110 -0.5141  0.2923 -0.8334
 7889SOL    HW135126   2.399   4.219   8.195 -0.2894  2.2280 -0.7884
 7889SOL    HW235127   2.373   4.178   8.053  0.3583 -1.4969 -0.6871
 7890SOL     OW35128   3.142   3.358   8.196  0.4214  0.2922 -0.4093
 7890SOL    HW135129   3.213   3.362   8.261  2.0060  1.0908 -2.1989
 7890SOL    HW235130   3.069   3.360   8.259 -1.0807  2.5513 -2.2347
 7891SOL     OW35131   4.319   3.818  10.775 -0.1258  0.3383 -0.0680
 7891SOL    HW135132   4.241   3.854  10.733  0.6133  2.4133  0.3061
 7891SOL    HW235133   4.343   3.892  10.831  2.2075  1.3516 -2.3562
 7892SOL     OW35134   1.539   1.555  13.197  0.5402 -0.5509 -0.6953
 7892SOL    HW135135   1.633   1.554  13.180  1.0308 -3.0018  2.1228
 7892SOL    HW235136   1.495   1.579  13.116  0.2755  1.8729  0.1733
 7893SOL     OW35137   0.061   3.256   5.658 -0.2915 -0.2025  0.2424
 7893SOL    HW135138   0.110   3.181   5.624  0.6934  0.9449 -0.8169
 7893SOL    HW235139   4.709   3.248   5.598  0.1009 -0.4040 -0.2165
 7894SOL     OW35140   2.562   1.898  14.264  0.0844 -0.1421  0.2329
 7894SOL    HW135141   2.613   1.835  14.213  2.3846  1.7813  0.1286
 7894SOL    HW235142   2.615   1.897  14.343 -1.5640 -2.6677  1.2994
 7895SOL     OW35143   1.692   3.172   5.759 -0.0400  0.1079  1.1279
 7895SOL    HW135144   1.743   3.116   5.701 -1.8813 -0.3484 -0.0463
 7895SOL    HW235145   1.756   3.237   5.789  0.5958  1.1027 -2.4379
 7896SOL     OW35146   2.848   4.449   8.005 -0.2621 -0.1686 -0.5202
 7896SOL    HW135147   2.788   4.513   8.042 -2.8836 -2.1743 -1.3294
 7896SOL    HW235148   2.828   4.380   8.068  0.7088  1.0080  1.0919
 7897SOL     OW35149   3.993   0.480   1.574 -0.1889  0.3031  0.3639
 7897SOL    HW135150   4.074   0.442   1.540 -0.4046  2.0538 -2.1247
 7897SOL    HW235151   3.977   0.537   1.499 -1.7870  0.0326  0.5032
 7898SOL     OW35152   3.765   1.563   0.811  0.0123 -0.2494  0.3503
 7898SOL    HW135153   3.759   1.513   0.892 -2.9393  0.0808  0.3570
 7898SOL    HW235154   3.855   1.556   0.780  0.6261 -1.8576  2.4669
 7899SOL     OW35155   4.215   3.203   6.859  0.3647  0.1391  0.4358
 7899SOL    HW135156   4.238   3.184   6.950  0.0558 -0.0610  0.4684
 7899SOL    HW235157   4.257   3.288   6.846 -0.2799  0.3522 -0.2778
 7900SOL     OW35158   2.145   2.917   9.026 -0.3414 -0.7508 -0.0723
 7900SOL    HW135159   2.193   2.930   8.944 -0.9984 -2.8862 -0.8019
 7900SOL    HW235160   2.194   2.974   9.086 -2.1227  0.5614  0.1294
 7901SOL     OW35161   1.185   1.874   8.423  0.3438  0.1387  0.2369
 7901SOL    HW135162   1.178   1.782   8.448  1.7778 -0.1702 -0.5055
 7901SOL    HW235163   1.193   1.912   8.510  0.1793  0.3527  0.1589
 7902SOL     OW35164   1.818   1.887  16.228 -0.2038 -0.2897 -0.4668
 7902SOL    HW135165   1.890   1.946  16.203 -0.2268 -0.8541 -1.8539
 7902SOL    HW235166   1.787   1.848  16.146 -0.2290 -0.2182 -0.4911
 7903SOL     OW35167   3.875   2.838  15.299  0.1337 -0.0398 -0.0452
 7903SOL    HW135168   3.888   2.932  15.313  2.1945 -0.3598  0.2397
 7903SOL    HW235169   3.937   2.803  15.363  0.7472  0.5276 -0.3206
 7904SOL     OW35170   3.947   4.219   5.477  0.1102 -0.0943 -0.0677
 7904SOL    HW135171   3.856   4.229   5.507  0.0057 -2.1644  0.2893
 7904SOL    HW235172   3.946   4.257   5.389  0.6535 -0.3613 -0.1877
 7905SOL     OW35173   3.634   1.372   0.332 -0.0263  0.1407  0.4102
 7905SOL    HW135174   3.707   1.382   0.272  0.2821 -1.0242  0.5958
 7905SOL    HW235175   3.619   1.466   0.341  2.5318  0.8348 -2.4584
 7906SOL     OW35176   2.267   2.749   2.094  0.1027 -0.3783  0.5916
 7906SOL    HW135177   2.252   2.841   2.073 -0.7268 -0.4704  0.7812
 7906SOL    HW235178   2.174   2.731   2.111  0.3202 -0.4563  1.6967
 7907SOL     OW35179   0.707   1.150   2.358  0.2080  0.2221  0.1082
 7907SOL    HW135180   0.774   1.189   2.414  0.5170 -1.2811  0.7937
 7907SOL    HW235181   0.629   1.202   2.378  0.2312  0.8236 -1.3721
 7908SOL     OW35182   1.772   0.093   3.791  0.5655 -0.2270  0.1517
 7908SOL    HW135183   1.833   0.106   3.718  2.0967 -1.8998  1.1412
 7908SOL    HW235184   1.693   0.084   3.738  0.1447  1.1748  0.5392
 7909SOL     OW35185   2.917   2.170   8.431  0.1574  0.3142 -0.0951
 7909SOL    HW135186   2.995   2.136   8.387 -1.7426 -2.7156 -1.0710
 7909SOL    HW235187   2.940   2.154   8.523 -3.3194  1.4378  0.9710
 7910SOL     OW35188   1.466   0.569   2.156  0.2597  0.6748 -0.5073
 7910SOL    HW135189   1.560   0.579   2.170  0.4002  0.9216 -1.5838
 7910SOL    HW235190   1.470   0.528   2.069  3.7480 -1.1364  0.5161
 7911SOL     OW35191   0.331   4.420  14.623  0.0148  0.2023  0.6289
 7911SOL    HW135192   0.393   4.460  14.684  1.3370 -1.5918  0.4695
 7911SOL    HW235193   0.259   4.399  14.683  0.5076 -0.7478  0.8941
 7912SOL     OW35194   1.719   2.996   3.784 -0.5438  0.5714  0.5822
 7912SOL    HW135195   1.683   3.044   3.859 -1.2509 -0.9007  1.1831
 7912SOL    HW235196   1.633   2.989   3.741  0.2234 -1.0965 -0.6953
 7913SOL     OW35197   3.533   1.987  13.580 -0.1209  0.3414  0.5254
 7913SOL    HW135198   3.535   1.903  13.625  0.4625  0.9486  1.6155
 7913SOL    HW235199   3.447   1.969  13.542  1.0977 -1.0217 -1.5545
 7914SOL     OW35200   1.377   0.509   3.800 -0.1569  0.4291  0.7478
 7914SOL    HW135201   1.449   0.558   3.760  0.1259  0.2294  1.0225
 7914SOL    HW235202   1.329   0.490   3.719  0.6086 -1.2461  0.6844
 7915SOL     OW35203   1.347   1.651   1.966 -0.2554 -0.0628 -0.1062
 7915SOL    HW135204   1.259   1.614   1.967  0.8196 -2.5939  2.1505
 7915SOL    HW235205   1.329   1.743   1.945  2.3957  0.4102 -0.3625
 7916SOL     OW35206   1.582   2.012   7.860  0.5706  0.7241  0.2439
 7916SOL    HW135207   1.576   1.918   7.842 -0.2962  0.5488  1.4394
 7916SOL    HW235208   1.503   2.037   7.812  1.0980  1.9568  0.0268
 7917SOL     OW35209   0.626   1.033   4.819 -0.4140 -0.3468  0.0795
 7917SOL    HW135210   0.600   1.055   4.908  2.9809 -0.6012  1.1586
 7917SOL    HW235211   0.561   1.084   4.771 -1.7164 -0.9786  1.1566
 7918SOL     OW35212   1.225   2.675   6.625 -0.1816 -0.2516  0.0758
 7918SOL    HW135213   1.204   2.589   6.590 -2.6545 -0.0763  1.1174
 7918SOL    HW235214   1.249   2.653   6.715 -1.6342 -0.1947  0.4760
 7919SOL     OW35215   3.107   4.556  11.165  0.1003  0.1448  0.3640
 7919SOL    HW135216   3.185   4.509  11.193  0.8136  1.7387  1.0798
 7919SOL    HW235217   3.045   4.498  11.208  1.0563 -0.5791  0.7633
 7920SOL     OW35218   0.315   2.305  12.769  0.3030  0.2367 -0.2905
 7920SOL    HW135219   0.274   2.390  12.784 -0.8638 -0.3359 -0.2306
 7920SOL    HW235220   0.384   2.319  12.704 -0.1292  2.3955 -0.2762
 7921SOL     OW35221   1.299   0.634   7.753 -0.0968 -0.3244 -0.5684
 7921SOL    HW135222   1.270   0.721   7.778  2.5964  1.4964 -3.8291
 7921SOL    HW235223   1.223   0.602   7.703 -1.0598  1.8530 -0.4735
 7922SOL     OW35224   2.611   2.948  11.981  0.5522 -0.0689  0.1506
 7922SOL    HW135225   2.545   2.923  11.916 -1.3748 -0.0643  2.1219
 7922SOL    HW235226   2.688   2.970  11.928 -0.7578  0.0921 -1.6643
 7923SOL     OW35227   2.669   2.709   5.822  0.0105 -0.1822 -0.1689
 7923SOL    HW135228   2.701   2.620   5.837 -0.1742  0.2404  2.7733
 7923SOL    HW235229   2.747   2.754   5.855  0.8578 -0.4713 -1.8240
 7924SOL     OW35230   4.109   0.134   9.736  0.4113  0.2932 -0.2557
 7924SOL    HW135231   4.024   0.165   9.706  0.0971  0.0835  0.4148
 7924SOL    HW235232   4.082   0.067   9.799  2.2336  1.1932  1.4643
 7925SOL     OW35233   2.233   3.157  10.275  0.5970 -0.4770 -0.0751
 7925SOL    HW135234   2.186   3.141  10.357 -1.1877 -0.2094 -1.0417
 7925SOL    HW235235   2.165   3.162  10.209  0.1641 -2.0917  0.2487
 7926SOL     OW35236   2.097   1.972   4.266 -0.0838  0.5667  0.2417
 7926SOL    HW135237   2.088   2.067   4.267 -3.0644  0.3173 -0.8053
 7926SOL    HW235238   2.008   1.944   4.289  0.1020 -0.9598 -0.8515
 7927SOL     OW35239   0.164   0.592   1.105 -0.0780 -0.1915 -0.0119
 7927SOL    HW135240   0.178   0.680   1.141  1.1310 -0.7179  0.8015
 7927SOL    HW235241   0.198   0.612   1.018  0.6359  0.2892  0.3730
 7928SOL     OW35242   4.123   3.322   6.015  0.2394 -0.4151  0.2418
 7928SOL    HW135243   4.193   3.292   6.073 -0.4320 -0.1524  1.1831
 7928SOL    HW235244   4.173   3.329   5.934 -0.1801  0.7999  0.0801
 7929SOL     OW35245   1.034   0.587  12.359  0.5801 -0.1399 -0.1100
 7929SOL    HW135246   0.980   0.552  12.429 -1.5117 -0.1504 -1.7493
 7929SOL    HW235247   1.044   0.510  12.303 -1.1241 -0.1837 -0.3441
 7930SOL     OW35248   4.302   0.331   4.058  0.0926 -0.3743 -0.4968
 7930SOL    HW135249   4.344   0.414   4.079 -0.8296 -0.3264  1.2096
 7930SOL    HW235250   4.374   0.269   4.044 -0.0743 -1.1752  2.1474
 7931SOL     OW35251   4.348   3.630   2.960 -0.1735  0.8347  0.1660
 7931SOL    HW135252   4.276   3.612   3.021 -0.2997  0.3424 -0.1327
 7931SOL    HW235253   4.412   3.564   2.986 -2.1249 -1.0114  0.2304
 7932SOL     OW35254   2.822   1.532  11.848  0.4029  0.6105 -0.7042
 7932SOL    HW135255   2.858   1.560  11.763  0.2506  1.7624 -0.3906
 7932SOL    HW235256   2.859   1.444  11.852 -0.9767 -0.0475 -2.3964
 7933SOL     OW35257   1.426   3.203   5.138 -0.7597 -0.4137  0.5131
 7933SOL    HW135258   1.475   3.244   5.209  0.6346 -2.1239  0.5295
 7933SOL    HW235259   1.409   3.115   5.173 -3.7162  0.0534  0.2758
 7934SOL     OW35260   4.545   2.487   4.338  0.2192 -0.6289 -0.0829
 7934SOL    HW135261   4.597   2.566   4.324  0.0681 -0.3078  1.1188
 7934SOL    HW235262   4.587   2.422   4.282  0.8099  0.0303 -0.3994
 7935SOL     OW35263   0.085   0.368   7.476 -0.6184  0.1176  0.1117
 7935SOL    HW135264   0.022   0.395   7.544 -1.5565 -1.9056  0.0599
 7935SOL    HW235265   0.110   0.282   7.511  0.1228  0.1474 -0.3539
 7936SOL     OW35266   1.928   3.934   4.379 -0.4261 -0.8504 -0.1981
 7936SOL    HW135267   1.878   3.909   4.302  0.5159 -1.0033 -0.7660
 7936SOL    HW235268   1.917   4.028   4.365  1.6479 -0.5238  0.3723
 7937SOL     OW35269   4.530   2.696   3.993  0.2353  0.0486  0.3303
 7937SOL    HW135270   4.613   2.660   4.026  1.2352 -0.4312 -2.7379
 7937SOL    HW235271   4.508   2.618   3.941 -0.2874  1.3990 -1.4596
 7938SOL     OW35272   3.605   3.436   5.638 -0.0530  0.2878  0.0991
 7938SOL    HW135273   3.655   3.401   5.712  2.4185  1.4214 -1.0603
 7938SOL    HW235274   3.667   3.502   5.606  1.0573 -1.1173 -0.6633
 7939SOL     OW35275   2.717   4.420   6.093 -0.3685 -0.1629  0.1351
 7939SOL    HW135276   2.622   4.410   6.091 -0.3653 -0.3821  1.1151
 7939SOL    HW235277   2.719   4.511   6.062 -1.8234 -0.5667 -1.1336
 7940SOL     OW35278   0.315   3.617  10.198 -0.0076 -0.3060  0.0642
 7940SOL    HW135279   0.280   3.609  10.110 -1.6820 -1.2951  0.8211
 7940SOL    HW235280   0.339   3.525  10.209  0.4220 -0.2222 -0.1823
 7941SOL     OW35281   2.973   0.959  11.429 -0.1179  0.4482 -0.5620
 7941SOL    HW135282   2.976   0.997  11.341  1.8161  1.9100  0.1381
 7941SOL    HW235283   2.896   1.011  11.448 -1.6490 -2.8539  2.2110
 7942SOL     OW35284   3.653   3.360  16.237 -0.1670 -0.3147  0.2213
 7942SOL    HW135285   3.699   3.362  16.320  0.2416 -0.1483 -0.0114
 7942SOL    HW235286   3.565   3.358  16.274 -0.7695 -1.3708 -1.2705
 7943SOL     OW35287   1.291   1.884   6.900 -1.0263  0.0302  0.3349
 7943SOL    HW135288   1.295   1.805   6.847 -1.4915  0.8106 -0.8657
 7943SOL    HW235289   1.303   1.951   6.832 -0.1495 -1.2508 -0.7865
 7944SOL     OW35290   1.515   2.220   2.983  0.1927 -0.0335 -0.2627
 7944SOL    HW135291   1.503   2.269   2.902 -0.7609 -0.5797 -0.4498
 7944SOL    HW235292   1.580   2.277   3.024  2.0354 -0.9948 -1.8281
 7945SOL     OW35293   2.271   1.032   2.014 -0.0202  0.0725 -0.3893
 7945SOL    HW135294   2.319   1.084   2.078  2.0893 -1.0939 -1.0353
 7945SOL    HW235295   2.345   0.991   1.969  0.4139  0.3221  0.1007
 7946SOL     OW35296   2.400   0.988   6.679  0.1455  0.1250 -0.0007
 7946SOL    HW135297   2.435   0.948   6.759 -0.7914 -1.7832 -0.5423
 7946SOL    HW235298   2.349   1.063   6.708 -0.1646  0.7098 -2.0652
 7947SOL     OW35299   0.965   3.998   2.489 -0.3557 -0.6943 -0.5444
 7947SOL    HW135300   0.968   3.903   2.498  1.9749 -0.6361 -0.7500
 7947SOL    HW235301   0.875   4.016   2.516 -0.3664 -2.3626  0.5433
 7948SOL     OW35302   4.082   0.497   4.588  0.3291  0.0225 -0.0109
 7948SOL    HW135303   4.003   0.480   4.536  0.8518  0.6418 -0.9849
 7948SOL    HW235304   4.063   0.571   4.645  1.0828  0.3377 -0.1818
 7949SOL     OW35305   1.856   3.182  16.028 -0.2588  0.3165  0.0169
 7949SOL    HW135306   1.852   3.112  15.962 -3.0407 -1.5868  2.2291
 7949SOL    HW235307   1.816   3.253  15.979  0.6101  0.3648 -0.6289
 7950SOL     OW35308   3.408   4.560   2.467  0.0357 -0.4349 -0.1287
 7950SOL    HW135309   3.469   4.620   2.511  0.0760 -0.7143  0.1989
 7950SOL    HW235310   3.409   4.579   2.374  0.7702  1.0402  0.1792
 7951SOL     OW35311   4.399   1.813  16.470 -0.1496  0.2613  0.2355
 7951SOL    HW135312   4.368   1.762  16.545 -0.5829 -0.5592 -0.5021
 7951SOL    HW235313   4.404   1.747  16.401 -1.7360  0.3883 -0.0082
 7952SOL     OW35314   0.851   3.521   0.097  0.6313 -0.0772  0.5224
 7952SOL    HW135315   0.822   3.575   0.171 -0.5161 -0.7553  0.5663
 7952SOL    HW235316   0.891   3.449   0.146 -2.0732  1.2559  4.7049
 7953SOL     OW35317   2.966   0.037  13.458 -0.7002 -0.1857 -0.4390
 7953SOL    HW135318   2.924   0.105  13.405  1.9565  0.4777 -1.6908
 7953SOL    HW235319   2.923   0.055  13.541  0.5932  0.9709 -0.0194
 7954SOL     OW35320   3.407   3.026   1.044 -0.0822  0.7313 -0.6721
 7954SOL    HW135321   3.456   3.096   1.002 -1.3936  2.5896  0.9267
 7954SOL    HW235322   3.318   3.048   1.015 -0.8033 -1.0177  0.1943
 7955SOL     OW35323   4.123   4.541   3.908 -0.4647  0.3487  0.0164
 7955SOL    HW135324   4.185   4.486   3.860 -0.1734  2.1356 -1.6950
 7955SOL    HW235325   4.136   4.620   3.855  2.4030 -0.7089 -0.8191
 7956SOL     OW35326   4.327   2.636  13.900  0.7929 -0.1440 -0.4371
 7956SOL    HW135327   4.383   2.673  13.968  2.0486 -0.9403 -1.0426
 7956SOL    HW235328   4.241   2.612  13.935  1.7345 -0.7308  1.4964
 7957SOL     OW35329   1.577   2.350   6.724  0.7370  0.0979  0.1806
 7957SOL    HW135330   1.606   2.429   6.771 -1.6468  1.7495 -1.1064
 7957SOL    HW235331   1.482   2.363   6.734  0.8277  1.3817 -0.6746
 7958SOL     OW35332   3.537   0.599   2.840 -0.4214  0.0468 -0.1574
 7958SOL    HW135333   3.515   0.674   2.785 -0.2854  0.4774  0.3744
 7958SOL    HW235334   3.603   0.648   2.889 -0.5368  0.9425 -0.8956
 7959SOL     OW35335   3.447   4.527   1.540  0.1605 -0.2222 -0.0364
 7959SOL    HW135336   3.359   4.540   1.576  0.7727 -1.7664  2.0391
 7959SOL    HW235337   3.483   4.604   1.582  0.5233 -1.6053  2.1813
 7960SOL     OW35338   1.939   3.571  14.670 -0.0963 -0.4981  1.3155
 7960SOL    HW135339   1.946   3.662  14.700  0.4693 -0.3595  0.7413
 7960SOL    HW235340   1.865   3.534  14.719 -0.4853 -0.7260  0.5613
 7961SOL     OW35341   3.624   0.195   5.065 -0.1999  0.0725  0.7531
 7961SOL    HW135342   3.685   0.135   5.106  0.7430  1.1372  0.9054
 7961SOL    HW235343   3.654   0.281   5.095 -0.4529  0.8673 -1.1935
 7962SOL     OW35344   3.121   3.198   1.622  0.3370 -0.4024  0.2098
 7962SOL    HW135345   3.059   3.261   1.586 -1.5723 -1.4445  1.6599
 7962SOL    HW235346   3.187   3.261   1.652 -0.6588  0.6545  0.1780
 7963SOL     OW35347   3.131   3.419   9.309 -0.1539  0.0213 -0.0507
 7963SOL    HW135348   3.112   3.421   9.403 -0.0353 -1.8904  0.0052
 7963SOL    HW235349   3.142   3.326   9.288  2.1205 -0.0461  1.4174
 7964SOL     OW35350   2.420   1.693   9.359  0.4202 -0.1527  0.9636
 7964SOL    HW135351   2.342   1.690   9.305  0.7674 -0.0345  0.4539
 7964SOL    HW235352   2.384   1.749   9.427  0.3839 -1.4245  1.9896
 7965SOL     OW35353   2.890   3.746   1.898  0.0531 -0.2807  0.0897
 7965SOL    HW135354   2.975   3.718   1.932  0.7388 -0.4769 -1.7613
 7965SOL    HW235355   2.845   3.662   1.887 -0.5003 -0.0550  0.6903
 7966SOL     OW35356   2.335   3.077   4.902  0.0457  0.5454 -0.5171
 7966SOL    HW135357   2.376   3.148   4.952  0.6583 -1.2396  1.5172
 7966SOL    HW235358   2.249   3.078   4.944 -0.0814  2.8602 -0.8364
 7967SOL     OW35359   2.650   1.099   2.226 -0.0949 -0.7197 -0.0830
 7967SOL    HW135360   2.701   1.025   2.260  0.4500 -1.6135 -2.8405
 7967SOL    HW235361   2.667   1.096   2.132  0.7106  0.4051  0.0252
 7968SOL     OW35362   0.239   3.166   4.476 -0.1724 -0.6358  0.4084
 7968SOL    HW135363   0.179   3.094   4.495 -1.5666  0.8333  1.5790
 7968SOL    HW235364   0.180   3.225   4.430 -0.0460 -1.8332 -1.2760
 7969SOL     OW35365   3.607   3.730   9.939 -0.3615  0.0700  0.2100
 7969SOL    HW135366   3.657   3.681  10.004 -0.1727  0.9293  0.7111
 7969SOL    HW235367   3.551   3.659   9.907  2.5554 -1.1153 -2.3222
 7970SOL     OW35368   0.420   0.631   8.200 -0.3176  0.4191  0.6358
 7970SOL    HW135369   0.439   0.660   8.111  1.5511 -1.8083  0.3193
 7970SOL    HW235370   0.328   0.657   8.214 -0.6501 -0.1915 -0.3855
 7971SOL     OW35371   0.039   3.092  15.152  0.5064  0.0864  0.3120
 7971SOL    HW135372   0.099   3.022  15.178  0.7495  0.4102  0.6292
 7971SOL    HW235373   4.672   3.065  15.172 -0.1986  1.0947 -1.4225
 7972SOL     OW35374   3.240   2.038   2.149 -0.5874 -0.3009  0.0437
 7972SOL    HW135375   3.307   2.086   2.199 -3.3532  2.9877  0.6302
 7972SOL    HW235376   3.277   2.042   2.061  0.5823 -3.1038  0.4119
 7973SOL     OW35377   1.081   3.252   7.944 -0.2139  0.1101  0.0162
 7973SOL    HW135378   1.066   3.340   7.979  1.9156  0.2729  0.5374
 7973SOL    HW235379   1.174   3.257   7.964  0.0258  0.8162 -1.2601
 7974SOL     OW35380   0.568   1.829   1.576  0.1671 -0.4577 -0.2451
 7974SOL    HW135381   0.563   1.836   1.671  0.0765 -4.0207 -0.0081
 7974SOL    HW235382   0.512   1.903   1.549 -1.4269 -0.7822  2.1840
 7975SOL     OW35383   0.992   4.360   2.864 -0.5519 -0.1585  0.5076
 7975SOL    HW135384   0.942   4.382   2.943  0.4401 -0.7747  1.3067
 7975SOL    HW235385   0.937   4.405   2.799 -0.3884 -1.7470 -0.7312
 7976SOL     OW35386   0.749   2.953   2.286  0.0933  0.5714  0.3084
 7976SOL    HW135387   0.800   2.950   2.206 -0.8748 -3.9166 -0.1686
 7976SOL    HW235388   0.797   3.024   2.328 -0.0904 -0.2251  1.8780
 7977SOL     OW35389   1.171   2.182   6.172 -0.4475  0.0236 -0.2789
 7977SOL    HW135390   1.110   2.180   6.246 -0.4333 -5.4933 -0.3998
 7977SOL    HW235391   1.136   2.105   6.126  0.7697  1.7894 -4.1811
 7978SOL     OW35392   0.980   1.074   0.895 -0.1975 -0.1230 -0.4541
 7978SOL    HW135393   1.073   1.055   0.884 -0.0134  0.0342  0.8008
 7978SOL    HW235394   0.970   1.092   0.802  2.3756 -0.2591 -0.7610
 7979SOL     OW35395   3.727   1.101   1.976 -0.1447 -0.3810 -0.2857
 7979SOL    HW135396   3.718   1.180   2.030 -0.2911 -0.4379 -0.2267
 7979SOL    HW235397   3.699   1.130   1.890 -3.7509 -1.0638  0.6621
 7980SOL     OW35398   3.211   3.160   5.031  0.7339  0.1068  0.1099
 7980SOL    HW135399   3.292   3.134   4.987  0.3089  0.0025 -0.5971
 7980SOL    HW235400   3.139   3.152   4.969  1.1432  1.0016 -0.4785
 7981SOL     OW35401   3.791   4.386   8.915 -0.2850 -0.0567  0.4155
 7981SOL    HW135402   3.752   4.471   8.934 -2.0658 -0.6513 -0.6065
 7981SOL    HW235403   3.880   4.415   8.891 -0.3241 -1.3512 -1.2688
 7982SOL     OW35404   0.794   1.294   8.299 -0.6414 -0.2510 -0.1250
 7982SOL    HW135405   0.817   1.303   8.392  1.1582 -0.5300 -0.5327
 7982SOL    HW235406   0.742   1.372   8.279  1.0092  1.0816  0.7882
 7983SOL     OW35407   1.372   4.520   7.722  0.2094 -0.4407 -0.0182
 7983SOL    HW135408   1.292   4.512   7.774  0.7009 -1.2620  0.6075
 7983SOL    HW235409   1.436   4.490   7.787  0.5295 -2.4451 -1.2948
 7984SOL     OW35410   3.558   1.176   4.516  0.1241 -0.2875 -0.0540
 7984SOL    HW135411   3.600   1.095   4.543  1.8631 -0.5611 -3.5847
 7984SOL    HW235412   3.632   1.234   4.534 -0.8334 -0.3148  3.7658
 7985SOL     OW35413   3.097   1.861   8.758  0.5618 -0.4221 -0.1632
 7985SOL    HW135414   3.162   1.925   8.788 -0.3734  0.7360 -0.5851
 7985SOL    HW235415   3.155   1.785   8.757  0.7272 -0.3041  0.1682
 7986SOL     OW35416   4.117   0.308   9.383  0.3441 -0.0806  0.9411
 7986SOL    HW135417   4.129   0.265   9.299 -0.3908  2.9479 -0.7111
 7986SOL    HW235418   4.058   0.251   9.432  0.1028  0.1590  0.9340
 7987SOL     OW35419   0.760   0.535   8.230 -0.0549 -0.1890 -0.1867
 7987SOL    HW135420   0.799   0.622   8.225 -2.8488  1.0411 -0.5498
 7987SOL    HW235421   0.794   0.485   8.156  4.3769  0.2419  1.5695
 7988SOL     OW35422   3.160   1.392   1.668  0.3387 -0.1819 -0.5146
 7988SOL    HW135423   3.165   1.388   1.573 -0.8416  3.4208 -0.7055
 7988SOL    HW235424   3.205   1.476   1.679 -0.1200  0.1506 -1.2668
 7989SOL     OW35425   2.563   2.684   1.704  0.2709 -0.1028  0.9701
 7989SOL    HW135426   2.533   2.742   1.774  0.2039  1.0143  0.0064
 7989SOL    HW235427   2.479   2.645   1.683  0.7896 -1.5553  1.5696
 7990SOL     OW35428   2.937   1.431   7.156 -0.2644  0.2800  0.2412
 7990SOL    HW135429   2.897   1.458   7.239 -2.3486  0.9127 -0.9887
 7990SOL    HW235430   2.901   1.343   7.143  1.4268 -0.7112  2.2309
 7991SOL     OW35431   2.717   2.479   0.937  0.5747  0.8306  0.3626
 7991SOL    HW135432   2.698   2.484   0.843 -1.1869 -3.4869  0.4579
 7991SOL    HW235433   2.638   2.430   0.960  1.1540 -0.4073 -0.2671
 7992SOL     OW35434   1.820   4.494  11.650  0.0654 -0.0661 -0.1821
 7992SOL    HW135435   1.847   4.585  11.638 -2.9278  0.9358  0.8389
 7992SOL    HW235436   1.859   4.448  11.575  0.7547  1.0133 -0.4736
 7993SOL     OW35437   1.700   4.394   1.913 -0.1793  0.7994  0.1373
 7993SOL    HW135438   1.612   4.357   1.922 -0.6332  1.4477 -1.6230
 7993SOL    HW235439   1.747   4.324   1.867 -0.8120 -0.2951  1.1303
 7994SOL     OW35440   2.929   4.300   5.590  0.2040 -0.3396 -0.3618
 7994SOL    HW135441   2.908   4.261   5.674  0.6226  3.5227  1.5601
 7994SOL    HW235442   3.017   4.267   5.576  0.3367 -0.5518  0.9783
 7995SOL     OW35443   4.686   4.168   6.256  0.2243 -0.7382 -0.7059
 7995SOL    HW135444   4.609   4.192   6.308  1.3480 -0.6008  0.9058
 7995SOL    HW235445   4.647   4.127   6.178  0.7634 -3.5540  0.5014
 7996SOL     OW35446   1.048   2.957   3.158  0.4557 -0.7563 -0.6005
 7996SOL    HW135447   1.135   2.933   3.125  1.5898  2.9542 -0.2828
 7996SOL    HW235448   1.002   2.882   3.121 -2.0216 -0.4864  1.9653
 7997SOL     OW35449   4.434   2.722   5.902  0.4460 -0.0529  0.0125
 7997SOL    HW135450   4.499   2.676   5.848 -1.2219 -3.6414  1.0212
 7997SOL    HW235451   4.487   2.774   5.962  0.4570  1.1325 -1.0209
 7998SOL     OW35452   3.171   2.848   6.296  0.1154 -0.4407  0.1522
 7998SOL    HW135453   3.115   2.878   6.224  1.9215 -2.1915 -1.9888
 7998SOL    HW235454   3.128   2.884   6.373 -0.2918  2.5488 -1.4669
 7999SOL     OW35455   3.726   2.043   1.529  0.4563 -0.0446  0.0669
 7999SOL    HW135456   3.806   2.022   1.482  1.1550 -1.3356  1.8571
 7999SOL    HW235457   3.680   1.959   1.537  0.9541 -0.3028  0.2315
 8000SOL     OW35458   2.898   1.450   5.845  0.2016  0.2146 -0.2259
 8000SOL    HW135459   2.886   1.378   5.907 -0.5570  0.1255 -0.4665
 8000SOL    HW235460   2.808   1.449   5.810  0.1833 -0.4539 -0.1660
 8001SOL     OW35461   1.581   1.509   1.970 -1.0074  0.3149 -0.1515
 8001SOL    HW135462   1.498   1.557   1.960 -1.3156 -0.3408 -0.7878
 8001SOL    HW235463   1.560   1.420   1.997 -0.0501 -0.1593 -0.9501
 8002SOL     OW35464   2.237   4.297   2.709  0.0906  0.0169  0.2455
 8002SOL    HW135465   2.264   4.262   2.624 -0.1230  0.5563 -0.0426
 8002SOL    HW235466   2.317   4.343   2.737 -0.1846  0.7931 -0.2317
 8003SOL     OW35467   3.924   3.613   1.169 -0.0462  0.1156 -0.2033
 8003SOL    HW135468   4.007   3.604   1.121 -0.3257 -0.0371 -0.6639
 8003SOL    HW235469   3.881   3.687   1.126 -0.4309 -0.0873 -0.1592
 8004SOL     OW35470   3.887   4.310   7.515  0.0976 -0.1177 -0.0325
 8004SOL    HW135471   3.899   4.228   7.563  0.6252 -0.7907 -1.3008
 8004SOL    HW235472   3.816   4.345   7.569 -0.6239 -1.1114 -0.3299
 8005SOL     OW35473   1.889   1.705   4.058  0.4108  0.3898  0.1703
 8005SOL    HW135474   1.982   1.680   4.054  0.1720 -0.3132 -0.8716
 8005SOL    HW235475   1.847   1.619   4.053 -1.7932  1.5669 -1.5653
 8006SOL     OW35476   1.022   1.196   6.533  0.3967 -0.6238  0.2165
 8006SOL    HW135477   0.938   1.234   6.560  0.3633 -0.8755  0.4631
 8006SOL    HW235478   1.024   1.231   6.444  0.4188  2.1302  1.2921
 8007SOL     OW35479   4.111   3.998   2.358 -0.1725  0.6462 -0.2885
 8007SOL    HW135480   4.207   3.990   2.361 -0.1992  0.7041  0.7221
 8007SOL    HW235481   4.097   3.958   2.272 -0.6658  0.6626 -0.2119
 8008SOL     OW35482   3.475   4.449  10.731 -0.4020  0.3946  0.6008
 8008SOL    HW135483   3.395   4.487  10.767 -1.3367  1.2281 -2.4049
 8008SOL    HW235484   3.434   4.396  10.663 -0.5714 -0.2652  1.2160
 8009SOL     OW35485   1.179   2.710   3.850 -0.3704 -0.2073 -0.1810
 8009SOL    HW135486   1.124   2.731   3.925 -0.6337 -0.8532 -0.2010
 8009SOL    HW235487   1.136   2.634   3.812 -0.1014  0.9078 -2.7364
 8010SOL     OW35488   2.522   1.373   0.563  0.3154  0.2262 -0.0574
 8010SOL    HW135489   2.543   1.465   0.579  2.7610  0.1373 -2.6975
 8010SOL    HW235490   2.555   1.364   0.473 -0.7720 -0.5071 -0.3804
 8011SOL     OW35491   0.466   1.574  14.802  0.6211  0.0410 -0.7173
 8011SOL    HW135492   0.495   1.512  14.736 -0.2080  0.4193 -1.4377
 8011SOL    HW235493   0.373   1.554  14.806  0.7820 -0.9363 -2.1111
 8012SOL     OW35494   4.648   2.168  14.531 -0.5973  0.3893  0.1247
 8012SOL    HW135495   4.712   2.096  14.531 -1.5051 -0.4284 -1.1036
 8012SOL    HW235496   4.598   2.127  14.460  0.4919 -1.0222  0.1688
 8013SOL     OW35497   0.319   4.501   4.008 -0.1033 -0.2057  0.1673
 8013SOL    HW135498   0.260   4.426   4.021  0.6670 -0.8644 -0.1308
 8013SOL    HW235499   0.296   4.523   3.918  0.0993 -1.6133 -0.2339
 8014SOL     OW35500   4.500   2.921  16.727  0.3631  0.1063  0.4961
 8014SOL    HW135501   4.551   2.873  16.662  0.0729  0.0224  0.3288
 8014SOL    HW235502   4.467   2.988  16.666  2.1799  1.0987  0.6001
 8015SOL     OW35503   3.625   2.164   1.814 -0.5244  0.4534 -0.1180
 8015SOL    HW135504   3.633   2.253   1.849  0.4230 -0.2401  1.4192
 8015SOL    HW235505   3.711   2.160   1.772 -1.0252  2.1270 -1.3155
 8016SOL     OW35506   1.329   0.281  11.012  0.2674 -0.2212 -0.3242
 8016SOL    HW135507   1.306   0.373  11.021  0.9930  0.0688 -1.3655
 8016SOL    HW235508   1.351   0.271  10.919  0.4170 -2.1625 -0.0754
 8017SOL     OW35509   3.146   1.118   2.658 -0.2712 -0.0133 -0.7993
 8017SOL    HW135510   3.218   1.107   2.720 -0.4310  0.1469 -0.5856
 8017SOL    HW235511   3.154   1.211   2.639 -0.5242  0.4338  1.2212
 8018SOL     OW35512   0.742   3.560   0.977 -0.5048 -0.3118 -0.4446
 8018SOL    HW135513   0.751   3.567   1.072 -0.3149 -2.4436 -0.2922
 8018SOL    HW235514   0.724   3.651   0.954 -2.0717 -0.1847  1.2716
 8019SOL     OW35515   4.610   4.414  16.913 -0.4983  0.1587  0.3336
 8019SOL    HW135516   4.633   4.385  17.002 -1.0335 -1.2846  0.0080
 8019SOL    HW235517   4.650   4.338  16.871  0.3710  1.5637 -1.3363
 8020SOL     OW35518   1.692   0.251   8.824  0.2177 -0.4092  0.5806
 8020SOL    HW135519   1.653   0.199   8.754 -0.9721  2.2323 -0.7036
 8020SOL    HW235520   1.784   0.259   8.797 -0.1320 -0.6378 -0.6929
 8021SOL     OW35521   1.068   2.418  10.460 -0.0979  0.0287 -1.1104
 8021SOL    HW135522   1.082   2.429  10.366 -0.0235 -0.3492 -1.1465
 8021SOL    HW235523   1.023   2.497  10.490 -0.1440  0.0176 -1.1494
 8022SOL     OW35524   4.578   4.439   4.523 -0.1977 -0.6947 -0.1791
 8022SOL    HW135525   4.523   4.362   4.506 -2.4106  1.1267 -1.2069
 8022SOL    HW235526   4.641   4.404   4.586  0.1402  1.0687  0.4481
 8023SOL     OW35527   2.340   4.269   2.454  0.3516  0.2994 -0.0754
 8023SOL    HW135528   2.285   4.315   2.391 -0.5984  0.7511  1.0956
 8023SOL    HW235529   2.415   4.248   2.398 -0.3339  1.2486 -1.3472
 8024SOL     OW35530   0.731   4.617   7.509 -0.0400 -0.2085  0.5079
 8024SOL    HW135531   0.700   4.557   7.577  0.6932 -1.5866 -0.3751
 8024SOL    HW235532   0.654   4.621   7.453  0.5711  0.4987 -0.2792
 8025SOL     OW35533   0.111   3.381   6.614  0.1998 -0.1053  0.2335
 8025SOL    HW135534   0.104   3.287   6.596 -0.3852 -0.3467  1.6672
 8025SOL    HW235535   0.060   3.421   6.544  1.0847  0.0862 -0.3004
 8026SOL     OW35536   2.061   1.383   3.348  0.3046  0.3663 -0.2177
 8026SOL    HW135537   2.060   1.290   3.370 -0.4765  0.9045  1.9619
 8026SOL    HW235538   2.021   1.387   3.261 -1.9815 -1.1049  0.7624
 8027SOL     OW35539   3.724   0.801   8.394 -0.3366  1.0355 -0.5503
 8027SOL    HW135540   3.684   0.805   8.481 -1.0376  0.2091 -0.8384
 8027SOL    HW235541   3.649   0.835   8.346 -0.5904 -0.2194 -1.0506
 8028SOL     OW35542   2.165   2.687   7.002 -0.0435 -0.3566 -0.2252
 8028SOL    HW135543   2.161   2.601   7.044 -0.3300  0.7103  1.8947
 8028SOL    HW235544   2.070   2.686   6.987 -0.4545  1.4748  2.3786
 8029SOL     OW35545   1.586   3.819  15.197 -0.3287  0.2643 -0.0351
 8029SOL    HW135546   1.497   3.847  15.218 -0.6206  0.1814 -1.1520
 8029SOL    HW235547   1.640   3.837  15.274  0.3861  0.8487 -0.6737
 8030SOL     OW35548   3.752   3.084  16.046  0.2960  0.7252  0.5007
 8030SOL    HW135549   3.659   3.061  16.046  0.4443  0.1726 -0.9159
 8030SOL    HW235550   3.751   3.180  16.046 -0.0456  0.7129 -0.7280
 8031SOL     OW35551   3.432   3.746   4.650 -0.5835 -0.2772 -0.0552
 8031SOL    HW135552   3.360   3.754   4.712 -1.5424  2.1086 -1.4991
 8031SOL    HW235553   3.449   3.652   4.660 -0.3384 -0.4893 -2.4493
 8032SOL     OW35554   2.269   2.571   6.173  0.1584  0.1289  0.1853
 8032SOL    HW135555   2.259   2.651   6.122 -2.0688  0.8345  1.6732
 8032SOL    HW235556   2.314   2.606   6.250  0.0029  2.3424 -0.7374
 8033SOL     OW35557   0.528   2.083   1.409  0.0864  0.0427 -0.3214
 8033SOL    HW135558   0.577   2.136   1.345 -1.0948  0.0845 -1.1945
 8033SOL    HW235559   0.510   2.144   1.481  0.7357 -1.4012  1.0598
 8034SOL     OW35560   0.653   3.944   7.703  0.4874  0.2857  0.2015
 8034SOL    HW135561   0.570   3.900   7.720  1.9582 -2.6484 -0.1935
 8034SOL    HW235562   0.692   3.932   7.789 -0.4841 -1.2620  0.4264
 8035SOL     OW35563   1.673   1.898   5.161 -0.1946 -0.5182 -0.1062
 8035SOL    HW135564   1.748   1.844   5.137 -0.9955 -1.8367  0.3501
 8035SOL    HW235565   1.625   1.909   5.080  1.9750 -3.5121 -1.8297
 8036SOL     OW35566   0.915   1.965  11.253  0.0238  0.4383  0.1594
 8036SOL    HW135567   0.949   1.880  11.280 -0.4477 -0.2229 -1.3635
 8036SOL    HW235568   0.929   1.967  11.159  2.1996 -0.3363  0.4668
 8037SOL     OW35569   3.007   2.513   2.150  0.4890  0.4310 -0.3450
 8037SOL    HW135570   3.030   2.420   2.158  1.6702  0.6511 -1.2234
 8037SOL    HW235571   2.913   2.518   2.133  0.2071 -0.2382  0.9757
 8038SOL     OW35572   3.596   0.320   6.579 -0.0998  0.3690  0.5253
 8038SOL    HW135573   3.608   0.403   6.626  1.0905  1.2114 -1.2582
 8038SOL    HW235574   3.570   0.260   6.649  2.2222  0.3437  1.3636
 8039SOL     OW35575   0.781   3.654   7.785  0.4053  0.4937  0.2903
 8039SOL    HW135576   0.831   3.728   7.820 -1.4164  2.2798 -0.9151
 8039SOL    HW235577   0.841   3.617   7.721  1.0456  1.3962  0.3608
 8040SOL     OW35578   4.722   3.449   5.852 -0.4209 -0.0048 -0.4191
 8040SOL    HW135579   0.065   3.518   5.842 -0.3791 -0.2234 -1.6150
 8040SOL    HW235580   0.036   3.381   5.796 -0.9034 -0.0329 -0.7021
 8041SOL     OW35581   0.894   1.732  14.061  0.4525  0.0111  0.0132
 8041SOL    HW135582   0.857   1.798  14.119 -2.3110 -1.1566 -0.3978
 8041SOL    HW235583   0.902   1.666  14.130  1.9868  1.3199  1.0824
 8042SOL     OW35584   2.977   3.512   4.939  0.3331 -0.7618  0.3953
 8042SOL    HW135585   2.908   3.482   4.998 -0.0229  0.4665  0.5874
 8042SOL    HW235586   3.040   3.538   5.007  0.7971  0.2312 -0.4190
 8043SOL     OW35587   4.323   3.690  11.063 -0.7446  0.6202  0.0131
 8043SOL    HW135588   4.353   3.756  11.126 -0.5800 -1.2379  1.9062
 8043SOL    HW235589   4.240   3.661  11.102 -1.2366  2.7387  0.5323
 8044SOL     OW35590   0.565   1.321   7.999 -0.0593 -0.4126  0.0121
 8044SOL    HW135591   0.644   1.352   7.954  1.5619 -0.2941  2.9200
 8044SOL    HW235592   0.592   1.229   8.001  0.9394 -0.1075  0.5348
 8045SOL     OW35593   1.841   3.064   9.278  0.5357 -0.6074  0.4197
 8045SOL    HW135594   1.850   2.992   9.215 -0.7688 -1.0764  0.7499
 8045SOL    HW235595   1.925   3.052   9.322  0.2524  0.7144  1.2999
 8046SOL     OW35596   0.898   0.712   3.950 -0.2994 -0.6978 -0.1507
 8046SOL    HW135597   0.930   0.627   3.981 -0.9971 -0.5440  0.9863
 8046SOL    HW235598   0.901   0.702   3.855 -0.1938 -1.5242 -0.0579
 8047SOL     OW35599   3.213   1.001   1.784  0.1501  0.0834  0.4532
 8047SOL    HW135600   3.250   0.913   1.784  0.7624  0.3402  0.9878
 8047SOL    HW235601   3.135   0.972   1.737 -0.2830  2.1484 -0.1261
 8048SOL     OW35602   4.451   0.682  13.073 -0.5391 -0.4558 -0.0108
 8048SOL    HW135603   4.501   0.611  13.113 -0.5662  0.7325  2.0877
 8048SOL    HW235604   4.395   0.706  13.147 -0.6644 -0.7845  0.0043
 8049SOL     OW35605   3.905   4.374  14.499  0.1728  0.4085 -0.1089
 8049SOL    HW135606   3.917   4.439  14.568 -1.6151  1.1726 -0.4990
 8049SOL    HW235607   3.995   4.364  14.468 -0.2326  1.8196 -1.7556
 8050SOL     OW35608   2.861   0.151   7.108  0.3181  0.0849 -0.4468
 8050SOL    HW135609   2.864   0.106   7.192 -0.9294 -0.1110 -0.5106
 8050SOL    HW235610   2.949   0.189   7.116 -0.0578  0.9854 -0.6319
 8051SOL     OW35611   4.361   0.310   9.493  0.3715 -0.6641  0.1173
 8051SOL    HW135612   4.275   0.339   9.464  0.2411  1.1199  2.2395
 8051SOL    HW235613   4.418   0.353   9.429 -1.4123  1.2687 -0.1718
 8052SOL     OW35614   3.324   2.722  14.860  0.4242 -0.3584 -0.1797
 8052SOL    HW135615   3.382   2.747  14.933  1.4717  2.6214 -2.0304
 8052SOL    HW235616   3.249   2.773  14.891  0.1094  0.0128 -1.5790
 8053SOL     OW35617   1.888   1.946  16.686 -0.3988  0.6242 -0.0332
 8053SOL    HW135618   1.964   1.934  16.742  0.4536 -0.8993 -1.5195
 8053SOL    HW235619   1.890   1.863  16.638  2.2996 -0.1150  1.4064
 8054SOL     OW35620   4.006   3.341   7.808  0.0329  0.1951 -0.1386
 8054SOL    HW135621   3.987   3.424   7.852  1.4747  0.1740  0.5265
 8054SOL    HW235622   3.946   3.283   7.855  3.3577 -2.6560  0.5250
 8055SOL     OW35623   4.546   2.203   3.863  0.3793  0.0041 -0.1812
 8055SOL    HW135624   4.524   2.241   3.778  2.1730  0.7664 -0.3038
 8055SOL    HW235625   4.639   2.182   3.861  0.4318  0.0907  1.0056
 8056SOL     OW35626   3.450   0.765   5.112  0.1608  0.1535  0.3077
 8056SOL    HW135627   3.506   0.743   5.186  0.9618 -1.7762 -0.8917
 8056SOL    HW235628   3.429   0.675   5.086  0.5316  0.0384  0.4085
 8057SOL     OW35629   4.261   3.249   2.691 -0.6921 -0.6923 -0.5404
 8057SOL    HW135630   4.306   3.186   2.635  1.4361  0.4098 -0.0430
 8057SOL    HW235631   4.299   3.334   2.670 -0.1092 -0.2891  2.0972
 8058SOL     OW35632   1.075   3.723   5.853 -0.0810  0.2741  0.3333
 8058SOL    HW135633   1.020   3.658   5.811 -1.7056  1.0388  1.2799
 8058SOL    HW235634   1.034   3.739   5.938 -0.4202  0.1599  0.1918
 8059SOL     OW35635   1.737   0.954  10.421  0.0022 -0.0520  0.3725
 8059SOL    HW135636   1.642   0.969  10.425 -0.1578 -0.9522 -0.0423
 8059SOL    HW235637   1.764   0.991  10.505  0.9076 -0.9103  0.4501
 8060SOL     OW35638   4.033   2.009   1.521  0.4423  0.4792 -0.4070
 8060SOL    HW135639   4.074   2.083   1.476 -1.2612  1.1248 -0.8689
 8060SOL    HW235640   4.084   2.011   1.602 -2.1322 -0.6223  1.2458
 8061SOL     OW35641   0.692   1.276   9.938  0.0833 -0.1043  1.0298
 8061SOL    HW135642   0.639   1.258   9.861  1.1397  0.6348  0.1312
 8061SOL    HW235643   0.647   1.351   9.976  0.5865  0.3870  0.6561
 8062SOL     OW35644   0.415   1.344   3.581  0.0929 -0.1722 -0.1742
 8062SOL    HW135645   0.330   1.386   3.588  0.6391  0.5904  2.2082
 8062SOL    HW235646   0.444   1.375   3.496 -0.0918  1.4970  0.3799
 8063SOL     OW35647   0.434   1.234   7.493 -0.1249 -0.2023 -0.4509
 8063SOL    HW135648   0.397   1.166   7.437 -2.7480  1.7822 -1.1692
 8063SOL    HW235649   0.503   1.275   7.440 -0.7533 -1.5790 -2.3454
 8064SOL     OW35650   0.339   1.217   8.664  0.6547  0.0496  0.8705
 8064SOL    HW135651   0.351   1.129   8.628  0.9034 -0.0149  1.1210
 8064SOL    HW235652   0.371   1.277   8.596 -0.4960  0.8053  0.9841
 8065SOL     OW35653   0.771   3.342   2.366 -0.3078  0.8388  0.5332
 8065SOL    HW135654   0.684   3.327   2.331 -0.1715 -0.3406  0.6961
 8065SOL    HW235655   0.786   3.437   2.374 -0.8569  1.1265 -1.7974
 8066SOL     OW35656   2.111   3.831   8.130  0.5391 -0.0421 -0.1762
 8066SOL    HW135657   2.085   3.791   8.047 -2.4159  1.1063  0.1948
 8066SOL    HW235658   2.031   3.878   8.153  0.0088 -0.0540 -2.0123
 8067SOL     OW35659   2.784   2.508   2.485 -0.3250  0.4067  0.4253
 8067SOL    HW135660   2.758   2.527   2.395  0.5005 -1.1836 -0.1542
 8067SOL    HW235661   2.845   2.438   2.463 -0.0116  0.1758  2.0379
 8068SOL     OW35662   0.842   1.984  10.481  0.0267  0.8608  0.4860
 8068SOL    HW135663   0.893   2.010  10.404 -0.7611 -1.1665 -0.7384
 8068SOL    HW235664   0.775   1.926  10.445 -1.9363  2.9534  0.7805
 8069SOL     OW35665   3.763   2.120   2.554  0.5452  0.0228  0.6174
 8069SOL    HW135666   3.706   2.154   2.485  1.2733 -1.4903 -0.7267
 8069SOL    HW235667   3.699   2.092   2.620 -0.8838 -2.2379 -1.7464
 8070SOL     OW35668   2.898   3.883  15.347 -0.0744 -0.1238 -0.0890
 8070SOL    HW135669   2.937   3.821  15.409 -2.3238  0.0850  1.5129
 8070SOL    HW235670   2.818   3.833  15.337  0.8969 -2.0984  1.9910
 8071SOL     OW35671   3.213   2.982  13.413 -0.0951  0.4104  1.1372
 8071SOL    HW135672   3.135   3.027  13.447 -0.8292  1.0728 -1.3545
 8071SOL    HW235673   3.271   3.057  13.398  0.0674  0.2079  0.7354
 8072SOL     OW35674   4.105   4.722   3.316  0.2334 -0.1331 -0.1165
 8072SOL    HW135675   4.059   0.056   3.255 -1.6315 -0.6326  0.8093
 8072SOL    HW235676   4.049   4.720   3.394 -2.1005 -0.9698 -1.8036
 8073SOL     OW35677   3.819   1.874   1.073 -0.4154  0.0652  0.0016
 8073SOL    HW135678   3.770   1.823   1.137 -0.0564 -1.5857 -1.0547
 8073SOL    HW235679   3.866   1.802   1.032 -0.5325 -0.1747  0.2905
 8074SOL     OW35680   3.958   0.979   7.641 -0.6675  0.1318  0.4564
 8074SOL    HW135681   3.980   0.977   7.547 -0.5003 -1.6835  0.5253
 8074SOL    HW235682   4.027   1.028   7.686  1.0316 -0.3390 -1.6297
 8075SOL     OW35683   1.450   3.281   2.377 -0.2744  0.3281  0.0542
 8075SOL    HW135684   1.427   3.210   2.317  1.4029  0.0127 -0.2258
 8075SOL    HW235685   1.468   3.358   2.323 -1.7524 -0.2830 -1.3107
 8076SOL     OW35686   1.949   0.437   4.133 -0.0207 -0.2059  0.4805
 8076SOL    HW135687   1.913   0.525   4.125  0.0805 -0.2210 -0.1863
 8076SOL    HW235688   1.891   0.382   4.080  2.2886  0.4708 -2.7691
 8077SOL     OW35689   1.501   1.242   2.397 -0.6360  0.2817  0.5102
 8077SOL    HW135690   1.422   1.291   2.376 -0.9601 -0.6519 -0.5080
 8077SOL    HW235691   1.471   1.164   2.349 -0.0834  0.7169 -0.5554
 8078SOL     OW35692   1.806   3.754  13.045  0.3576 -0.0466  0.1248
 8078SOL    HW135693   1.742   3.824  13.033 -0.7832 -0.9789  0.6838
 8078SOL    HW235694   1.829   3.770  13.137 -2.0917 -0.4284  0.8171
 8079SOL     OW35695   1.769   1.291   8.315 -0.4757 -1.0843 -0.2742
 8079SOL    HW135696   1.730   1.351   8.251 -1.2924 -1.2593  0.0626
 8079SOL    HW235697   1.706   1.224   8.291 -0.9916 -0.6616 -0.1168
 8080SOL     OW35698   1.444   1.442   3.944  0.1038 -0.4735  0.0858
 8080SOL    HW135699   1.524   1.431   3.893 -1.2516 -0.7901 -2.0001
 8080SOL    HW235700   1.430   1.360   3.992 -1.4359 -0.1021  0.2697
 8081SOL     OW35701   2.131   0.726   4.312  0.5648 -0.0685 -0.4225
 8081SOL    HW135702   2.045   0.720   4.269 -0.9467  2.3087  2.2837
 8081SOL    HW235703   2.181   0.669   4.253 -1.3061 -0.5765 -1.5344
 8082SOL     OW35704   1.021   3.604  11.729  0.3539 -0.5042 -0.0593
 8082SOL    HW135705   1.036   3.577  11.819  2.5890  1.1215  0.0499
 8082SOL    HW235706   1.095   3.662  11.710 -0.1772  0.0786 -0.3433
 8083SOL     OW35707   3.570   2.815   7.921 -0.3247 -0.2710 -0.2734
 8083SOL    HW135708   3.589   2.871   7.996 -1.1818  3.0098 -2.5069
 8083SOL    HW235709   3.652   2.767   7.909  0.4501  1.0864 -0.3097
 8084SOL     OW35710   3.341   4.438   9.989  0.1528 -0.0091  0.1828
 8084SOL    HW135711   3.356   4.351  10.027  2.0906  0.1871 -0.1428
 8084SOL    HW235712   3.332   4.491  10.068  1.2145  0.2408  0.1302
 8085SOL     OW35713   1.014   3.669   2.639  0.0164  0.3633 -0.3278
 8085SOL    HW135714   1.058   3.586   2.620  1.4185  0.4571  2.4903
 8085SOL    HW235715   1.064   3.711   2.569  1.4473  1.0100  1.0815
 8086SOL     OW35716   3.411   1.756   8.303  0.6912 -0.1466  0.2911
 8086SOL    HW135717   3.469   1.758   8.227 -0.1899 -1.8532 -0.4432
 8086SOL    HW235718   3.357   1.683   8.271  0.7921  1.0355 -2.6024
 8087SOL     OW35719   3.794   2.510   8.068 -0.1696 -0.2164 -0.2451
 8087SOL    HW135720   3.776   2.538   8.158  0.7911  1.1244 -0.4579
 8087SOL    HW235721   3.799   2.416   8.086 -1.6001  0.3404  3.0134
 8088SOL     OW35722   2.371   3.481  15.009 -0.1063 -0.4984  0.0383
 8088SOL    HW135723   2.294   3.431  15.034  0.6869 -1.5359  0.3878
 8088SOL    HW235724   2.412   3.435  14.935  2.4674  1.2246  0.3895
 8089SOL     OW35725   4.219   2.684   0.190 -0.3051  0.2438 -0.0156
 8089SOL    HW135726   4.148   2.747   0.187 -0.8044 -0.2416  1.6685
 8089SOL    HW235727   4.276   2.697   0.114 -0.0655 -1.5315 -0.1467
 8090SOL     OW35728   3.677   4.373   2.759  0.0924 -0.1833  0.3338
 8090SOL    HW135729   3.648   4.465   2.761  0.7280  0.0201 -0.0635
 8090SOL    HW235730   3.655   4.341   2.672 -1.2096  1.3559  0.0883
 8091SOL     OW35731   1.809   0.486  13.820  0.7580  0.4113  0.4690
 8091SOL    HW135732   1.835   0.418  13.882 -5.0142 -1.4137  0.8730
 8091SOL    HW235733   1.892   0.493  13.772  0.5329 -0.6311 -0.0808
 8092SOL     OW35734   1.990   2.436  12.574 -0.5902  0.1707 -0.3458
 8092SOL    HW135735   2.056   2.435  12.504 -0.4829 -1.9820 -0.2217
 8092SOL    HW235736   2.031   2.371  12.631 -0.9723  0.1210 -0.1269
 8093SOL     OW35737   4.215   2.938   2.441 -0.0230 -0.0914  0.2463
 8093SOL    HW135738   4.263   2.873   2.492  0.1836 -0.0050  0.1599
 8093SOL    HW235739   4.256   3.018   2.472 -0.9517 -0.0784  1.4677
 8094SOL     OW35740   0.266   0.296  15.854 -0.0028 -0.1061 -0.2646
 8094SOL    HW135741   0.200   0.362  15.877  0.2192  0.5026 -1.3491
 8094SOL    HW235742   0.308   0.332  15.776  1.1983  0.8250  0.8088
 8095SOL     OW35743   1.409   3.374  10.497  0.5750 -0.0901  0.4805
 8095SOL    HW135744   1.392   3.343  10.586 -0.9446  1.1687  0.6378
 8095SOL    HW235745   1.387   3.464  10.520 -0.5614 -0.1767 -0.2405
 8096SOL     OW35746   0.281   0.201   6.630  0.1154 -0.2182 -0.2274
 8096SOL    HW135747   0.258   0.224   6.540  0.3566  0.3247 -0.1532
 8096SOL    HW235748   0.265   0.286   6.671  0.8664 -0.4561  0.5557
 8097SOL     OW35749   0.421   3.226   7.911 -0.3821  0.6080 -0.0460
 8097SOL    HW135750   0.429   3.131   7.903  2.3042  0.9210 -1.1725
 8097SOL    HW235751   0.331   3.244   7.885 -0.4644 -1.7715 -1.3833
 8098SOL     OW35752   3.462   2.669  12.087 -0.1746 -0.0708  0.4433
 8098SOL    HW135753   3.398   2.627  12.030 -1.4455  0.8065  1.2420
 8098SOL    HW235754   3.408   2.741  12.120  1.3166  0.7874  1.0552
 8099SOL     OW35755   3.577   0.829   0.089 -0.2591  0.0110  0.2821
 8099SOL    HW135756   3.645   0.847   0.154 -1.7727  1.5801  1.4257
 8099SOL    HW235757   3.548   0.917   0.067 -0.7013  0.1173  1.2795
 8100SOL     OW35758   3.979   1.081   9.202  0.1240 -0.5135  0.1479
 8100SOL    HW135759   3.904   1.096   9.259  0.4760  1.1347  0.1720
 8100SOL    HW235760   4.003   0.994   9.233 -0.3343  0.3703  2.9505
 8101SOL     OW35761   2.444   3.750   5.639  0.2822  0.0893 -0.2206
 8101SOL    HW135762   2.360   3.749   5.592  2.2898  0.1748 -3.7857
 8101SOL    HW235763   2.507   3.792   5.580 -0.8501  1.7465 -0.2488
 8102SOL     OW35764   0.624   4.080   9.478 -0.2593  0.4622 -0.1445
 8102SOL    HW135765   0.607   4.041   9.564 -4.5644  1.0872 -0.7045
 8102SOL    HW235766   0.581   4.164   9.491 -1.1863 -0.3761  2.1341
 8103SOL     OW35767   2.465   0.087   1.126  0.0667 -0.1369 -0.8049
 8103SOL    HW135768   2.474   0.051   1.037 -3.2686  1.7641 -1.9320
 8103SOL    HW235769   2.552   0.074   1.164  0.7889  0.7206 -2.1431
 8104SOL     OW35770   2.812   3.367   7.256  0.4450 -0.1390  0.0153
 8104SOL    HW135771   2.813   3.447   7.307  1.3951 -0.8950  1.1789
 8104SOL    HW235772   2.773   3.406   7.178 -1.8065  0.4222  1.4205
 8105SOL     OW35773   2.956   4.307  17.398 -0.0853  0.6082  0.2143
 8105SOL    HW135774   2.957   4.378  17.333 -1.7871 -0.1983 -0.7016
 8105SOL    HW235775   2.863   4.283  17.400 -0.0822  0.4844 -0.9686
 8106SOL     OW35776   2.790   3.275   8.587 -0.1657  0.0735 -0.1384
 8106SOL    HW135777   2.863   3.269   8.525  0.2785  1.4690  0.2512
 8106SOL    HW235778   2.828   3.280   8.674 -0.1888  1.0964 -0.1849
 8107SOL     OW35779   0.954   3.106  10.491  0.4252 -0.0090 -0.0378
 8107SOL    HW135780   0.945   3.174  10.557 -0.9325  0.3261 -0.5700
 8107SOL    HW235781   0.896   3.123  10.417 -1.1451  0.5908  1.3182
 8108SOL     OW35782   1.213   3.447   2.006  0.8703  0.8294  0.1544
 8108SOL    HW135783   1.307   3.438   2.022  0.8189  0.9463  0.5321
 8108SOL    HW235784   1.183   3.483   2.089 -1.0645 -1.0560  0.2729
 8109SOL     OW35785   1.140   2.819   9.928  0.8178 -0.2536 -0.0191
 8109SOL    HW135786   1.190   2.883   9.879  1.8109 -1.1462 -0.1766
 8109SOL    HW235787   1.197   2.774   9.991  0.7405 -0.2380  0.0618
 8110SOL     OW35788   2.338   2.218   2.872 -0.1578  0.1055 -0.3986
 8110SOL    HW135789   2.414   2.221   2.814  1.2961  1.2823  1.5601
 8110SOL    HW235790   2.288   2.297   2.851  0.2383  0.5885  0.4803
 8111SOL     OW35791   4.569   3.118   4.192 -0.2384  0.3873 -0.4011
 8111SOL    HW135792   4.495   3.173   4.166 -0.9183  1.2587  3.3815
 8111SOL    HW235793   4.631   3.125   4.119 -2.4600  3.2484 -2.0187
 8112SOL     OW35794   2.074   3.416   3.623  0.7194 -0.7648  0.2448
 8112SOL    HW135795   2.051   3.324   3.640 -0.0825 -1.1635 -2.9286
 8112SOL    HW235796   2.138   3.410   3.552  0.0521  1.9341 -0.5933
 8113SOL     OW35797   1.973   0.931  14.336 -0.3059  0.1832 -0.1900
 8113SOL    HW135798   1.901   0.915  14.396  1.1164  0.8922  1.7279
 8113SOL    HW235799   1.943   0.880  14.261 -0.7005  1.7208 -1.0723
 8114SOL     OW35800   1.490   2.946   7.640  0.7471 -0.3870 -0.2409
 8114SOL    HW135801   1.457   2.924   7.553 -0.4436 -0.8422  0.3334
 8114SOL    HW235802   1.443   2.882   7.694  2.3362 -0.4908  1.0091
 8115SOL     OW35803   2.887   2.407   7.585  0.4006 -0.8733 -0.1823
 8115SOL    HW135804   2.854   2.492   7.556  1.4167 -1.0675 -1.8603
 8115SOL    HW235805   2.844   2.402   7.670 -0.4889 -0.5721 -0.6127
 8116SOL     OW35806   1.978   0.063  13.449  0.0531  0.0621 -0.1066
 8116SOL    HW135807   1.941   0.122  13.515  2.2526 -0.3928  1.5124
 8116SOL    HW235808   1.948   0.118  13.377 -0.4271  1.2365  0.9875
 8117SOL     OW35809   1.989   4.571   7.801 -0.0999  0.2349  0.5906
 8117SOL    HW135810   1.931   4.591   7.874 -1.5251 -0.6392 -0.2920
 8117SOL    HW235811   1.927   4.574   7.728  2.1171  1.9829 -1.2126
 8118SOL     OW35812   4.410   3.755   4.156 -0.1853 -0.3840  0.1550
 8118SOL    HW135813   4.470   3.680   4.154  2.7885  2.0123 -0.1098
 8118SOL    HW235814   4.396   3.765   4.250  1.2976 -0.4074  0.3673
 8119SOL     OW35815   1.047   1.280  17.295  0.1161 -0.4945 -0.2368
 8119SOL    HW135816   0.956   1.296  17.269  0.6490  0.1026 -1.6645
 8119SOL    HW235817   1.094   1.353  17.256 -0.6955 -0.2411 -0.7336
 8120SOL     OW35818   2.679   1.583   5.368  0.3596 -0.1849 -0.6294
 8120SOL    HW135819   2.754   1.638   5.347  1.5278 -0.9587  1.4676
 8120SOL    HW235820   2.607   1.629   5.325  0.3711 -2.3416 -2.9208
 8121SOL     OW35821   1.097   3.161   6.748 -0.2972 -0.4761 -0.2801
 8121SOL    HW135822   1.003   3.181   6.747 -0.7595 -2.8165 -1.9157
 8121SOL    HW235823   1.107   3.070   6.723  1.2603 -0.8370  1.6439
 8122SOL     OW35824   1.970   1.650   4.674 -0.1645  0.1979  0.1571
 8122SOL    HW135825   1.941   1.611   4.591 -2.2422 -0.4581  1.1759
 8122SOL    HW235826   2.060   1.668   4.648  0.7758 -5.2388 -0.1972
 8123SOL     OW35827   2.861   3.966   9.050  0.0177  0.2841  0.6926
 8123SOL    HW135828   2.840   3.994   9.139  1.2141  0.3700  0.9509
 8123SOL    HW235829   2.775   3.946   9.013  0.1020  0.9715  0.1294
 8124SOL     OW35830   2.068   4.141   5.215  0.1408 -0.4513 -0.7561
 8124SOL    HW135831   1.981   4.137   5.256  0.1662  0.0056 -0.6583
 8124SOL    HW235832   2.093   4.233   5.213  0.7666 -0.6066  0.0257
 8125SOL     OW35833   1.652   4.656  10.159 -0.0624 -0.6474  0.0530
 8125SOL    HW135834   1.661   4.566  10.127 -1.6686 -0.1747 -1.7038
 8125SOL    HW235835   1.718   4.659  10.229  0.8934 -3.1066 -0.7310
 8126SOL     OW35836   4.049   3.668   2.625  0.4610  0.0967  0.4729
 8126SOL    HW135837   4.017   3.755   2.603  2.9285  0.3794 -2.0807
 8126SOL    HW235838   4.060   3.626   2.539 -1.8916 -0.7176  0.5630
 8127SOL     OW35839   0.802   1.266   5.042 -0.2668 -0.3664  0.1079
 8127SOL    HW135840   0.796   1.345   5.096  3.8201 -1.3093  1.9497
 8127SOL    HW235841   0.773   1.317   4.966 -0.0292 -0.1064  0.1927
 8128SOL     OW35842   0.309   3.775   5.301 -0.2971 -0.4460 -0.1809
 8128SOL    HW135843   0.394   3.803   5.268 -0.3032  1.9883  1.8528
 8128SOL    HW235844   0.274   3.734   5.221 -2.6542  1.6487 -0.2090
 8129SOL     OW35845   3.674   3.771   4.465 -0.6333 -0.3157  0.2218
 8129SOL    HW135846   3.593   3.767   4.515  0.3315 -2.3927  1.6342
 8129SOL    HW235847   3.730   3.727   4.530 -0.2240 -1.2028 -0.7208
 8130SOL     OW35848   2.025   4.627   3.010 -0.0652 -0.9549  0.3475
 8130SOL    HW135849   1.955   4.599   3.069  0.8233 -0.6284  1.5700
 8130SOL    HW235850   2.109   4.601   3.049 -0.4650  0.1329  1.9224
 8131SOL     OW35851   2.248   3.149   5.283 -0.3799 -0.5070 -0.2110
 8131SOL    HW135852   2.159   3.183   5.276 -0.1380  0.5439  1.8785
 8131SOL    HW235853   2.296   3.215   5.233  1.1422  0.4496  2.4898
 8132SOL     OW35854   4.157   3.931   1.741 -0.1757 -0.3763  0.3040
 8132SOL    HW135855   4.071   3.914   1.702 -1.3006  1.8779  1.7960
 8132SOL    HW235856   4.212   3.875   1.687 -0.5612 -1.3037  0.8620
 8133SOL     OW35857   0.928   2.639   7.917 -0.6719 -0.0970 -0.1132
 8133SOL    HW135858   0.857   2.599   7.867 -1.3705  1.8533 -0.6781
 8133SOL    HW235859   0.900   2.727   7.943 -1.8781 -0.5808  0.2165
 8134SOL     OW35860   2.518   1.237   8.306 -0.2244 -0.1449  0.4731
 8134SOL    HW135861   2.525   1.225   8.212  3.0169  1.0909  0.5565
 8134SOL    HW235862   2.470   1.319   8.316 -0.1363  0.0933 -1.1478
 8135SOL     OW35863   1.926   4.015   6.095 -0.0916 -0.4230  0.0029
 8135SOL    HW135864   1.953   4.103   6.071  0.7653 -0.7412 -0.2116
 8135SOL    HW235865   1.940   4.023   6.189 -0.2241 -1.3675  0.1031
 8136SOL     OW35866   0.715   2.297   7.936  0.0923 -0.4048 -0.1036
 8136SOL    HW135867   0.711   2.285   8.031 -0.8666  1.4424  0.0850
 8136SOL    HW235868   0.652   2.369   7.930 -0.2986 -1.0134 -3.4101
 8137SOL     OW35869   3.590   0.329  13.262  0.1515 -0.2098  0.7451
 8137SOL    HW135870   3.585   0.386  13.339 -0.4385  0.0789  0.4940
 8137SOL    HW235871   3.560   0.385  13.190  0.8561 -1.8495 -0.8201
 8138SOL     OW35872   4.623   4.522   3.142  0.3320  0.3402  0.0040
 8138SOL    HW135873   4.693   4.556   3.198 -0.1141 -0.4307  1.0284
 8138SOL    HW235874   4.566   4.596   3.125 -0.8177 -0.8392 -1.3357
 8139SOL     OW35875   2.901   0.260  13.273 -0.0503  0.1945 -0.0221
 8139SOL    HW135876   2.892   0.349  13.239 -0.9239  0.7296  1.6253
 8139SOL    HW235877   2.992   0.266  13.302  0.0402 -1.0822 -0.0562
 8140SOL     OW35878   0.467   2.381  12.531  0.3894 -0.3581 -0.2830
 8140SOL    HW135879   0.502   2.470  12.539  0.9238 -0.6802  1.1086
 8140SOL    HW235880   0.511   2.343  12.455  2.7858 -0.9922  1.3982
 8141SOL     OW35881   1.208   0.819  15.019  0.1417 -0.0306 -0.5041
 8141SOL    HW135882   1.283   0.877  15.032  1.5424 -1.6388 -1.3771
 8141SOL    HW235883   1.137   0.862  15.067 -0.0964  2.6922 -3.3165
 8142SOL     OW35884   3.239   3.878   7.097  0.2094 -0.3435  0.2489
 8142SOL    HW135885   3.332   3.897   7.114  0.4065 -2.2715  1.3030
 8142SOL    HW235886   3.205   3.968   7.101 -0.1597 -0.5272  1.3683
 8143SOL     OW35887   3.487   4.058  11.026  0.2847 -0.1032 -0.0775
 8143SOL    HW135888   3.398   4.037  10.996  1.3334 -0.1346 -3.1801
 8143SOL    HW235889   3.471   4.133  11.083  1.5174  1.1784 -1.4366
 8144SOL     OW35890   2.317   1.298   6.092  0.5340 -0.0493 -0.5531
 8144SOL    HW135891   2.325   1.203   6.095  3.1049  0.1815  0.0165
 8144SOL    HW235892   2.409   1.323   6.106  1.1255 -1.3592 -2.1664
 8145SOL     OW35893   1.762   1.619   7.079 -0.1746 -0.1631 -0.1205
 8145SOL    HW135894   1.803   1.602   7.164  0.1604 -0.1747 -0.2890
 8145SOL    HW235895   1.695   1.685   7.100  1.3707  1.3450  0.0758
 8146SOL     OW35896   4.218   3.910  11.669 -0.1896 -0.7508  0.2081
 8146SOL    HW135897   4.130   3.925  11.704  0.9359  0.5731  2.5242
 8146SOL    HW235898   4.250   3.999  11.653  0.1053 -0.7194  0.9589
 8147SOL     OW35899   3.032   3.369   4.699  0.6331  0.5966  0.0506
 8147SOL    HW135900   3.029   3.424   4.778 -0.9370 -0.9752  1.0773
 8147SOL    HW235901   3.017   3.282   4.735 -2.4177 -0.1839 -3.1082
 8148SOL     OW35902   2.967   2.076   1.096 -0.5773  0.8470  0.0008
 8148SOL    HW135903   2.923   2.070   1.180 -0.3450 -0.6840  0.0065
 8148SOL    HW235904   3.038   2.135   1.121 -0.0280  0.9654 -1.7861
 8149SOL     OW35905   0.741   0.552  12.212  0.9560 -0.6950 -0.4315
 8149SOL    HW135906   0.757   0.511  12.297  0.1652 -0.2078 -0.0462
 8149SOL    HW235907   0.746   0.472  12.160  2.1679 -0.3578 -0.8359
 8150SOL     OW35908   3.482   2.717  11.048 -0.0565 -1.2149  0.1630
 8150SOL    HW135909   3.552   2.747  10.990 -0.7898 -0.9979 -0.6166
 8150SOL    HW235910   3.502   2.769  11.125  0.9938 -1.9523  0.3857
 8151SOL     OW35911   2.760   3.733  16.205  0.0232  0.4563 -0.0456
 8151SOL    HW135912   2.692   3.693  16.260  0.8135 -1.5576 -0.5336
 8151SOL    HW235913   2.722   3.819  16.189  1.3599  1.1623  0.6632
 8152SOL     OW35914   1.017   2.735  13.603 -0.3400 -0.1204  0.7003
 8152SOL    HW135915   0.943   2.757  13.660 -1.7310 -0.1708 -1.0872
 8152SOL    HW235916   0.986   2.744  13.513  1.3043  0.6114  0.2118
 8153SOL     OW35917   3.239   4.089   7.436  0.1837 -0.3043  0.8286
 8153SOL    HW135918   3.171   4.087   7.369  2.9224 -0.3814 -1.9417
 8153SOL    HW235919   3.247   3.996   7.455  0.8239 -0.7798 -1.7792
 8154SOL     OW35920   0.082   3.087   5.438  0.5409  0.5354 -0.2555
 8154SOL    HW135921   0.157   3.033   5.414  0.0230  0.7153 -2.2479
 8154SOL    HW235922   0.013   3.021   5.443  2.4348 -1.3004  1.6514
 8155SOL     OW35923   1.137   2.385   7.839 -0.2212  0.2833 -0.1282
 8155SOL    HW135924   1.227   2.413   7.856 -0.4172  0.6178  0.3601
 8155SOL    HW235925   1.087   2.437   7.902  1.8550  1.1966  0.7819
 8156SOL     OW35926   3.709   2.266   5.936  0.3198  0.5464 -0.0637
 8156SOL    HW135927   3.794   2.265   5.980  1.0094  0.8066 -1.3704
 8156SOL    HW235928   3.659   2.188   5.958 -0.2964  0.9246 -0.1250
 8157SOL     OW35929   0.689   1.122   4.257 -0.0925  0.3435  0.4962
 8157SOL    HW135930   0.604   1.084   4.234  0.3138 -0.3097  0.0557
 8157SOL    HW235931   0.742   1.044   4.274 -0.6383  0.2120  1.5703
 8158SOL     OW35932   1.833   0.127   6.765  0.4392  0.8965 -0.6211
 8158SOL    HW135933   1.749   0.080   6.765  0.5717  0.6659  0.7508
 8158SOL    HW235934   1.890   0.075   6.821 -0.3026  1.1413  0.3660
 8159SOL     OW35935   4.145   4.077  10.460 -0.3760  0.3473  0.1539
 8159SOL    HW135936   4.192   4.124  10.529 -1.8195  2.5578 -0.3945
 8159SOL    HW235937   4.076   4.136  10.429 -0.4235 -0.2253 -0.8295
 8160SOL     OW35938   4.440   1.331   1.511  0.0946  0.8472  0.6457
 8160SOL    HW135939   4.452   1.418   1.550  2.0743  1.7522 -1.9451
 8160SOL    HW235940   4.419   1.366   1.424  1.2391  0.1912  0.1030
 8161SOL     OW35941   2.258   0.601   7.377 -0.4805 -0.4131  0.5940
 8161SOL    HW135942   2.267   0.635   7.466  1.1842  0.1529  0.2103
 8161SOL    HW235943   2.351   0.584   7.364 -0.3128 -0.7175  2.2121
 8162SOL     OW35944   3.167   0.479   2.375 -0.1802 -0.6482 -0.4508
 8162SOL    HW135945   3.133   0.569   2.369 -0.1110 -0.7012 -1.5069
 8162SOL    HW235946   3.133   0.445   2.293 -1.1859  1.2674 -0.8367
 8163SOL     OW35947   3.907   2.892  15.870  0.6749  0.4850 -0.5034
 8163SOL    HW135948   3.856   2.816  15.898 -0.1074  0.8114 -1.0140
 8163SOL    HW235949   3.850   2.964  15.900  1.1996  0.2848  0.9770
 8164SOL     OW35950   0.017   1.859  14.939  0.1884  0.7960  0.1802
 8164SOL    HW135951   0.026   1.887  14.848  0.1311  0.6248  0.1219
 8164SOL    HW235952   0.058   1.773  14.945  0.2710  0.8418  0.2889
 8165SOL     OW35953   3.960   0.196  14.320 -0.0119  0.2693 -0.1162
 8165SOL    HW135954   3.939   0.220  14.410 -1.1006 -2.1971  0.2694
 8165SOL    HW235955   4.014   0.119  14.335 -0.7616 -0.4919 -1.2864
 8166SOL     OW35956   4.171   0.143   5.550  0.7168  0.6386 -0.1563
 8166SOL    HW135957   4.221   0.217   5.584  0.5977 -0.3630  2.1767
 8166SOL    HW235958   4.082   0.177   5.556 -0.5435 -2.6555 -0.2616
 8167SOL     OW35959   2.389   4.132   3.148  0.0731 -0.0878 -0.4133
 8167SOL    HW135960   2.351   4.183   3.219  1.5349 -0.9014  0.9640
 8167SOL    HW235961   2.441   4.075   3.204  0.7898  1.0140  0.0391
 8168SOL     OW35962   0.251   4.487   8.923 -0.3132 -0.2266  0.7434
 8168SOL    HW135963   0.250   4.559   8.986 -2.3641  1.8858 -1.6550
 8168SOL    HW235964   0.164   4.453   8.947 -0.5238  1.3768  2.2396
 8169SOL     OW35965   1.113   0.305   2.795 -0.0347  0.0619  0.0867
 8169SOL    HW135966   1.173   0.246   2.841 -0.1050 -1.1371 -1.3508
 8169SOL    HW235967   1.032   0.263   2.823  1.0236 -0.9178  1.7134
 8170SOL     OW35968   3.138   2.116   5.358 -0.1366  0.1798  0.3736
 8170SOL    HW135969   3.045   2.140   5.357  0.2228  1.5072 -1.1516
 8170SOL    HW235970   3.150   2.065   5.278 -1.2943  0.8481 -0.2373
 8171SOL     OW35971   3.410   2.331  15.288  0.0338 -0.3383 -0.0228
 8171SOL    HW135972   3.409   2.426  15.276 -0.4918 -0.3834 -0.3564
 8171SOL    HW235973   3.440   2.330  15.379 -0.4722 -1.3016  0.1462
 8172SOL     OW35974   3.712   2.992  10.376  0.3558 -0.5453  0.6197
 8172SOL    HW135975   3.804   2.991  10.401  0.7133 -0.2653 -0.7082
 8172SOL    HW235976   3.671   2.968  10.459 -1.4458  0.1195 -0.0706
 8173SOL     OW35977   2.682   2.533   6.883  0.1350  0.2193  0.2339
 8173SOL    HW135978   2.673   2.515   6.790 -4.5333 -0.0934  0.7224
 8173SOL    HW235979   2.774   2.513   6.898  0.3686  0.6183 -0.6700
 8174SOL     OW35980   2.804   0.082   3.932 -0.2163  0.1867 -0.3029
 8174SOL    HW135981   2.767   0.095   4.020  2.8860 -1.1919  1.2193
 8174SOL    HW235982   2.735   0.031   3.892  1.1529 -1.3869 -0.6439
 8175SOL     OW35983   4.365   1.230  11.630 -0.4233 -0.2087 -0.5209
 8175SOL    HW135984   4.347   1.180  11.709  1.0716  1.3140  0.7774
 8175SOL    HW235985   4.458   1.241  11.650 -0.1532 -0.8999 -1.3642
 8176SOL     OW35986   3.312   3.239   4.312 -0.5350  0.0964  0.1252
 8176SOL    HW135987   3.373   3.168   4.333  0.6977  1.8087  2.3096
 8176SOL    HW235988   3.228   3.197   4.291  0.4531 -2.3024  0.9943
 8177SOL     OW35989   1.182   3.417   6.517 -0.1492 -0.5059  0.0637
 8177SOL    HW135990   1.228   3.411   6.433 -2.0938 -0.1885 -1.0119
 8177SOL    HW235991   1.249   3.472   6.558 -0.9977 -0.9286  1.9769
 8178SOL     OW35992   0.198   4.311  14.379 -0.8078  0.7570  0.7177
 8178SOL    HW135993   0.287   4.280  14.363 -0.6075  1.7580 -0.0839
 8178SOL    HW235994   0.216   4.357  14.461  0.3989  0.2210  0.7510
 8179SOL     OW35995   0.310   1.915   6.076  0.5381  0.3722  0.4265
 8179SOL    HW135996   0.330   1.985   6.138 -2.8000  1.3011  0.4452
 8179SOL    HW235997   0.323   1.974   6.001  0.6204 -0.5392 -0.2705
 8180SOL     OW35998   2.111   4.489   7.074 -0.5085  0.4259  0.2691
 8180SOL    HW135999   2.188   4.516   7.125 -0.7573  1.4090  0.1310
 8180SOL    HW236000   2.033   4.514   7.123 -0.6447  0.4779  0.0289
 8181SOL     OW36001   1.496   2.733   3.136 -0.3092  0.0113 -0.3610
 8181SOL    HW136002   1.553   2.791   3.084  1.5332 -0.8258  0.7139
 8181SOL    HW236003   1.566   2.702   3.194 -1.3598  1.2955  1.5924
 8182SOL     OW36004   4.019   2.354   2.616 -0.5914 -0.1445 -0.4237
 8182SOL    HW136005   4.108   2.329   2.590  0.1607  2.1769 -0.0847
 8182SOL    HW236006   3.980   2.379   2.533  0.5242  1.8038 -0.3664
 8183SOL     OW36007   1.727   1.579   1.418 -0.7918  0.1520  0.0986
 8183SOL    HW136008   1.707   1.492   1.384 -1.9100  0.5137 -0.1795
 8183SOL    HW236009   1.695   1.569   1.507 -1.4685  1.7286  0.0393
 8184SOL     OW36010   4.296   1.127   9.930  0.1323  0.0090  0.2724
 8184SOL    HW136011   4.376   1.176   9.947  0.3154 -0.5352  0.9919
 8184SOL    HW236012   4.333   1.045   9.896 -0.3264 -0.3650  0.6616
 8185SOL     OW36013   3.434   2.940   7.247  0.0446  0.4381 -0.7002
 8185SOL    HW136014   3.458   2.849   7.266 -0.6721  0.8510  2.1535
 8185SOL    HW236015   3.395   2.958   7.332  2.1961 -1.1498  0.6572
 8186SOL     OW36016   0.155   0.538  14.751  0.5563  0.2482  0.3426
 8186SOL    HW136017   0.161   0.587  14.669  2.0878  0.0526  0.3230
 8186SOL    HW236018   0.247   0.509  14.747  1.1375  1.8023  2.7191
 8187SOL     OW36019   2.841   4.469  12.116  0.1452  0.0724  0.7757
 8187SOL    HW136020   2.757   4.425  12.129  0.5704 -1.0970 -0.4093
 8187SOL    HW236021   2.810   4.556  12.142  0.5198  0.5995 -0.4979
 8188SOL     OW36022   2.878   2.266  11.301  0.3297 -0.3315 -0.4018
 8188SOL    HW136023   2.851   2.338  11.244 -0.3465 -0.3560 -0.1204
 8188SOL    HW236024   2.973   2.262  11.292  0.2549 -1.4100 -0.6513
 8189SOL     OW36025   1.086   2.690   8.457  0.1309 -0.4558  0.0099
 8189SOL    HW136026   1.177   2.685   8.486  0.7217 -0.6908 -1.9256
 8189SOL    HW236027   1.090   2.771   8.407 -1.5540 -0.5803 -0.3397
 8190SOL     OW36028   0.956   1.608  11.135  0.1839 -0.4636 -0.5457
 8190SOL    HW136029   0.963   1.671  11.207 -0.8091  1.4553 -2.1367
 8190SOL    HW236030   0.987   1.662  11.063  3.2137 -1.1604  0.2231
 8191SOL     OW36031   1.471   4.222   2.622 -0.1580  0.5440  0.0936
 8191SOL    HW136032   1.550   4.174   2.645 -0.5654  0.7421  1.9052
 8191SOL    HW236033   1.418   4.216   2.702 -0.2061 -1.4885 -0.1054
 8192SOL     OW36034   2.542   4.090  14.085  0.1072 -0.2987  0.2617
 8192SOL    HW136035   2.581   4.161  14.136  1.8532 -1.5632  0.7018
 8192SOL    HW236036   2.628   4.056  14.060  0.2596 -0.2109  0.6566
 8193SOL     OW36037   4.610   2.569  10.821  0.6819 -0.1080 -0.8076
 8193SOL    HW136038   4.640   2.656  10.849 -0.2795 -0.4128  1.1986
 8193SOL    HW236039   4.586   2.589  10.731  3.1153 -0.8224 -1.5933
 8194SOL     OW36040   0.366   0.096   3.925 -0.0572 -0.3527 -0.1605
 8194SOL    HW136041   0.367   0.036   4.000  0.3582  2.2343  1.9353
 8194SOL    HW236042   0.458   0.119   3.942 -0.1523  0.0332 -0.1719
 8195SOL     OW36043   3.038   3.370   6.634 -0.2222 -0.0192  0.7826
 8195SOL    HW136044   3.079   3.401   6.715 -0.5362  2.2240  0.1017
 8195SOL    HW236045   3.025   3.457   6.596 -0.8741 -1.1075 -1.4754
 8196SOL     OW36046   0.593   0.085   3.166  0.1498 -0.6511 -0.3529
 8196SOL    HW136047   0.501   0.096   3.142  0.1402  2.0311  0.9189
 8196SOL    HW236048   0.618   0.002   3.125 -2.4644 -0.7156 -1.7888
 8197SOL     OW36049   4.723   4.222   3.789  0.0827  0.0755  0.6756
 8197SOL    HW136050   4.698   4.134   3.817 -0.1949  0.5530  1.9366
 8197SOL    HW236051   0.048   4.257   3.864  1.5251  0.3519 -0.3868
 8198SOL     OW36052   4.699   0.248   4.522  0.7569  0.1790  0.4260
 8198SOL    HW136053   4.626   0.236   4.583 -0.2194  0.9894 -0.5603
 8198SOL    HW236054   0.054   0.227   4.572  0.7130  0.6114  0.6693
 8199SOL     OW36055   0.022   2.736   3.502 -0.1325  0.5615  0.0538
 8199SOL    HW136056   4.722   2.788   3.579 -1.2603  0.9744 -0.5544
 8199SOL    HW236057   0.115   2.753   3.492 -0.2321 -0.5140 -2.5122
 8200SOL     OW36058   1.270   4.121   6.200  0.0651  0.6358 -0.4230
 8200SOL    HW136059   1.345   4.081   6.156  0.1624  1.1014 -0.6767
 8200SOL    HW236060   1.300   4.136   6.290  0.3376 -1.0749 -0.2194
 8201SOL     OW36061   3.023   0.903   3.768 -0.1683  0.3612  0.0839
 8201SOL    HW136062   2.967   0.945   3.833  1.8084  0.4801  1.7072
 8201SOL    HW236063   3.109   0.915   3.809 -0.0866  0.4162 -0.1003
 8202SOL     OW36064   3.122   0.128   8.130  0.6753  0.3513  0.0897
 8202SOL    HW136065   3.202   0.075   8.134  0.4857  0.0025 -0.7097
 8202SOL    HW236066   3.068   0.063   8.086  0.7139 -0.0003  0.5637
 8203SOL     OW36067   3.176   0.670   8.181 -0.1507 -0.5979  0.2347
 8203SOL    HW136068   3.154   0.577   8.181 -1.5571 -0.2575  0.5136
 8203SOL    HW236069   3.117   0.691   8.108 -0.5874 -0.0605  0.7457
 8204SOL     OW36070   2.486   2.405   7.012 -0.3438  0.0985  0.1134
 8204SOL    HW136071   2.554   2.472   7.004  1.1396 -1.3790  0.2574
 8204SOL    HW236072   2.469   2.408   7.106  0.5436  0.8630  0.2519
 8205SOL     OW36073   2.719   2.437   5.500 -0.2058 -0.0253  0.1997
 8205SOL    HW136074   2.711   2.389   5.583  1.0623  0.0010  0.3376
 8205SOL    HW236075   2.782   2.505   5.520  0.6932 -1.1181  1.0940
 8206SOL     OW36076   1.659   4.438  10.889  0.3022 -0.0500 -0.3577
 8206SOL    HW136077   1.663   4.363  10.830  1.8931 -0.2020 -0.0531
 8206SOL    HW236078   1.616   4.511  10.845 -0.0563 -0.8717 -1.3693
 8207SOL     OW36079   4.643   2.658   5.724  0.1960 -0.5308  0.5507
 8207SOL    HW136080   4.709   2.611   5.674  0.1232  0.3462 -0.3636
 8207SOL    HW236081   4.629   2.728   5.661 -0.2002 -0.0548  1.1744
 8208SOL     OW36082   1.846   0.785  16.273  0.0342  0.0124  0.1645
 8208SOL    HW136083   1.861   0.707  16.219 -0.3400 -0.1293  0.2631
 8208SOL    HW236084   1.766   0.760  16.320  0.6139  2.3199  2.3742
 8209SOL     OW36085   2.699   2.657   8.322  0.1625  0.0959 -0.2399
 8209SOL    HW136086   2.676   2.565   8.339  1.2079 -0.3102 -1.0433
 8209SOL    HW236087   2.754   2.688   8.393 -1.3386 -0.0104  0.9855
 8210SOL     OW36088   0.155   0.719   2.289 -0.6558 -0.4386 -0.3603
 8210SOL    HW136089   0.084   0.709   2.226 -2.7519 -0.6598  2.0305
 8210SOL    HW236090   0.231   0.711   2.232 -1.7773 -0.4207 -1.8725
 8211SOL     OW36091   0.862   4.419   3.404 -0.2709 -0.0817 -0.8437
 8211SOL    HW136092   0.886   4.491   3.462 -0.4899 -0.5535 -0.1733
 8211SOL    HW236093   0.916   4.433   3.326  0.9536 -1.9982 -0.3256
 8212SOL     OW36094   0.756   1.342  17.246  0.3609  0.5900  0.4654
 8212SOL    HW136095   0.751   1.433  17.275  2.9332  1.3981 -1.6755
 8212SOL    HW236096   0.738   1.348  17.152 -1.7394 -0.6516  0.7753
 8213SOL     OW36097   2.820   1.441  16.325  1.0786 -0.2065  0.3451
 8213SOL    HW136098   2.890   1.495  16.361  0.4957  0.3786  0.5927
 8213SOL    HW236099   2.794   1.486  16.244  0.0721  0.4067  1.0158
 8214SOL     OW36100   1.280   1.770   5.480  0.2226 -0.0777  0.1211
 8214SOL    HW136101   1.207   1.808   5.528  1.8348  3.1981 -0.0312
 8214SOL    HW236102   1.362   1.794   5.522  0.7680 -1.7935  0.0094
 8215SOL     OW36103   3.702   2.964   5.751  0.4296  0.7938 -0.3776
 8215SOL    HW136104   3.659   2.881   5.728  1.2771  0.3291 -0.2551
 8215SOL    HW236105   3.635   2.994   5.813 -0.2973 -2.0715  0.1865
 8216SOL     OW36106   3.196   1.347   5.282 -0.0017  0.4798 -0.1663
 8216SOL    HW136107   3.253   1.406   5.332  0.7459 -1.1021  0.8655
 8216SOL    HW236108   3.215   1.258   5.314 -2.7796 -0.3700 -0.8869
 8217SOL     OW36109   1.299   2.912  10.397 -0.0462 -0.2168 -0.2779
 8217SOL    HW136110   1.229   2.977  10.388  1.4903  1.5786  0.7506
 8217SOL    HW236111   1.337   2.949  10.477  1.5965  0.3323 -1.3212
 8218SOL     OW36112   1.833   2.765  11.458  1.0051 -0.0734 -0.4764
 8218SOL    HW136113   1.893   2.837  11.439  0.1796 -0.1354 -3.3291
 8218SOL    HW236114   1.833   2.764  11.553 -0.2406 -0.0005 -0.4751
 8219SOL     OW36115   2.088   3.995   3.500 -0.1780  0.0354  0.1331
 8219SOL    HW136116   2.150   3.935   3.459 -0.5553  2.2800 -3.7838
 8219SOL    HW236117   2.146   4.061   3.538  2.1539 -1.5610 -0.6403
 8220SOL     OW36118   1.573   4.268   6.415  0.0196 -0.0339  0.0592
 8220SOL    HW136119   1.532   4.344   6.373 -1.5604 -1.3213 -0.7436
 8220SOL    HW236120   1.493   4.222   6.441 -0.5600  0.6640 -0.4955
 8221SOL     OW36121   3.439   2.622   3.626 -0.4287 -0.5968 -0.1758
 8221SOL    HW136122   3.396   2.673   3.557  0.9934 -0.9455 -1.3329
 8221SOL    HW236123   3.383   2.612   3.702 -0.2322  0.8759  0.1632
 8222SOL     OW36124   2.690   1.037   0.456  0.1118 -0.2535 -0.4762
 8222SOL    HW136125   2.663   1.115   0.505  2.3456 -0.6822  1.4296
 8222SOL    HW236126   2.601   1.010   0.434  0.1039 -2.1450  1.9102
 8223SOL     OW36127   0.564   1.669   4.230 -0.4393 -0.1354  0.1871
 8223SOL    HW136128   0.490   1.633   4.279 -2.1505  3.4841  0.2763
 8223SOL    HW236129   0.633   1.612   4.263 -1.1397 -1.6271 -0.9533
 8224SOL     OW36130   3.497   4.308   3.500  0.0845 -0.3223 -0.1128
 8224SOL    HW136131   3.532   4.380   3.448 -1.3733  0.3254 -0.1798
 8224SOL    HW236132   3.568   4.258   3.540 -0.4250 -0.9299  0.0373
 8225SOL     OW36133   3.748   0.610   4.464 -0.2890  0.4792  0.2799
 8225SOL    HW136134   3.674   0.609   4.525 -0.8313 -1.7055 -0.4210
 8225SOL    HW236135   3.793   0.691   4.486  0.8609 -0.1839  0.3429
 8226SOL     OW36136   3.192   3.877   1.099 -0.1371  0.1059 -0.1881
 8226SOL    HW136137   3.269   3.857   1.153  1.2444  5.6641 -0.0670
 8226SOL    HW236138   3.113   3.862   1.152 -1.3467  1.3185 -1.6711
 8227SOL     OW36139   1.627   4.605  15.041 -0.1132 -0.5180 -0.2202
 8227SOL    HW136140   1.687   4.632  15.111  1.1073 -0.2960 -1.3594
 8227SOL    HW236141   1.554   4.662  15.065 -0.3437  0.1877 -2.6660
 8228SOL     OW36142   0.620   1.916   6.538  0.8386  0.1429  0.5837
 8228SOL    HW136143   0.579   1.830   6.550 -0.0717  0.5051  0.0643
 8228SOL    HW236144   0.689   1.909   6.603  0.5439  1.3504  1.0226
 8229SOL     OW36145   1.179   3.573   4.820 -0.3309 -0.1545 -0.1177
 8229SOL    HW136146   1.223   3.553   4.903  2.9385  1.1014 -1.5387
 8229SOL    HW236147   1.150   3.484   4.797 -2.1436  0.6010 -0.7128
 8230SOL     OW36148   3.151   4.476   2.254 -0.0486 -0.0059 -0.4959
 8230SOL    HW136149   3.179   4.553   2.206 -0.7822 -0.2861 -1.3811
 8230SOL    HW236150   3.201   4.496   2.333 -0.8508 -3.8405  1.0139
 8231SOL     OW36151   2.512   1.821  10.416  0.5180  0.3368  0.2305
 8231SOL    HW136152   2.534   1.844  10.506 -1.8321  1.7089  0.4697
 8231SOL    HW236153   2.504   1.726  10.423  1.3033  0.2314 -0.2926
 8232SOL     OW36154   1.001   3.112   9.108 -0.1266 -0.2688 -0.5341
 8232SOL    HW136155   1.044   3.160   9.037  2.1638  1.8016  2.2120
 8232SOL    HW236156   0.917   3.107   9.064  0.0475 -0.7474 -0.8106
 8233SOL     OW36157   3.181   3.696   4.803 -0.3393  0.1811 -0.0422
 8233SOL    HW136158   3.214   3.626   4.859  0.8894  0.8167  0.0262
 8233SOL    HW236159   3.105   3.719   4.857 -0.2062 -1.0475  0.6676
 8234SOL     OW36160   3.716   1.146   4.080  0.7435 -0.1780  0.6567
 8234SOL    HW136161   3.718   1.062   4.127  1.7203  0.5131  1.8431
 8234SOL    HW236162   3.626   1.180   4.086  0.8763  0.1564  0.7375
 8235SOL     OW36163   3.817   3.723   1.945 -0.3829 -0.6401 -0.6341
 8235SOL    HW136164   3.745   3.745   2.005  0.0979  1.5203 -0.8717
 8235SOL    HW236165   3.768   3.680   1.874  0.7157 -1.6025 -0.8141
 8236SOL     OW36166   4.113   3.630   3.122 -0.0360 -0.3393 -0.4138
 8236SOL    HW136167   4.036   3.637   3.179  0.7415 -2.3856  0.8682
 8236SOL    HW236168   4.066   3.613   3.040 -0.9701  0.7040 -0.1069
 8237SOL     OW36169   1.240   1.348   2.318 -0.0824 -0.0614  0.3253
 8237SOL    HW136170   1.197   1.275   2.274  0.5898 -0.4746  0.3644
 8237SOL    HW236171   1.165   1.408   2.313  1.2398  1.3884 -2.3080
 8238SOL     OW36172   1.145   4.688  12.944  0.0498 -0.1180  0.2066
 8238SOL    HW136173   1.065   4.639  12.962 -0.7857  2.5433  3.8860
 8238SOL    HW236174   1.202   4.643  13.006 -1.0433  1.1254  2.1512
 8239SOL     OW36175   3.689   0.885   0.887 -0.3643 -0.8511 -0.1993
 8239SOL    HW136176   3.729   0.901   0.801 -0.9899  0.7191 -0.2050
 8239SOL    HW236177   3.745   0.818   0.926  0.0841  0.1524  0.8827
 8240SOL     OW36178   1.733   1.802   8.615  0.0856 -0.1211 -0.6112
 8240SOL    HW136179   1.709   1.794   8.522  1.9325  0.1941 -1.1061
 8240SOL    HW236180   1.756   1.710   8.630 -0.2884  0.2916  2.4692
 8241SOL     OW36181   2.561   1.416  12.161 -0.3519  0.1583  0.1405
 8241SOL    HW136182   2.566   1.511  12.149  0.4221  0.0688 -0.2376
 8241SOL    HW236183   2.516   1.387  12.081  0.6751  0.5669 -0.5749
 8242SOL     OW36184   1.626   0.880   5.597  0.3003 -0.2158 -0.0990
 8242SOL    HW136185   1.619   0.825   5.519 -1.1659 -1.2989  0.8132
 8242SOL    HW236186   1.556   0.839   5.647  1.9155  1.7079  3.7433
 8243SOL     OW36187   3.209   3.346   8.599 -0.4850  0.1582  0.3756
 8243SOL    HW136188   3.125   3.389   8.579  0.4383  2.6095  1.8389
 8243SOL    HW236189   3.254   3.377   8.521  0.0549 -0.7815  0.3167
 8244SOL     OW36190   0.208   0.589   9.053 -0.5800  0.2643  0.3551
 8244SOL    HW136191   0.237   0.574   9.143  2.8426 -2.6897 -1.2413
 8244SOL    HW236192   0.152   0.665   9.068 -0.9179  0.3784 -1.5190
 8245SOL     OW36193   3.244   4.044   4.876  0.5944  0.2678 -0.4102
 8245SOL    HW136194   3.190   3.966   4.869 -0.6491  1.2492 -1.5417
 8245SOL    HW236195   3.241   4.063   4.783 -0.6794 -3.4615 -1.1162
 8246SOL     OW36196   4.309   0.520   1.666  0.4158 -0.7239 -0.2713
 8246SOL    HW136197   4.391   0.470   1.664 -0.4257 -2.1045 -0.7601
 8246SOL    HW236198   4.275   0.493   1.751 -1.9396 -1.4672 -1.4387
 8247SOL     OW36199   2.333   0.056  16.594 -0.3045 -0.1526  0.0041
 8247SOL    HW136200   2.391   0.078  16.521 -1.4120  1.2237 -0.4741
 8247SOL    HW236201   2.258   0.018  16.548  0.2155 -0.3166 -0.7149
 8248SOL     OW36202   0.711   0.405   9.172 -0.2456 -0.3547 -0.7250
 8248SOL    HW136203   0.695   0.392   9.266  1.5376 -0.0254 -0.3657
 8248SOL    HW236204   0.703   0.316   9.139  0.7508 -0.1446 -1.5225
 8249SOL     OW36205   4.401   0.578   4.979  0.0306  0.0985 -0.2727
 8249SOL    HW136206   4.437   0.574   5.067  1.9016 -0.0810 -1.0404
 8249SOL    HW236207   4.449   0.508   4.934 -1.4259 -0.3924 -1.0799
 8250SOL     OW36208   2.560   3.296   2.990  0.1576  0.5254  0.1872
 8250SOL    HW136209   2.560   3.224   2.926 -2.0848  1.8527 -1.3183
 8250SOL    HW236210   2.654   3.303   3.010  0.6227 -0.0471 -1.7778
 8251SOL     OW36211   4.565   2.124   5.573 -0.3500 -0.1430  0.2331
 8251SOL    HW136212   4.475   2.137   5.603 -0.9389  0.1543 -1.6544
 8251SOL    HW236213   4.563   2.124   5.477 -0.7367 -1.7332  0.2403
 8252SOL     OW36214   2.524   4.445  12.425 -0.4379 -0.3039 -0.0894
 8252SOL    HW136215   2.578   4.367  12.431 -0.2963 -0.2110 -0.1653
 8252SOL    HW236216   2.568   4.496  12.357 -0.2016  3.0603  2.6128
 8253SOL     OW36217   2.669   4.100   5.444 -0.3180 -0.0470 -0.0935
 8253SOL    HW136218   2.711   4.031   5.497 -0.0909  1.0420  1.1393
 8253SOL    HW236219   2.693   4.071   5.356  1.5711  0.5999  0.1943
 8254SOL     OW36220   1.246   1.963   7.987  0.1543  0.5396 -0.7981
 8254SOL    HW136221   1.186   2.034   8.007  0.4311 -0.2142  2.7076
 8254SOL    HW236222   1.285   1.994   7.905 -0.4196  2.4152 -0.3514
 8255SOL     OW36223   2.056   2.256   4.325 -0.7123  0.1698  0.6174
 8255SOL    HW136224   2.093   2.243   4.413 -1.3794  3.4482  1.3785
 8255SOL    HW236225   2.118   2.322   4.293 -1.0765 -0.5908 -1.6511
 8256SOL     OW36226   4.420   2.066  17.492  0.1009 -0.3643 -0.0213
 8256SOL    HW136227   4.330   2.037  17.476  0.2762 -0.0500 -1.5959
 8256SOL    HW236228   4.432   2.006  17.566  0.7641 -2.4361 -1.7916
 8257SOL     OW36229   0.951   1.507   3.665 -0.3078 -0.2835 -0.3195
 8257SOL    HW136230   1.004   1.456   3.603  0.9638  1.3677 -0.6003
 8257SOL    HW236231   0.894   1.438   3.698  0.3596 -0.6886 -0.0260
 8258SOL     OW36232   1.565   2.818   6.401 -0.1824 -0.1963  0.0629
 8258SOL    HW136233   1.591   2.774   6.482 -1.4563 -0.7326  0.1891
 8258SOL    HW236234   1.649   2.845   6.364  0.3800 -0.2382  1.2722
 8259SOL     OW36235   4.246   0.011   1.022 -0.1889 -0.3336  0.5649
 8259SOL    HW136236   4.322   4.719   1.080  0.2800 -0.2190 -0.0195
 8259SOL    HW236237   4.250   4.648   0.979 -0.5561 -0.7093  1.2717
 8260SOL     OW36238   1.912   2.933   7.675  0.4861  0.2016  0.5571
 8260SOL    HW136239   1.935   2.939   7.768 -1.2742 -1.3220  1.0737
 8260SOL    HW236240   1.987   2.967   7.626  1.5998  0.5358  2.4626
 8261SOL     OW36241   1.214   3.768  10.541  0.8776 -0.0006  0.1210
 8261SOL    HW136242   1.244   3.736  10.626  0.4278  3.1901  1.4826
 8261SOL    HW236243   1.245   3.697  10.485 -0.4759  0.7086 -1.5232
 8262SOL     OW36244   3.356   0.382   5.283  0.4025 -0.3339  0.1070
 8262SOL    HW136245   3.372   0.319   5.353 -0.2483  1.5602  1.9555
 8262SOL    HW236246   3.261   0.375   5.279  0.3717 -0.3429  0.8960
 8263SOL     OW36247   1.468   1.327  15.658 -0.3648 -0.1440 -0.2286
 8263SOL    HW136248   1.392   1.277  15.628  0.1848 -0.2923 -1.3799
 8263SOL    HW236249   1.444   1.417  15.638 -2.0253  0.0159  2.4251
 8264SOL     OW36250   3.417   2.603   1.380 -0.2863  0.0135 -0.1823
 8264SOL    HW136251   3.455   2.618   1.467 -1.1876 -1.5684  0.4881
 8264SOL    HW236252   3.348   2.670   1.375 -0.1993 -0.0790 -2.8332
 8265SOL     OW36253   1.392   2.512  10.314 -0.1690 -0.1246  0.2109
 8265SOL    HW136254   1.436   2.584  10.360  2.1920 -0.6412 -1.2443
 8265SOL    HW236255   1.470   2.456  10.316 -0.5187 -0.6338 -0.4350
 8266SOL     OW36256   2.330   0.339   0.596  0.0621  0.0720  0.5010
 8266SOL    HW136257   2.411   0.389   0.603  0.5534 -0.5811 -0.5814
 8266SOL    HW236258   2.278   0.404   0.549  3.1635  1.5396 -0.8778
 8267SOL     OW36259   2.789   0.456  13.957 -0.2730  0.1384  0.2272
 8267SOL    HW136260   2.848   0.526  13.930 -3.2907  2.3504 -0.5676
 8267SOL    HW236261   2.722   0.504  14.005 -0.7217 -0.2647  0.0033
 8268SOL     OW36262   1.049   2.982   3.674 -0.2231  0.1824  0.0588
 8268SOL    HW136263   1.105   2.909   3.698  0.0811  0.5828  0.5688
 8268SOL    HW236264   1.055   2.988   3.579 -2.5094 -1.1605 -0.1523
 8269SOL     OW36265   2.578   3.670  11.046  0.4349 -0.1077  0.1439
 8269SOL    HW136266   2.534   3.753  11.025  2.3156  0.8054 -0.2329
 8269SOL    HW236267   2.658   3.703  11.006  1.4019 -2.6247  0.0284
 8270SOL     OW36268   2.410   2.892   2.397 -0.2103  0.1062 -0.1084
 8270SOL    HW136269   2.458   2.973   2.377  0.0701 -0.0980 -0.2739
 8270SOL    HW236270   2.320   2.912   2.372 -0.5466 -2.5801 -1.0505
 8271SOL     OW36271   0.749   4.689   4.843 -0.2643  0.5270  0.2893
 8271SOL    HW136272   0.821   0.029   4.848 -0.3419  0.5385  1.2015
 8271SOL    HW236273   0.762   4.658   4.753  0.3632 -1.8089  1.1728
 8272SOL     OW36274   2.652   1.426  14.715 -0.1416 -1.1900  0.0230
 8272SOL    HW136275   2.713   1.499  14.710 -2.2216  0.5178 -0.3109
 8272SOL    HW236276   2.577   1.477  14.746  0.1375 -0.7087 -0.1007
 8273SOL     OW36277   2.319   0.876   4.452 -0.1982 -0.6169  0.0716
 8273SOL    HW136278   2.257   0.819   4.408  0.6773 -1.1078 -0.5219
 8273SOL    HW236279   2.277   0.961   4.441 -0.1357 -0.6426 -0.3702
 8274SOL     OW36280   2.998   0.166   2.356 -0.7637  0.5124  0.1509
 8274SOL    HW136281   2.989   0.253   2.394  1.4327  0.9868 -0.4374
 8274SOL    HW236282   2.957   0.108   2.421 -0.4244 -0.7432 -0.7556
 8275SOL     OW36283   2.861   1.886   9.045 -0.0752  0.2849 -0.3222
 8275SOL    HW136284   2.770   1.859   9.058  0.3427 -1.7784 -1.6410
 8275SOL    HW236285   2.906   1.818   9.094 -2.4514  0.2366  1.7833
 8276SOL     OW36286   0.769   4.004   0.339 -0.0458  0.1544  0.0165
 8276SOL    HW136287   0.722   4.087   0.343  0.2844  0.3448 -0.0457
 8276SOL    HW236288   0.783   3.998   0.244  2.1498  0.6750  0.3178
 8277SOL     OW36289   1.274   3.780   0.023 -0.3680 -0.5844 -0.7024
 8277SOL    HW136290   1.330   3.855   0.003  0.5048 -0.8723  0.7008
 8277SOL    HW236291   1.307   3.760   0.110 -0.9451  0.3756 -0.2562
 8278SOL     OW36292   4.646   0.680  11.610 -0.0997  0.7947  0.6629
 8278SOL    HW136293   4.628   0.745  11.542 -3.0265  0.2627  0.9116
 8278SOL    HW236294   0.017   0.693  11.629 -0.0512  1.1186  0.1942
 8279SOL     OW36295   2.225   1.121   5.802 -0.0762  0.3462  0.2564
 8279SOL    HW136296   2.151   1.173   5.832 -0.5703 -1.6555  2.5452
 8279SOL    HW236297   2.233   1.155   5.713  0.4610  0.3442  0.3062
 8280SOL     OW36298   0.018   3.585   2.692  0.2086  0.1405  0.5723
 8280SOL    HW136299   0.010   3.632   2.776 -0.1853 -0.1249  0.6834
 8280SOL    HW236300   0.111   3.591   2.671  0.1688 -1.3228 -0.0226
 8281SOL     OW36301   2.814   0.094   6.146  0.2987 -0.2438  0.7647
 8281SOL    HW136302   2.774   0.031   6.087 -0.6813 -0.7874  2.0061
 8281SOL    HW236303   2.794   0.055   6.231 -0.1602 -0.4744  0.5494
 8282SOL     OW36304   4.316   1.789   8.570 -0.3447  0.0389 -0.1377
 8282SOL    HW136305   4.294   1.863   8.627 -1.0019 -1.7272  1.8772
 8282SOL    HW236306   4.246   1.726   8.588 -0.0950  0.4904  2.3338
 8283SOL     OW36307   0.028   3.162  16.880 -0.3276  0.5769  0.2473
 8283SOL    HW136308   4.666   3.182  16.840  1.1973  0.5865 -2.9718
 8283SOL    HW236309   0.084   3.225  16.835  0.4886 -0.4647 -0.1978
 8284SOL     OW36310   3.640   1.641   7.255  0.3974  0.1634 -0.3843
 8284SOL    HW136311   3.720   1.692   7.241 -0.1424  1.2459  0.5169
 8284SOL    HW236312   3.576   1.709   7.237  2.5875  1.5062 -3.1345
 8285SOL     OW36313   2.425   4.321   3.384  0.3543  0.4577 -0.0778
 8285SOL    HW136314   2.414   4.415   3.391  0.9109  0.4276  1.2037
 8285SOL    HW236315   2.512   4.305   3.348  0.7751  0.3074  0.9952
 8286SOL     OW36316   0.028   2.232   7.751  0.8188  0.4071 -0.3626
 8286SOL    HW136317   0.066   2.203   7.668 -1.0837 -1.7637 -0.4882
 8286SOL    HW236318   0.094   2.193   7.809  0.4511 -1.8860 -1.4666
 8287SOL     OW36319   3.609   1.209  10.900  0.4325  0.3632 -0.1827
 8287SOL    HW136320   3.676   1.278  10.897  0.9201 -0.1512 -1.5402
 8287SOL    HW236321   3.612   1.201  10.995  1.7461  0.4895 -0.2130
 8288SOL     OW36322   2.891   1.827  12.057 -0.4035 -0.2237  0.2429
 8288SOL    HW136323   2.905   1.783  12.141  1.1453  0.0534  0.1292
 8288SOL    HW236324   2.928   1.912  12.081  0.6161 -0.9770  1.3570
 8289SOL     OW36325   2.459   0.561   2.660  0.4927 -0.0474  0.7449
 8289SOL    HW136326   2.401   0.614   2.604  2.8916  1.5750 -0.1885
 8289SOL    HW236327   2.412   0.480   2.678  0.2917 -0.3414 -1.0951
 8290SOL     OW36328   3.705   3.347   2.319  0.4931 -0.6117  0.0300
 8290SOL    HW136329   3.731   3.313   2.405  2.0443 -0.5831 -0.4146
 8290SOL    HW236330   3.746   3.281   2.263  0.4158 -0.9899  0.4198
 8291SOL     OW36331   1.092   1.189   3.133 -0.8775  0.2150  0.5521
 8291SOL    HW136332   1.106   1.138   3.053 -2.5893 -0.0775  0.4416
 8291SOL    HW236333   1.031   1.250   3.091 -0.1265  0.3215 -0.3861
 8292SOL     OW36334   4.329   0.422  16.329  0.1716  0.3683  0.0192
 8292SOL    HW136335   4.378   0.496  16.293 -2.7183  1.7246 -1.0929
 8292SOL    HW236336   4.395   0.353  16.344  0.6983  0.7993 -0.3000
 8293SOL     OW36337   2.320   1.480  17.154 -0.7966  0.8609  0.0462
 8293SOL    HW136338   2.290   1.486  17.063 -1.5432 -0.8832  0.1750
 8293SOL    HW236339   2.332   1.573  17.175 -0.3918  0.1972  2.6907
 8294SOL     OW36340   0.392   1.490   4.963 -0.1131 -0.1615 -0.2506
 8294SOL    HW136341   0.381   1.496   4.868 -2.2445  2.6635  0.1639
 8294SOL    HW236342   0.485   1.481   4.980  0.0323 -0.8292 -1.3981
 8295SOL     OW36343   0.139   1.118   8.960 -0.8468  1.0242  0.3889
 8295SOL    HW136344   0.053   1.159   8.969 -0.4735  1.7845  0.4743
 8295SOL    HW236345   0.156   1.088   9.049 -0.1303  1.7521  0.4974
 8296SOL     OW36346   2.977   3.701   8.920 -0.4613  0.3716 -0.7738
 8296SOL    HW136347   2.946   3.688   9.010  0.2423  2.5005 -0.2173
 8296SOL    HW236348   2.894   3.691   8.874 -0.7893 -0.0879 -0.0747
 8297SOL     OW36349   2.026   3.299   7.958 -0.5947  0.9358  0.5490
 8297SOL    HW136350   2.100   3.354   7.983  1.7594 -1.4340 -1.3060
 8297SOL    HW236351   2.074   3.228   7.916  0.4573  0.7624  2.0305
 8298SOL     OW36352   1.932   2.144  10.154  0.1955 -0.0186 -0.2344
 8298SOL    HW136353   1.847   2.188  10.149  0.2088  0.0414  0.0388
 8298SOL    HW236354   1.915   2.059  10.114  1.6691 -0.8294  0.8450
 8299SOL     OW36355   0.402   1.783  11.752 -0.4354 -0.1552 -0.5185
 8299SOL    HW136356   0.434   1.824  11.832 -0.5338 -0.2830 -0.4159
 8299SOL    HW236357   0.356   1.706  11.785 -1.7980  0.4611 -0.9935
 8300SOL     OW36358   4.266   4.254   1.990  0.2666  0.6060  0.2210
 8300SOL    HW136359   4.314   4.198   2.052  2.1536  2.2412  0.2577
 8300SOL    HW236360   4.244   4.331   2.044 -1.5590  0.9099 -0.9866
 8301SOL     OW36361   4.311   0.015   4.676 -0.0161 -0.3775  0.4021
 8301SOL    HW136362   4.218   0.005   4.654 -0.0323  1.3668 -0.3104
 8301SOL    HW236363   4.321   4.676   4.748  1.7060  0.0916  0.5601
 8302SOL     OW36364   3.543   2.988   1.865  0.2709  0.1210 -0.0261
 8302SOL    HW136365   3.576   3.063   1.914  1.4799 -0.1064 -0.5036
 8302SOL    HW236366   3.452   3.018   1.860  0.2240  0.1502  0.8389
 8303SOL     OW36367   3.180   1.573   8.779 -0.0239 -0.0657  0.1153
 8303SOL    HW136368   3.085   1.572   8.788 -0.1027 -1.4234 -0.9423
 8303SOL    HW236369   3.207   1.594   8.869  0.6891  0.3343 -0.1920
 8304SOL     OW36370   1.366   0.647   7.342  0.4393 -0.3738  0.4146
 8304SOL    HW136371   1.369   0.555   7.314 -0.2958 -0.2905  0.0716
 8304SOL    HW236372   1.389   0.690   7.260 -0.3705  1.9387  1.4058
 8305SOL     OW36373   3.473   2.928  10.557  0.1233  0.4881  0.2153
 8305SOL    HW136374   3.434   2.845  10.583  3.7375 -0.4573  2.5962
 8305SOL    HW236375   3.502   2.957  10.643 -0.0549 -0.5548  0.6177
 8306SOL     OW36376   2.305   0.738   6.262  0.1208 -0.3044 -0.0627
 8306SOL    HW136377   2.312   0.804   6.331 -2.1259 -0.4810  0.3191
 8306SOL    HW236378   2.318   0.792   6.184  1.0414  0.2870  0.4952
 8307SOL     OW36379   2.548   4.194  12.901 -0.3200 -0.0491  0.3232
 8307SOL    HW136380   2.527   4.125  12.838 -0.4588  0.5807 -0.3178
 8307SOL    HW236381   2.621   4.145  12.941  0.0364  0.4423  0.2836
 8308SOL     OW36382   1.959   0.933   6.691  0.7164 -0.3026  0.3585
 8308SOL    HW136383   1.919   0.860   6.738 -0.9020  0.6494  0.4569
 8308SOL    HW236384   1.958   0.997   6.762  1.5581 -0.6184  0.6464
 8309SOL     OW36385   0.735   2.548  11.900  0.8050 -0.6686 -0.5903
 8309SOL    HW136386   0.731   2.629  11.951 -1.1904 -0.6771 -0.7220
 8309SOL    HW236387   0.830   2.545  11.893  0.9778 -0.0991  1.6053
 8310SOL     OW36388   2.794   1.260   3.235 -0.7956 -0.0093  0.0459
 8310SOL    HW136389   2.718   1.314   3.255 -0.6787 -0.0396  0.5798
 8310SOL    HW236390   2.782   1.250   3.141 -0.1538 -1.6593  0.1335
 8311SOL     OW36391   0.345   4.122   2.680 -0.4455  0.1424  0.4725
 8311SOL    HW136392   0.358   4.193   2.743 -1.7777 -1.3866  2.4787
 8311SOL    HW236393   0.358   4.049   2.740 -1.4504 -0.3771  0.0673
 8312SOL     OW36394   3.113   0.175   3.579  0.4657  0.3389 -0.0524
 8312SOL    HW136395   3.181   0.111   3.561 -1.4593 -1.3287 -1.3996
 8312SOL    HW236396   3.029   0.129   3.582  0.2765  0.6670 -0.3285
 8313SOL     OW36397   3.931   1.147   0.813  0.1702 -0.0436 -0.1311
 8313SOL    HW136398   3.907   1.058   0.788  2.2726 -0.7221  0.2103
 8313SOL    HW236399   3.913   1.191   0.730  4.0872  0.8502 -0.5056
 8314SOL     OW36400   0.551   4.325   7.227  0.0018 -0.2721  0.2112
 8314SOL    HW136401   0.502   4.262   7.280 -2.5108  1.5274  0.0621
 8314SOL    HW236402   0.509   4.319   7.141  0.4209  0.8356 -0.0723
 8315SOL     OW36403   3.983   3.281   7.058  0.1199 -0.6188  0.4865
 8315SOL    HW136404   4.044   3.343   7.099 -0.8452 -0.5089  1.7459
 8315SOL    HW236405   4.014   3.201   7.101  1.5127 -0.4643 -0.2419
 8316SOL     OW36406   3.273   0.124   6.002 -0.2128 -0.2054 -0.7036
 8316SOL    HW136407   3.321   0.043   5.988 -1.8153 -0.9710 -1.7639
 8316SOL    HW236408   3.233   0.101   6.086  0.0002 -2.1225 -1.1426
 8317SOL     OW36409   3.607   0.193   0.157  0.0742  0.4119 -0.4342
 8317SOL    HW136410   3.634   0.280   0.187 -2.1334  1.2383 -0.8561
 8317SOL    HW236411   3.534   0.210   0.097 -1.6553  0.8418  1.7800
 8318SOL     OW36412   0.058   2.990   4.588  0.0896 -0.4173  0.7323
 8318SOL    HW136413   4.693   2.950   4.592  0.3580 -1.1546 -0.5161
 8318SOL    HW236414   0.104   2.947   4.660 -0.9575 -2.3363  0.2655
 8319SOL     OW36415   0.415   0.700   2.999 -0.1469 -0.4509 -0.2150
 8319SOL    HW136416   0.422   0.728   2.907 -1.2948  2.7560  0.6609
 8319SOL    HW236417   0.397   0.791   3.025 -2.5029 -1.0732  0.3657
 8320SOL     OW36418   3.160   0.027  15.528  0.0005 -0.1867  0.2683
 8320SOL    HW136419   3.202   4.664  15.515  2.6471  1.0864  0.3522
 8320SOL    HW236420   3.233   0.086  15.544 -1.4428  2.0706 -1.4664
 8321SOL     OW36421   2.240   3.046   7.073  0.5354  0.5256  0.1120
 8321SOL    HW136422   2.149   3.021   7.089  0.8230 -1.4276 -1.2871
 8321SOL    HW236423   2.290   3.015   7.149 -1.5758 -0.8567  0.9290
 8322SOL     OW36424   3.673   4.600   7.726  0.3486  0.2480 -0.3606
 8322SOL    HW136425   3.625   4.607   7.809 -0.1663 -0.4465 -0.5983
 8322SOL    HW236426   3.659   4.507   7.711  0.5561  0.4311 -1.6676
 8323SOL     OW36427   3.281   2.909  10.886  0.8247 -0.3030 -0.3056
 8323SOL    HW136428   3.365   2.937  10.922 -1.5462  1.7452  3.6219
 8323SOL    HW236429   3.304   2.860  10.807 -0.4132  0.0991 -0.9132
 8324SOL     OW36430   4.271   0.187   5.009  0.0185  0.2430  0.2090
 8324SOL    HW136431   4.250   0.168   4.918  3.1906  1.0344 -0.7076
 8324SOL    HW236432   4.193   0.228   5.047 -1.1522 -0.8445 -1.0444
 8325SOL     OW36433   0.841   2.414   5.982  0.7646 -0.1382 -0.0195
 8325SOL    HW136434   0.858   2.508   5.978  0.8308 -0.1367  0.3059
 8325SOL    HW236435   0.772   2.399   5.918  0.9246 -2.8379  0.4161
 8326SOL     OW36436   2.828   0.874   2.234  0.4617  0.3055 -0.4197
 8326SOL    HW136437   2.895   0.898   2.169  1.7811  1.6915  1.4439
 8326SOL    HW236438   2.791   0.792   2.199 -0.8607  1.2790 -1.3008
 8327SOL     OW36439   3.746   2.422  15.486  0.1749 -0.3667  0.0860
 8327SOL    HW136440   3.657   2.409  15.517 -0.3052  0.6525 -0.9138
 8327SOL    HW236441   3.757   2.367  15.409 -0.9094 -0.1676 -0.2052
 8328SOL     OW36442   2.864   0.883  13.195  0.7097 -0.6294 -0.4185
 8328SOL    HW136443   2.907   0.968  13.189  1.4802 -0.9358  0.7238
 8328SOL    HW236444   2.804   0.887  13.120  1.9915 -1.5008 -1.5036
 8329SOL     OW36445   2.397   1.758   6.849  0.0858 -0.5384  0.4556
 8329SOL    HW136446   2.319   1.704   6.850 -1.6712  1.9814 -0.1532
 8329SOL    HW236447   2.367   1.823   6.912 -1.1095  1.1308 -1.8174
 8330SOL     OW36448   0.647   3.480   4.866  0.2370 -0.3543  0.6887
 8330SOL    HW136449   0.581   3.518   4.808  1.7621  0.2122 -0.6810
 8330SOL    HW236450   0.706   3.439   4.803 -0.7869 -0.4444 -0.2130
 8331SOL     OW36451   4.459   3.460   0.045 -0.1766 -0.3625  0.4971
 8331SOL    HW136452   4.473   3.457   0.140 -2.6658  2.0587  0.9253
 8331SOL    HW236453   4.364   3.469   0.035  0.5632  2.8108 -3.7659
 8332SOL     OW36454   2.320   4.260  15.472  0.3371  0.4400 -0.0006
 8332SOL    HW136455   2.306   4.332  15.411  3.0215  0.7506 -0.2694
 8332SOL    HW236456   2.393   4.213  15.431 -0.7934  0.3668 -1.9294
 8333SOL     OW36457   3.127   4.352   0.625 -0.2898 -0.2964 -0.2195
 8333SOL    HW136458   3.042   4.382   0.656  0.0170  0.0420  0.2932
 8333SOL    HW236459   3.114   4.372   0.532 -2.1254 -0.2343  0.0517
 8334SOL     OW36460   1.060   4.710   7.194 -0.0703 -0.4164 -0.5088
 8334SOL    HW136461   1.120   4.637   7.210 -0.8464 -0.5325  1.8239
 8334SOL    HW236462   1.004   4.711   7.271  0.0919  1.1656 -0.4044
 8335SOL     OW36463   3.758   0.129   7.792  0.3029 -0.3101 -0.1730
 8335SOL    HW136464   3.729   0.051   7.746 -0.2900  0.0810 -0.4572
 8335SOL    HW236465   3.690   0.196   7.782 -1.1134 -1.4238  1.9273
 8336SOL     OW36466   2.314   3.995   9.564  0.0039 -0.1711 -0.4314
 8336SOL    HW136467   2.390   4.046   9.535  1.0181 -1.8616 -0.7417
 8336SOL    HW236468   2.348   3.910   9.590 -1.6286 -0.7541 -0.2219
 8337SOL     OW36469   1.498   3.505   4.078  0.4161 -0.7349 -0.2507
 8337SOL    HW136470   1.415   3.514   4.124  1.3860  0.8587  1.2391
 8337SOL    HW236471   1.463   3.495   3.989 -0.2435  2.8992 -0.4146
 8338SOL     OW36472   3.984   3.136   3.173 -0.1959 -0.3286  0.5581
 8338SOL    HW136473   3.958   3.045   3.160  1.3915 -0.9141  1.4604
 8338SOL    HW236474   4.051   3.146   3.105 -2.1940 -0.3221 -1.3814
 8339SOL     OW36475   3.473   1.182   3.876  0.6639  0.0940  0.3850
 8339SOL    HW136476   3.448   1.138   3.957 -3.4610  0.3166 -0.7789
 8339SOL    HW236477   3.419   1.260   3.874 -1.0016 -1.0514  0.5870
 8340SOL     OW36478   1.458   1.099   0.666  0.4075 -0.0807 -0.0632
 8340SOL    HW136479   1.472   1.186   0.704 -1.7285  0.0843  0.3554
 8340SOL    HW236480   1.419   1.117   0.580  0.7841  2.6999  0.3490
 8341SOL     OW36481   2.621   2.102   8.784  0.3279  0.3330  0.6988
 8341SOL    HW136482   2.686   2.036   8.759 -0.0005  0.6520 -1.0223
 8341SOL    HW236483   2.598   2.058   8.866 -0.8322 -0.1721  0.0987
 8342SOL     OW36484   0.136   4.035   5.624  0.0843  0.2913 -0.4328
 8342SOL    HW136485   0.218   3.990   5.605  1.1039  2.2879 -0.7392
 8342SOL    HW236486   0.082   3.956   5.629  2.4861 -1.2666  1.1834
 8343SOL     OW36487   3.226   0.054  13.505  0.1255  0.1198 -0.0778
 8343SOL    HW136488   3.134   0.038  13.486  0.8885 -0.9744 -2.8424
 8343SOL    HW236489   3.239   4.701  13.564  1.7343  1.2148  0.9781
 8344SOL     OW36490   0.233   1.563   3.214 -0.7169  0.2360  0.1799
 8344SOL    HW136491   0.249   1.488   3.157 -1.0957 -1.0250  1.7599
 8344SOL    HW236492   0.257   1.523   3.298  1.4864 -0.7570 -0.9277
 8345SOL     OW36493   4.203   0.512   3.165 -0.4165  0.2425  0.0925
 8345SOL    HW136494   4.213   0.590   3.221  2.8403  0.4573 -0.7989
 8345SOL    HW236495   4.112   0.518   3.139 -0.0437  1.0679 -1.0047
 8346SOL     OW36496   4.720   4.280   7.187 -0.5671 -0.3434 -0.0781
 8346SOL    HW136497   4.648   4.269   7.250 -1.2931 -0.6644 -0.9564
 8346SOL    HW236498   4.693   4.354   7.133  1.1821 -0.1461 -0.6821
 8347SOL     OW36499   3.653   2.282   2.882  0.3210 -0.0196  0.4542
 8347SOL    HW136500   3.600   2.208   2.911 -0.3001  0.4458  0.5058
 8347SOL    HW236501   3.652   2.347   2.952 -1.9792  1.1261 -0.6039
 8348SOL     OW36502   1.912   2.459   9.301 -0.5669 -1.2394  0.2377
 8348SOL    HW136503   1.872   2.471   9.215 -3.2485  1.1523  1.8001
 8348SOL    HW236504   1.884   2.543   9.339  1.5664 -0.3182 -0.2142
 8349SOL     OW36505   2.444   1.354  15.372 -0.4393 -0.5458  0.3074
 8349SOL    HW136506   2.385   1.426  15.391 -0.0816  0.0424 -0.8196
 8349SOL    HW236507   2.520   1.384  15.422  0.2666 -1.1500 -0.3847
 8350SOL     OW36508   2.672   4.639   7.971  0.5137 -0.4715  0.6245
 8350SOL    HW136509   2.704   4.680   7.891  1.0724  1.8716  2.0602
 8350SOL    HW236510   2.683   4.714   8.030 -1.8141 -0.5406  1.1631
 8351SOL     OW36511   2.604   4.418   4.051 -0.6671 -0.0651 -0.3562
 8351SOL    HW136512   2.619   4.390   4.141  1.8121 -1.6800 -1.2673
 8351SOL    HW236513   2.558   4.338   4.023 -2.2706  1.2495 -1.4868
 8352SOL     OW36514   4.573   0.825  12.885  0.8686 -0.0458 -0.2555
 8352SOL    HW136515   4.533   0.793  12.804  2.7394 -1.9623 -0.4148
 8352SOL    HW236516   4.519   0.786  12.953  0.4146  0.9203 -0.0579
 8353SOL     OW36517   4.640   3.291   7.705  0.1448 -0.6113  0.3412
 8353SOL    HW136518   4.648   3.340   7.623 -2.9793 -0.1803  0.3173
 8353SOL    HW236519   4.576   3.348   7.748 -1.5983 -2.7059  0.4723
 8354SOL     OW36520   0.328   4.510  10.592 -0.7848 -0.0167  0.0626
 8354SOL    HW136521   0.318   4.582  10.654  2.7105 -1.5099  2.2977
 8354SOL    HW236522   0.402   4.545  10.543 -0.4217 -0.3640  0.3629
 8355SOL     OW36523   1.110   2.988  13.356  0.5870 -0.5441  0.0589
 8355SOL    HW136524   1.139   2.968  13.267  0.3384  0.1099 -0.1668
 8355SOL    HW236525   1.048   2.916  13.369  0.5680  0.0260  3.0325
 8356SOL     OW36526   3.923   1.495   9.020  0.1307 -0.2110 -0.1590
 8356SOL    HW136527   3.864   1.487   9.095 -0.1356  2.0094 -0.1251
 8356SOL    HW236528   3.906   1.586   8.996 -0.0890 -0.2934 -0.3122
 8357SOL     OW36529   4.149   2.354   4.977  0.5035 -0.1362  0.3286
 8357SOL    HW136530   4.163   2.404   5.058 -2.1724  0.6951  0.2707
 8357SOL    HW236531   4.061   2.319   4.990  0.1644  0.7201  0.3042
 8358SOL     OW36532   0.122   2.294   8.392  0.3360  0.0731  0.2662
 8358SOL    HW136533   0.051   2.293   8.457  0.7472  0.6189  0.7350
 8358SOL    HW236534   0.186   2.239   8.437 -0.0326 -2.3931 -2.2212
 8359SOL     OW36535   3.848   0.976  10.703  0.0369 -0.1725 -0.1974
 8359SOL    HW136536   3.806   0.896  10.674  0.0488  0.3803 -1.7615
 8359SOL    HW236537   3.844   0.970  10.798  1.1820 -1.2579 -0.2155
 8360SOL     OW36538   1.757   1.539   8.614 -0.2331  0.6863  0.4483
 8360SOL    HW136539   1.718   1.451   8.608 -3.2372  1.8780  2.5484
 8360SOL    HW236540   1.827   1.533   8.679  0.6107 -0.6211 -0.5835
 8361SOL     OW36541   3.716   2.853  15.562  0.4993 -0.0460  0.2242
 8361SOL    HW136542   3.780   2.793  15.602  0.0636 -0.6114  0.0697
 8361SOL    HW236543   3.742   2.853  15.470 -0.0414 -1.1133  0.0773
 8362SOL     OW36544   3.281   4.586   8.661  0.2413 -0.1695  0.0534
 8362SOL    HW136545   3.356   4.640   8.636 -0.2948  0.8042  0.5632
 8362SOL    HW236546   3.207   4.641   8.636 -0.5335 -0.1848  2.3909
 8363SOL     OW36547   4.516   2.099   0.981  0.0103 -0.4362  0.6689
 8363SOL    HW136548   4.499   2.021   0.928 -0.7639 -0.5542  1.0930
 8363SOL    HW236549   4.427   2.125   1.001  0.1780  0.9603 -0.4657
 8364SOL     OW36550   0.032   3.961  11.065  0.1281 -0.2040 -0.8965
 8364SOL    HW136551   0.097   3.992  11.129  0.0302 -3.2602  0.6765
 8364SOL    HW236552   0.007   4.039  11.016 -1.4473  0.3593  0.7786
 8365SOL     OW36553   1.309   2.366   2.601 -0.4795  0.9466 -0.0706
 8365SOL    HW136554   1.290   2.274   2.586  0.2177  0.8812 -0.5451
 8365SOL    HW236555   1.397   2.356   2.637  0.1504 -0.8415 -2.1402
 8366SOL     OW36556   0.531   1.033   1.846 -0.1854 -0.1627 -0.4508
 8366SOL    HW136557   0.559   1.056   1.934  1.4833  0.6937 -1.2193
 8366SOL    HW236558   0.442   1.000   1.857 -0.3728  1.0362  1.6154
 8367SOL     OW36559   3.723   1.810  17.420 -0.5317 -0.5423  0.6418
 8367SOL    HW136560   3.766   1.860  17.351  0.6498 -1.7096  0.5407
 8367SOL    HW236561   3.793   1.745  17.427 -1.3905 -1.6459 -1.1904
 8368SOL     OW36562   3.607   3.950   4.720 -0.0502 -0.1710  1.1000
 8368SOL    HW136563   3.538   3.895   4.683 -0.9002  1.8948 -0.3725
 8368SOL    HW236564   3.605   3.926   4.813  3.4968  0.0786  1.2459
 8369SOL     OW36565   3.356   2.565   9.082 -0.4559 -0.2165 -0.2386
 8369SOL    HW136566   3.414   2.504   9.126 -0.1376  0.6881  0.6064
 8369SOL    HW236567   3.412   2.615   9.023 -0.9903  1.2608  0.4986
 8370SOL     OW36568   0.028   3.090   6.569  0.3602  0.2845  0.2742
 8370SOL    HW136569   4.663   3.093   6.608 -0.3534  0.1416 -1.3029
 8370SOL    HW236570   0.025   3.013   6.512 -0.1135 -0.4362  1.2752
 8371SOL     OW36571   2.859   0.931   6.709  0.4332  0.0337  0.6991
 8371SOL    HW136572   2.811   0.893   6.782  1.8874 -1.5759  0.8169
 8371SOL    HW236573   2.814   0.907   6.628  3.2073  0.1434 -0.8910
 8372SOL     OW36574   1.972   3.222   5.241 -0.0410 -0.1454  0.5397
 8372SOL    HW136575   1.896   3.168   5.263  1.2718 -1.0909  2.7197
 8372SOL    HW236576   1.966   3.286   5.313  1.0160  2.7852 -1.9617
 8373SOL     OW36577   1.019   0.279   5.100  0.0801 -0.7297 -0.0038
 8373SOL    HW136578   1.103   0.243   5.130  0.8434 -0.0352 -1.3475
 8373SOL    HW236579   0.961   0.209   5.130 -1.5790 -1.0447 -4.0416
 8374SOL     OW36580   3.827   1.573   0.475  0.0524 -0.1758  0.4756
 8374SOL    HW136581   3.856   1.623   0.398 -0.4237  0.3479  0.6424
 8374SOL    HW236582   3.733   1.588   0.479  0.4502  2.0336  1.6522
 8375SOL     OW36583   4.313   4.616   8.681 -0.1892  0.4811 -0.2240
 8375SOL    HW136584   4.373   4.691   8.680  0.3577  0.0680  0.6837
 8375SOL    HW236585   4.252   4.642   8.612  0.0612  1.4308 -0.0916
 8376SOL     OW36586   3.463   2.165   6.980 -0.5095 -0.4343  0.0388
 8376SOL    HW136587   3.463   2.249   7.025  0.1115 -1.1938  1.4487
 8376SOL    HW236588   3.382   2.184   6.931  0.7772  3.8912 -0.4236
 8377SOL     OW36589   3.301   1.030   7.925 -0.1136  0.1035 -0.7669
 8377SOL    HW136590   3.392   1.004   7.910 -1.3655 -3.6836 -1.8500
 8377SOL    HW236591   3.314   1.015   8.019  3.3819  0.0836 -1.2536
 8378SOL     OW36592   1.638   0.930   0.788 -0.6172 -0.5725  0.2576
 8378SOL    HW136593   1.563   0.962   0.739 -1.5153 -0.6090  1.5912
 8378SOL    HW236594   1.692   0.892   0.719 -2.8877 -3.8331  0.2620
 8379SOL     OW36595   3.643   4.633  14.433 -0.1034  0.3216 -0.4557
 8379SOL    HW136596   3.624   4.541  14.419  0.0097 -0.0443  1.8097
 8379SOL    HW236597   3.668   4.663  14.345 -1.0924 -1.4263 -1.3305
 8380SOL     OW36598   0.127   4.609   8.647 -0.7470  0.1307 -0.2453
 8380SOL    HW136599   0.200   4.659   8.685 -0.9001  1.0539 -1.1554
 8380SOL    HW236600   0.086   4.599   8.732  1.3120 -0.2525  0.7046
 8381SOL     OW36601   1.101   0.498   5.333  0.3331 -0.8129  0.1285
 8381SOL    HW136602   1.020   0.454   5.359 -0.9386  0.5280 -1.5722
 8381SOL    HW236603   1.146   0.424   5.294  1.6783 -0.2570  0.6310
 8382SOL     OW36604   2.962   0.728   2.941  0.4223  0.1752 -0.2268
 8382SOL    HW136605   3.047   0.693   2.969  0.9384  1.9637  0.4626
 8382SOL    HW236606   2.902   0.658   2.964  0.8103 -0.3678 -0.8818
 8383SOL     OW36607   0.067   2.184  11.295 -0.1799 -0.1947 -0.4010
 8383SOL    HW136608   0.155   2.176  11.331 -1.0302 -0.8006  1.5272
 8383SOL    HW236609   0.060   2.279  11.294  1.6642 -0.0503  1.1558
 8384SOL     OW36610   3.580   0.691   5.343  0.3511  0.1055 -0.3002
 8384SOL    HW136611   3.668   0.691   5.380  0.7412  0.9445 -1.2428
 8384SOL    HW236612   3.521   0.710   5.417 -0.8528 -3.3849 -0.3815
 8385SOL     OW36613   2.962   1.302   2.971 -0.3396 -0.1870  0.3129
 8385SOL    HW136614   2.868   1.306   2.988 -1.0063  0.1575 -3.4734
 8385SOL    HW236615   2.974   1.210   2.949  0.3740  0.1900 -0.8821
 8386SOL     OW36616   3.619   4.482   4.914  0.2901  0.1841 -0.4344
 8386SOL    HW136617   3.534   4.475   4.957  0.8893 -2.5202  0.3620
 8386SOL    HW236618   3.597   4.434   4.834 -0.4846 -0.3783  0.1129
 8387SOL     OW36619   2.324   2.166   5.065  0.3985 -0.1620 -0.1891
 8387SOL    HW136620   2.239   2.158   5.108 -0.3577  2.4471 -1.2216
 8387SOL    HW236621   2.384   2.105   5.109  0.7018  1.3825  1.5611
 8388SOL     OW36622   4.220   1.506  11.996  0.6033  0.1344  0.5266
 8388SOL    HW136623   4.189   1.419  11.969  0.3913 -0.1199  1.5994
 8388SOL    HW236624   4.178   1.519  12.081  0.3148  0.0529  0.3967
 8389SOL     OW36625   3.226   4.608  13.717  0.0153  0.2108 -0.1086
 8389SOL    HW136626   3.263   4.528  13.755 -1.5149 -0.8059 -0.7222
 8389SOL    HW236627   3.143   4.614  13.765  0.4236  0.3694  0.5645
 8390SOL     OW36628   2.159   0.184  15.356  0.6375  0.2246  0.7117
 8390SOL    HW136629   2.130   0.270  15.326  1.0045  0.4300  0.9514
 8390SOL    HW236630   2.140   0.184  15.449 -0.6140 -1.5853  0.4663
 8391SOL     OW36631   2.940   1.456  12.102  0.1118  0.0251 -0.3258
 8391SOL    HW136632   2.870   1.492  12.047  0.4191  0.0580 -0.7001
 8391SOL    HW236633   3.011   1.519  12.086 -0.2414  0.4998 -0.0555
 8392SOL     OW36634   2.686   3.607   9.609  0.4404 -0.2680  0.1357
 8392SOL    HW136635   2.661   3.669   9.541  2.7518  0.8525  0.3343
 8392SOL    HW236636   2.646   3.525   9.579  1.6953 -1.7237  2.4443
 8393SOL     OW36637   0.073   2.910  12.228 -0.3148 -0.7271 -0.0373
 8393SOL    HW136638   0.054   2.915  12.321 -2.1345 -3.3518 -0.2454
 8393SOL    HW236639   0.147   2.849  12.224 -1.0599 -1.6395  0.0220
 8394SOL     OW36640   0.604   4.149   3.979  0.1957 -0.4660  0.4910
 8394SOL    HW136641   0.542   4.128   3.910  0.6485 -1.3039  0.3474
 8394SOL    HW236642   0.598   4.073   4.036  1.1067 -1.4139 -0.6892
 8395SOL     OW36643   1.249   1.200  10.424 -0.3114  1.0408 -0.2555
 8395SOL    HW136644   1.258   1.295  10.433  0.4792  1.0137 -0.7726
 8395SOL    HW236645   1.255   1.168  10.515 -0.6086  2.4968  0.2733
 8396SOL     OW36646   3.573   4.310   0.811  0.1012  0.5715 -0.3541
 8396SOL    HW136647   3.593   4.274   0.898  0.1545 -0.8163 -0.9448
 8396SOL    HW236648   3.492   4.265   0.788  0.9657 -1.3843  0.3810
 8397SOL     OW36649   2.791   4.103   6.313 -0.0321  0.1922  0.0484
 8397SOL    HW136650   2.781   4.067   6.225  1.0238 -0.3059  0.1252
 8397SOL    HW236651   2.714   4.159   6.325 -1.3180 -1.6304  0.3299
 8398SOL     OW36652   1.096   2.621   3.540 -0.0361 -0.0434 -0.1533
 8398SOL    HW136653   1.161   2.550   3.543 -1.4779 -1.3296  0.8624
 8398SOL    HW236654   1.034   2.588   3.475 -0.4665 -1.7211  1.0944
 8399SOL     OW36655   0.984   2.216   6.855 -0.0839 -0.1891 -0.4237
 8399SOL    HW136656   1.061   2.263   6.886 -0.3899  1.5610 -2.3440
 8399SOL    HW236657   0.950   2.195   6.942 -0.9673  1.9275 -0.2776
 8400SOL     OW36658   3.925   2.083  12.604  0.4746 -0.4263 -0.0535
 8400SOL    HW136659   3.996   2.029  12.638 -0.8305 -2.2046 -0.1213
 8400SOL    HW236660   3.976   2.131  12.539  0.4618  1.4386  1.3365
 8401SOL     OW36661   1.669   2.881  10.210 -0.1780  0.0870 -0.5030
 8401SOL    HW136662   1.689   2.970  10.239 -2.9100  0.1605  1.2124
 8401SOL    HW236663   1.606   2.860  10.279 -1.2320 -3.8988 -2.6462
 8402SOL     OW36664   2.019   3.159   6.447  0.2501 -0.3535  0.0530
 8402SOL    HW136665   1.945   3.164   6.508  1.2085 -1.1576  1.2788
 8402SOL    HW236666   1.989   3.200   6.366 -1.4609 -2.7647 -0.5266
 8403SOL     OW36667   1.147   0.496   4.632  0.0687 -0.0719 -0.4452
 8403SOL    HW136668   1.190   0.462   4.710  2.1546  3.8316  0.1299
 8403SOL    HW236669   1.198   0.467   4.557 -1.6435  0.4070 -1.7937
 8404SOL     OW36670   2.596   1.164   3.585 -0.2324 -0.5359 -0.1846
 8404SOL    HW136671   2.683   1.127   3.570 -0.8210 -1.3243 -1.6926
 8404SOL    HW236672   2.577   1.189   3.494  0.1514  0.0259 -0.1136
 8405SOL     OW36673   3.421   2.682   2.944 -0.2077 -0.2518  0.1173
 8405SOL    HW136674   3.326   2.690   2.934  0.1387  2.3023 -1.0074
 8405SOL    HW236675   3.426   2.590   2.970 -3.7225 -1.1748 -2.4163
 8406SOL     OW36676   0.184   3.826   4.140  0.4244  0.0819  0.2126
 8406SOL    HW136677   0.268   3.862   4.112 -0.0951 -1.0927 -2.8922
 8406SOL    HW236678   0.181   3.745   4.088  0.9745 -0.6442  1.3077
 8407SOL     OW36679   1.598   3.022   3.103  0.5904 -0.5977  0.0447
 8407SOL    HW136680   1.631   3.110   3.086  0.6269 -0.7212 -0.5134
 8407SOL    HW236681   1.647   2.966   3.042  0.4483 -0.5965 -0.0725
 8408SOL     OW36682   0.086   0.892  14.916  0.5750  0.1794  0.3046
 8408SOL    HW136683   0.074   0.799  14.939 -0.6891  0.1202 -0.6419
 8408SOL    HW236684   0.069   0.929  15.002  0.7467  1.9447 -0.4382
 8409SOL     OW36685   3.314   0.226   7.173 -0.1353  0.5360 -0.0092
 8409SOL    HW136686   3.328   0.132   7.187 -0.8340  0.3277 -0.7530
 8409SOL    HW236687   3.267   0.254   7.251 -1.7277 -3.9858  0.6688
 8410SOL     OW36688   0.393   0.518  10.252  0.2227 -0.4190 -0.2614
 8410SOL    HW136689   0.483   0.523  10.222  0.0226 -0.3634 -0.8514
 8410SOL    HW236690   0.341   0.554  10.180  0.4950  1.0170  0.2518
 8411SOL     OW36691   2.944   4.152   4.626 -0.1229  0.3384 -0.2366
 8411SOL    HW136692   2.939   4.219   4.558  0.2830 -0.2171 -0.8176
 8411SOL    HW236693   3.036   4.126   4.616 -0.0862  0.4330 -0.1348
 8412SOL     OW36694   3.810   2.012   5.770  0.6804  0.3028 -0.2624
 8412SOL    HW136695   3.804   1.926   5.728 -0.2198  0.7361 -1.0174
 8412SOL    HW236696   3.821   1.991   5.863  0.3147 -0.5913 -0.4244
 8413SOL     OW36697   3.354   1.304   7.996  0.0816  0.2885  0.1106
 8413SOL    HW136698   3.357   1.213   7.967 -0.5275  0.2779  0.0713
 8413SOL    HW236699   3.280   1.307   8.057  1.3449  0.9398  1.5970
 8414SOL     OW36700   1.760   2.392   9.080 -0.1621  0.0305 -0.1734
 8414SOL    HW136701   1.708   2.343   9.016  0.9401  0.3296 -1.2896
 8414SOL    HW236702   1.847   2.371   9.045  0.1501  1.2153 -0.0853
 8415SOL     OW36703   3.578   0.068   3.879 -0.1879 -0.3897 -0.5696
 8415SOL    HW136704   3.613   4.704   3.901 -0.9071 -0.2867  0.9842
 8415SOL    HW236705   3.490   0.064   3.917 -0.4106  0.1053 -1.0355
 8416SOL     OW36706   0.449   2.424   3.307  0.2026  0.2834  0.1445
 8416SOL    HW136707   0.436   2.423   3.212  2.0015  0.0671 -0.0975
 8416SOL    HW236708   0.359   2.408   3.336  0.1276 -0.2756 -0.3872
 8417SOL     OW36709   2.667   1.890   7.667 -0.2306 -0.2232 -0.8160
 8417SOL    HW136710   2.725   1.966   7.673  0.4773 -0.8205 -0.1879
 8417SOL    HW236711   2.725   1.818   7.691 -1.7805 -1.1541  0.1172
 8418SOL     OW36712   2.070   0.308   6.262  0.0680 -0.1505  0.9301
 8418SOL    HW136713   2.076   0.404   6.270 -0.6961 -0.0231 -0.0136
 8418SOL    HW236714   2.073   0.280   6.354 -0.2599 -0.4977  0.8332
 8419SOL     OW36715   0.549   0.933   5.486 -0.2870  0.2698  0.0004
 8419SOL    HW136716   0.535   0.897   5.399  1.3331  2.8624 -1.3419
 8419SOL    HW236717   0.532   0.852   5.534  0.8780 -0.4692 -0.8573
 8420SOL     OW36718   2.128   4.026   2.847 -0.4920  0.3302  0.2062
 8420SOL    HW136719   2.061   4.091   2.826  0.1348  0.9383  0.0768
 8420SOL    HW236720   2.116   3.970   2.770  1.2724  0.7762 -0.3883
 8421SOL     OW36721   1.211   3.565   9.587  0.1050  0.2402  0.4214
 8421SOL    HW136722   1.181   3.536   9.673  0.4698  1.0150  0.8145
 8421SOL    HW236723   1.124   3.590   9.556 -0.4471 -1.0071  0.9964
 8422SOL     OW36724   0.062   3.242  11.965  0.2366  0.1654  0.2101
 8422SOL    HW136725   4.693   3.258  11.943  0.9128  0.6967 -2.2469
 8422SOL    HW236726   0.098   3.241  11.876  1.7806 -0.9217  0.8585
 8423SOL     OW36727   3.702   3.623   4.709  0.5467  0.4105  0.4916
 8423SOL    HW136728   3.667   3.561   4.772  0.1608  0.0073 -0.1303
 8423SOL    HW236729   3.769   3.670   4.759 -0.1730  2.6305 -0.6392
 8424SOL     OW36730   3.293   2.765   0.775  0.0236  0.0810  0.5554
 8424SOL    HW136731   3.234   2.831   0.812 -1.0360 -1.5833  1.8456
 8424SOL    HW236732   3.365   2.759   0.836  1.5300  1.3284 -1.0929
 8425SOL     OW36733   2.602   3.161   2.751 -0.7263 -0.3571 -0.7586
 8425SOL    HW136734   2.692   3.172   2.781 -0.5895 -0.4720 -1.1313
 8425SOL    HW236735   2.613   3.087   2.692  1.2909  0.8061 -1.8330
 8426SOL     OW36736   1.163   0.414   7.932 -0.4341 -0.0470  0.0655
 8426SOL    HW136737   1.165   0.378   7.843  2.4619 -1.0545  0.5272
 8426SOL    HW236738   1.128   0.502   7.917  1.5460  0.6469 -0.4072
 8427SOL     OW36739   1.101   1.707   5.907  0.3613  0.2362 -0.5221
 8427SOL    HW136740   1.130   1.688   5.818  1.3262  0.0583 -0.1644
 8427SOL    HW236741   1.136   1.634   5.957 -0.6085 -0.4513 -0.8308
 8428SOL     OW36742   2.090   0.144  13.919  0.3987  0.4948 -0.5345
 8428SOL    HW136743   2.032   0.115  13.989 -0.2291  0.6561 -0.9886
 8428SOL    HW236744   2.173   0.146  13.967  1.0120  1.0506 -1.6253
 8429SOL     OW36745   0.547   0.743   8.577 -0.3199 -0.2248  0.9200
 8429SOL    HW136746   0.568   0.769   8.666  2.1839 -1.0114  0.5570
 8429SOL    HW236747   0.528   0.649   8.585  1.3318 -0.6791 -0.4638
 8430SOL     OW36748   3.239   3.768   5.823 -0.0942  0.2990  0.3882
 8430SOL    HW136749   3.149   3.740   5.845  0.0092 -1.1418 -1.0540
 8430SOL    HW236750   3.282   3.684   5.835 -0.2255 -0.0710 -1.7935
 8431SOL     OW36751   2.269   1.219   6.800 -0.4646 -0.5998 -0.6823
 8431SOL    HW136752   2.236   1.139   6.841 -0.6276 -0.7018 -1.0142
 8431SOL    HW236753   2.193   1.237   6.744 -1.0602  1.6089  0.8250
 8432SOL     OW36754   2.495   3.135   8.137 -0.2039 -0.6941 -0.4192
 8432SOL    HW136755   2.420   3.152   8.194  0.0023 -0.7585 -0.1283
 8432SOL    HW236756   2.543   3.065   8.181 -2.1883 -1.5530  0.3680
 8433SOL     OW36757   3.954   2.220   6.887 -0.4452 -0.4818 -0.0979
 8433SOL    HW136758   4.032   2.168   6.864  1.3535  1.1862  2.2707
 8433SOL    HW236759   3.990   2.301   6.924 -1.7196 -0.3637  0.8839
 8434SOL     OW36760   2.543   3.052  10.716  0.0689 -0.2475 -0.5352
 8434SOL    HW136761   2.611   3.052  10.784  1.2142  0.4099 -1.6686
 8434SOL    HW236762   2.543   2.957  10.704  2.8806 -0.5558  1.6240
 8435SOL     OW36763   4.201   1.579  13.091  0.0009  0.2977 -0.2267
 8435SOL    HW136764   4.272   1.598  13.152  1.9062  0.1294 -2.3784
 8435SOL    HW236765   4.222   1.642  13.022  0.8974 -0.0314 -0.2526
 8436SOL     OW36766   1.464   0.144   8.358  0.5308 -0.4543  0.0090
 8436SOL    HW136767   1.473   0.067   8.302  0.4778 -0.5781  0.1706
 8436SOL    HW236768   1.370   0.157   8.352  0.5424  0.1622  1.4158
 8437SOL     OW36769   3.532   0.560  16.312  1.0063 -0.5915  0.2751
 8437SOL    HW136770   3.591   0.570  16.237 -0.4733 -0.9994 -0.9299
 8437SOL    HW236771   3.486   0.480  16.286 -0.0194  0.3052 -0.6605
 8438SOL     OW36772   0.379   1.127   5.770 -0.1776  0.0844  0.1607
 8438SOL    HW136773   0.374   1.150   5.863  4.9712 -1.7655  0.8786
 8438SOL    HW236774   0.383   1.032   5.771 -0.5103  0.0559 -3.2197
 8439SOL     OW36775   1.628   3.481   4.693 -0.6532 -0.2398  0.0839
 8439SOL    HW136776   1.623   3.401   4.640  0.5665 -0.5580  0.4350
 8439SOL    HW236777   1.574   3.464   4.770 -0.6810  0.2940  0.1831
 8440SOL     OW36778   1.950   4.403   5.866  0.2797  0.4001 -0.2421
 8440SOL    HW136779   1.878   4.441   5.817  0.1245 -0.9131 -1.0205
 8440SOL    HW236780   1.959   4.316   5.829 -0.3390  0.7153 -1.1373
 8441SOL     OW36781   3.567   3.787   8.474 -0.2562 -0.0662  0.3294
 8441SOL    HW136782   3.542   3.810   8.385  1.3103  0.2203 -0.0401
 8441SOL    HW236783   3.544   3.860   8.531  1.2089  2.8082 -2.7465
 8442SOL     OW36784   0.748   3.437  12.183  0.1466 -0.0405  0.3655
 8442SOL    HW136785   0.667   3.442  12.234  0.3098  3.2117  0.3237
 8442SOL    HW236786   0.766   3.344  12.168  3.0843  0.1663  2.4374
 8443SOL     OW36787   1.901   0.378   3.591 -0.8802  0.0026  0.0498
 8443SOL    HW136788   1.971   0.380   3.658 -0.8370  1.9925 -0.0575
 8443SOL    HW236789   1.926   0.311   3.527 -0.5219  0.7156 -0.5457
 8444SOL     OW36790   3.538   1.489   0.661  0.0090 -0.2708 -0.3824
 8444SOL    HW136791   3.624   1.519   0.692 -0.8587  0.6812  1.1322
 8444SOL    HW236792   3.494   1.479   0.746  2.1222  2.0931  1.0025
 8445SOL     OW36793   0.630   0.468  15.225 -0.0754 -0.1062  0.3090
 8445SOL    HW136794   0.654   0.545  15.173  2.0253 -0.0784  1.3337
 8445SOL    HW236795   0.541   0.497  15.244  0.2982  0.9351  0.4615
 8446SOL     OW36796   2.709   2.784  10.274  0.2437 -0.1327  0.1651
 8446SOL    HW136797   2.641   2.832  10.225 -0.2163 -0.1870  0.7544
 8446SOL    HW236798   2.771   2.754  10.208  0.5605 -3.0906  1.8576
 8447SOL     OW36799   3.890   0.664   3.850  0.3213  0.5681 -0.5024
 8447SOL    HW136800   3.914   0.657   3.758  2.0148  2.4643 -0.2059
 8447SOL    HW236801   3.967   0.716   3.875  0.6267 -0.4214  0.6075
 8448SOL     OW36802   0.988   1.073  14.365  0.6893 -0.0173 -0.1780
 8448SOL    HW136803   1.025   0.985  14.376 -0.7653 -0.2100  3.1348
 8448SOL    HW236804   1.061   1.128  14.394  0.6640  0.6776 -1.4742
 8449SOL     OW36805   2.469   4.370   8.994  0.1472 -0.2337 -0.3083
 8449SOL    HW136806   2.380   4.397   8.969 -0.4960  1.1835  3.4794
 8449SOL    HW236807   2.524   4.425   8.938 -0.1870  0.7263  0.3121
 8450SOL     OW36808   3.616   1.246   5.875  0.2906 -0.6874 -0.2552
 8450SOL    HW136809   3.699   1.294   5.881  0.4064 -1.1677  2.3955
 8450SOL    HW236810   3.556   1.318   5.855  0.5202 -1.1227 -2.4145
 8451SOL     OW36811   3.531   0.031  12.979  0.1813  0.1691  0.1382
 8451SOL    HW136812   3.468   0.038  13.050 -2.2753 -0.8315 -1.9379
 8451SOL    HW236813   3.559   0.122  12.971 -1.6884  0.9736  2.6195
 8452SOL     OW36814   0.708   3.539   4.584 -0.3657 -0.1867  0.1495
 8452SOL    HW136815   0.759   3.458   4.593 -1.2127 -0.5605  1.6604
 8452SOL    HW236816   0.772   3.611   4.593  1.0148 -1.3206 -0.6797
 8453SOL     OW36817   0.536   0.472  15.783 -0.0246  0.2160  0.2895
 8453SOL    HW136818   0.602   0.466  15.852  1.0260 -0.8964 -0.8024
 8453SOL    HW236819   0.520   0.566  15.786  1.7820  0.4594  1.8273
 8454SOL     OW36820   1.848   4.645   8.024  0.4247  0.0524 -0.1223
 8454SOL    HW136821   1.903   4.708   8.070  0.0305 -0.4642  1.0517
 8454SOL    HW236822   1.761   4.685   8.033  1.7457  2.9019 -0.0616
 8455SOL     OW36823   0.330   2.131   8.468  0.5923 -0.0976  0.2333
 8455SOL    HW136824   0.327   2.040   8.498  0.6238  0.5523  2.2236
 8455SOL    HW236825   0.410   2.156   8.513  0.3284  1.0522  0.0665
 8456SOL     OW36826   0.724   4.010   2.584 -0.6705 -0.4646  0.6268
 8456SOL    HW136827   0.639   4.008   2.541  0.6067  0.3959 -1.8950
 8456SOL    HW236828   0.699   4.080   2.645  0.7549  2.1626 -1.7850
 8457SOL     OW36829   0.542   0.328   0.772  0.0838 -0.0461 -1.0419
 8457SOL    HW136830   0.549   0.254   0.712  0.6993  0.1971 -1.2698
 8457SOL    HW236831   0.494   0.290   0.845  0.3472  0.6089 -0.5248
 8458SOL     OW36832   3.312   4.513  15.529  0.2862 -0.6482  0.2849
 8458SOL    HW136833   3.344   4.524  15.618  2.7736 -0.7025 -0.5909
 8458SOL    HW236834   3.284   4.422  15.520  1.9573 -0.9776 -1.5657
 8459SOL     OW36835   0.390   3.753   0.104 -0.6560 -0.1416 -0.4080
 8459SOL    HW136836   0.398   3.659   0.086 -0.5009 -0.3599  0.7600
 8459SOL    HW236837   0.299   3.757   0.075 -0.8274  2.1958  0.4758
 8460SOL     OW36838   3.495   1.721   4.412 -0.1988  0.6943 -0.4067
 8460SOL    HW136839   3.399   1.729   4.418 -0.1919  0.6104 -0.1603
 8460SOL    HW236840   3.513   1.727   4.319 -2.2454  0.4125 -0.8152
 8461SOL     OW36841   2.565   4.618   5.652 -0.3164  0.0304 -0.2468
 8461SOL    HW136842   2.552   4.535   5.606  2.6781 -0.4989 -0.1207
 8461SOL    HW236843   2.660   4.617   5.666  0.1696 -0.5948 -3.4534
 8462SOL     OW36844   4.385   0.422  10.616  0.1299 -0.7621 -0.6006
 8462SOL    HW136845   4.384   0.516  10.597  2.6678 -0.9547 -1.7427
 8462SOL    HW236846   4.386   0.415  10.711 -0.2023  0.4649 -0.5082
 8463SOL     OW36847   4.214   2.102   5.388 -0.8492 -0.3221  0.3115
 8463SOL    HW136848   4.266   2.026   5.414 -1.5466 -1.2208 -0.9057
 8463SOL    HW236849   4.249   2.174   5.440 -2.6903 -0.3474  1.6076
 8464SOL     OW36850   2.753   2.473  17.061  0.7079 -0.8210  0.2970
 8464SOL    HW136851   2.780   2.480  16.970  1.2939 -0.9658  0.4628
 8464SOL    HW236852   2.682   2.537  17.061  0.3523 -1.2172  1.5292
 8465SOL     OW36853   1.510   0.180  13.378  0.3359  0.1866 -0.4015
 8465SOL    HW136854   1.484   0.271  13.367  0.5496  0.2472 -0.4025
 8465SOL    HW236855   1.583   0.190  13.438  0.9430 -0.3220 -1.0588
 8466SOL     OW36856   4.282   1.940  14.728 -0.8132  0.0985 -0.0575
 8466SOL    HW136857   4.355   1.939  14.667  0.7881  0.0742  1.8384
 8466SOL    HW236858   4.239   1.858  14.704  0.3209 -0.9414  1.4545
 8467SOL     OW36859   2.569   0.701   4.769 -0.2060 -0.0090  0.5162
 8467SOL    HW136860   2.486   0.693   4.723 -0.0542  1.4686 -0.0095
 8467SOL    HW236861   2.556   0.646   4.846  0.7554 -0.9632  0.0137
 8468SOL     OW36862   1.985   2.783  16.947 -0.3233 -0.4585  0.4456
 8468SOL    HW136863   1.964   2.852  17.010 -0.9293 -2.8055  2.8377
 8468SOL    HW236864   1.900   2.742  16.959 -0.3672 -0.0218  1.6120
 8469SOL     OW36865   1.035   0.555   8.799 -0.0013 -0.1134 -0.0427
 8469SOL    HW136866   1.105   0.620   8.805 -0.3813  0.3803 -0.9520
 8469SOL    HW236867   1.016   0.580   8.709 -3.4265  2.1804  1.2852
 8470SOL     OW36868   1.687   4.264   3.115 -0.2500 -0.1715 -0.6691
 8470SOL    HW136869   1.674   4.174   3.083  0.5231 -0.3596 -0.4297
 8470SOL    HW236870   1.772   4.251   3.156 -0.1269 -0.0423 -0.8853
 8471SOL     OW36871   2.301   2.253   7.276 -0.2865 -0.0269 -0.0946
 8471SOL    HW136872   2.209   2.244   7.300 -0.5372 -0.9817 -1.3804
 8471SOL    HW236873   2.330   2.164   7.254 -1.7146  0.2854 -3.2317
 8472SOL     OW36874   2.665   1.923   6.849  0.3955 -0.2091  0.0144
 8472SOL    HW136875   2.635   1.836   6.877  3.8634 -1.3129  0.3758
 8472SOL    HW236876   2.687   1.918   6.756 -1.5036  0.6408 -0.4740
 8473SOL     OW36877   0.697   2.942   7.670 -0.4282 -0.3378 -0.3167
 8473SOL    HW136878   0.657   2.861   7.701  0.6923 -1.0838 -0.8229
 8473SOL    HW236879   0.619   2.977   7.626 -0.4535  2.3244  1.8330
 8474SOL     OW36880   0.473   2.271  15.623  0.6801 -0.2664  0.5494
 8474SOL    HW136881   0.476   2.359  15.586 -1.7638  0.0990  1.2497
 8474SOL    HW236882   0.394   2.278  15.677  0.2092 -0.6063 -0.1008
 8475SOL     OW36883   2.025   3.338   8.502 -0.0890  1.1672  0.0104
 8475SOL    HW136884   2.033   3.427   8.536 -2.0875  2.3524 -2.6384
 8475SOL    HW236885   2.083   3.290   8.561 -0.6080 -1.6628 -1.7466
 8476SOL     OW36886   2.317   4.222   0.046  0.1160 -0.1657  0.0425
 8476SOL    HW136887   2.317   4.138  17.692 -0.1743  0.5176 -1.1864
 8476SOL    HW236888   2.306   4.197   0.138  2.9066  1.6545  0.8786
 8477SOL     OW36889   4.631   0.495   2.397  0.1588  0.0352 -0.3147
 8477SOL    HW136890   4.568   0.510   2.327 -1.2046 -4.0541  0.0136
 8477SOL    HW236891   4.704   0.551   2.371  0.8071 -0.6827 -0.0360
 8478SOL     OW36892   0.860   2.253   6.623  0.2279 -0.0664  0.0998
 8478SOL    HW136893   0.784   2.203   6.651 -1.8534  3.2985  0.4704
 8478SOL    HW236894   0.911   2.255   6.704 -0.5965  0.2474  0.6062
 8479SOL     OW36895   1.117   1.418   7.663  0.1046 -0.4224 -0.0117
 8479SOL    HW136896   1.076   1.499   7.694 -0.8534 -0.3605 -1.4409
 8479SOL    HW236897   1.079   1.424   7.576 -2.0351 -0.0950  0.9525
 8480SOL     OW36898   0.683   4.335   9.663 -0.3503 -0.3019 -0.2066
 8480SOL    HW136899   0.769   4.312   9.697 -0.0864 -1.4284 -1.6421
 8480SOL    HW236900   0.662   4.401   9.729 -1.5015 -2.2259  1.3607
 8481SOL     OW36901   3.768   4.451   2.145 -0.0570 -0.0452  0.0887
 8481SOL    HW136902   3.846   4.403   2.172 -0.5517 -0.4937  0.7103
 8481SOL    HW236903   3.808   4.538   2.152  2.6654 -1.3094  0.1714
 8482SOL     OW36904   2.370   0.795  14.897 -0.1423  0.7983 -0.3187
 8482SOL    HW136905   2.455   0.758  14.923  0.6276  0.6851 -2.9414
 8482SOL    HW236906   2.337   0.819  14.983 -0.7068 -1.4169  0.0851
 8483SOL     OW36907   0.738   3.175   7.845 -0.1706 -0.1954 -0.5935
 8483SOL    HW136908   0.653   3.131   7.848 -0.3347  0.3115  1.7996
 8483SOL    HW236909   0.778   3.127   7.772 -2.2017 -1.5586 -0.8203
 8484SOL     OW36910   3.172   1.718   0.354  0.5252  0.1907  0.1391
 8484SOL    HW136911   3.137   1.763   0.431  0.3107 -1.5104  1.0175
 8484SOL    HW236912   3.251   1.683   0.396  2.0993  1.0154 -2.0721
 8485SOL     OW36913   3.607   3.195  11.500  0.5338  0.4357 -0.3796
 8485SOL    HW136914   3.551   3.251  11.554  1.3127 -0.3669  1.2723
 8485SOL    HW236915   3.666   3.257  11.456  1.2667 -0.4700 -0.6687
 8486SOL     OW36916   0.421   1.022   4.222  0.6445 -0.1384  0.1448
 8486SOL    HW136917   0.386   0.940   4.188 -1.8068  1.2625 -0.7365
 8486SOL    HW236918   0.402   1.014   4.315 -2.8654 -0.1622 -0.5773
 8487SOL     OW36919   2.550   4.635  10.496  0.1212  0.2340 -0.3426
 8487SOL    HW136920   2.613   4.697  10.532 -0.9342  2.2441 -2.0087
 8487SOL    HW236921   2.473   4.677  10.534  0.2109 -2.6316  3.0498
 8488SOL     OW36922   1.069   0.838   8.342  0.1160 -0.6124  0.0040
 8488SOL    HW136923   1.163   0.839   8.325  0.4229  1.3124  1.8736
 8488SOL    HW236924   1.054   0.926   8.376  0.9915 -0.4033 -0.1508
 8489SOL     OW36925   2.729   0.108   8.203 -0.4634  0.4419 -0.0154
 8489SOL    HW136926   2.811   0.136   8.245  0.2639 -2.3963  0.4916
 8489SOL    HW236927   2.675   0.081   8.277  1.2235 -0.2767  0.9678
 8490SOL     OW36928   2.903   3.207  10.772  0.1479 -0.2445 -0.0399
 8490SOL    HW136929   2.841   3.224  10.701  1.0379  0.7612 -0.5989
 8490SOL    HW236930   2.990   3.195  10.734 -0.2042  1.4935 -1.4397
 8491SOL     OW36931   2.226   1.697   4.616 -0.0222 -0.3584  0.2958
 8491SOL    HW136932   2.293   1.764   4.597 -1.7023  1.5975  1.2909
 8491SOL    HW236933   2.277   1.625   4.653 -0.5696 -0.5793  0.6177
 8492SOL     OW36934   1.632   1.333   9.457  0.4035 -0.1285  0.3547
 8492SOL    HW136935   1.600   1.418   9.427 -2.5568 -1.1049  0.7927
 8492SOL    HW236936   1.572   1.289   9.517 -1.5527  0.4622 -1.1564
 8493SOL     OW36937   4.581   1.152   7.489  0.3798 -0.1581  0.4363
 8493SOL    HW136938   4.665   1.183   7.521  0.2392 -0.8582  1.4968
 8493SOL    HW236939   4.536   1.220   7.539  0.7389  2.3340 -2.6493
 8494SOL     OW36940   4.006   0.561   6.040  0.1733 -0.4475  0.6179
 8494SOL    HW136941   4.013   0.466   6.035 -0.1981 -0.5039  1.2216
 8494SOL    HW236942   3.998   0.578   6.134 -1.5933 -0.9488  0.5570
 8495SOL     OW36943   1.032   1.490   8.056  0.3858  0.0182  0.5855
 8495SOL    HW136944   1.016   1.584   8.048  0.1641 -0.1749 -1.2139
 8495SOL    HW236945   0.970   1.457   7.992  0.1076  0.0957  0.8153
 8496SOL     OW36946   2.195   4.677   6.243 -0.6406 -0.6254  0.2463
 8496SOL    HW136947   2.123   4.712   6.295 -0.4523  0.8671 -0.4759
 8496SOL    HW236948   2.154   4.602   6.201 -4.0927  0.0606  2.3908
 8497SOL     OW36949   2.111   1.454   2.151  0.2424  0.3690  0.5791
 8497SOL    HW136950   2.135   1.522   2.089 -0.2542 -0.4775 -0.5379
 8497SOL    HW236951   2.183   1.394   2.132  0.2312  0.6065 -0.1841
 8498SOL     OW36952   1.128   1.299   5.021  0.3582 -0.1513 -0.1728
 8498SOL    HW136953   1.116   1.380   4.971  1.3421 -0.8969 -1.6284
 8498SOL    HW236954   1.103   1.235   4.954 -0.6738  0.5342 -0.4287
 8499SOL     OW36955   1.288   0.937  14.606  0.0313  0.0986 -0.3275
 8499SOL    HW136956   1.242   0.883  14.541 -1.0414  0.6550 -0.0397
 8499SOL    HW236957   1.240   0.915  14.686 -1.4059 -2.3882 -1.8727
 8500SOL     OW36958   4.173   2.246   1.460 -0.5981  0.4659  0.0189
 8500SOL    HW136959   4.131   2.279   1.381  0.0150  0.6357 -0.2324
 8500SOL    HW236960   4.264   2.251   1.432  0.2398  2.3304  3.0434
 8501SOL     OW36961   4.049   2.622   2.180  0.2433 -0.1208 -0.0342
 8501SOL    HW136962   3.991   2.695   2.159  1.5091  1.1059  0.7307
 8501SOL    HW236963   4.127   2.664   2.217  1.5969 -3.1261  0.5697
 8502SOL     OW36964   0.187   1.129   0.976  0.5977  0.2685  0.5308
 8502SOL    HW136965   0.126   1.162   1.041 -0.5129  1.0687 -0.9148
 8502SOL    HW236966   0.266   1.136   1.029  0.7184  0.0961  0.3746
 8503SOL     OW36967   1.942   2.628   6.338  0.2727  0.0805 -0.1916
 8503SOL    HW136968   2.004   2.616   6.411 -0.3161  0.1897  0.3271
 8503SOL    HW236969   1.930   2.539   6.306  0.2762 -0.0858  0.2681
 8504SOL     OW36970   3.676   0.956  12.021  0.2793  0.0909  0.3969
 8504SOL    HW136971   3.719   0.923  11.942 -2.6882 -0.9125 -0.8246
 8504SOL    HW236972   3.596   0.904  12.022 -0.1940  0.7387 -2.1384
 8505SOL     OW36973   2.346   3.462   2.950 -0.1185  0.0676  0.1456
 8505SOL    HW136974   2.398   3.538   2.977  0.8509 -0.7304  0.5301
 8505SOL    HW236975   2.414   3.395   2.963  1.1367  1.6116  1.6415
 8506SOL     OW36976   3.406   1.851  10.107 -0.3151 -0.6568  0.1997
 8506SOL    HW136977   3.410   1.885  10.197  1.6317  1.4381 -0.6588
 8506SOL    HW236978   3.311   1.839  10.097 -0.5616  0.1301  1.6090
 8507SOL     OW36979   2.330   3.751  14.229 -0.2382 -0.7606  0.3491
 8507SOL    HW136980   2.273   3.715  14.297 -1.7715  0.6418 -0.1834
 8507SOL    HW236981   2.314   3.843  14.250 -0.6230 -1.1703  1.8621
 8508SOL     OW36982   1.934   1.003  17.538 -0.0860 -0.1798  0.5011
 8508SOL    HW136983   2.002   0.999  17.606 -1.2817 -1.9311  1.6219
 8508SOL    HW236984   1.943   0.911  17.512  0.4630 -0.0720  0.3172
 8509SOL     OW36985   1.272   0.098   5.460 -0.3404 -0.0167  0.1945
 8509SOL    HW136986   1.287   0.047   5.540 -2.2633  0.9915  1.1903
 8509SOL    HW236987   1.177   0.094   5.452 -0.2273 -2.1744 -0.0467
 8510SOL     OW36988   2.113   1.911   5.664 -0.2255  0.4485  0.4545
 8510SOL    HW136989   2.057   1.882   5.736  2.3886 -1.2554  1.8219
 8510SOL    HW236990   2.170   1.835   5.652 -0.9572  0.1102 -0.9181
 8511SOL     OW36991   2.191   3.606   8.319  0.6228  0.3472  0.7833
 8511SOL    HW136992   2.144   3.685   8.290  0.8681 -0.2838 -1.3113
 8511SOL    HW236993   2.166   3.600   8.411  0.3211  0.8177  0.7360
 8512SOL     OW36994   4.377   1.906   4.753  0.0777  0.4183 -0.3064
 8512SOL    HW136995   4.334   1.987   4.781 -0.2646 -0.0586  0.5449
 8512SOL    HW236996   4.314   1.890   4.682  1.8788 -1.7229 -1.4359
 8513SOL     OW36997   4.413   2.165   0.654 -0.2325  0.3873  0.0725
 8513SOL    HW136998   4.324   2.132   0.643  0.7232 -1.9757 -0.5320
 8513SOL    HW236999   4.469   2.107   0.603  0.2474 -0.5464  1.6878
 8514SOL     OW37000   4.288   0.563   7.425  0.0234  0.3745  0.0837
 8514SOL    HW137001   4.309   0.623   7.496 -0.6100 -0.2698  0.8147
 8514SOL    HW237002   4.238   0.625   7.372 -1.0062  0.7475  1.4690
 8515SOL     OW37003   2.813   3.915   8.011 -0.4901  0.0687 -0.3089
 8515SOL    HW137004   2.768   3.997   7.991  1.1541  0.6206 -1.8632
 8515SOL    HW237005   2.759   3.882   8.082  0.7594  2.3442  1.7027
 8516SOL     OW37006   2.704   3.435   6.980  0.8108  0.1656 -0.1488
 8516SOL    HW137007   2.615   3.469   6.974  0.4909 -0.6663 -0.1932
 8516SOL    HW237008   2.710   3.402   6.891 -0.5766 -0.5758  0.0358
 8517SOL     OW37009   2.352   1.497   3.433  0.2476  0.3038  0.1906
 8517SOL    HW137010   2.365   1.589   3.454  1.7619 -0.0923  0.9339
 8517SOL    HW237011   2.291   1.495   3.359  1.2238  2.0045 -0.6507
 8518SOL     OW37012   2.124   3.975  12.627 -0.3130 -0.8579 -0.8325
 8518SOL    HW137013   2.167   3.995  12.710  0.4701  1.1953 -1.7100
 8518SOL    HW237014   2.183   4.003  12.557  0.3034 -0.9295 -0.3405
 8519SOL     OW37015   2.958   1.008   0.692  0.0770  0.0803  0.2023
 8519SOL    HW137016   2.969   1.004   0.787  1.9112 -2.7475 -0.1388
 8519SOL    HW237017   2.898   1.081   0.674 -0.0860  0.5605  2.6970
 8520SOL     OW37018   0.023   0.489  17.117 -0.0143 -0.5872  0.2431
 8520SOL    HW137019   0.041   0.519  17.028 -1.9253  0.1645  0.1120
 8520SOL    HW237020   0.062   0.556  17.174  2.7461  0.6375 -3.1034
 8521SOL     OW37021   2.962   1.946   3.445 -0.2611  0.4081  0.1025
 8521SOL    HW137022   3.002   2.033   3.438  1.5287 -0.6984 -3.7411
 8521SOL    HW237023   2.986   1.909   3.360 -2.2666 -0.1458 -0.2168
 8522SOL     OW37024   2.148   2.337  17.391  0.2755  0.2694  0.3170
 8522SOL    HW137025   2.174   2.422  17.427  1.2702  1.0857 -2.3776
 8522SOL    HW237026   2.212   2.323  17.321 -1.8838  0.2663 -1.6365
 8523SOL     OW37027   1.919   2.574  11.259  0.0672 -0.3819 -0.0680
 8523SOL    HW137028   1.904   2.629  11.336 -2.5562 -0.8818 -0.2183
 8523SOL    HW237029   2.008   2.597  11.234  0.4137 -0.7895  0.7788
 8524SOL     OW37030   4.149   2.343   0.452 -0.2204 -0.1197  0.3262
 8524SOL    HW137031   4.102   2.400   0.391  0.4394 -0.0608 -0.1201
 8524SOL    HW237032   4.242   2.359   0.438  0.0590 -2.0477  0.0354
 8525SOL     OW37033   1.877   1.994   7.583  0.5403  0.2038 -0.2252
 8525SOL    HW137034   1.884   1.912   7.631  0.9956  0.3585 -0.0238
 8525SOL    HW237035   1.937   1.983   7.510 -0.4418 -1.9252 -0.7062
 8526SOL     OW37036   3.546   3.074  15.567 -0.6824 -0.6846  0.2324
 8526SOL    HW137037   3.460   3.038  15.591 -0.3257  0.6241  3.4574
 8526SOL    HW237038   3.602   2.997  15.569  1.0675  0.5625 -0.6417
 8527SOL     OW37039   3.187   1.158  11.468 -0.3242  0.0759 -0.8213
 8527SOL    HW137040   3.267   1.145  11.519  0.2423 -0.1096 -1.7593
 8527SOL    HW237041   3.197   1.099  11.394  0.4582  1.9853 -2.2357
 8528SOL     OW37042   0.712   2.588   3.246 -0.1653 -0.2459  0.0655
 8528SOL    HW137043   0.629   2.543   3.265 -0.6939 -0.2685 -2.2788
 8528SOL    HW237044   0.722   2.576   3.152  2.1286 -0.7538  0.3842
 8529SOL     OW37045   1.191   3.346  13.635 -0.1491 -0.0787 -0.4669
 8529SOL    HW137046   1.167   3.319  13.546  1.5822  0.5848 -1.1138
 8529SOL    HW237047   1.119   3.302  13.681  0.5913 -2.0862 -1.2052
 8530SOL     OW37048   1.361   1.220   5.114  0.4487  0.1817  0.0256
 8530SOL    HW137049   1.272   1.252   5.099 -0.7351 -2.8548  0.6647
 8530SOL    HW237050   1.412   1.271   5.051 -0.5608 -1.1041 -1.8503
 8531SOL     OW37051   2.483   3.889   3.880  0.4427  0.0849  0.5719
 8531SOL    HW137052   2.415   3.836   3.838 -0.4945  2.4253 -0.9135
 8531SOL    HW237053   2.566   3.865   3.839 -0.4322 -0.8679 -0.6391
 8532SOL     OW37054   3.121   1.177  13.871 -0.5960  0.2492  0.1519
 8532SOL    HW137055   3.121   1.251  13.811 -2.9253  1.5970  1.7945
 8532SOL    HW237056   3.201   1.194  13.920 -1.0641 -0.6268  1.2419
 8533SOL     OW37057   0.231   1.050   4.453 -0.2571  0.9956  0.0533
 8533SOL    HW137058   0.161   1.070   4.515  0.7497  0.9039  1.2339
 8533SOL    HW237059   0.258   1.138   4.427  1.4761 -0.2587 -2.3871
 8534SOL     OW37060   1.786   3.274   9.700 -0.3437  0.5833 -0.2213
 8534SOL    HW137061   1.739   3.234   9.773 -1.0121  1.1207 -0.3592
 8534SOL    HW237062   1.846   3.208   9.666 -1.7973 -0.5720 -0.5526
 8535SOL     OW37063   2.037   0.406   8.083  0.4094  0.1482  0.1772
 8535SOL    HW137064   1.943   0.423   8.083  0.0592 -1.7571 -1.1664
 8535SOL    HW237065   2.045   0.360   8.166  1.2537  0.0569  0.0475
 8536SOL     OW37066   1.320   0.965   8.275 -0.1439 -0.1442 -0.3191
 8536SOL    HW137067   1.285   1.029   8.214 -2.2401 -0.7622  0.2421
 8536SOL    HW237068   1.352   0.901   8.211  2.2955  1.8283 -1.1046
 8537SOL     OW37069   3.953   1.337   7.105  0.0507  1.4919 -0.5404
 8537SOL    HW137070   3.930   1.255   7.062 -1.6835  1.6473  0.0976
 8537SOL    HW237071   3.875   1.348   7.158  2.1639  0.8929  2.7012
 8538SOL     OW37072   3.780   1.097   2.747  0.0339 -0.2325 -0.0888
 8538SOL    HW137073   3.804   1.160   2.814  0.9381  0.0792 -0.7039
 8538SOL    HW237074   3.733   1.158   2.689 -2.1360 -2.2494 -0.4926
 8539SOL     OW37075   0.387   3.025  16.654  0.0755 -0.0640  0.2684
 8539SOL    HW137076   0.296   3.049  16.637  0.4377 -0.6732 -2.4428
 8539SOL    HW237077   0.387   2.930  16.652  0.9806 -0.0669  0.6180
 8540SOL     OW37078   2.958   2.481   6.834 -0.5843 -0.6572  0.0487
 8540SOL    HW137079   2.968   2.527   6.751 -2.1377 -4.2540 -2.1355
 8540SOL    HW237080   3.048   2.490   6.866 -0.8116 -0.2059  0.5749
 8541SOL     OW37081   1.557   4.257   0.070  0.0124  0.2155 -0.1265
 8541SOL    HW137082   1.549   4.292   0.159  0.5836  0.7315 -0.2763
 8541SOL    HW237083   1.511   4.175   0.088 -0.6245  0.4938 -0.5178
 8542SOL     OW37084   2.511   0.914   6.926 -0.0171 -0.4932 -0.6108
 8542SOL    HW137085   2.487   0.891   7.015  1.6331 -0.8967 -0.2666
 8542SOL    HW237086   2.605   0.924   6.941 -0.1716  1.4538 -0.9058
 8543SOL     OW37087   0.154   2.372   3.315 -0.0136 -0.8107 -0.1092
 8543SOL    HW137088   0.158   2.303   3.249  1.1307  0.1008 -0.9868
 8543SOL    HW237089   0.177   2.330   3.397  0.7396  0.8441  0.5272
 8544SOL     OW37090   2.626   0.902  13.450 -0.3583 -0.3684  0.9753
 8544SOL    HW137091   2.594   0.919  13.539 -0.5563 -1.5573  1.1316
 8544SOL    HW237092   2.632   0.807  13.445  2.7209 -0.0757 -0.7977
 8545SOL     OW37093   3.929   1.029   2.142 -0.5255 -0.1859  0.0353
 8545SOL    HW137094   3.849   1.048   2.092 -0.1663 -0.6578 -0.7109
 8545SOL    HW237095   3.975   1.110   2.120 -1.6234  0.6293  0.7173
 8546SOL     OW37096   3.420   0.407   4.030  0.0339 -0.2788 -0.6960
 8546SOL    HW137097   3.353   0.340   4.016 -0.7739 -0.0980  2.4058
 8546SOL    HW237098   3.363   0.478   4.061 -0.3668 -1.0511  0.3354
 8547SOL     OW37099   3.266   4.072   1.499 -0.4616  0.0193 -0.0677
 8547SOL    HW137100   3.222   4.120   1.428 -0.4182  0.6330  0.3197
 8547SOL    HW237101   3.231   3.984   1.490  0.8238 -0.4282 -0.6962
 8548SOL     OW37102   2.722   0.845   6.478  0.0610 -0.2060 -0.2683
 8548SOL    HW137103   2.748   0.772   6.422 -2.2732 -0.8368 -0.5363
 8548SOL    HW237104   2.669   0.896   6.416  1.9529  0.1543 -1.6006
 8549SOL     OW37105   2.851   1.258   1.356  0.4462 -0.3473  0.3102
 8549SOL    HW137106   2.895   1.209   1.287  1.7326  1.0758  0.1109
 8549SOL    HW237107   2.882   1.347   1.338 -0.5241 -0.0796 -0.0166
 8550SOL     OW37108   0.376   1.253  16.065 -0.0927  0.0825  0.1727
 8550SOL    HW137109   0.348   1.336  16.027 -1.0143 -1.4603 -2.5467
 8550SOL    HW237110   0.418   1.208  15.992  2.0510 -0.8098  1.9349
 8551SOL     OW37111   1.036   0.505   6.988 -0.1260 -0.7012 -0.4637
 8551SOL    HW137112   0.949   0.474   6.962 -0.3010  0.4197 -1.2212
 8551SOL    HW237113   1.049   0.464   7.074  0.9874 -0.1715 -0.3809
 8552SOL     OW37114   4.506   4.058   9.960 -0.3022 -0.4509 -0.3330
 8552SOL    HW137115   4.500   3.981   9.904 -0.6443 -1.7028  1.4047
 8552SOL    HW237116   4.588   4.095   9.927 -0.0343 -0.0182  0.8183
 8553SOL     OW37117   0.356   2.742   6.450  0.0071 -0.7363  0.1469
 8553SOL    HW137118   0.381   2.650   6.441  0.4694 -0.4373 -1.6444
 8553SOL    HW237119   0.359   2.778   6.361  2.1076 -0.0793  0.4997
 8554SOL     OW37120   1.867   1.729   5.097 -0.0012  0.0479 -0.5840
 8554SOL    HW137121   1.861   1.635   5.077  1.2122 -0.2058  0.2675
 8554SOL    HW237122   1.923   1.769   5.030  1.0195  0.6055  0.6114
 8555SOL     OW37123   3.479   2.857   4.765 -0.1078 -0.2249 -0.0466
 8555SOL    HW137124   3.471   2.928   4.829 -1.5045  0.9939 -1.5787
 8555SOL    HW237125   3.418   2.785   4.775 -0.6245  0.3346  0.8280
 8556SOL     OW37126   3.382   2.508   6.219  0.6211  0.0848  0.7488
 8556SOL    HW137127   3.432   2.588   6.203 -0.4249  0.6447  0.2704
 8556SOL    HW237128   3.455   2.447   6.207  1.3014  1.0667 -0.1120
 8557SOL     OW37129   1.746   1.200   0.828  0.3945  0.1952  0.7550
 8557SOL    HW137130   1.709   1.278   0.788 -1.2060 -2.0785 -2.1456
 8557SOL    HW237131   1.677   1.134   0.823  0.1785  0.6436 -1.7116
 8558SOL     OW37132   3.666   2.703   5.602 -0.3529  0.1662  0.3013
 8558SOL    HW137133   3.745   2.754   5.619 -0.3048  0.4883 -0.9399
 8558SOL    HW237134   3.685   2.626   5.656 -1.8037  0.4966  1.2936
 8559SOL     OW37135   2.354   0.190   7.064  0.0061  0.2086 -0.1613
 8559SOL    HW137136   2.431   0.182   7.121 -1.7072  1.9940  2.4469
 8559SOL    HW237137   2.285   0.239   7.109 -1.8460 -0.4282 -2.3605
 8560SOL     OW37138   0.019   1.257   4.831  0.6681  0.4192 -0.3646
 8560SOL    HW137139   0.111   1.234   4.847  0.3723 -1.6325 -1.5516
 8560SOL    HW237140   4.693   1.212   4.900 -1.2243 -0.9059 -2.5285
 8561SOL     OW37141   3.873   0.125   0.986  0.1342  0.0066 -0.2988
 8561SOL    HW137142   3.790   0.093   0.949 -1.7832  1.9570  2.3023
 8561SOL    HW237143   3.853   0.218   0.996 -1.4038 -0.5407  1.8478
 8562SOL     OW37144   2.837   4.235   8.197 -0.3803 -0.3897 -0.8468
 8562SOL    HW137145   2.881   4.164   8.244 -0.9897  0.0534  0.4047
 8562SOL    HW237146   2.783   4.262   8.271  1.1458  2.0168 -0.5775
 8563SOL     OW37147   0.306   0.085   3.072 -0.5709 -0.0816  0.5532
 8563SOL    HW137148   0.213   0.103   3.058  0.1465  4.4402  1.8908
 8563SOL    HW237149   0.326   0.047   2.986 -0.8926  0.5077  0.2209
 8564SOL     OW37150   3.973   4.521   2.929 -0.1949 -0.2436  0.7029
 8564SOL    HW137151   3.963   4.587   2.860  0.8688 -0.4522  0.3584
 8564SOL    HW237152   3.983   4.439   2.882  3.6776  1.0633 -0.7389
 8565SOL     OW37153   2.405   2.409  12.014 -0.7395  0.2435 -0.2310
 8565SOL    HW137154   2.331   2.428  11.956 -1.1370  2.4264  0.9892
 8565SOL    HW237155   2.362   2.434  12.096  1.2332 -0.6804  1.0793
 8566SOL     OW37156   1.029   3.980   5.909 -0.0501 -0.0141  0.0132
 8566SOL    HW137157   1.061   3.899   5.870  1.1838  0.2674  0.4219
 8566SOL    HW237158   0.947   3.986   5.860  0.9836  0.5823 -1.6402
 8567SOL     OW37159   4.496   1.426   4.263  0.3209  0.3556 -0.4616
 8567SOL    HW137160   4.574   1.387   4.302  0.1033 -0.7922 -1.1606
 8567SOL    HW237161   4.444   1.443   4.342 -0.1341 -0.5436 -0.5627
 8568SOL     OW37162   2.385   3.830   2.652 -0.2661  0.6742 -0.0415
 8568SOL    HW137163   2.440   3.830   2.730 -0.4625 -1.0442  0.0857
 8568SOL    HW237164   2.433   3.876   2.583  1.1775  1.2796  1.3840
 8569SOL     OW37165   0.420   0.456  14.730  0.1393 -1.0420 -0.2170
 8569SOL    HW137166   0.465   0.495  14.656 -1.5320 -0.5898 -0.9967
 8569SOL    HW237167   0.490   0.403  14.768 -0.2082  0.8855  3.1332
 8570SOL     OW37168   4.605   2.803   2.360  0.1226 -0.0256  0.2394
 8570SOL    HW137169   4.601   2.842   2.448 -1.0221  0.8972 -0.2164
 8570SOL    HW237170   4.569   2.870   2.302 -0.2077 -0.0877  0.3690
 8571SOL     OW37171   2.394   2.691   2.565  0.3820 -0.2189 -0.2957
 8571SOL    HW137172   2.395   2.774   2.517  0.1473  0.0485  0.1590
 8571SOL    HW237173   2.354   2.623   2.511 -1.1732  1.8666 -1.7713
 8572SOL     OW37174   2.009   3.983   5.513 -0.3176 -0.9343 -0.2109
 8572SOL    HW137175   2.051   3.974   5.427  2.3785  1.0464  0.9141
 8572SOL    HW237176   1.919   3.986   5.478  0.0090 -0.2845 -0.9902
 8573SOL     OW37177   0.436   2.755   9.276 -0.1854  0.4236  0.2842
 8573SOL    HW137178   0.437   2.669   9.233 -0.5430  0.3043  0.5162
 8573SOL    HW237179   0.347   2.750   9.309 -0.5021 -1.0221 -0.7850
 8574SOL     OW37180   0.234   0.137   4.251  0.3673  0.7506 -0.5153
 8574SOL    HW137181   0.139   0.125   4.248  0.7403 -1.5832 -2.5014
 8574SOL    HW237182   0.231   0.216   4.305 -1.0820 -0.1230  0.6919
 8575SOL     OW37183   4.533   0.440   9.269  0.3925  0.2754  0.1602
 8575SOL    HW137184   4.617   0.393   9.271  0.2402  0.0770  2.7474
 8575SOL    HW237185   4.498   0.397   9.191  0.5456 -0.4863  0.5104
 8576SOL     OW37186   0.469   3.767  17.448 -0.0923  0.0978 -0.1136
 8576SOL    HW137187   0.453   3.815  17.367  1.9784 -2.5534 -2.0866
 8576SOL    HW237188   0.433   3.833  17.508  0.2828 -1.1830  1.5191
 8577SOL     OW37189   3.636   0.381   6.919 -0.5495  0.1736 -0.5041
 8577SOL    HW137190   3.653   0.438   6.844  1.1631  0.8364  0.3754
 8577SOL    HW237191   3.639   0.289   6.893  1.5239  0.8134 -2.5861
 8578SOL     OW37192   2.209   1.277  13.503 -0.0958 -0.3005 -0.0839
 8578SOL    HW137193   2.187   1.308  13.591 -2.1469 -1.7275 -0.1211
 8578SOL    HW237194   2.195   1.183  13.512 -2.5136  0.1463  0.8109
 8579SOL     OW37195   2.311   0.855   3.193 -0.2691  0.0294 -0.0567
 8579SOL    HW137196   2.378   0.874   3.127 -0.5522  0.2172 -0.2900
 8579SOL    HW237197   2.249   0.802   3.144 -0.3063  1.1123 -1.1711
 8580SOL     OW37198   2.699   3.469   1.314 -0.3687 -0.1144  0.1468
 8580SOL    HW137199   2.721   3.560   1.294  1.0761 -0.3223  0.7442
 8580SOL    HW237200   2.752   3.455   1.393  0.4522  1.0322 -0.2029
 8581SOL     OW37201   0.076   3.800  12.501  0.4239  0.0548  0.0100
 8581SOL    HW137202   0.029   3.795  12.585 -0.0719  1.9071 -0.1602
 8581SOL    HW237203   0.002   3.783  12.443  2.1978 -0.7873 -1.9773
 8582SOL     OW37204   0.363   4.618  13.839  0.1761  0.0701 -0.5146
 8582SOL    HW137205   0.355   4.607  13.744 -0.8267 -1.5314 -0.2385
 8582SOL    HW237206   0.408   4.535  13.854  0.6083  0.4645  0.3579
 8583SOL     OW37207   4.078   1.565   6.254  0.1610 -0.3017 -0.0662
 8583SOL    HW137208   4.052   1.608   6.172  1.0347 -0.6276 -0.5208
 8583SOL    HW237209   4.002   1.599   6.300 -0.8541 -1.8348 -0.6227
 8584SOL     OW37210   1.690   2.461  11.852 -1.2681 -0.2305  0.0947
 8584SOL    HW137211   1.663   2.474  11.761  0.3907  0.5762 -0.2844
 8584SOL    HW237212   1.737   2.378  11.852  0.0202  0.5053  1.9857
 8585SOL     OW37213   4.646   3.960  17.038  0.1222 -0.4488 -0.4827
 8585SOL    HW137214   4.717   3.895  17.039  0.9035  0.4202  0.2744
 8585SOL    HW237215   4.615   3.948  16.949 -1.7969 -0.7758  0.2295
 8586SOL     OW37216   4.643   0.015   9.311 -0.5384 -0.0488  0.4838
 8586SOL    HW137217   4.719   4.721   9.255  0.1446 -0.1986  1.4396
 8586SOL    HW237218   4.683   0.038   9.395 -1.8325  0.2127  1.0356
 8587SOL     OW37219   0.174   0.542   5.184 -0.2422  0.5505 -0.2020
 8587SOL    HW137220   0.205   0.455   5.208 -2.2447 -0.0096  0.2985
 8587SOL    HW237221   0.252   0.573   5.137 -1.3477 -1.0774 -3.0967
 8588SOL     OW37222   2.473   2.585  11.757  0.4239  0.0121 -0.0490
 8588SOL    HW137223   2.510   2.506  11.719 -1.0861  0.3842 -2.2934
 8588SOL    HW237224   2.389   2.546  11.783  1.7785  0.1077  4.4652
 8589SOL     OW37225   1.141   2.616   0.187 -0.6891 -0.2543  0.4094
 8589SOL    HW137226   1.061   2.568   0.167 -0.6018 -0.7567  1.2670
 8589SOL    HW237227   1.114   2.677   0.255  1.2348  0.0362  0.9150
 8590SOL     OW37228   1.503   4.404   4.145 -0.1458 -0.3891 -0.4469
 8590SOL    HW137229   1.484   4.498   4.142  2.4272  0.1649  0.5736
 8590SOL    HW237230   1.555   4.396   4.225 -0.1272  1.0782 -0.3076
 8591SOL     OW37231   2.874   3.673   7.060  0.2884  0.2903  0.2358
 8591SOL    HW137232   2.925   3.628   6.993  1.4444  1.3752  0.3816
 8591SOL    HW237233   2.791   3.629   7.044 -0.0221 -0.1922  3.2882
 8592SOL     OW37234   3.568   2.294   1.082 -0.7256 -0.3999  0.1483
 8592SOL    HW137235   3.616   2.371   1.112 -0.1079 -0.6819 -0.1124
 8592SOL    HW237236   3.648   2.242   1.068  1.8119  2.8114  2.8588
 8593SOL     OW37237   0.123   2.820   8.363 -0.5629  0.5245 -0.1092
 8593SOL    HW137238   0.118   2.731   8.398  1.8566  0.5550  0.2936
 8593SOL    HW237239   0.039   2.861   8.385 -1.5851 -1.9410  0.5276
 8594SOL     OW37240   2.563   3.692   4.342 -0.1531  0.6363  0.3668
 8594SOL    HW137241   2.492   3.724   4.398 -2.1216 -1.1613 -1.1468
 8594SOL    HW237242   2.582   3.767   4.286  1.9822 -1.5388 -1.8227
 8595SOL     OW37243   1.972   4.631   3.970 -0.4467 -0.0022  0.2957
 8595SOL    HW137244   1.897   4.686   3.948 -0.8612 -1.6391 -2.3966
 8595SOL    HW237245   2.023   4.632   3.889 -1.1193 -0.2411 -0.1353
 8596SOL     OW37246   3.153   1.865  11.181 -0.2545  0.4770  0.1344
 8596SOL    HW137247   3.223   1.820  11.229 -1.2415 -1.2275 -0.0174
 8596SOL    HW237248   3.176   1.952  11.212  0.7384  0.5857 -0.8999
 8597SOL     OW37249   4.648   0.998   8.465 -0.7452  0.2444 -0.8022
 8597SOL    HW137250   4.677   1.061   8.530 -0.7900  0.3954 -0.9282
 8597SOL    HW237251   4.677   1.047   8.388 -0.7442 -0.1193 -1.0398
 8598SOL     OW37252   2.188   3.831  14.495 -0.4458  0.0803 -0.3466
 8598SOL    HW137253   2.262   3.887  14.472 -0.6249 -0.2231 -1.6790
 8598SOL    HW237254   2.170   3.846  14.588  0.8632 -0.0004 -0.0749
 8599SOL     OW37255   3.952   3.023   3.588 -0.3071  0.5513  0.2300
 8599SOL    HW137256   3.897   2.970   3.529 -1.4342  0.7258  1.1248
 8599SOL    HW237257   4.025   3.037   3.527 -0.1379  1.3628  0.6223
 8600SOL     OW37258   2.583   1.212   4.171 -0.4712 -0.5111 -0.1231
 8600SOL    HW137259   2.577   1.189   4.078  0.6956 -0.8699 -0.1149
 8600SOL    HW237260   2.495   1.249   4.183  0.4282  1.7275 -0.3712
 8601SOL     OW37261   1.291   2.471   0.420 -0.6206 -0.5853  0.1910
 8601SOL    HW137262   1.297   2.554   0.467 -2.9161  0.9922 -2.3084
 8601SOL    HW237263   1.254   2.502   0.337  0.7153  0.5100 -0.0056
 8602SOL     OW37264   2.162   2.383   6.353  0.2452  0.2476 -0.6237
 8602SOL    HW137265   2.193   2.434   6.278 -4.0040  2.2146 -1.0790
 8602SOL    HW237266   2.074   2.361   6.320 -0.8227  1.1662  1.6646
 8603SOL     OW37267   1.356   2.989  17.158 -0.2601  0.5458 -0.3524
 8603SOL    HW137268   1.292   3.012  17.090  0.5091  1.6217 -0.7172
 8603SOL    HW237269   1.423   2.938  17.114  0.4915  2.4522 -1.4215
 8604SOL     OW37270   2.958   2.562   8.742  0.6359 -0.6210 -0.1884
 8604SOL    HW137271   3.038   2.537   8.788  0.7598  3.7277  2.0270
 8604SOL    HW237272   2.974   2.651   8.710  1.3771 -0.6335  0.1507
 8605SOL     OW37273   2.539   1.103   5.752  0.3977 -0.2759  0.2394
 8605SOL    HW137274   2.526   1.157   5.830  0.9597 -0.6242  0.5802
 8605SOL    HW237275   2.456   1.057   5.762 -0.3249  1.0454  0.3126
 8606SOL     OW37276   4.235   1.736   0.323  0.2419  0.0598 -0.1386
 8606SOL    HW137277   4.253   1.827   0.298  1.0472  0.3419  1.4665
 8606SOL    HW237278   4.239   1.746   0.418 -1.0609 -0.9907  0.0160
 8607SOL     OW37279   3.998   1.013   8.283 -0.0147  0.0126  0.0502
 8607SOL    HW137280   4.021   1.038   8.194  0.2523  0.9388  0.3854
 8607SOL    HW237281   3.907   1.003   8.257 -0.1328  2.4057 -0.3790
 8608SOL     OW37282   0.645   0.305  14.624  0.5303  0.0377  1.1349
 8608SOL    HW137283   0.627   0.386  14.576 -0.4269  0.6972  2.5841
 8608SOL    HW237284   0.692   0.353  14.692  0.0528  0.8632  0.8864
 8609SOL     OW37285   2.414   4.512  11.121 -0.2726  0.1699 -0.1420
 8609SOL    HW137286   2.474   4.583  11.098  0.7119 -0.6362 -0.1098
 8609SOL    HW237287   2.411   4.471  11.034 -4.4988 -1.6534  0.8499
 8610SOL     OW37288   4.299   1.172   4.410  0.5421  0.6547  0.3019
 8610SOL    HW137289   4.299   1.247   4.469  0.6763  0.8399  0.0672
 8610SOL    HW237290   4.366   1.111   4.440 -0.3288 -0.8029 -0.7039
 8611SOL     OW37291   1.782   0.796   2.472  0.5271 -0.1302 -0.4851
 8611SOL    HW137292   1.771   0.886   2.439  0.1723 -0.8536 -2.3665
 8611SOL    HW237293   1.700   0.753   2.445  1.6748 -1.2345 -2.2095
 8612SOL     OW37294   3.471   3.537   1.690 -0.2210  0.6797  0.0457
 8612SOL    HW137295   3.519   3.565   1.612 -0.7595 -1.8006 -1.1539
 8612SOL    HW237296   3.536   3.495   1.746  1.3371  0.1920 -2.1245
 8613SOL     OW37297   3.665   2.191  13.780 -0.0844  0.0496  0.4560
 8613SOL    HW137298   3.611   2.161  13.706  0.3594  0.5450 -0.0712
 8613SOL    HW237299   3.705   2.105  13.795  1.0501  0.7589  1.4206
 8614SOL     OW37300   1.085   2.931   4.780 -0.7384  0.2624 -0.5867
 8614SOL    HW137301   1.027   2.922   4.704  0.6257  1.0366 -1.7267
 8614SOL    HW237302   1.168   2.962   4.743 -1.3752  0.0119 -2.2285
 8615SOL     OW37303   3.357   2.892   9.418  0.0385 -0.3135 -0.2196
 8615SOL    HW137304   3.308   2.816   9.451 -0.0337  1.2104  3.2327
 8615SOL    HW237305   3.388   2.939   9.495 -0.5821  0.0662 -0.1977
 8616SOL     OW37306   2.939   1.678   6.454 -0.0633 -0.2482  0.2272
 8616SOL    HW137307   2.948   1.586   6.479  0.6462 -0.5063 -0.9891
 8616SOL    HW237308   3.004   1.680   6.384  0.8539 -2.1931  1.0185
 8617SOL     OW37309   0.260   0.831   5.701  0.2964 -0.0466 -0.4419
 8617SOL    HW137310   0.180   0.790   5.733  1.5329 -2.3355 -0.3143
 8617SOL    HW237311   0.257   0.805   5.609  0.9759 -2.9020  0.3485
 8618SOL     OW37312   0.626   2.808   6.137 -0.6090  0.3070 -0.0335
 8618SOL    HW137313   0.605   2.895   6.171  1.1933  0.2344  1.2692
 8618SOL    HW237314   0.649   2.754   6.213 -0.2113  0.5537  0.0227
 8619SOL     OW37315   2.407   0.549   5.319  0.5573 -0.2337  0.5391
 8619SOL    HW137316   2.496   0.583   5.323  0.8327 -0.7832 -1.1538
 8619SOL    HW237317   2.409   0.473   5.378 -1.1367 -0.6678  0.0443
 8620SOL     OW37318   3.484   1.533   4.831  0.4545  0.2722 -0.0379
 8620SOL    HW137319   3.558   1.477   4.853  1.4435  1.2835 -0.7848
 8620SOL    HW237320   3.519   1.614   4.868 -1.8707  0.7259  1.1107
 8621SOL     OW37321   1.203   2.035   2.866  0.4386 -0.1291 -0.9942
 8621SOL    HW137322   1.224   1.941   2.869 -0.8291 -0.3045  2.0832
 8621SOL    HW237323   1.230   2.056   2.777  1.5496  0.3490 -0.5450
 8622SOL     OW37324   2.726   2.232  15.789  0.2367  0.2253  0.4557
 8622SOL    HW137325   2.737   2.274  15.703 -0.4123 -0.6533 -0.0584
 8622SOL    HW237326   2.631   2.228  15.797  0.4247 -2.2785  1.4576
 8623SOL     OW37327   1.091   1.560   1.967  0.0582  0.3729  0.0737
 8623SOL    HW137328   1.035   1.594   2.036  0.6860  1.2815  0.1347
 8623SOL    HW237329   1.025   1.551   1.899 -1.0725 -0.5386  1.2933
 8624SOL     OW37330   2.384   4.290   5.065  0.0358  0.2919  0.5928
 8624SOL    HW137331   2.336   4.352   5.121  0.1004  2.1695 -1.4589
 8624SOL    HW237332   2.340   4.307   4.982  2.9956  0.3812 -0.9343
 8625SOL     OW37333   2.891   4.649  15.521 -0.4911 -0.4408  0.2742
 8625SOL    HW137334   2.980   4.684  15.526 -1.1111  1.3474 -1.1233
 8625SOL    HW237335   2.837   4.721  15.553  0.1114  1.0342 -2.0224
 8626SOL     OW37336   0.947   3.969  11.855 -0.3327 -0.6346 -0.2694
 8626SOL    HW137337   0.978   4.047  11.810 -1.2577  0.5273  1.1168
 8626SOL    HW237338   1.013   3.959  11.924  0.2378  3.1901 -0.2386
 8627SOL     OW37339   1.082   3.011   4.001  0.7156  0.0834  0.0271
 8627SOL    HW137340   1.059   2.996   3.909 -1.1168  1.7532  0.2220
 8627SOL    HW237341   1.026   3.080   4.035 -0.2707 -0.4856 -0.4456
 8628SOL     OW37342   1.923   4.071   2.523  0.0153 -0.3106 -0.1958
 8628SOL    HW137343   1.904   4.110   2.437  0.1147  0.8132  0.2862
 8628SOL    HW237344   1.874   4.131   2.578  1.6119  0.2771  0.5972
 8629SOL     OW37345   1.558   0.601  12.571 -0.6210 -0.3154 -0.7394
 8629SOL    HW137346   1.601   0.518  12.551 -0.7872  0.0537 -2.5667
 8629SOL    HW237347   1.596   0.619  12.658  0.1970 -1.0343 -0.9471
 8630SOL     OW37348   0.088   2.563   5.525  0.2504 -0.8645 -0.1217
 8630SOL    HW137349   0.180   2.573   5.553  1.0854 -1.5610 -2.6902
 8630SOL    HW237350   0.101   2.549   5.432 -0.7664 -1.0851 -0.2199
 8631SOL     OW37351   2.948   4.307   2.375 -0.2990 -0.0068 -0.4613
 8631SOL    HW137352   2.938   4.373   2.443  0.3118  0.0364 -0.4070
 8631SOL    HW237353   3.000   4.362   2.316 -0.5124 -1.0271 -1.6039
 8632SOL     OW37354   0.978   1.835   3.318  0.5864  0.0509 -0.8797
 8632SOL    HW137355   0.917   1.799   3.382 -0.2265  2.2095 -0.4370
 8632SOL    HW237356   0.914   1.885   3.267  0.1908  2.2850  1.7670
 8633SOL     OW37357   3.037   2.926   1.505 -0.0475 -0.0849 -0.7570
 8633SOL    HW137358   2.948   2.956   1.487  0.6309  2.3659 -0.1096
 8633SOL    HW237359   3.090   3.004   1.521  1.1338 -1.3649  1.6021
 8634SOL     OW37360   1.988   4.118  11.853  0.6250  0.2428  0.2515
 8634SOL    HW137361   1.931   4.165  11.792 -0.3506 -1.3711 -0.0755
 8634SOL    HW237362   1.978   4.173  11.931 -0.9460  1.9903 -1.1695
 8635SOL     OW37363   3.279   3.484   7.120  0.6052  0.1542  0.1951
 8635SOL    HW137364   3.243   3.536   7.191  0.0121 -1.3133  0.9771
 8635SOL    HW237365   3.373   3.499   7.131  0.8492 -1.0783 -0.1648
 8636SOL     OW37366   3.154   1.369   0.391 -0.4088  0.1721  0.2444
 8636SOL    HW137367   3.210   1.319   0.332 -0.6496 -1.0703  1.0686
 8636SOL    HW237368   3.217   1.398   0.458 -0.4594 -0.8251  0.7319
 8637SOL     OW37369   3.399   0.053   9.814  0.2183  0.1641  0.2628
 8637SOL    HW137370   3.349   0.125   9.853 -1.8817 -2.0858  1.7777
 8637SOL    HW237371   3.443   0.026   9.895  0.1922  0.5419  0.4061
 8638SOL     OW37372   1.493   3.857   6.336  0.8472  0.0758  0.3995
 8638SOL    HW137373   1.504   3.884   6.244  1.2309  1.2453  0.7788
 8638SOL    HW237374   1.571   3.898   6.373  2.3955 -2.2516 -0.2943
 8639SOL     OW37375   2.785   0.349   8.447  0.4436  0.5344 -0.2622
 8639SOL    HW137376   2.721   0.303   8.502  1.0180 -0.7442 -0.6523
 8639SOL    HW237377   2.863   0.352   8.502  1.8183 -1.9420 -2.0434
 8640SOL     OW37378   3.267   0.341   4.631 -0.7021  0.1756  0.3729
 8640SOL    HW137379   3.280   0.354   4.537 -0.6067 -2.3018  0.0214
 8640SOL    HW237380   3.230   0.429   4.639 -2.7057 -0.5443 -1.0477
 8641SOL     OW37381   1.264   2.434  10.079  0.4167  0.0000 -1.1022
 8641SOL    HW137382   1.175   2.411  10.104  0.7133 -0.7145 -0.7045
 8641SOL    HW237383   1.294   2.464  10.165 -1.2025 -1.3413 -0.0914
 8642SOL     OW37384   0.886   0.175   8.569  0.3294  0.6050  0.4100
 8642SOL    HW137385   0.895   0.269   8.551  3.3104  0.5784  1.7696
 8642SOL    HW237386   0.791   0.173   8.565  0.3224  0.0870  1.0420
 8643SOL     OW37387   2.079   1.429   8.588 -0.3628  0.6903 -0.1014
 8643SOL    HW137388   2.024   1.351   8.583 -0.9314  1.1319 -0.8356
 8643SOL    HW237389   2.155   1.387   8.628 -0.7905  1.8968  1.9229
 8644SOL     OW37390   4.617   2.568   8.287 -0.5603  0.2535 -0.2210
 8644SOL    HW137391   4.698   2.545   8.333  0.4497  0.4419 -1.9097
 8644SOL    HW237392   4.581   2.480   8.277 -0.5762  0.2749 -0.3527
 8645SOL     OW37393   2.940   0.850  10.151  0.2270 -0.6186 -0.2609
 8645SOL    HW137394   3.021   0.888  10.183 -0.0018  0.9108 -1.4833
 8645SOL    HW237395   2.920   0.909  10.079  0.4210 -0.3637 -0.1052
 8646SOL     OW37396   2.681   0.257   0.694  0.4369 -0.5643  0.1085
 8646SOL    HW137397   2.605   0.203   0.713  0.3709 -0.7708 -0.7342
 8646SOL    HW237398   2.715   0.212   0.617 -0.5816 -2.0781  0.5545
 8647SOL     OW37399   3.470   1.223  12.558 -0.0608  0.4710  0.1881
 8647SOL    HW137400   3.560   1.253  12.569  0.1277 -0.5102  1.3043
 8647SOL    HW237401   3.428   1.280  12.622 -1.2112  1.5969 -1.5563
 8648SOL     OW37402   2.443   2.587   8.753  0.2961 -0.6505 -0.5207
 8648SOL    HW137403   2.402   2.622   8.832 -1.8625 -2.7093 -0.7357
 8648SOL    HW237404   2.532   2.578   8.788  1.1384  0.4561 -2.3867
 8649SOL     OW37405   0.308   3.406   5.679 -0.3858 -0.2377 -0.1880
 8649SOL    HW137406   0.277   3.497   5.677  0.7064  0.1376 -0.1180
 8649SOL    HW237407   0.226   3.360   5.664 -1.5401  2.0348 -0.9289
 8650SOL     OW37408   2.796   4.093   6.917 -0.0394  0.0668  0.2531
 8650SOL    HW137409   2.813   4.155   6.846  1.9178 -1.5661 -0.6939
 8650SOL    HW237410   2.738   4.039   6.863 -0.4007  2.6111 -1.8911
 8651SOL     OW37411   3.599   1.348   7.486 -0.1064  0.1657 -0.1514
 8651SOL    HW137412   3.640   1.391   7.411 -1.4704 -0.1202 -1.0594
 8651SOL    HW237413   3.673   1.311   7.534 -0.2830 -0.3996 -0.3148
 8652SOL     OW37414   3.430   0.336   5.999 -0.7926 -0.4113 -0.3993
 8652SOL    HW137415   3.376   0.257   5.996 -0.3921 -0.6708 -0.6875
 8652SOL    HW237416   3.366   0.399   6.032 -0.9552 -0.6569 -0.2395
 8653SOL     OW37417   3.322   3.055   3.523  0.3013 -0.1626  0.0617
 8653SOL    HW137418   3.253   3.118   3.503 -1.5056 -1.8824  0.9077
 8653SOL    HW237419   3.268   2.995   3.574  2.3253 -1.4467  0.7207
 8654SOL     OW37420   2.371   1.457   6.376 -0.7410 -0.3824 -0.4858
 8654SOL    HW137421   2.449   1.503   6.407 -1.8795 -0.5697  2.7110
 8654SOL    HW237422   2.349   1.495   6.291 -3.4848 -3.2701 -1.0725
 8655SOL     OW37423   2.849   3.042  10.229 -0.0481 -0.0990  0.6595
 8655SOL    HW137424   2.765   3.035  10.184 -0.2503  0.4765  0.9608
 8655SOL    HW237425   2.815   3.111  10.285  0.0791  0.3323  0.2038
 8656SOL     OW37426   2.469   3.531   9.184  0.1175  0.4119  0.6534
 8656SOL    HW137427   2.521   3.476   9.126 -1.2894  1.2087 -1.3736
 8656SOL    HW237428   2.468   3.624   9.161 -0.8845  0.2467  0.0409
 8657SOL     OW37429   3.055   1.647   5.254 -0.2470  0.3128  0.0086
 8657SOL    HW137430   3.130   1.687   5.209 -0.6596  0.0581 -0.8946
 8657SOL    HW237431   3.055   1.557   5.221  0.5504  0.2394  0.2066
 8658SOL     OW37432   3.155   1.083   5.124 -0.4021  0.2671  0.4750
 8658SOL    HW137433   3.177   0.996   5.090 -2.4222 -1.5312  3.7699
 8658SOL    HW237434   3.166   1.060   5.216  2.5850 -3.1067 -0.7424
 8659SOL     OW37435   2.183   0.648  11.449 -0.1464  0.4104  0.3366
 8659SOL    HW137436   2.106   0.704  11.456 -0.4655  0.0458 -0.2728
 8659SOL    HW237437   2.248   0.701  11.495 -0.3155  1.4965 -0.6850
 8660SOL     OW37438   0.211   2.722   7.824 -0.1945  0.3291  0.5406
 8660SOL    HW137439   0.304   2.731   7.803  0.1280  1.1912  2.2885
 8660SOL    HW237440   0.211   2.737   7.919  0.5569  4.1949 -0.0706
 8661SOL     OW37441   4.661   1.163   1.142  0.6825 -0.1322 -0.1063
 8661SOL    HW137442   4.607   1.241   1.132 -0.6999 -1.0057  0.5581
 8661SOL    HW237443   4.604   1.095   1.106 -0.4402  0.8792 -0.2242
 8662SOL     OW37444   2.149   4.289  17.500  0.0437  0.0609 -1.3279
 8662SOL    HW137445   2.168   4.373  17.541 -0.9059 -1.1477  1.5786
 8662SOL    HW237446   2.175   4.223  17.565 -1.1175  1.4797  0.5661
 8663SOL     OW37447   3.875   2.356  12.471  0.0044  0.3157  0.4331
 8663SOL    HW137448   3.848   2.446  12.451  0.2877  0.3111  0.0102
 8663SOL    HW237449   3.792   2.315  12.448 -0.8751  0.9720  2.4879
 8664SOL     OW37450   0.242   2.467   1.555  0.0481  0.4219  0.0528
 8664SOL    HW137451   0.183   2.489   1.628  0.7304 -1.4309  1.1534
 8664SOL    HW237452   0.184   2.488   1.481 -1.9541  2.6543  2.2189
 8665SOL     OW37453   3.272   1.722   7.879 -0.1709 -0.3750  0.4056
 8665SOL    HW137454   3.206   1.790   7.874  0.1614 -0.1573 -1.0741
 8665SOL    HW237455   3.205   1.671   7.834  0.2833 -0.4876 -0.1411
 8666SOL     OW37456   2.998   3.982  10.874  0.1599  0.1002 -0.0720
 8666SOL    HW137457   2.997   4.067  10.831 -1.1272 -0.3012 -0.8421
 8666SOL    HW237458   3.090   3.955  10.868  1.1159  2.7916  2.4166
 8667SOL     OW37459   2.256   0.002   7.737 -0.8431  0.1358 -0.0245
 8667SOL    HW137460   2.210   0.065   7.682 -1.8657 -0.2188  0.4270
 8667SOL    HW237461   2.190   4.659   7.761  0.5963 -1.1015  0.5573
 8668SOL     OW37462   4.158   0.435   6.893 -0.1474 -0.3656  0.0187
 8668SOL    HW137463   4.221   0.401   6.956 -0.3201  1.3294  1.0994
 8668SOL    HW237464   4.109   0.491   6.953  1.7046  0.4364  0.7754
 8669SOL     OW37465   3.147   3.099   2.241  0.4155 -0.3165 -0.1204
 8669SOL    HW137466   3.123   3.030   2.179  0.3571  1.1817 -1.7590
 8669SOL    HW237467   3.237   3.123   2.222 -0.3245  1.5191 -1.3580
 8670SOL     OW37468   0.214   3.910   1.559  0.2118 -0.2371 -0.5790
 8670SOL    HW137469   0.135   3.860   1.539  0.7369 -1.4867  0.4281
 8670SOL    HW237470   0.198   3.942   1.647 -1.0244 -2.6922  0.0968
 8671SOL     OW37471   0.739   1.866  12.384 -0.3722 -0.1861  0.3711
 8671SOL    HW137472   0.793   1.824  12.451 -2.2211 -2.2771  0.5334
 8671SOL    HW237473   0.755   1.958  12.403  1.2710 -0.2770 -0.4802
 8672SOL     OW37474   0.722   0.546   2.644  0.9222 -0.1802 -0.1750
 8672SOL    HW137475   0.695   0.546   2.552  1.1897 -0.6063 -0.2529
 8672SOL    HW237476   0.679   0.618   2.690 -1.2278 -0.8491 -1.1148
 8673SOL     OW37477   2.956   4.559   6.980 -0.7421  0.4558 -0.3095
 8673SOL    HW137478   2.966   4.627   6.914 -0.9831  0.9271  0.1460
 8673SOL    HW237479   2.864   4.577   6.998 -1.0484 -1.1831 -0.2355
 8674SOL     OW37480   4.116   1.781   6.012 -0.1401  0.1233 -0.5103
 8674SOL    HW137481   4.209   1.771   5.995 -0.4247 -1.7789 -0.9898
 8674SOL    HW237482   4.118   1.865   6.057 -0.5309 -0.1126 -0.0536
 8675SOL     OW37483   2.116   0.410  11.812 -0.5068 -0.0804  0.0825
 8675SOL    HW137484   2.026   0.443  11.815 -0.3798  0.3394 -0.8634
 8675SOL    HW237485   2.161   0.494  11.817 -1.5887  0.5045  0.0447
 8676SOL     OW37486   3.677   2.249   7.198  0.3329  0.0751 -0.4985
 8676SOL    HW137487   3.772   2.257   7.186  0.2400  1.9318 -0.0568
 8676SOL    HW237488   3.656   2.193   7.123  1.4214 -1.5411  0.4265
 8677SOL     OW37489   1.698   3.677   6.131  0.1099  0.2353  0.6147
 8677SOL    HW137490   1.773   3.709   6.080 -0.2413 -0.0175 -0.0611
 8677SOL    HW237491   1.732   3.649   6.216  1.1434 -1.6667 -0.4155
 8678SOL     OW37492   2.849   1.511   2.149  0.2594 -0.1072 -0.1084
 8678SOL    HW137493   2.794   1.507   2.071  0.8771  0.9226 -0.6051
 8678SOL    HW237494   2.793   1.476   2.218  1.1392 -2.0440 -0.3861
 8679SOL     OW37495   2.294   0.511  10.203  0.3455  0.8081 -0.2752
 8679SOL    HW137496   2.335   0.466  10.129 -1.0996 -0.3302 -0.3862
 8679SOL    HW237497   2.235   0.573  10.160 -0.9307 -0.6495 -0.6235
 8680SOL     OW37498   1.112   2.326   4.682  0.2774  0.1378 -0.2703
 8680SOL    HW137499   1.173   2.321   4.608 -2.4601 -1.7181 -2.4043
 8680SOL    HW237500   1.174   2.330   4.755  1.0888 -0.4047 -0.9258
 8681SOL     OW37501   0.342   4.293  10.097 -0.2732 -0.3473 -0.0526
 8681SOL    HW137502   0.355   4.364  10.161 -0.7674 -0.7769  0.5232
 8681SOL    HW237503   0.337   4.353  10.023  0.1967  0.9140  0.9219
 8682SOL     OW37504   3.520   2.648   7.365  0.0948 -0.1506  0.6119
 8682SOL    HW137505   3.456   2.670   7.432 -1.8564 -2.2568 -0.5887
 8682SOL    HW237506   3.513   2.553   7.364 -1.9837  0.0496 -1.6347
 8683SOL     OW37507   1.574   0.385  13.704  0.1457  0.8220  0.0822
 8683SOL    HW137508   1.606   0.301  13.672 -0.6364  0.1378  1.1148
 8683SOL    HW237509   1.647   0.405  13.763  0.3395  1.7060 -0.4557
 8684SOL     OW37510   3.017   3.966  14.435 -0.6163 -0.1202  0.2035
 8684SOL    HW137511   3.028   3.873  14.454  3.7228  1.3843  5.0297
 8684SOL    HW237512   2.965   3.991  14.512  0.8210 -0.1676  1.2000
 8685SOL     OW37513   0.198   4.180   4.769 -0.3962 -0.0422  0.5379
 8685SOL    HW137514   0.238   4.165   4.854  0.3537  0.4233  0.2687
 8685SOL    HW237515   0.196   4.275   4.774 -0.7161 -0.1346  2.1949
 8686SOL     OW37516   0.596   1.559   0.460 -0.6300  0.2422  0.1940
 8686SOL    HW137517   0.527   1.585   0.400 -0.3998 -1.8591 -0.9657
 8686SOL    HW237518   0.534   1.549   0.532 -0.5656  0.1992  0.2443
 8687SOL     OW37519   1.756   2.049   4.281  0.3417 -0.3853  0.4098
 8687SOL    HW137520   1.782   1.992   4.353  2.0698  0.8815  0.7689
 8687SOL    HW237521   1.787   2.137   4.304  0.5387 -0.3687  0.0764
 8688SOL     OW37522   4.361   1.421   0.498 -0.0771  0.9444  0.1584
 8688SOL    HW137523   4.358   1.431   0.593 -0.0106  1.5340  0.0961
 8688SOL    HW237524   4.275   1.451   0.467 -1.6733 -3.8242  0.0109
 8689SOL     OW37525   1.847   3.959   8.790  0.4330 -0.2778  0.7964
 8689SOL    HW137526   1.759   3.952   8.828 -0.9692 -0.2563 -2.4306
 8689SOL    HW237527   1.900   4.011   8.850 -0.1022  1.8358 -0.5609
 8690SOL     OW37528   1.619   3.592   7.525 -0.4406 -0.5405 -0.0162
 8690SOL    HW137529   1.639   3.577   7.617 -0.9176  1.8791  0.4813
 8690SOL    HW237530   1.589   3.502   7.508 -4.8117  0.5173  1.9508
 8691SOL     OW37531   0.007   4.489   2.454  0.1377 -0.0231 -0.1057
 8691SOL    HW137532   4.693   4.418   2.508  0.0857  0.3063  0.2948
 8691SOL    HW237533   4.650   4.522   2.412 -1.4559 -1.1740  1.9712
 8692SOL     OW37534   4.534   2.142   5.019  0.0801 -0.2060  0.0439
 8692SOL    HW137535   4.442   2.142   4.993 -0.8158  0.6725  3.1810
 8692SOL    HW237536   4.538   2.063   5.074  0.1457  0.9554  1.7091
 8693SOL     OW37537   0.323   3.005   6.544 -0.3608 -0.5052  0.0479
 8693SOL    HW137538   0.374   2.926   6.560 -0.8014 -0.6667  0.6534
 8693SOL    HW237539   0.256   2.962   6.491  0.6381 -0.5097 -1.2145
 8694SOL     OW37540   0.209   3.857   0.461  0.2234  0.3239  0.1908
 8694SOL    HW137541   0.299   3.855   0.428  0.1632  0.3971  0.0240
 8694SOL    HW237542   0.212   3.770   0.501 -1.0230  0.5309  0.7469
 8695SOL     OW37543   1.733   0.247   6.155 -0.6881 -0.0453 -0.1710
 8695SOL    HW137544   1.685   0.204   6.225 -0.2297 -0.3309 -0.0302
 8695SOL    HW237545   1.772   0.320   6.204  1.8756 -1.1964 -0.5015
 8696SOL     OW37546   3.725   4.507   5.163  0.7879  0.2525  0.1559
 8696SOL    HW137547   3.685   4.496   5.077  3.4457 -2.0908 -0.7812
 8696SOL    HW237548   3.729   4.602   5.167 -1.3610  0.3364  0.1782
 8697SOL     OW37549   1.938   3.533   7.700  0.5371 -0.3773 -0.2029
 8697SOL    HW137550   2.022   3.527   7.655  1.0662  1.8238  0.4687
 8697SOL    HW237551   1.883   3.474   7.648 -0.0964  1.3495 -1.5207
 8698SOL     OW37552   2.273   0.338  16.931 -0.8143  0.5029  0.5194
 8698SOL    HW137553   2.344   0.316  16.871  0.3991  2.4990  1.2350
 8698SOL    HW237554   2.204   0.307  16.873  0.1843  0.5502 -0.7014
 8699SOL     OW37555   1.040   3.857   9.352  0.5280  0.4454  0.2235
 8699SOL    HW137556   0.998   3.934   9.389 -0.6840 -1.3460  2.5844
 8699SOL    HW237557   1.084   3.895   9.276 -0.1607 -0.1255 -0.4554
 8700SOL     OW37558   1.443   1.296  16.375 -0.7535  0.1997 -0.3499
 8700SOL    HW137559   1.457   1.259  16.462 -0.1909 -1.2019 -1.0303
 8700SOL    HW237560   1.353   1.329  16.380 -0.8470  0.2184 -2.3941
 8701SOL     OW37561   1.917   3.659   5.366  0.0731 -0.0126 -0.5554
 8701SOL    HW137562   1.896   3.750   5.342  2.6503  0.8268  0.4145
 8701SOL    HW237563   1.983   3.676   5.433  2.2101 -1.6102 -2.2645
 8702SOL     OW37564   0.133   0.228   4.775  0.1362 -0.1180  0.1434
 8702SOL    HW137565   0.102   0.191   4.858  0.0454  1.3783  0.7812
 8702SOL    HW237566   0.135   0.318   4.807  1.8745 -0.1299  0.0470
 8703SOL     OW37567   2.242   1.068   5.450 -0.0779  0.4078  0.2498
 8703SOL    HW137568   2.279   1.155   5.464  0.3539 -0.0753  2.0614
 8703SOL    HW237569   2.290   1.035   5.374 -1.4137 -2.2196  0.5331
 8704SOL     OW37570   0.882   0.275   6.324 -0.5595  0.2570 -0.6534
 8704SOL    HW137571   0.833   0.294   6.404 -0.8391 -0.4308 -0.6585
 8704SOL    HW237572   0.962   0.318   6.354  0.4072 -0.5742 -2.0537
 8705SOL     OW37573   3.752   1.211   9.330  0.2587  0.2637  0.3880
 8705SOL    HW137574   3.737   1.230   9.422 -0.1627  1.7289  0.0240
 8705SOL    HW237575   3.678   1.155   9.306 -0.7945  1.5883  0.5815
 8706SOL     OW37576   0.322   2.983   7.359 -0.2939  0.0991  0.4750
 8706SOL    HW137577   0.297   2.897   7.391  1.5436 -1.0002 -1.0360
 8706SOL    HW237578   0.330   2.967   7.265  1.1673 -1.5822  0.8716
 8707SOL     OW37579   2.756   1.215   5.195  0.2307 -0.4038 -0.4513
 8707SOL    HW137580   2.825   1.222   5.261 -0.8359 -1.4975  0.7869
 8707SOL    HW237581   2.764   1.295   5.144  0.7131  0.1838  0.5541
 8708SOL     OW37582   1.787   2.611   4.314  0.1811  0.3664 -0.1737
 8708SOL    HW137583   1.877   2.609   4.282  0.3754  1.2925  0.3334
 8708SOL    HW237584   1.736   2.624   4.233 -2.9701  1.5021  2.0053
 8709SOL     OW37585   0.177   3.811   4.402  0.0037 -0.5376 -0.0403
 8709SOL    HW137586   0.189   3.833   4.310 -2.7050  1.5808  0.0982
 8709SOL    HW237587   0.205   3.893   4.442 -0.8193 -0.7787  1.0475
 8710SOL     OW37588   3.066   2.291  12.438  0.1075 -0.1233 -0.6589
 8710SOL    HW137589   3.051   2.203  12.402  0.1788 -0.8253  1.0729
 8710SOL    HW237590   3.147   2.277  12.486 -0.4302 -1.0336 -0.0154
 8711SOL     OW37591   3.198   1.710   6.608 -0.3606 -0.2118  0.0565
 8711SOL    HW137592   3.141   1.761   6.666 -1.0986 -0.4735 -0.4258
 8711SOL    HW237593   3.135   1.645   6.576 -1.1422  1.1923 -1.2224
 8712SOL     OW37594   1.582   3.058   1.353 -0.4447 -0.3732  0.5190
 8712SOL    HW137595   1.493   3.061   1.317  0.6314  0.1785 -2.0426
 8712SOL    HW237596   1.612   3.148   1.344  0.3126 -0.5694  1.0729
 8713SOL     OW37597   2.079   0.882   2.098 -0.4741  0.2069  0.1634
 8713SOL    HW137598   2.108   0.815   2.037 -0.2843  0.2225  0.2384
 8713SOL    HW237599   2.151   0.944   2.087 -1.1880  1.5930  3.2440
 8714SOL     OW37600   3.656   4.071   9.784 -0.0191 -0.6528  0.5175
 8714SOL    HW137601   3.572   4.033   9.758  1.2058 -2.4765 -0.8014
 8714SOL    HW237602   3.641   4.129   9.859  0.0983 -0.9975  0.8109
 8715SOL     OW37603   4.594   4.522   5.909  0.5543 -0.3031  0.0449
 8715SOL    HW137604   4.607   4.434   5.873  1.7994 -0.0872 -0.0214
 8715SOL    HW237605   4.619   4.499   5.999 -0.5424  2.0611  0.9533
 8716SOL     OW37606   2.420   3.484   2.041  0.4058 -0.1582  0.0464
 8716SOL    HW137607   2.365   3.562   2.049 -0.5485 -0.7297 -0.9229
 8716SOL    HW237608   2.505   3.521   2.065  0.5498 -1.0674  0.9564
 8717SOL     OW37609   1.259   4.362   7.973  0.0931 -0.6053 -0.5039
 8717SOL    HW137610   1.189   4.421   8.002  0.8539  0.6622 -1.2128
 8717SOL    HW237611   1.307   4.365   8.056 -0.9590  1.0911  0.0525
 8718SOL     OW37612   1.459   2.569   4.220 -0.3779  0.0781  0.5706
 8718SOL    HW137613   1.468   2.500   4.154 -1.8593 -1.2382  1.7431
 8718SOL    HW237614   1.460   2.644   4.160 -1.2000 -0.5243 -0.2051
 8719SOL     OW37615   0.993   3.625   1.206 -0.1195 -0.3381  0.4316
 8719SOL    HW137616   1.006   3.637   1.112 -0.5755 -1.7254  0.1863
 8719SOL    HW237617   1.030   3.540   1.229 -1.5601 -0.9562  0.4562
 8720SOL     OW37618   1.987   2.108  12.164 -0.3153 -0.0228 -0.0689
 8720SOL    HW137619   2.081   2.103  12.146  0.1747 -0.2585  2.5459
 8720SOL    HW237620   1.949   2.079  12.081 -2.7879  0.9430  0.7225
 8721SOL     OW37621   1.999   3.970   9.297 -0.4457 -0.4591  0.0999
 8721SOL    HW137622   1.921   4.002   9.251 -0.0707  0.0961 -0.1664
 8721SOL    HW237623   1.990   4.014   9.381 -1.0660  1.5475 -0.9843
 8722SOL     OW37624   1.232   2.879   7.515 -0.7892  0.0543  0.0392
 8722SOL    HW137625   1.241   2.970   7.545  1.0551 -0.3594  0.7579
 8722SOL    HW237626   1.150   2.851   7.553 -0.7117 -0.8360 -0.4543
 8723SOL     OW37627   3.381   3.028   2.892  0.4235  0.0694  0.3457
 8723SOL    HW137628   3.320   3.095   2.861 -0.5672 -1.3378 -0.7394
 8723SOL    HW237629   3.417   3.080   2.964 -0.2972 -0.1411  0.8693
 8724SOL     OW37630   1.505   3.075   0.900 -0.2187  0.3486  0.1484
 8724SOL    HW137631   1.508   3.077   0.805  2.2805  1.9811  0.2548
 8724SOL    HW237632   1.421   3.029   0.913 -0.0411 -0.6473 -2.2209
 8725SOL     OW37633   1.889   1.058   4.163  0.5189 -0.4734  0.3274
 8725SOL    HW137634   1.971   1.080   4.120  0.1257  2.2949  1.0166
 8725SOL    HW237635   1.874   1.140   4.210 -1.5237 -1.7576  1.9075
 8726SOL     OW37636   2.130   1.262   7.580  0.0754 -0.1317  0.0048
 8726SOL    HW137637   2.214   1.304   7.598 -0.5016  1.2001 -0.3866
 8726SOL    HW237638   2.090   1.274   7.666 -0.8347  1.8541 -0.6875
 8727SOL     OW37639   2.194   2.869   8.243 -0.0484 -0.3730 -0.2717
 8727SOL    HW137640   2.107   2.842   8.213 -1.2273 -0.5296  3.2975
 8727SOL    HW237641   2.244   2.788   8.230  2.8223  0.9878  2.2960
 8728SOL     OW37642   4.122   1.418   4.692 -0.1477 -0.0045 -0.4539
 8728SOL    HW137643   4.053   1.358   4.663  0.0649 -0.4315 -0.0761
 8728SOL    HW237644   4.174   1.363   4.751 -0.7520  1.2478  1.2205
 8729SOL     OW37645   1.578   2.802  10.740 -0.0168 -1.0064 -0.1905
 8729SOL    HW137646   1.570   2.807  10.836 -2.6895  1.5656 -0.5424
 8729SOL    HW237647   1.508   2.739  10.724 -1.4845  0.8964 -1.2187
 8730SOL     OW37648   2.219   2.439   4.232  0.2220  0.4266 -0.2297
 8730SOL    HW137649   2.272   2.453   4.311 -0.3352  0.3367  0.1588
 8730SOL    HW237650   2.279   2.463   4.162  1.2001 -3.3927 -0.7079
 8731SOL     OW37651   2.657   0.395   8.187  0.0036  0.5077 -0.0541
 8731SOL    HW137652   2.688   0.391   8.277  0.3158 -0.1853 -0.1922
 8731SOL    HW237653   2.705   0.468   8.149 -0.9983  1.4137  0.4256
 8732SOL     OW37654   1.316   0.451  13.672 -0.5983 -0.0511 -0.4914
 8732SOL    HW137655   1.401   0.415  13.694 -0.5548  0.5324  0.2984
 8732SOL    HW237656   1.319   0.542  13.704  3.1007 -0.0537 -0.8433
 8733SOL     OW37657   3.921   4.342   0.240 -0.0910  0.3620  0.0158
 8733SOL    HW137658   3.874   4.271   0.195  1.5069 -0.0093 -1.0570
 8733SOL    HW237659   3.863   4.367   0.312 -0.0674  1.3604 -0.3187
 8734SOL     OW37660   2.572   4.219   9.199  0.1233 -0.3473  0.1710
 8734SOL    HW137661   2.521   4.263   9.130  0.5074 -1.7803 -1.0157
 8734SOL    HW237662   2.654   4.268   9.185  0.0133  0.3206  1.9019
 8735SOL     OW37663   4.645   1.932   4.215  0.1717  0.0305 -0.3634
 8735SOL    HW137664   4.711   1.965   4.155  0.4252 -1.2003 -0.7675
 8735SOL    HW237665   4.621   1.848   4.175  0.1572 -1.1181  2.0737
 8736SOL     OW37666   1.302   0.725   3.284 -0.2945 -0.0820  0.0455
 8736SOL    HW137667   1.386   0.770   3.289  0.9455 -2.2645 -0.7490
 8736SOL    HW237668   1.310   0.695   3.193 -2.4754  0.4160 -0.3012
 8737SOL     OW37669   2.326   2.734  12.869 -0.1749 -0.0698 -0.2976
 8737SOL    HW137670   2.367   2.671  12.928  0.9720  1.3548  0.4345
 8737SOL    HW237671   2.308   2.810  12.925  0.5219  2.1612 -3.0839
 8738SOL     OW37672   0.064   1.820   6.146 -0.1911  0.0126  0.7549
 8738SOL    HW137673   0.085   1.739   6.192 -2.0007 -1.4914 -1.0399
 8738SOL    HW237674   0.152   1.856   6.137 -0.2769 -0.2025 -0.9672
 8739SOL     OW37675   2.836   4.077   3.881  0.1064 -0.5546 -0.2428
 8739SOL    HW137676   2.892   4.148   3.914  1.8534 -2.0007 -0.0999
 8739SOL    HW237677   2.781   4.059   3.957  0.7098  0.5707  0.4663
 8740SOL     OW37678   0.729   3.790   0.064 -0.3824  0.1374 -0.4762
 8740SOL    HW137679   0.819   3.816   0.083 -0.1744 -0.2708 -0.9119
 8740SOL    HW237680   0.730   3.798  17.661  1.2494 -2.6487 -0.6869
 8741SOL     OW37681   2.282   2.618   3.468 -0.8973 -0.7137  0.3507
 8741SOL    HW137682   2.295   2.526   3.445  1.2225 -0.4525  0.4929
 8741SOL    HW237683   2.218   2.647   3.403  0.3799  3.6730  1.0468
 8742SOL     OW37684   4.329   1.465   4.514  0.1520 -0.9553  0.0925
 8742SOL    HW137685   4.380   1.510   4.582 -1.3313 -1.7714  1.7587
 8742SOL    HW237686   4.245   1.458   4.560 -0.8901  1.6063 -1.4825
 8743SOL     OW37687   2.855   3.397  12.723 -0.2575  0.0392  1.0261
 8743SOL    HW137688   2.946   3.386  12.696 -0.4338  3.9340 -1.1802
 8743SOL    HW237689   2.830   3.471  12.668 -1.1099  0.7770  2.3861
 8744SOL     OW37690   1.780   1.687   5.645 -0.0619  0.3446 -0.3728
 8744SOL    HW137691   1.745   1.603   5.676  1.5243 -0.5306 -0.9616
 8744SOL    HW237692   1.818   1.654   5.564  1.1231  1.3393 -0.2201
 8745SOL     OW37693   2.208   2.945   2.867 -0.2529 -0.3317  0.5578
 8745SOL    HW137694   2.240   3.010   2.805 -2.2519 -1.8072 -2.0269
 8745SOL    HW237695   2.261   2.982   2.937 -1.6908  0.3888  1.2552
 8746SOL     OW37696   2.658   2.774   7.694  0.4951  0.5761 -0.1855
 8746SOL    HW137697   2.673   2.719   7.771  1.4161  2.0290  0.6692
 8746SOL    HW237698   2.702   2.856   7.714  0.2982  0.0418  2.4839
 8747SOL     OW37699   1.137   2.680   4.261 -0.0408 -0.2284  0.2873
 8747SOL    HW137700   1.207   2.739   4.236 -0.4790 -0.2112 -0.9054
 8747SOL    HW237701   1.054   2.728   4.254 -1.7274 -2.9258  1.6189
 8748SOL     OW37702   3.778   2.021  14.498  0.1333  0.2225  0.4831
 8748SOL    HW137703   3.778   1.937  14.544 -0.0159  0.3630  0.7421
 8748SOL    HW237704   3.850   2.069  14.539  0.6435  0.0393 -0.2070
 8749SOL     OW37705   3.850   4.714  14.603 -0.1149 -0.5244  0.0519
 8749SOL    HW137706   3.788   4.668  14.546 -1.5053  0.1301  1.0269
 8749SOL    HW237707   3.817   0.079  14.581  1.2605  0.2247  0.9434
 8750SOL     OW37708   2.673   3.017  16.746  0.3085  0.1022 -0.0596
 8750SOL    HW137709   2.586   2.978  16.746  0.6638 -0.7073 -0.4954
 8750SOL    HW237710   2.716   2.953  16.803  1.8644  0.0719 -1.2515
 8751SOL     OW37711   4.002   4.637   7.736  0.0807  0.1709 -0.0550
 8751SOL    HW137712   3.929   4.691   7.764 -0.3299 -1.2604  1.6154
 8751SOL    HW237713   3.999   4.656   7.642 -0.3626  1.4690  0.2352
 8752SOL     OW37714   0.634   0.515  10.170  0.3680  0.5355 -0.3452
 8752SOL    HW137715   0.646   0.586  10.106  2.3818 -1.6171 -2.3387
 8752SOL    HW237716   0.715   0.468  10.152 -0.4469 -0.8911 -0.3061
 8753SOL     OW37717   2.757   1.320  14.987  0.6434 -0.1570 -0.6848
 8753SOL    HW137718   2.704   1.358  14.916 -1.2486 -1.9743 -0.2491
 8753SOL    HW237719   2.703   1.342  15.064  0.3465 -0.9869 -0.6535
 8754SOL     OW37720   2.232   0.610   1.116 -0.0920  0.0238  0.0700
 8754SOL    HW137721   2.170   0.577   1.051 -0.7534 -0.9933  1.2179
 8754SOL    HW237722   2.306   0.639   1.061  1.9864  0.7976  3.3070
 8755SOL     OW37723   1.765   4.291  12.782  0.3669 -0.8148  0.1171
 8755SOL    HW137724   1.798   4.368  12.829  2.8860 -0.4381 -2.2565
 8755SOL    HW237725   1.699   4.250  12.837  0.9474  1.4298  2.4991
 8756SOL     OW37726   2.923   1.435  10.156 -0.0735  0.6090  0.7542
 8756SOL    HW137727   2.978   1.423  10.232 -0.1365  1.9808  1.0141
 8756SOL    HW237728   2.869   1.357  10.171 -0.7560  1.3748  2.2650
 8757SOL     OW37729   2.776   3.404   5.098  0.2002  0.2923 -0.0753
 8757SOL    HW137730   2.704   3.439   5.150 -0.3897 -1.3267  0.1955
 8757SOL    HW237731   2.779   3.317   5.138 -1.6104 -0.0685 -0.7039
 8758SOL     OW37732   3.674   0.581  17.682  0.3527  0.3326 -0.6626
 8758SOL    HW137733   3.709   0.557   0.076  0.3982  1.9377 -0.2281
 8758SOL    HW237734   3.629   0.662   0.012 -1.0226 -0.6833  0.2251
 8759SOL     OW37735   0.956   0.827  10.897  0.2719 -0.5697  0.0171
 8759SOL    HW137736   1.033   0.821  10.954 -1.3043  0.6794  2.2494
 8759SOL    HW237737   0.894   0.765  10.935  2.4305 -2.2197  0.8649
 8760SOL     OW37738   0.984   1.598   5.353  0.2617 -0.1956 -0.3281
 8760SOL    HW137739   0.898   1.558   5.360  0.3664 -0.5876 -1.2721
 8760SOL    HW237740   1.006   1.616   5.444 -0.0500  0.5276 -0.4010
 8761SOL     OW37741   2.141   1.614   5.937 -0.4052  0.1441  0.1042
 8761SOL    HW137742   2.140   1.557   5.860 -1.8392 -0.8915  0.8733
 8761SOL    HW237743   2.051   1.604   5.969 -0.8022  2.2261 -0.3703
 8762SOL     OW37744   4.364   3.740   3.274 -0.1599 -0.3205 -0.7121
 8762SOL    HW137745   4.436   3.724   3.214 -0.4033 -1.7277 -0.6496
 8762SOL    HW237746   4.355   3.653   3.313 -2.5620  0.1084 -0.3282
 8763SOL     OW37747   2.063   3.864   5.224 -0.1241 -0.0013 -0.1986
 8763SOL    HW137748   2.029   3.834   5.140  0.2104 -0.0194 -0.3256
 8763SOL    HW237749   2.071   3.957   5.203 -0.8122  0.1414  0.1712
 8764SOL     OW37750   2.355   1.734   8.589  0.3009  0.2896 -0.2846
 8764SOL    HW137751   2.348   1.806   8.525 -0.2878  0.2974 -0.2167
 8764SOL    HW237752   2.265   1.709   8.609  0.3683  1.0134  0.9463
 8765SOL     OW37753   2.806   1.338   4.060 -0.1836  0.7394  0.3654
 8765SOL    HW137754   2.733   1.279   4.082 -0.1146  0.5184 -0.0084
 8765SOL    HW237755   2.868   1.282   4.014 -1.1841  1.2702 -1.6334
 8766SOL     OW37756   1.626   0.391   8.387 -0.0296 -0.1758 -0.3433
 8766SOL    HW137757   1.623   0.395   8.291 -0.6139  0.0058 -0.3153
 8766SOL    HW237758   1.589   0.303   8.398  1.3123 -0.5422  1.3468
 8767SOL     OW37759   4.289   3.452   6.877 -0.0862  0.1893  0.2570
 8767SOL    HW137760   4.367   3.491   6.836 -0.5126 -0.5160 -1.2079
 8767SOL    HW237761   4.284   3.504   6.958 -1.1424 -0.4511  0.5979
 8768SOL     OW37762   0.615   1.944   3.075  0.2296  0.0355  0.1292
 8768SOL    HW137763   0.559   1.874   3.042  3.2591 -1.0871 -2.6276
 8768SOL    HW237764   0.601   2.013   3.010  1.5292 -2.1803 -2.4922
 8769SOL     OW37765   1.984   1.660   2.827  0.0691 -0.3078  0.5886
 8769SOL    HW137766   1.901   1.613   2.833  0.5050 -1.0348  0.9710
 8769SOL    HW237767   2.017   1.642   2.739 -1.5988 -2.7200  0.4728
 8770SOL     OW37768   0.956   3.248   2.112  0.5799  0.1927  0.2757
 8770SOL    HW137769   0.952   3.154   2.094  0.1299  0.4207 -0.8283
 8770SOL    HW237770   1.010   3.257   2.191  0.2284 -2.5079  0.8237
 8771SOL     OW37771   0.485   3.132   4.027 -0.0129 -0.0273  0.0134
 8771SOL    HW137772   0.566   3.167   3.988  0.1132  1.3932  1.5502
 8771SOL    HW237773   0.525   3.050   4.057 -0.8520 -0.1049  0.9245
 8772SOL     OW37774   1.481   4.449   6.220 -0.1023  0.3953  0.0888
 8772SOL    HW137775   1.482   4.376   6.159 -0.1309  0.1400  0.3972
 8772SOL    HW237776   1.392   4.481   6.206 -0.1552  1.5172  3.0236
 8773SOL     OW37777   1.307   3.430  10.945  0.1754 -0.4781  0.0431
 8773SOL    HW137778   1.268   3.361  10.999 -1.9279  0.2680 -0.5092
 8773SOL    HW237779   1.376   3.455  11.006  1.2633 -0.3843 -1.2308
 8774SOL     OW37780   4.444   0.144  13.950 -0.4820 -0.1305  0.4876
 8774SOL    HW137781   4.419   0.225  13.905 -0.8107 -0.3456  0.2783
 8774SOL    HW237782   4.530   0.128  13.911 -1.1994  0.8648 -1.5213
 8775SOL     OW37783   0.186   3.082   3.017 -0.2456 -0.4708  0.1078
 8775SOL    HW137784   0.192   3.158   2.958 -0.6428  0.0537  0.7544
 8775SOL    HW237785   0.279   3.058   3.008  0.2939  2.4312 -2.3430
 8776SOL     OW37786   3.690   2.344   8.424  0.0225  0.1921  0.2562
 8776SOL    HW137787   3.665   2.413   8.485 -2.8236  0.0172 -0.6995
 8776SOL    HW237788   3.613   2.340   8.368 -0.1587 -0.4451  0.5479
 8777SOL     OW37789   3.056   1.661   4.622  0.3074 -0.4746 -0.2159
 8777SOL    HW137790   2.965   1.665   4.595  0.4213  2.0401 -0.2578
 8777SOL    HW237791   3.049   1.708   4.705 -0.8958 -2.2025  0.6554
 8778SOL     OW37792   2.626   2.089   5.816  0.2396 -0.1669  0.5879
 8778SOL    HW137793   2.560   2.158   5.808  0.5406 -0.1408 -1.6207
 8778SOL    HW237794   2.612   2.058   5.905  0.1540 -0.5443  0.4425
 8779SOL     OW37795   1.611   2.699  11.656  0.3660  0.3446 -0.0373
 8779SOL    HW137796   1.542   2.670  11.715  0.2219  0.3012 -0.2288
 8779SOL    HW237797   1.629   2.618  11.608  0.3429  0.8898 -0.9672
 8780SOL     OW37798   1.496   4.444   5.745  0.3760  0.2102 -0.0004
 8780SOL    HW137799   1.573   4.499   5.753 -0.0585  0.9890 -1.2296
 8780SOL    HW237800   1.436   4.487   5.806  0.4677  0.7389 -0.2920
 8781SOL     OW37801   2.266   2.392  11.430 -0.1575 -0.8172  0.0597
 8781SOL    HW137802   2.269   2.351  11.343  0.2494 -0.2231 -0.2091
 8781SOL    HW237803   2.346   2.363  11.475  0.1200 -1.4315 -0.8215
 8782SOL     OW37804   2.708   1.295   7.629  0.2161  0.2477  0.2659
 8782SOL    HW137805   2.784   1.291   7.571  0.1365  0.0478  0.1750
 8782SOL    HW237806   2.704   1.389   7.644 -0.8088  0.5409 -1.8714
 8783SOL     OW37807   3.362   1.792  12.109 -0.3818 -0.0219  0.2842
 8783SOL    HW137808   3.394   1.873  12.069  1.5512 -0.9503 -0.0653
 8783SOL    HW237809   3.425   1.775  12.179  0.4290 -0.2702 -0.5065
 8784SOL     OW37810   4.506   0.283   3.627 -0.6746 -0.6524  0.2641
 8784SOL    HW137811   4.564   0.206   3.623 -0.0472 -0.2052  0.8939
 8784SOL    HW237812   4.448   0.274   3.551 -0.3281  0.9162 -0.1826
 8785SOL     OW37813   2.332   2.557   0.813 -0.2847  0.2621  0.1095
 8785SOL    HW137814   2.351   2.541   0.721 -1.7058  1.3072 -0.3690
 8785SOL    HW237815   2.323   2.653   0.813  0.9606  0.3767  0.8138
 8786SOL     OW37816   4.239   2.762   7.528 -0.4813  0.0256  0.0373
 8786SOL    HW137817   4.279   2.847   7.511  0.0338  0.3597  3.0369
 8786SOL    HW237818   4.237   2.729   7.438  1.7203  0.5298 -0.1879
 8787SOL     OW37819   0.573   1.002   7.591 -0.6231  0.2947  0.1549
 8787SOL    HW137820   0.548   1.094   7.582 -0.4587  0.4422  1.1644
 8787SOL    HW237821   0.495   0.967   7.635  2.1455 -0.9819  4.0082
 8788SOL     OW37822   4.088   1.141   2.436 -0.0296 -0.0430  0.2037
 8788SOL    HW137823   4.181   1.127   2.416 -0.4412 -0.8901 -1.1015
 8788SOL    HW237824   4.087   1.216   2.495 -1.0479  0.2662 -0.2127
 8789SOL     OW37825   3.475   2.089   7.652 -0.2681 -0.0592 -1.2327
 8789SOL    HW137826   3.529   2.067   7.576  0.1814  1.2808 -1.3016
 8789SOL    HW237827   3.543   2.122   7.711 -0.9321  0.9132 -1.0088
 8790SOL     OW37828   2.857   0.025   2.158 -0.0167 -0.3412  0.1429
 8790SOL    HW137829   2.916   0.015   2.083  0.9347 -2.0893  1.1188
 8790SOL    HW237830   2.910   0.078   2.218 -0.3240  0.5234 -0.3537
 8791SOL     OW37831   0.451   1.672   3.967  0.1493  0.1803 -0.4442
 8791SOL    HW137832   0.374   1.630   4.004 -0.8143  1.5752 -0.8772
 8791SOL    HW237833   0.514   1.679   4.039 -2.8856  0.8214  2.1144
 8792SOL     OW37834   1.566   4.718   6.221  0.4229  0.4674  0.3028
 8792SOL    HW137835   1.551   4.624   6.223 -0.0698  0.5605  1.4344
 8792SOL    HW237836   1.574   0.004   6.126  0.4619  0.0310  0.2696
 8793SOL     OW37837   0.960   3.334   3.884  0.3555 -0.2200 -0.2542
 8793SOL    HW137838   1.054   3.346   3.869  1.0052 -0.5336  3.4044
 8793SOL    HW237839   0.926   3.379   3.806  2.1612  2.5597  0.5563
 8794SOL     OW37840   1.314   3.425   3.459 -0.2114  0.1337 -0.4769
 8794SOL    HW137841   1.293   3.506   3.505 -0.8178 -0.9055  1.0880
 8794SOL    HW237842   1.391   3.390   3.503  0.4163  2.7034  0.4656
 8795SOL     OW37843   1.160   2.014   4.940 -0.8234  0.8725 -0.5562
 8795SOL    HW137844   1.179   2.105   4.962 -1.2010  1.1039 -1.1749
 8795SOL    HW237845   1.180   1.964   5.018  0.6344  1.4666 -0.5435
 8796SOL     OW37846   1.146   0.444  10.753  0.0684 -0.0644  0.4767
 8796SOL    HW137847   1.063   0.399  10.742 -0.6398  1.1785  0.7726
 8796SOL    HW237848   1.202   0.368  10.738 -0.3547 -0.3452  0.3413
 8797SOL     OW37849   3.827   3.710   4.139  0.5891  0.9881 -0.5037
 8797SOL    HW137850   3.882   3.769   4.191  1.1722  0.4315 -0.4856
 8797SOL    HW237851   3.896   3.650   4.111 -0.0132  0.5029 -0.9549
 8798SOL     OW37852   1.360   2.716   4.528 -0.2060 -0.4952  0.0315
 8798SOL    HW137853   1.345   2.725   4.434 -0.1272 -0.5445  0.0136
 8798SOL    HW237854   1.275   2.698   4.567  0.5988 -1.7897  1.2318
 8799SOL     OW37855   1.199   0.946   6.277 -0.5875  0.6553 -0.2589
 8799SOL    HW137856   1.252   1.011   6.323 -0.1287 -1.2885  1.9699
 8799SOL    HW237857   1.194   0.980   6.187  0.0661 -1.1776 -0.9748
 8800SOL     OW37858   4.626   1.597   5.622  0.4823 -0.1002  0.3329
 8800SOL    HW137859   4.682   1.562   5.692  2.6888 -0.2052 -1.4673
 8800SOL    HW237860   4.661   1.573   5.536 -2.0315  1.6710 -1.1763
 8801SOL     OW37861   0.532   0.217  14.869  0.0606 -0.0625  0.1700
 8801SOL    HW137862   0.619   0.199  14.906  0.4824 -0.3559 -0.9735
 8801SOL    HW237863   0.476   0.162  14.923 -0.7224  0.7612  0.1920
 8802SOL     OW37864   1.544   3.296   1.060 -0.5630  0.2543  0.0271
 8802SOL    HW137865   1.483   3.347   1.007  1.2639  0.1897 -2.1649
 8802SOL    HW237866   1.544   3.218   1.005  0.1742  0.7748 -0.7042
 8803SOL     OW37867   2.847   0.091   2.551  0.1038 -0.1380 -0.0482
 8803SOL    HW137868   2.886   0.084   2.638 -2.0351 -2.4117  0.7355
 8803SOL    HW237869   2.764   0.134   2.572  0.0818  0.6990 -1.8852
 8804SOL     OW37870   4.466   2.220   7.752 -0.2596  0.4005  1.0375
 8804SOL    HW137871   4.423   2.302   7.727  0.1818 -0.0062 -1.0794
 8804SOL    HW237872   4.557   2.250   7.756  0.4667 -1.6847  0.0612
 8805SOL     OW37873   1.711   4.585   3.557  0.3810  0.6498 -0.1219
 8805SOL    HW137874   1.653   4.535   3.499  0.4021  1.7028 -1.0334
 8805SOL    HW237875   1.709   4.543   3.643  1.6756 -2.3498 -1.5316
 8806SOL     OW37876   4.344   1.818   9.627 -0.4501 -0.0329  0.1280
 8806SOL    HW137877   4.411   1.887   9.630 -0.6322  0.0856  1.7423
 8806SOL    HW237878   4.280   1.844   9.561 -0.2215  1.2048  0.3829
 8807SOL     OW37879   4.205   3.433  12.615  0.1073 -0.3333  0.5368
 8807SOL    HW137880   4.203   3.433  12.710 -1.6354  1.8314  0.4805
 8807SOL    HW237881   4.298   3.453  12.608 -0.0893  0.6740  0.7864
 8808SOL     OW37882   0.084   1.716   8.216  0.5805  0.0815  0.2539
 8808SOL    HW137883   0.085   1.723   8.312  3.0874 -3.0898  0.4679
 8808SOL    HW237884   0.000   1.760   8.202  0.2509 -0.6274  0.0056
 8809SOL     OW37885   0.671   3.449   8.210 -0.6392 -0.5059 -0.8387
 8809SOL    HW137886   0.662   3.497   8.128 -1.1384  1.0391  0.1088
 8809SOL    HW237887   0.704   3.365   8.181  0.9949 -0.1206 -0.0836
 8810SOL     OW37888   0.815   1.285   6.869 -0.1822  0.4427  0.1281
 8810SOL    HW137889   0.834   1.199   6.905  1.1724  1.8578  2.7991
 8810SOL    HW237890   0.789   1.260   6.780 -0.8699 -0.3276  0.5460
 8811SOL     OW37891   2.345   2.616   5.414 -0.2585  0.4547 -0.5339
 8811SOL    HW137892   2.401   2.540   5.400  0.4884  0.5058  2.2072
 8811SOL    HW237893   2.401   2.659   5.479  1.5873 -0.4091 -1.5507
 8812SOL     OW37894   0.768   2.189   9.213  0.1020 -0.3790  0.1030
 8812SOL    HW137895   0.858   2.175   9.240 -0.2902 -0.1930  1.4948
 8812SOL    HW237896   0.743   2.096   9.206  0.1740 -0.3014 -1.1705
 8813SOL     OW37897   3.543   0.632   0.962 -0.0656  0.0804 -0.3157
 8813SOL    HW137898   3.557   0.670   0.875 -1.4135 -0.3013 -0.7010
 8813SOL    HW237899   3.586   0.700   1.013  0.5473 -0.4312 -0.1392
 8814SOL     OW37900   1.585   3.337   5.327 -0.1703 -0.2761 -0.1623
 8814SOL    HW137901   1.537   3.378   5.398  3.0107 -1.7327  2.7938
 8814SOL    HW237902   1.676   3.337   5.358  0.2400 -0.8206 -1.3495
 8815SOL     OW37903   1.278   4.358   0.317  0.1749 -0.3999 -0.0150
 8815SOL    HW137904   1.234   4.274   0.316  1.1274 -0.8847 -2.0443
 8815SOL    HW237905   1.202   4.412   0.340  0.1336 -0.9116  1.0471
 8816SOL     OW37906   0.199   2.053   4.165  0.2158 -0.6324  0.5467
 8816SOL    HW137907   0.250   2.103   4.229  0.7516 -1.7385  0.9873
 8816SOL    HW237908   0.269   2.043   4.100  0.1680  1.5949  0.1505
 8817SOL     OW37909   0.563   3.455   7.171 -0.3030  0.2152 -0.3964
 8817SOL    HW137910   0.493   3.521   7.171  0.6009  1.1666  0.7749
 8817SOL    HW237911   0.518   3.371   7.172 -1.6504  0.9123 -1.6089
 8818SOL     OW37912   3.976   3.553  10.103  0.2839  0.0762 -0.4793
 8818SOL    HW137913   3.891   3.593  10.123 -0.0316  0.5972 -2.9284
 8818SOL    HW237914   3.994   3.498  10.180  1.6601 -1.3872 -1.8652
 8819SOL     OW37915   3.899   0.623   0.909 -0.3264 -0.1037  0.4366
 8819SOL    HW137916   3.902   0.622   0.813 -3.4565 -3.0111  0.3899
 8819SOL    HW237917   3.987   0.650   0.935 -0.1456 -0.9601  0.7034
 8820SOL     OW37918   2.507   1.275   5.387  0.4335 -0.0219  0.7634
 8820SOL    HW137919   2.489   1.360   5.347  0.0383  0.2031  1.4283
 8820SOL    HW237920   2.588   1.271   5.335 -0.4770 -0.8647 -0.5746
 8821SOL     OW37921   4.455   0.195  16.426  0.0422 -0.3095 -0.1476
 8821SOL    HW137922   4.428   0.149  16.505  0.7294  0.7494  0.7029
 8821SOL    HW237923   4.527   0.240  16.470 -0.5359 -0.3500  0.8469
 8822SOL     OW37924   3.351   4.443   1.022  0.0030  0.1118  0.1025
 8822SOL    HW137925   3.365   4.349   1.035 -1.0144  0.2493  2.0458
 8822SOL    HW237926   3.398   4.481   1.096 -0.6840  1.4101 -0.1224
 8823SOL     OW37927   3.053   0.003   3.902 -0.1245  0.6585 -0.1821
 8823SOL    HW137928   3.063   4.659   3.833  1.5539 -0.0665  0.7462
 8823SOL    HW237929   2.966   0.042   3.894 -1.0797 -1.6015 -0.8349
 8824SOL     OW37930   2.543   0.730   9.918 -0.2224 -0.4904 -0.4346
 8824SOL    HW137931   2.453   0.750   9.894  0.0029  0.6731 -0.2698
 8824SOL    HW237932   2.544   0.634   9.908  0.0275 -0.4884 -0.4406
 8825SOL     OW37933   0.057   0.429   8.878 -0.4174 -0.1910 -0.5142
 8825SOL    HW137934   0.038   0.351   8.930  0.8186  1.0219  1.7841
 8825SOL    HW237935   0.114   0.480   8.936  1.0137 -1.8811 -0.4312
 8826SOL     OW37936   4.505   0.673  17.254 -0.1544  0.1232 -0.0262
 8826SOL    HW137937   4.503   0.613  17.179 -3.0632 -0.7130  0.7378
 8826SOL    HW237938   4.599   0.688  17.268 -0.5909  2.7081  0.1690
 8827SOL     OW37939   0.197   2.311   4.024 -0.0717 -0.4139 -0.3303
 8827SOL    HW137940   0.179   2.240   4.086  2.2000 -1.6533 -1.0889
 8827SOL    HW237941   0.239   2.260   3.955 -1.1265  0.6297 -1.7377
 8828SOL     OW37942   4.312   0.688   3.592  0.2831  0.5415 -0.0977
 8828SOL    HW137943   4.288   0.734   3.672  2.2733  1.0084  0.2286
 8828SOL    HW237944   4.272   0.604   3.613  0.1754  0.3942 -0.8767
 8829SOL     OW37945   3.892   3.527  14.224 -0.2281 -0.0414  0.0837
 8829SOL    HW137946   3.837   3.512  14.147  1.2609  2.0955 -1.4019
 8829SOL    HW237947   3.846   3.581  14.289 -1.0063  2.3625 -2.4612
 8830SOL     OW37948   0.829   0.957   5.584  0.2542  0.2215 -0.0783
 8830SOL    HW137949   0.733   0.962   5.582  0.0907 -2.0854  1.6902
 8830SOL    HW237950   0.852   1.014   5.510 -1.8447 -0.5755 -1.3463
 8831SOL     OW37951   4.068   0.831   1.777  0.0961 -0.1451 -0.4517
 8831SOL    HW137952   4.122   0.873   1.843 -0.2803 -1.4337  0.6935
 8831SOL    HW237953   4.053   0.904   1.717  1.9112  0.5535 -0.0457
 8832SOL     OW37954   2.667   4.695   8.413  0.0977 -0.4196 -0.0178
 8832SOL    HW137955   2.720   4.621   8.441 -1.3869 -2.3405 -2.3398
 8832SOL    HW237956   2.574   4.673   8.415  0.3496 -1.4633  0.0633
 8833SOL     OW37957   4.634   3.842  12.906  0.0331  0.2866 -0.3468
 8833SOL    HW137958   4.639   3.781  12.832  1.7588  0.8742 -0.7093
 8833SOL    HW237959   4.717   3.890  12.904  0.4163 -0.2896  1.4112
 8834SOL     OW37960   2.855   0.031   3.356 -0.0309 -1.0082 -0.0777
 8834SOL    HW137961   2.858   4.702   3.276  0.2630 -3.7124  1.6530
 8834SOL    HW237962   2.911   0.105   3.332  1.1368 -1.7811  0.2827
 8835SOL     OW37963   2.538   4.660  14.012  0.4301  0.0288  0.3150
 8835SOL    HW137964   2.478   4.585  14.024  2.3255 -1.6358 -0.6569
 8835SOL    HW237965   2.552   4.672  13.918  0.3556 -1.2025  0.1474
 8836SOL     OW37966   0.612   3.548  17.609 -0.2190  0.2226  0.0575
 8836SOL    HW137967   0.568   3.622  17.566 -0.2865  0.0429 -0.1882
 8836SOL    HW237968   0.641   3.583   0.001  0.3464 -0.0103 -0.0407
 8837SOL     OW37969   2.881   1.752  10.762 -0.4103  0.1828  0.1696
 8837SOL    HW137970   2.942   1.793  10.823  0.5748 -1.3595  0.2329
 8837SOL    HW237971   2.888   1.666  10.804 -0.2590 -0.0812 -0.4038
 8838SOL     OW37972   3.319   1.540   5.412  0.2020 -0.0416 -0.0997
 8838SOL    HW137973   3.336   1.571   5.501 -2.2220  1.4346 -0.1433
 8838SOL    HW237974   3.372   1.605   5.367  1.5865 -0.6570  0.6604
 8839SOL     OW37975   3.033   4.499   3.649 -0.4295  0.0450 -0.6888
 8839SOL    HW137976   2.995   4.562   3.587 -0.7123  0.5731  0.0288
 8839SOL    HW237977   3.127   4.508   3.635 -0.3856 -1.1849 -1.2070
 8840SOL     OW37978   3.823   1.845   0.567 -0.3207 -0.2712  0.4213
 8840SOL    HW137979   3.817   1.902   0.490 -1.8417 -0.2501  0.5417
 8840SOL    HW237980   3.814   1.760   0.523  1.2750 -0.3291  0.1996
 8841SOL     OW37981   3.012   0.745   4.863  0.4935 -0.7140  0.0215
 8841SOL    HW137982   3.042   0.758   4.953  0.8559 -1.4745  0.0153
 8841SOL    HW237983   3.094   0.773   4.822 -0.2695  2.1959  0.4659
 8842SOL     OW37984   3.074   0.181   6.184  0.2837  0.2148  0.2744
 8842SOL    HW137985   3.073   0.116   6.254  1.7493 -0.3788 -0.2705
 8842SOL    HW237986   2.990   0.155   6.145  0.6269  0.0030 -0.3260
 8843SOL     OW37987   1.121   4.518   5.214  0.1086  0.1558  0.4428
 8843SOL    HW137988   1.060   4.587   5.242 -0.2943  0.5887 -1.5069
 8843SOL    HW237989   1.160   4.550   5.132  0.7788 -1.4571  0.1339
 8844SOL     OW37990   2.923   4.478  17.146  0.3184 -0.2842 -0.0158
 8844SOL    HW137991   2.857   4.537  17.111  0.9501 -0.3126 -1.2509
 8844SOL    HW237992   2.980   4.538  17.194 -0.1815 -0.4492  0.7866
 8845SOL     OW37993   0.707   2.647   6.325  0.5629  0.2140 -0.1768
 8845SOL    HW137994   0.758   2.574   6.289  0.1232  0.7116 -1.7664
 8845SOL    HW237995   0.629   2.594   6.342 -0.0054  1.2888  0.5283
 8846SOL     OW37996   1.789   2.565  10.988 -0.2312 -0.2932 -0.2695
 8846SOL    HW137997   1.845   2.566  11.065 -0.9438 -3.7038  0.2568
 8846SOL    HW237998   1.848   2.571  10.913  0.9624  0.7442  0.7413
 8847SOL     OW37999   3.562   1.418   8.153  0.3107 -0.6025 -0.0354
 8847SOL    HW138000   3.485   1.453   8.198  0.6021  0.2002 -0.1640
 8847SOL    HW238001   3.506   1.383   8.083 -1.9744  0.6050  1.2088
 8848SOL     OW38002   0.331   0.828   4.553 -0.2633  0.2977 -0.1879
 8848SOL    HW138003   0.288   0.905   4.515 -2.0991 -0.5064  0.2881
 8848SOL    HW238004   0.336   0.863   4.642  1.4263  2.2483 -1.0352
 8849SOL     OW38005   0.332   4.687   6.770 -0.3553 -0.0093  0.3496
 8849SOL    HW138006   0.380   4.617   6.727 -0.1644  0.3826 -0.0740
 8849SOL    HW238007   0.318   0.029   6.701  1.1195 -0.2902 -0.2084
 8850SOL     OW38008   3.371   0.565   1.372  0.3550 -0.4063 -0.0820
 8850SOL    HW138009   3.382   0.569   1.277  0.0273  2.1365 -0.0131
 8850SOL    HW238010   3.396   0.652   1.402 -2.1151 -0.7476  2.9711
 8851SOL     OW38011   4.402   1.973  12.269  0.2783 -0.2230 -0.4112
 8851SOL    HW138012   4.439   2.023  12.342  1.9896 -3.4763  0.9365
 8851SOL    HW238013   4.409   2.046  12.208  0.5832  1.8666  2.1400
 8852SOL     OW38014   1.993   3.821   4.951 -0.3073 -0.7984 -0.0121
 8852SOL    HW138015   1.995   3.907   4.907 -0.1295 -0.5938  0.3957
 8852SOL    HW238016   1.927   3.774   4.900  0.5679  0.5231 -2.4163
 8853SOL     OW38017   2.783   2.984   1.867 -0.2211 -0.5887 -0.3281
 8853SOL    HW138018   2.788   2.923   1.940  0.0469 -0.9555 -0.6573
 8853SOL    HW238019   2.726   3.049   1.910 -1.8109 -2.0351 -0.2500
 8854SOL     OW38020   1.053   3.805   9.729 -0.1251 -0.0037  0.4949
 8854SOL    HW138021   1.062   3.820   9.823  1.3326  0.0331  0.3456
 8854SOL    HW238022   1.051   3.893   9.690  1.5886  0.0080  0.4637
 8855SOL     OW38023   3.358   4.637   9.599  0.1774  0.2190 -0.0485
 8855SOL    HW138024   3.432   4.629   9.538 -1.5578  1.9315 -2.3913
 8855SOL    HW238025   3.394   4.686   9.673 -1.2557  1.0412  0.1019
 8856SOL     OW38026   0.170   1.909   6.819  1.1774  0.1016  0.2582
 8856SOL    HW138027   0.180   1.898   6.725 -0.7466 -0.6248  0.1451
 8856SOL    HW238028   0.151   1.818   6.843 -2.3488  1.1339  1.4482
 8857SOL     OW38029   2.091   0.422  10.348 -0.4807 -0.0435  0.6446
 8857SOL    HW138030   2.041   0.414  10.267 -0.0378 -2.6813  0.6205
 8857SOL    HW238031   2.173   0.459  10.313 -1.3442  1.0984 -0.1880
 8858SOL     OW38032   1.732   1.238   4.790  0.2536 -0.2288  0.0886
 8858SOL    HW138033   1.813   1.201   4.824  1.0852  0.2486 -1.3763
 8858SOL    HW238034   1.772   1.272   4.710 -1.4669 -0.0849 -0.7207
 8859SOL     OW38035   1.419   4.212   1.590  0.2072 -0.0623 -0.4159
 8859SOL    HW138036   1.468   4.275   1.538  0.0536  0.9760  0.6902
 8859SOL    HW238037   1.332   4.253   1.597 -0.7421 -1.7871 -2.0555
 8860SOL     OW38038   3.605   4.667   2.722 -0.0600 -0.0212  0.7057
 8860SOL    HW138039   3.587   0.006   2.651 -0.0966  1.0198  1.6123
 8860SOL    HW238040   3.691   4.704   2.742  0.0563 -0.8617  1.7976
 8861SOL     OW38041   2.486   2.720   7.398 -0.1161  0.1508  0.1613
 8861SOL    HW138042   2.453   2.686   7.481  4.2103 -0.6099  1.5428
 8861SOL    HW238043   2.483   2.640   7.346 -0.7674 -0.1301  0.6270
 8862SOL     OW38044   3.071   1.900   7.873  0.0245 -0.2501 -0.3774
 8862SOL    HW138045   3.079   1.955   7.951 -3.8169  0.2401 -0.3125
 8862SOL    HW238046   3.051   1.970   7.810  2.3047  1.7003  1.0722
 8863SOL     OW38047   0.666   3.758   6.068  0.4827  0.4620  0.2267
 8863SOL    HW138048   0.756   3.774   6.097 -0.0428  2.2587  0.8440
 8863SOL    HW238049   0.612   3.803   6.133 -0.2626 -2.6410  1.7538
 8864SOL     OW38050   0.673   0.662  15.005  0.1384 -0.1066 -0.1984
 8864SOL    HW138051   0.597   0.707  15.040 -0.1289 -0.2047 -0.6531
 8864SOL    HW238052   0.730   0.739  14.996  0.7154 -0.3168  1.7545
 8865SOL     OW38053   0.463   3.835  10.267  0.2234  0.3218 -0.0417
 8865SOL    HW138054   0.412   3.903  10.223  0.7441 -0.9194 -2.5376
 8865SOL    HW238055   0.430   3.757  10.221  0.9622 -0.6841  1.1330
 8866SOL     OW38056   3.126   0.765   5.963  0.3711  0.0128 -0.3814
 8866SOL    HW138057   3.157   0.745   6.051  1.3739 -1.2162 -1.0121
 8866SOL    HW238058   3.083   0.679   5.951 -0.9014  0.4804  0.7909
 8867SOL     OW38059   3.881   0.897   0.700 -0.3323 -0.1272 -0.0143
 8867SOL    HW138060   3.949   0.839   0.667  0.6039  0.9129  0.1023
 8867SOL    HW238061   3.836   0.925   0.620  1.0121  1.8736 -0.0687
 8868SOL     OW38062   0.734   2.645   4.905  0.0650 -0.2447  0.2192
 8868SOL    HW138063   0.737   2.709   4.833  0.5786 -2.6213 -1.8557
 8868SOL    HW238064   0.785   2.576   4.863  0.4614  1.2883 -1.8933
 8869SOL     OW38065   2.554   2.288  16.877  0.1667  0.4357 -0.0801
 8869SOL    HW138066   2.584   2.254  16.961 -3.6576  0.4418  1.2805
 8869SOL    HW238067   2.526   2.376  16.901  0.7747  0.2553  1.3425
 8870SOL     OW38068   4.593   2.891   2.604 -0.7115  0.4908  0.2815
 8870SOL    HW138069   4.521   2.844   2.645  0.0969  0.4132  1.5993
 8870SOL    HW238070   4.659   2.894   2.673  1.1751 -1.6896 -1.4177
 8871SOL     OW38071   2.174   2.440   2.851 -0.6386 -0.3459  0.3286
 8871SOL    HW138072   2.121   2.412   2.925 -1.2862 -2.9821 -1.1507
 8871SOL    HW238073   2.146   2.532   2.856 -3.1259 -1.0569 -0.2720
 8872SOL     OW38074   3.062   2.920   6.624 -0.3997  0.1998  0.2487
 8872SOL    HW138075   3.145   2.880   6.651 -2.1615 -2.5828  1.5816
 8872SOL    HW238076   3.070   3.000   6.676 -1.8913  1.2379 -1.1143
 8873SOL     OW38077   1.294   4.592   7.451  0.4644  0.5115 -0.1021
 8873SOL    HW138078   1.205   4.584   7.485  0.8803 -0.3114  0.7917
 8873SOL    HW238079   1.346   4.533   7.506 -0.2737  1.5425  1.7061
 8874SOL     OW38080   0.965   3.744   0.574 -0.1334 -0.4208  0.0211
 8874SOL    HW138081   1.006   3.761   0.659 -0.7216 -1.4091  0.5021
 8874SOL    HW238082   0.871   3.743   0.595  0.0664 -1.1883  0.8565
 8875SOL     OW38083   2.684   3.458   6.132  0.1867  0.0190  0.5454
 8875SOL    HW138084   2.618   3.433   6.067  0.1757 -0.3716  0.7040
 8875SOL    HW238085   2.644   3.416   6.209 -2.3781  0.3778 -0.5650
 8876SOL     OW38086   2.285   1.523  16.225  0.1216 -0.5649  0.0456
 8876SOL    HW138087   2.279   1.440  16.273  0.0186 -0.8684 -0.4867
 8876SOL    HW238088   2.196   1.530  16.190 -0.0880  1.0369  0.9304
 8877SOL     OW38089   3.142   2.552   6.335  0.3787 -0.2181 -0.6613
 8877SOL    HW138090   3.160   2.646   6.337  0.3992 -0.1460 -3.9425
 8877SOL    HW238091   3.229   2.523   6.307  0.7173  1.3327 -1.1788
 8878SOL     OW38092   4.180   0.480  17.308 -0.1108  0.1252 -0.4806
 8878SOL    HW138093   4.192   0.540  17.234 -3.4437  1.6457  0.2153
 8878SOL    HW238094   4.197   0.399  17.261 -0.6361 -2.1625  3.2255
 8879SOL     OW38095   1.454   0.730   5.765 -0.5690  0.4842 -0.5491
 8879SOL    HW138096   1.527   0.669   5.779 -1.5569 -1.1293 -2.3518
 8879SOL    HW238097   1.409   0.717   5.849 -1.6223  1.6460 -0.9303
 8880SOL     OW38098   4.339   0.910   3.771  0.0848 -0.6093  0.2517
 8880SOL    HW138099   4.299   0.879   3.852 -0.9512  0.0217 -0.0181
 8880SOL    HW238100   4.420   0.858   3.774  1.4817  1.6239  1.3639
 8881SOL     OW38101   1.772   1.245   9.688 -0.2940 -0.4513 -0.1340
 8881SOL    HW138102   1.722   1.229   9.609  1.4257  0.9975 -1.5327
 8881SOL    HW238103   1.712   1.200   9.747 -0.7558 -1.0035 -1.0335
 8882SOL     OW38104   2.598   1.376   3.381 -0.3345  0.1931 -0.0768
 8882SOL    HW138105   2.506   1.404   3.381 -0.2958  0.3224  0.8804
 8882SOL    HW238106   2.635   1.436   3.446 -0.7624  1.4812 -1.0077
 8883SOL     OW38107   1.808   1.776   2.231  0.4085 -0.3497 -0.6645
 8883SOL    HW138108   1.768   1.861   2.216 -0.6688 -0.4573  1.5598
 8883SOL    HW238109   1.751   1.738   2.298 -0.4451  1.5241 -0.3548
 8884SOL     OW38110   1.564   2.602   0.187  0.4401 -0.1725 -0.1857
 8884SOL    HW138111   1.565   2.688   0.229  1.2190 -0.4478  0.3501
 8884SOL    HW238112   1.603   2.549   0.257 -0.6096  0.0528  0.5769
 8885SOL     OW38113   2.114   3.677  11.374 -0.2298  0.1826  0.4173
 8885SOL    HW138114   2.177   3.749  11.377 -0.8749  0.7244  0.8932
 8885SOL    HW238115   2.068   3.697  11.455 -0.4341 -0.7449  0.5211
 8886SOL     OW38116   4.686   3.374   6.124 -0.3643  0.3324  0.0586
 8886SOL    HW138117   4.690   3.374   6.028 -4.9530  0.7474 -0.1226
 8886SOL    HW238118   4.644   3.458   6.143  1.9996  1.2561  1.1803
 8887SOL     OW38119   3.741   1.643   5.450  0.0687 -0.3329 -0.3812
 8887SOL    HW138120   3.811   1.599   5.402  0.2268 -4.8893  3.9493
 8887SOL    HW238121   3.717   1.571   5.510  2.5086  0.9235  2.0968
 8888SOL     OW38122   1.382   3.411   0.851 -0.4511 -0.1287  0.5109
 8888SOL    HW138123   1.346   3.475   0.788  0.4583 -1.2027 -1.1075
 8888SOL    HW238124   1.455   3.379   0.798 -0.4442 -2.6150  2.0454
 8889SOL     OW38125   1.422   3.965   1.495  0.0626 -1.1801  0.3609
 8889SOL    HW138126   1.444   4.047   1.540 -1.1630 -0.7138  0.1164
 8889SOL    HW238127   1.326   3.968   1.497  0.0521 -1.3178  0.0320
 8890SOL     OW38128   4.201   1.485   2.188  0.2204  0.2945  0.5902
 8890SOL    HW138129   4.286   1.444   2.205  0.2424  1.0549  2.3539
 8890SOL    HW238130   4.180   1.503   2.280 -1.1153  0.0742  0.3164
 8891SOL     OW38131   1.494   1.539   8.280  0.2016  0.4600 -0.3900
 8891SOL    HW138132   1.570   1.584   8.243 -0.0967  0.4930 -0.9533
 8891SOL    HW238133   1.425   1.605   8.287 -0.8668 -0.7892  0.9167
 8892SOL     OW38134   0.230   2.557  10.614  0.1632 -0.6132 -0.0500
 8892SOL    HW138135   0.169   2.631  10.611 -0.2504 -0.9130  1.1059
 8892SOL    HW238136   0.175   2.499  10.561 -2.4564  0.8509  1.0743
 8893SOL     OW38137   0.384   3.971   6.099  0.1908 -0.5391  0.0010
 8893SOL    HW138138   0.428   3.963   6.184 -1.1155  2.5450  0.9605
 8893SOL    HW238139   0.346   3.883   6.092 -0.7924 -0.1875  0.8964
 8894SOL     OW38140   0.045   0.934  15.237  0.0980  0.0626  0.2521
 8894SOL    HW138141   0.092   1.009  15.273  3.5314 -2.2837  0.6024
 8894SOL    HW238142   0.095   0.856  15.260  1.3307  0.9602  0.5894
 8895SOL     OW38143   2.271   4.311  15.722  0.0966 -0.0113 -0.1675
 8895SOL    HW138144   2.345   4.352  15.766 -0.3685 -0.6225  1.1654
 8895SOL    HW238145   2.298   4.302  15.631  1.3071  1.7647  0.0209
 8896SOL     OW38146   0.966   4.559  10.629 -0.2718 -0.8403  0.0190
 8896SOL    HW138147   0.983   4.626  10.695  0.9649 -3.4899  2.4030
 8896SOL    HW238148   0.905   4.509  10.683 -0.2680 -0.6023  0.2448
 8897SOL     OW38149   2.736   3.903   7.430 -0.0830  0.2344 -0.6723
 8897SOL    HW138150   2.674   3.838   7.398 -1.4813  1.3707 -0.2872
 8897SOL    HW238151   2.788   3.919   7.352  0.7681 -0.9360 -0.3377
 8898SOL     OW38152   0.250   1.050  16.212  0.8231 -0.1143  0.2977
 8898SOL    HW138153   0.288   1.132  16.180 -0.8670  0.8238  0.6817
 8898SOL    HW238154   0.218   1.018  16.127 -0.7257  0.9423  0.4783
 8899SOL     OW38155   3.798   4.503   1.658  0.6042  0.2348  0.2323
 8899SOL    HW138156   3.722   4.473   1.709  1.3227  0.3358  1.3407
 8899SOL    HW238157   3.755   4.570   1.604  1.3084 -0.2572 -0.9429
 8900SOL     OW38158   3.073   3.715   7.255 -0.1106  0.4096  0.4213
 8900SOL    HW138159   3.134   3.766   7.201 -1.6949 -0.1008 -1.8516
 8900SOL    HW238160   2.999   3.710   7.194 -1.3527 -1.2361  2.0784
 8901SOL     OW38161   4.257   3.176  12.764  0.0062 -0.2114  0.0005
 8901SOL    HW138162   4.185   3.233  12.789  0.2158 -0.2998  0.8059
 8901SOL    HW238163   4.224   3.086  12.767  1.4529 -0.7219  1.1261
 8902SOL     OW38164   1.581   4.187   3.552  0.0999 -0.5456 -0.0075
 8902SOL    HW138165   1.536   4.270   3.568  0.2679 -0.5256  0.3599
 8902SOL    HW238166   1.662   4.211   3.508  0.0301 -0.6569 -0.1992
 8903SOL     OW38167   1.528   4.386  13.195 -0.0118  0.0675 -0.0812
 8903SOL    HW138168   1.518   4.318  13.128  2.4424 -0.2269 -0.1599
 8903SOL    HW238169   1.621   4.408  13.187  0.5224 -2.0909  0.1056
 8904SOL     OW38170   3.904   1.778   6.389  0.2556 -0.4312  0.2049
 8904SOL    HW138171   3.809   1.784   6.378  0.5511  0.9344 -1.4455
 8904SOL    HW238172   3.918   1.761   6.483 -0.9509 -1.4347  0.2093
 8905SOL     OW38173   3.955   1.511   3.800 -0.2403 -0.6484  0.1004
 8905SOL    HW138174   3.864   1.512   3.769  0.1319 -0.5184 -0.9644
 8905SOL    HW238175   3.960   1.436   3.859  0.0710 -1.2923 -0.7448
 8906SOL     OW38176   0.804   0.822   0.018 -0.4485  0.2782 -0.9805
 8906SOL    HW138177   0.807   0.726   0.008  0.6898  0.1767  0.3466
 8906SOL    HW238178   0.827   0.849  17.621 -0.8493 -1.6449 -1.6752
 8907SOL     OW38179   0.292   3.837  15.305  0.3272 -0.5592  0.2158
 8907SOL    HW138180   0.360   3.775  15.279  1.0560  1.7387 -3.2675
 8907SOL    HW238181   0.346   3.897  15.355 -0.7918  1.5649 -1.1278
 8908SOL     OW38182   4.556   4.129  10.757 -0.5976 -0.2284  0.2332
 8908SOL    HW138183   4.466   4.121  10.786 -0.1305 -0.7499  1.5082
 8908SOL    HW238184   4.593   4.152  10.842  1.1569 -3.7200  0.4038
 8909SOL     OW38185   0.589   0.180   7.916 -0.2468 -0.3862  0.4902
 8909SOL    HW138186   0.569   0.252   7.976  1.1225  0.6247 -0.2631
 8909SOL    HW238187   0.684   0.188   7.920 -0.2151  0.5951 -1.9013
 8910SOL     OW38188   1.333   0.410   5.624  0.8518  0.1685 -0.7895
 8910SOL    HW138189   1.379   0.483   5.583  0.2758  1.6883  1.2205
 8910SOL    HW238190   1.256   0.457   5.658  0.8059 -0.0412 -0.6039
 8911SOL     OW38191   0.962   0.048   5.727 -0.8254  0.1466 -0.7141
 8911SOL    HW138192   0.962   0.143   5.726 -2.8173  0.1336 -2.9991
 8911SOL    HW238193   0.867   0.032   5.730 -0.7292 -0.3853 -0.4394
 8912SOL     OW38194   3.724   4.351  13.032  0.4802 -0.1414  0.4962
 8912SOL    HW138195   3.725   4.256  13.025 -0.0735 -0.0861 -0.3957
 8912SOL    HW238196   3.693   4.372  13.120  0.9751 -1.5439  0.9968
 8913SOL     OW38197   1.858   2.771   4.531 -0.2020 -0.0737 -0.4726
 8913SOL    HW138198   1.825   2.694   4.483  1.6088 -0.5603 -0.9311
 8913SOL    HW238199   1.775   2.816   4.546  0.1604  0.3085  0.4242
 8914SOL     OW38200   4.031   2.576  14.658  0.2086 -0.2439 -0.3936
 8914SOL    HW138201   4.096   2.528  14.709  1.4128 -1.4095 -3.0202
 8914SOL    HW238202   3.964   2.515  14.625  1.4618 -1.9666  0.2479
 8915SOL     OW38203   3.693   1.046   7.594  0.2496 -0.2602 -0.0237
 8915SOL    HW138204   3.701   1.032   7.499 -1.9492  1.6703 -0.5200
 8915SOL    HW238205   3.783   1.042   7.626 -0.5437  0.6238  2.3521
 8916SOL     OW38206   0.585   3.313   3.241  0.2882 -0.0390  0.6051
 8916SOL    HW138207   0.667   3.317   3.289  1.8052  2.8197 -2.2058
 8916SOL    HW238208   0.614   3.303   3.151  1.3066  0.5870  0.8610
 8917SOL     OW38209   3.988   3.678   8.493 -0.8680 -0.4867 -0.5657
 8917SOL    HW138210   3.906   3.683   8.543 -1.3850  2.2584 -1.6789
 8917SOL    HW238211   4.004   3.772   8.499 -0.2200 -0.4671 -2.6348
 8918SOL     OW38212   4.113   4.564   5.962 -0.3313 -0.0156 -0.0181
 8918SOL    HW138213   4.079   4.480   5.994  0.0774  0.5736  1.9862
 8918SOL    HW238214   4.132   4.616   6.040 -1.1551 -0.3210  0.3943
 8919SOL     OW38215   1.662   0.334   4.307  0.6178  0.8004  0.1086
 8919SOL    HW138216   1.751   0.305   4.288  0.1915 -0.5065  0.0782
 8919SOL    HW238217   1.614   0.253   4.326 -0.8231  1.3888 -0.9653
 8920SOL     OW38218   4.583   4.103  15.377 -0.2336  0.2349  0.3828
 8920SOL    HW138219   4.505   4.051  15.394 -0.8840  1.8947  2.5932
 8920SOL    HW238220   4.582   4.090  15.283 -0.4451  1.0509  0.2681
 8921SOL     OW38221   2.799   1.883   2.007  0.8228  0.1090  0.3023
 8921SOL    HW138222   2.857   1.917   1.940  1.3598 -1.7847 -0.2151
 8921SOL    HW238223   2.758   1.965   2.035 -1.4876 -0.9927  0.1824
 8922SOL     OW38224   4.614   2.383   6.570 -0.6393 -1.4390 -0.0646
 8922SOL    HW138225   4.664   2.336   6.503  1.6873  2.5139 -1.0743
 8922SOL    HW238226   4.691   2.412   6.619  0.2701 -1.6826 -1.3455
 8923SOL     OW38227   3.507   3.319   9.055  0.1773 -0.4892  0.0417
 8923SOL    HW138228   3.598   3.322   9.084 -0.1108 -0.1665  0.9119
 8923SOL    HW238229   3.479   3.270   9.132  0.0306 -1.1381 -0.4262
 8924SOL     OW38230   1.312   1.173   4.444  0.2460  0.1366  0.4379
 8924SOL    HW138231   1.337   1.249   4.391  0.6693  0.9415  1.7991
 8924SOL    HW238232   1.395   1.126   4.455 -1.1292 -2.1694  0.9315
 8925SOL     OW38233   1.783   0.173   7.509  0.3146  0.1820  0.2605
 8925SOL    HW138234   1.768   0.098   7.452  0.1793 -1.7326  2.7960
 8925SOL    HW238235   1.796   0.249   7.452  1.2171 -0.7587 -0.7820
 8926SOL     OW38236   1.586   0.653  15.199 -0.0844  0.6043  0.2716
 8926SOL    HW138237   1.630   0.604  15.130  0.0616 -1.4702  1.8281
 8926SOL    HW238238   1.590   0.589  15.270  0.0000  0.6717  0.3270
 8927SOL     OW38239   2.854   3.959   8.663  0.4588 -0.2499  0.7041
 8927SOL    HW138240   2.881   3.905   8.737  1.3800  2.3205  2.2541
 8927SOL    HW238241   2.934   3.995   8.625  1.1237 -2.4692  0.0115
 8928SOL     OW38242   3.302   0.368   8.043 -0.1343 -0.5217 -0.2897
 8928SOL    HW138243   3.246   0.380   8.120 -1.6066  1.0182 -1.5726
 8928SOL    HW238244   3.260   0.429   7.982 -0.3936 -0.6292 -0.2178
 8929SOL     OW38245   1.769   3.598   1.366  0.6134 -0.3542  0.2085
 8929SOL    HW138246   1.804   3.628   1.282  0.7521 -2.5355 -0.5122
 8929SOL    HW238247   1.854   3.571   1.401  0.5559 -0.6164  0.1466
 8930SOL     OW38248   1.389   3.763   2.281  0.1124 -0.1064 -0.2109
 8930SOL    HW138249   1.394   3.851   2.244 -0.5565  0.3490  0.7873
 8930SOL    HW238250   1.400   3.717   2.198 -0.2368  1.1004 -0.9248
 8931SOL     OW38251   3.801   3.890  17.212  0.6801  0.3593 -0.5307
 8931SOL    HW138252   3.861   3.931  17.274 -1.3254  0.8406  1.1038
 8931SOL    HW238253   3.789   3.804  17.254 -0.0871  0.5177 -0.4197
 8932SOL     OW38254   3.690   0.748   5.610 -0.6780 -0.3061 -0.3235
 8932SOL    HW138255   3.596   0.731   5.611 -0.2928 -2.4043  0.5372
 8932SOL    HW238256   3.712   0.655   5.606  0.3463 -0.0972  0.3858
 8933SOL     OW38257   3.878   0.630   1.753 -0.3448  0.2568 -0.4887
 8933SOL    HW138258   3.931   0.587   1.686  1.5421 -2.1865  2.6130
 8933SOL    HW238259   3.941   0.694   1.786  1.5543 -1.1920 -1.3044
 8934SOL     OW38260   2.453   0.019   3.626 -0.4843  0.1606 -0.0111
 8934SOL    HW138261   2.500   4.718   3.706  0.2505 -2.3649 -1.1788
 8934SOL    HW238262   2.409   0.099   3.655  1.6885  1.0182  0.8983
 8935SOL     OW38263   1.596   1.679   4.797  0.5123  0.4718  0.0005
 8935SOL    HW138264   1.574   1.768   4.826  0.5931  0.7555 -0.8070
 8935SOL    HW238265   1.630   1.693   4.708 -0.1960 -0.1031 -0.3573
 8936SOL     OW38266   4.421   1.627   6.444  0.5417  0.3214  0.4789
 8936SOL    HW138267   4.428   1.563   6.373  0.1592 -0.5733  1.2500
 8936SOL    HW238268   4.407   1.710   6.399 -0.6960 -0.6880 -1.0081
 8937SOL     OW38269   1.299   2.857   6.413 -0.0201 -0.1169 -0.0209
 8937SOL    HW138270   1.395   2.858   6.411 -0.0118  1.6780  0.6761
 8937SOL    HW238271   1.271   2.809   6.491 -0.4225  0.2609  0.0671
 8938SOL     OW38272   2.876   1.528   1.533 -0.4276 -0.1125  0.4594
 8938SOL    HW138273   2.887   1.531   1.438 -0.0753 -1.9311  0.4430
 8938SOL    HW238274   2.947   1.587   1.557 -0.3219 -0.7617  1.7343
 8939SOL     OW38275   2.245   2.628   4.963 -0.1707 -0.6333 -0.2133
 8939SOL    HW138276   2.316   2.691   4.961 -2.1680  1.5492 -1.4089
 8939SOL    HW238277   2.282   2.564   5.025  0.0102 -2.2450 -2.0007
 8940SOL     OW38278   1.342   0.114   8.763  0.1901  0.2804 -0.3494
 8940SOL    HW138279   1.295   0.182   8.714 -2.2704 -0.7591  0.5633
 8940SOL    HW238280   1.432   0.125   8.731 -0.1354  0.3206 -1.2637
 8941SOL     OW38281   3.568   0.886   8.645 -0.0743 -0.1294  0.2999
 8941SOL    HW138282   3.572   0.876   8.740  0.5115  0.6017  0.3532
 8941SOL    HW238283   3.473   0.887   8.628 -0.0964  1.0090  0.4909
 8942SOL     OW38284   4.075   4.695  10.331  0.6893  0.7617  0.1900
 8942SOL    HW138285   4.068   4.601  10.314 -0.3960  0.8309  0.2706
 8942SOL    HW238286   4.031   4.701  10.415 -1.2604 -1.0255 -0.7076
 8943SOL     OW38287   3.225   2.952   2.513 -0.3450  0.5107  0.0779
 8943SOL    HW138288   3.139   2.919   2.486  0.8860 -0.4598 -2.5610
 8943SOL    HW238289   3.211   3.047   2.509  1.7808  0.7110 -1.9557
 8944SOL     OW38290   1.907   3.354   1.048 -0.1168  0.9322 -0.4356
 8944SOL    HW138291   1.871   3.394   0.969  1.6731  2.0505 -0.6711
 8944SOL    HW238292   1.882   3.415   1.118  2.3236 -0.2306  1.4778
 8945SOL     OW38293   3.830   0.906   7.168  0.1005  0.6211  0.2010
 8945SOL    HW138294   3.786   0.970   7.224  1.0144  0.1663  1.4407
 8945SOL    HW238295   3.765   0.836   7.168  0.1253  0.5976  0.3048
 8946SOL     OW38296   2.501   0.324   3.151  0.1244 -0.1258  0.2530
 8946SOL    HW138297   2.474   0.381   3.223  1.5320  1.9593 -0.8877
 8946SOL    HW238298   2.550   0.265   3.208 -0.6009 -1.5516 -0.6088
 8947SOL     OW38299   0.707   2.689   4.416  0.2300 -0.0733  0.2014
 8947SOL    HW138300   0.723   2.594   4.418  0.0346 -0.0357  2.9044
 8947SOL    HW238301   0.626   2.700   4.367 -0.1157  0.8315  0.9917
 8948SOL     OW38302   2.061   4.695   5.622  0.1359 -1.1797  0.4380
 8948SOL    HW138303   2.027   0.019   5.545  1.4905 -2.3770 -0.8917
 8948SOL    HW238304   2.051   4.605   5.590  0.4119 -0.6668 -1.0906
 8949SOL     OW38305   1.915   1.145   8.844 -0.1345 -0.5054 -0.6094
 8949SOL    HW138306   1.967   1.077   8.888 -2.2138 -1.6427  0.0620
 8949SOL    HW238307   1.970   1.161   8.767  0.2652  0.6730 -0.0806
 8950SOL     OW38308   3.047   0.605   0.538  0.2376 -0.1063 -0.3390
 8950SOL    HW138309   3.007   0.591   0.624  0.2652  0.2412 -0.2692
 8950SOL    HW238310   3.046   0.700   0.529  0.3208 -0.2415 -1.7159
 8951SOL     OW38311   2.834   0.977  14.970 -0.2293 -0.2379  0.0537
 8951SOL    HW138312   2.893   0.938  14.905 -0.1589 -0.8164  0.4644
 8951SOL    HW238313   2.904   0.994  15.032 -1.0310 -0.8700  1.1396
 8952SOL     OW38314   2.230   0.196   4.115 -0.9189  0.0386 -0.2812
 8952SOL    HW138315   2.238   0.246   4.196 -3.0056  0.4388 -0.3469
 8952SOL    HW238316   2.164   0.135   4.148 -0.6281 -0.4761 -0.6476
 8953SOL     OW38317   0.107   1.383   5.095  0.2104  0.3269 -0.0272
 8953SOL    HW138318   0.106   1.310   5.156 -0.6065 -0.6169 -1.1675
 8953SOL    HW238319   0.199   1.404   5.080  0.0519  0.1778 -1.2169
 8954SOL     OW38320   3.351   2.253   8.980 -0.3371  0.0718 -0.2550
 8954SOL    HW138321   3.260   2.280   8.964  0.0826  0.6558 -1.6167
 8954SOL    HW238322   3.371   2.301   9.061  1.8013  0.7990 -1.2200
 8955SOL     OW38323   1.481   4.457   6.940  0.1517  0.1527  0.2688
 8955SOL    HW138324   1.547   4.393   6.915 -0.6444 -0.3640 -0.4655
 8955SOL    HW238325   1.436   4.423   7.017 -0.5322  0.8005  0.1574
 8956SOL     OW38326   3.867   0.666   6.633 -0.1046  0.1728  0.2840
 8956SOL    HW138327   3.794   0.605   6.644 -1.0110  1.1605 -0.2684
 8956SOL    HW238328   3.875   0.711   6.717 -3.1330  0.2360  0.5620
 8957SOL     OW38329   2.030   1.463   4.856 -0.7061 -0.4346  0.2606
 8957SOL    HW138330   2.016   1.526   4.785 -1.3474  1.9983  2.5329
 8957SOL    HW238331   1.939   1.446   4.878 -1.1762  2.4574  0.5852
 8958SOL     OW38332   3.896   2.587   0.587  0.1022  0.0709 -0.3562
 8958SOL    HW138333   3.860   2.604   0.674 -2.7755 -0.6776 -1.4251
 8958SOL    HW238334   3.831   2.547   0.529  0.5493  1.7422 -2.0022
 8959SOL     OW38335   2.200   2.676   3.780  0.0804  0.4917 -0.3537
 8959SOL    HW138336   2.241   2.631   3.707 -0.2458 -0.2121 -0.1076
 8959SOL    HW238337   2.107   2.671   3.757 -0.1783 -0.8778  0.9335
 8960SOL     OW38338   4.061   0.866   6.882  0.6293 -0.8634 -0.0002
 8960SOL    HW138339   4.119   0.793   6.903 -0.9404 -1.5376  2.0630
 8960SOL    HW238340   4.125   0.935   6.890 -1.0995  0.5435  1.8087
 8961SOL     OW38341   2.739   0.481  14.597  0.0800  0.1879 -0.1982
 8961SOL    HW138342   2.780   0.464  14.513  0.2329 -0.7846  0.0803
 8961SOL    HW238343   2.685   0.557  14.573  0.8103  1.5798  2.4726
 8962SOL     OW38344   0.057   2.990   7.997 -0.2117  0.4898 -0.3431
 8962SOL    HW138345   0.052   3.039   8.079 -1.0427  2.1551 -1.3937
 8962SOL    HW238346   4.722   2.915   8.012  3.0664 -2.1876 -1.0112
 8963SOL     OW38347   1.426   1.189   3.775 -0.2172 -0.8911  0.0427
 8963SOL    HW138348   1.444   1.167   3.683 -0.4177  0.2882 -0.2812
 8963SOL    HW238349   1.369   1.265   3.760  2.3539  1.1071  0.4236
 8964SOL     OW38350   4.299   1.922   2.003 -0.8625 -0.3029 -0.1520
 8964SOL    HW138351   4.244   1.947   2.078 -1.2210 -2.7826  0.4150
 8964SOL    HW238352   4.305   1.827   2.008  2.0431  0.0045  2.0038
 8965SOL     OW38353   0.629   1.172   0.398 -0.2996 -0.2923 -0.0746
 8965SOL    HW138354   0.537   1.155   0.420  1.1841 -1.4107  5.2398
 8965SOL    HW238355   0.643   1.095   0.342  1.5974  0.8373 -1.1414
 8966SOL     OW38356   3.730   3.221   6.975 -0.0563 -0.0152 -0.1120
 8966SOL    HW138357   3.823   3.211   6.994  0.3510  0.3848 -1.8579
 8966SOL    HW238358   3.722   3.176   6.890  0.6058  1.0072 -0.7071
 8967SOL     OW38359   0.859   4.615  13.084  0.2578 -0.0194  0.2167
 8967SOL    HW138360   0.846   4.700  13.041 -0.0985  0.3930  1.1325
 8967SOL    HW238361   0.895   4.644  13.168 -1.0998 -0.9705  1.1301
 8968SOL     OW38362   0.450   4.078   6.680  0.1333  0.4628  0.5554
 8968SOL    HW138363   0.493   3.993   6.677  1.0824  0.9343  0.9006
 8968SOL    HW238364   0.515   4.127   6.630 -0.0162 -0.0995 -0.1810
 8969SOL     OW38365   3.573   3.112   2.648  0.2158  0.3710  0.3291
 8969SOL    HW138366   3.623   3.037   2.680 -0.6248 -0.0437  0.6697
 8969SOL    HW238367   3.511   3.121   2.720  2.3471 -0.9004  2.3204
 8970SOL     OW38368   3.137   3.257   3.240 -0.4438  0.4654  0.0070
 8970SOL    HW138369   3.087   3.200   3.182 -0.2229  1.2306 -0.9269
 8970SOL    HW238370   3.114   3.221   3.326  0.5968  1.0927  0.5439
 8971SOL     OW38371   4.086   4.296   4.521 -0.0060  0.1104  0.6930
 8971SOL    HW138372   4.142   4.318   4.595 -1.4149 -0.1392  1.8415
 8971SOL    HW238373   3.997   4.325   4.540 -0.1035 -0.6042  1.3361
 8972SOL     OW38374   3.325   1.596   0.532  0.2496 -0.0301  0.2462
 8972SOL    HW138375   3.380   1.541   0.588  0.0932  0.5728  1.0031
 8972SOL    HW238376   3.259   1.626   0.596  0.6812  0.4255  0.4788
 8973SOL     OW38377   3.664   1.290   8.600 -0.4525 -0.1909 -0.0534
 8973SOL    HW138378   3.572   1.294   8.576 -0.3219 -1.1289 -0.7317
 8973SOL    HW238379   3.659   1.217   8.661  1.2712 -0.5795 -0.3603
 8974SOL     OW38380   4.465   3.727  14.680 -0.0813 -0.3560  1.0425
 8974SOL    HW138381   4.470   3.749  14.587 -0.5544 -1.5760  0.7257
 8974SOL    HW238382   4.435   3.636  14.679 -1.9823  0.3009 -0.1118
 8975SOL     OW38383   1.487   2.134  10.132  0.2026 -0.1781 -0.0882
 8975SOL    HW138384   1.505   2.041  10.121  2.1662  0.3924 -1.7238
 8975SOL    HW238385   1.402   2.135  10.174 -0.0836 -0.9002 -0.6515
 8976SOL     OW38386   4.082   3.855  10.202  0.0631  0.2228  0.2607
 8976SOL    HW138387   4.040   3.776  10.169  3.0626 -1.1018 -0.3163
 8976SOL    HW238388   4.048   3.928  10.150  0.0079  0.7362  1.0206
 8977SOL     OW38389   1.497   2.391   4.008 -0.1881  0.1868  0.3032
 8977SOL    HW138390   1.511   2.297   4.021 -1.5506 -0.2369 -1.2469
 8977SOL    HW238391   1.436   2.400   3.935  2.2655 -1.1642 -1.9237
 8978SOL     OW38392   2.643   3.108   3.309 -0.5328 -0.0270  0.3691
 8978SOL    HW138393   2.648   3.014   3.328 -2.3152 -0.2211 -0.1444
 8978SOL    HW238394   2.651   3.112   3.214  0.1268  0.9376  0.4681
 8979SOL     OW38395   0.640   1.851   4.686  0.2529 -0.0606 -0.3290
 8979SOL    HW138396   0.730   1.865   4.716 -0.2344 -1.3617  1.7347
 8979SOL    HW238397   0.591   1.901   4.751  1.2861 -0.0544  0.4569
 8980SOL     OW38398   4.556   3.731  17.561 -0.6358 -0.6415 -0.0972
 8980SOL    HW138399   4.581   3.757  17.472 -0.2192 -3.2162 -0.7370
 8980SOL    HW238400   4.521   3.808  17.604  0.5468 -0.5606  0.7195
 8981SOL     OW38401   2.636   4.017   9.675 -0.6475  0.0556 -0.0005
 8981SOL    HW138402   2.636   4.063   9.759 -1.1387 -0.7386  0.4347
 8981SOL    HW238403   2.665   4.082   9.610  1.3246  0.5741  1.3856
 8982SOL     OW38404   3.632   2.006   7.416  0.3578  0.1160 -1.0333
 8982SOL    HW138405   3.720   2.031   7.445  0.3497 -0.8284 -0.1531
 8982SOL    HW238406   3.654   1.941   7.349 -1.4679 -0.1297 -1.4012
 8983SOL     OW38407   0.098   4.674   5.532 -0.1491 -0.6255 -1.0000
 8983SOL    HW138408   0.116   0.043   5.511  0.3706 -0.4077  0.3940
 8983SOL    HW238409   0.027   4.681   5.596  0.0976  0.3374 -0.8305
 8984SOL     OW38410   4.331   0.645  11.233 -0.2168  0.1109 -0.2926
 8984SOL    HW138411   4.400   0.639  11.168 -0.5844  1.0787 -0.7719
 8984SOL    HW238412   4.288   0.729  11.218 -0.8717 -0.4798 -1.7822
 8985SOL     OW38413   3.205   3.056  14.415 -0.2640 -0.3698  0.1177
 8985SOL    HW138414   3.193   3.027  14.325  0.1742 -0.3828  0.0632
 8985SOL    HW238415   3.257   3.135  14.402 -0.6535 -0.1770 -0.2395
 8986SOL     OW38416   2.539   2.547   1.201  0.6153  0.0594 -0.5314
 8986SOL    HW138417   2.528   2.480   1.133  1.6954  1.1563 -1.7826
 8986SOL    HW238418   2.460   2.596   1.178  0.7267  0.3997 -0.1737
 8987SOL     OW38419   1.953   1.748   1.428 -0.3407  0.0458  0.3418
 8987SOL    HW138420   1.873   1.700   1.404 -0.0231 -0.8536  1.0848
 8987SOL    HW238421   1.992   1.773   1.344  0.0844  0.9219  0.8015
 8988SOL     OW38422   1.390   1.970   3.412  0.2255 -0.0592 -0.4852
 8988SOL    HW138423   1.403   1.876   3.400 -1.0265  0.0387 -2.7327
 8988SOL    HW238424   1.361   1.971   3.503  1.8358  1.9589 -0.0049
 8989SOL     OW38425   4.540   1.685   4.647 -0.7038 -0.2229  0.3935
 8989SOL    HW138426   4.518   1.721   4.561  1.3464  0.0163 -0.0531
 8989SOL    HW238427   4.520   1.761   4.702  0.7576  1.5541 -1.5167
 8990SOL     OW38428   3.418   1.631  16.653 -0.1407 -0.6051 -0.4513
 8990SOL    HW138429   3.463   1.579  16.587 -0.9754 -1.3120 -0.4586
 8990SOL    HW238430   3.361   1.563  16.688 -0.0221 -0.1089  0.7265
 8991SOL     OW38431   4.029   1.148  14.627  0.5918 -0.5161 -0.4362
 8991SOL    HW138432   4.074   1.128  14.710  2.1635 -3.3828 -1.9934
 8991SOL    HW238433   4.095   1.201  14.582 -0.0016 -0.2115 -0.9335
 8992SOL     OW38434   2.727   0.360   5.298  0.6217  0.7764 -0.3642
 8992SOL    HW138435   2.770   0.293   5.352  1.6531  0.4983 -1.5106
 8992SOL    HW238436   2.737   0.435   5.356 -1.8831 -0.5048  1.6874
 8993SOL     OW38437   3.729   2.117   5.170 -0.3538 -0.4424 -0.6415
 8993SOL    HW138438   3.800   2.112   5.233  1.0217  2.7975 -1.9126
 8993SOL    HW238439   3.654   2.118   5.229  0.8887 -2.0642  0.9373
 8994SOL     OW38440   1.404   2.989   3.362 -0.3758  0.0019  0.0319
 8994SOL    HW138441   1.470   2.986   3.431 -1.2739  0.6159  0.9125
 8994SOL    HW238442   1.447   3.013   3.280  0.5577  0.7385  0.7305
 8995SOL     OW38443   2.231   1.808  15.999  0.0993  0.6149 -0.0483
 8995SOL    HW138444   2.264   1.897  15.992  0.4185  0.2557 -2.9818
 8995SOL    HW238445   2.218   1.799  16.094  0.1117 -0.8264 -0.1871
 8996SOL     OW38446   0.971   1.304   9.909 -0.6160  0.3124 -0.3319
 8996SOL    HW138447   0.991   1.239   9.976 -2.6504 -0.9098 -0.9031
 8996SOL    HW238448   0.875   1.311   9.916 -0.6435 -0.8000  0.4025
 8997SOL     OW38449   1.563   1.702   2.914  0.3419 -0.0730  0.0258
 8997SOL    HW138450   1.475   1.737   2.901  2.1637  3.4003 -2.9245
 8997SOL    HW238451   1.588   1.688   2.823 -0.2702 -2.5642  0.2299
 8998SOL     OW38452   0.947   1.110  12.362 -0.3251  0.3344  0.0818
 8998SOL    HW138453   1.027   1.060  12.378  0.7859  2.7493  2.0573
 8998SOL    HW238454   0.975   1.147  12.278 -1.1449  2.3680  0.7177
 8999SOL     OW38455   4.370   3.602   7.099  0.5417 -0.4786 -0.3331
 8999SOL    HW138456   4.337   3.684   7.062 -0.2599 -0.1177  1.1752
 8999SOL    HW238457   4.461   3.620   7.120 -0.6842  2.2258  2.6362
 9000SOL     OW38458   3.972   1.670   1.005  0.2139 -0.5808  0.7434
 9000SOL    HW138459   3.961   1.576   0.995 -1.3001 -0.4262  1.0765
 9000SOL    HW238460   4.026   1.670   1.084  1.4419 -1.9077 -0.0898
 9001SOL     OW38461   4.419   1.512   5.844  0.0601 -0.8787 -0.0803
 9001SOL    HW138462   4.369   1.540   5.767 -2.1385  0.8963  1.9848
 9001SOL    HW238463   4.360   1.443   5.875 -0.3635  0.0233  1.0717
 9002SOL     OW38464   1.812   0.676   4.006  0.2065 -0.1665  0.3482
 9002SOL    HW138465   1.847   0.713   4.087  1.5537  1.0774 -0.8168
 9002SOL    HW238466   1.886   0.694   3.949  0.5911 -0.7714  0.6524
 9003SOL     OW38467   2.404   2.583   7.625 -0.0617 -0.1659  0.4325
 9003SOL    HW138468   2.315   2.604   7.654  0.0707  2.0557 -0.7309
 9003SOL    HW238469   2.444   2.572   7.711 -2.7636 -0.4882  1.6444
 9004SOL     OW38470   2.283   0.190   4.842 -0.4727 -0.5192 -0.6632
 9004SOL    HW138471   2.347   0.146   4.899  0.9174 -0.0850 -1.8711
 9004SOL    HW238472   2.338   0.241   4.783  0.2744  0.1460  0.6018
 9005SOL     OW38473   2.533   1.519   4.298 -0.3878 -0.2417  0.2353
 9005SOL    HW138474   2.479   1.593   4.272  0.7268  0.3704 -0.3422
 9005SOL    HW238475   2.605   1.515   4.235  0.0844  0.9006  0.6887
 9006SOL     OW38476   2.087   3.358   2.978  0.6401 -0.2004 -0.6655
 9006SOL    HW138477   2.157   3.422   2.992  0.6807 -0.6127  1.0187
 9006SOL    HW238478   2.123   3.331   2.894 -0.1795 -0.8871 -0.7874
 9007SOL     OW38479   3.689   0.652  12.716 -0.7613  0.0598  0.0930
 9007SOL    HW138480   3.774   0.639  12.674 -0.4495  0.9002  0.4723
 9007SOL    HW238481   3.697   0.596  12.793  0.7608 -3.3717 -2.5466
 9008SOL     OW38482   3.910   2.510   4.028  0.1661  0.2071 -0.4485
 9008SOL    HW138483   3.963   2.528   3.951 -0.9637 -1.8526 -1.7272
 9008SOL    HW238484   3.927   2.588   4.081 -3.8202  1.3727 -0.8606
 9009SOL     OW38485   2.843   2.587   4.832 -0.2685 -0.2086  0.0911
 9009SOL    HW138486   2.795   2.566   4.751  0.1560 -1.3961  0.1486
 9009SOL    HW238487   2.788   2.547   4.900  1.1996  0.2939  1.5516
 9010SOL     OW38488   1.603   1.451   6.280  0.1507 -0.1741 -0.4469
 9010SOL    HW138489   1.540   1.481   6.345 -1.8074 -3.9384 -0.5710
 9010SOL    HW238490   1.659   1.528   6.286 -0.9607  0.6291 -0.2384
 9011SOL     OW38491   2.132   0.193  16.734  0.2048 -0.4921  0.2789
 9011SOL    HW138492   2.206   0.172  16.677  1.4800  0.3851  1.6326
 9011SOL    HW238493   2.077   0.115  16.724 -1.5258  0.5819  1.3807
 9012SOL     OW38494   4.368   4.526  14.238 -0.0105 -0.2987 -0.5964
 9012SOL    HW138495   4.403   4.550  14.153 -2.0090 -1.5590 -1.7578
 9012SOL    HW238496   4.450   4.515  14.287  0.5195  0.4133 -1.3265
 9013SOL     OW38497   2.398   1.056  14.779  0.2243  0.2360 -0.4922
 9013SOL    HW138498   2.464   1.087  14.841 -0.7548  0.7130  0.3058
 9013SOL    HW238499   2.376   0.974  14.823  1.0097 -0.3610 -1.2205
 9014SOL     OW38500   2.226   2.672  11.218  0.0721  0.6674 -0.0899
 9014SOL    HW138501   2.321   2.673  11.223  0.1131  0.0337 -0.6795
 9014SOL    HW238502   2.202   2.740  11.154  1.3300  0.7621 -0.4608
 9015SOL     OW38503   3.824   3.289   8.851 -0.0971 -0.1231 -0.0517
 9015SOL    HW138504   3.872   3.356   8.802  0.6791  0.0549  0.9412
 9015SOL    HW238505   3.845   3.299   8.944  0.3822 -0.1545 -0.1546
 9016SOL     OW38506   0.689   1.016  13.683  0.9389 -0.6196  0.1687
 9016SOL    HW138507   0.769   0.964  13.673 -0.1181 -2.2092 -0.0675
 9016SOL    HW238508   0.721   1.104  13.701  0.8260 -0.3569 -0.9225
 9017SOL     OW38509   3.248   3.447   2.293 -0.0190 -0.1725  0.4493
 9017SOL    HW138510   3.335   3.474   2.264 -1.3111  1.1595 -2.2738
 9017SOL    HW238511   3.273   3.384   2.360  1.8487  0.5357  0.4005
 9018SOL     OW38512   3.761   3.105  13.702  0.2562 -0.1195 -0.6380
 9018SOL    HW138513   3.768   3.049  13.779  0.5062  1.2148  0.3006
 9018SOL    HW238514   3.727   3.044  13.637 -1.7361  0.3198 -0.0004
 9019SOL     OW38515   3.686   2.880  10.130 -0.2133  0.4947 -0.1961
 9019SOL    HW138516   3.743   2.804  10.143  1.7351  2.0837  0.6611
 9019SOL    HW238517   3.700   2.921  10.215 -0.3795 -0.1369  0.1357
 9020SOL     OW38518   3.269   4.566   4.771 -0.3928 -0.3506 -0.4498
 9020SOL    HW138519   3.296   4.526   4.853  2.1389 -0.3917 -1.3106
 9020SOL    HW238520   3.220   4.645   4.792 -0.4304 -1.1565  2.4691
 9021SOL     OW38521   2.355   2.851   4.759 -0.1041  0.0034  0.0624
 9021SOL    HW138522   2.263   2.856   4.734 -0.4507 -0.1381  1.3165
 9021SOL    HW238523   2.369   2.939   4.792 -1.6370  0.3687 -0.2768
 9022SOL     OW38524   1.539   2.121   3.970  0.5158  0.0507  0.1347
 9022SOL    HW138525   1.613   2.061   3.963  1.1401  0.6657  1.2314
 9022SOL    HW238526   1.462   2.067   3.956  1.9763 -2.1279  0.5142
 9023SOL     OW38527   3.900   2.061  15.551 -0.1728  0.3184 -0.0039
 9023SOL    HW138528   3.899   2.029  15.460  1.6113  0.9363 -0.2343
 9023SOL    HW238529   3.910   1.978  15.597  4.6165  2.1746  2.2131
 9024SOL     OW38530   3.963   0.293   7.859 -0.1814  0.6687 -0.5091
 9024SOL    HW138531   4.034   0.296   7.795 -0.0854 -1.5902 -0.5073
 9024SOL    HW238532   3.894   0.241   7.818  0.1085 -0.0690 -0.0526
 9025SOL     OW38533   1.251   4.703   3.541 -0.1249  0.1641  0.4387
 9025SOL    HW138534   1.272   4.633   3.479  1.0384  0.6012  0.3533
 9025SOL    HW238535   1.313   0.050   3.523 -0.9573  1.4528  2.5114
 9026SOL     OW38536   1.886   2.507  12.077  0.3759  0.1340  0.0375
 9026SOL    HW138537   1.840   2.549  12.004 -1.0777 -0.2773  0.7061
 9026SOL    HW238538   1.908   2.426  12.031 -1.0637  0.2048 -0.7880
 9027SOL     OW38539   3.601   2.226   4.248 -0.2651 -0.0251 -0.5922
 9027SOL    HW138540   3.659   2.151   4.232 -0.0903 -0.0545  0.1607
 9027SOL    HW238541   3.608   2.277   4.167  1.5404 -0.9308 -1.0215
 9028SOL     OW38542   3.087   0.129  14.981 -0.1099 -0.0664  0.0992
 9028SOL    HW138543   3.093   0.142  15.076  0.9786  1.0098 -0.1254
 9028SOL    HW238544   3.164   0.176  14.949 -1.2222  0.0126 -2.5004
 9029SOL     OW38545   1.208   3.517   2.283  0.3661  0.0528  0.7917
 9029SOL    HW138546   1.288   3.568   2.298 -2.8211  5.1101  0.6591
 9029SOL    HW238547   1.153   3.581   2.327 -1.4134 -0.5244 -0.6060
 9030SOL     OW38548   0.413   1.683   6.172  0.2033  0.5393  0.0411
 9030SOL    HW138549   0.322   1.653   6.164  1.4109 -3.2572  0.7369
 9030SOL    HW238550   0.388   1.763   6.126  0.2955  0.0488 -0.8662
 9031SOL     OW38551   2.695   4.690   6.350  0.1527 -0.7388 -0.5255
 9031SOL    HW138552   2.611   4.677   6.307 -0.0460 -3.2916  0.6082
 9031SOL    HW238553   2.724   4.602   6.375 -1.3490 -1.0436  0.1692
 9032SOL     OW38554   1.814   4.586  14.525  0.1637 -0.1731 -0.3546
 9032SOL    HW138555   1.797   4.577  14.619 -0.0270  3.9172 -0.0086
 9032SOL    HW238556   1.744   4.643  14.493 -0.0196  0.3587  1.0128
 9033SOL     OW38557   4.666   1.997   0.352  0.3844 -0.0188 -0.3032
 9033SOL    HW138558   4.648   1.906   0.328  3.0726 -0.7910  0.5901
 9033SOL    HW238559   4.692   2.027   0.264 -0.0040  0.2063 -0.3417
 9034SOL     OW38560   1.355   2.213   9.017  0.1707 -0.0433  0.1533
 9034SOL    HW138561   1.312   2.179   9.095  0.8978 -0.8762  0.1889
 9034SOL    HW238562   1.356   2.309   9.022  1.6407 -0.1249  1.6627
 9035SOL     OW38563   4.194   2.414  16.089  0.0913 -0.1881  0.1548
 9035SOL    HW138564   4.163   2.472  16.158 -2.7154 -0.2871 -1.0234
 9035SOL    HW238565   4.122   2.409  16.025 -0.2529  1.9591  0.3788
 9036SOL     OW38566   4.439   3.311   2.177 -0.1031  0.4714  0.1779
 9036SOL    HW138567   4.358   3.315   2.126 -0.3981 -0.6827  0.5655
 9036SOL    HW238568   4.411   3.370   2.248 -0.2774 -0.2560  0.7140
 9037SOL     OW38569   0.272   2.552  10.179 -0.2914  0.5933  0.1449
 9037SOL    HW138570   0.332   2.478  10.168 -2.1371 -0.5508 -2.2379
 9037SOL    HW238571   0.206   2.521  10.241  0.9452  1.8028  2.0523
 9038SOL     OW38572   3.753   1.673  10.710 -0.2788 -0.0600 -0.6712
 9038SOL    HW138573   3.810   1.609  10.669 -0.8152  0.6183 -2.5030
 9038SOL    HW238574   3.810   1.727  10.764  0.6633  0.9749 -2.6983
 9039SOL     OW38575   0.130   3.677  11.517 -0.1654 -0.1850 -0.0163
 9039SOL    HW138576   0.107   3.648  11.606 -1.2266 -0.0276 -0.2345
 9039SOL    HW238577   0.083   3.757  11.495 -0.6078 -0.2329  0.7737
 9040SOL     OW38578   4.562   2.821   6.655  0.4114 -0.0508 -0.4961
 9040SOL    HW138579   4.594   2.824   6.565 -0.3578 -0.9821 -0.7966
 9040SOL    HW238580   4.511   2.902   6.665  1.2748  0.5884 -1.3053
 9041SOL     OW38581   2.907   0.158   8.844  0.3789  0.2189  0.0925
 9041SOL    HW138582   2.856   0.121   8.773 -0.3645  1.5878 -0.0931
 9041SOL    HW238583   2.933   0.081   8.895 -0.4055  1.8594  2.9836
 9042SOL     OW38584   0.013   0.376   5.854  0.0343 -0.4699 -0.5288
 9042SOL    HW138585   4.687   0.376   5.937  2.1687  1.6838  0.7100
 9042SOL    HW238586   0.096   0.414   5.881 -0.4520 -0.6935  1.3262
 9043SOL     OW38587   4.502   0.187   5.885  0.4023 -0.1285 -0.0273
 9043SOL    HW138588   4.546   0.271   5.891 -2.4596  1.2778  1.1582
 9043SOL    HW238589   4.547   0.127   5.944  1.1639 -1.0810 -1.5603
 9044SOL     OW38590   1.993   1.089   0.715  0.5404 -0.4126  0.2482
 9044SOL    HW138591   1.927   1.155   0.734 -0.8710 -1.9941  0.8511
 9044SOL    HW238592   2.037   1.084   0.801 -1.1471 -0.0785  1.1213
 9045SOL     OW38593   3.834   3.690  13.781  0.2619  0.4183  0.4066
 9045SOL    HW138594   3.869   3.608  13.746  0.0347  0.0418  1.0558
 9045SOL    HW238595   3.892   3.757  13.744  0.7354 -0.0110  0.3679
 9046SOL     OW38596   0.842   3.939   8.882  0.0491 -0.1547 -0.0729
 9046SOL    HW138597   0.822   3.895   8.965  0.0850 -0.2959 -0.1390
 9046SOL    HW238598   0.777   3.904   8.822  1.7759 -2.5037 -0.5879
 9047SOL     OW38599   3.760   0.462  10.087  0.8105 -0.1692  0.2447
 9047SOL    HW138600   3.713   0.531  10.040  0.7356 -1.7851 -2.0534
 9047SOL    HW238601   3.707   0.387  10.059 -2.1608  1.8561  0.3784
 9048SOL     OW38602   3.532   2.089   3.854  0.4627  0.1816  0.2154
 9048SOL    HW138603   3.623   2.058   3.845  0.9514  1.1652  1.8274
 9048SOL    HW238604   3.485   2.006   3.855  0.9583 -0.0740  1.6057
 9049SOL     OW38605   0.061   0.271   0.956 -0.3140  0.5032 -0.0153
 9049SOL    HW138606   4.705   0.323   0.936  0.3440  1.4127 -0.2188
 9049SOL    HW238607   0.032   0.182   0.936 -0.6920  0.2434  1.7238
 9050SOL     OW38608   0.418   3.622   8.724 -0.1499  0.4024 -0.8697
 9050SOL    HW138609   0.478   3.691   8.755 -0.9375  0.2551  0.9712
 9050SOL    HW238610   0.392   3.581   8.806  0.7408  0.3810 -0.5940
 9051SOL     OW38611   2.966   0.177   5.617 -0.2428  0.0366 -0.1522
 9051SOL    HW138612   3.039   0.222   5.660  1.2787 -1.3468 -1.2797
 9051SOL    HW238613   2.892   0.234   5.637 -1.7663 -1.6022 -1.1155
 9052SOL     OW38614   3.940   3.356   5.412  0.6472 -0.3785 -0.2811
 9052SOL    HW138615   3.938   3.405   5.494 -1.2753 -0.0255 -0.5243
 9052SOL    HW238616   3.998   3.415   5.365  0.1067 -0.7535 -1.4030
 9053SOL     OW38617   1.778   0.363   1.968 -0.1323  0.5851  0.2083
 9053SOL    HW138618   1.707   0.310   1.931 -0.7196 -1.1230  3.7401
 9053SOL    HW238619   1.807   0.303   2.037 -0.1597 -0.1936 -0.4446
 9054SOL     OW38620   1.456   1.113  11.525 -0.2179  0.1908  0.5160
 9054SOL    HW138621   1.389   1.049  11.505  0.1563  0.0734 -0.3760
 9054SOL    HW238622   1.454   1.166  11.445  2.2105  0.6664  0.7398
 9055SOL     OW38623   2.839   1.968   8.788  0.2778 -0.3742 -0.4212
 9055SOL    HW138624   2.842   1.956   8.883  0.1623  1.1348 -0.2228
 9055SOL    HW238625   2.924   1.927   8.774  0.4883 -0.0143 -0.2111
 9056SOL     OW38626   3.734   1.220   9.591  0.3081 -0.2896 -0.3986
 9056SOL    HW138627   3.663   1.268   9.633  1.5077 -0.5875  1.9819
 9056SOL    HW238628   3.742   1.151   9.656 -0.2850  0.7229  0.7398
 9057SOL     OW38629   4.499   0.810  15.218 -0.0080  0.0916  0.0439
 9057SOL    HW138630   4.467   0.893  15.254 -2.4882  0.1761 -2.3897
 9057SOL    HW238631   4.593   0.829  15.214 -0.0817  0.4017 -0.2020
 9058SOL     OW38632   4.379   4.243   4.534 -0.3685 -0.1535 -0.4902
 9058SOL    HW138633   4.299   4.271   4.490 -0.9161 -1.4346 -0.3323
 9058SOL    HW238634   4.357   4.274   4.622  0.6299 -0.5746 -0.0964
 9059SOL     OW38635   0.769   2.500   5.598 -0.1031 -0.0182 -0.4265
 9059SOL    HW138636   0.826   2.552   5.541 -0.1866 -0.6045 -1.0381
 9059SOL    HW238637   0.703   2.563   5.626 -0.6844 -1.3894  1.2997
 9060SOL     OW38638   2.335   0.678   2.079 -0.0576 -0.4635 -0.2692
 9060SOL    HW138639   2.290   0.665   1.995 -0.1971 -2.9774  0.1808
 9060SOL    HW238640   2.407   0.729   2.042  3.1860 -1.6954  4.3280
 9061SOL     OW38641   3.267   2.985  10.053 -0.4053  0.4290  0.4129
 9061SOL    HW138642   3.333   2.978  10.122 -0.0826  2.1155  0.2721
 9061SOL    HW238643   3.277   2.912   9.992  1.8792  1.0633  0.0272
 9062SOL     OW38644   1.635   1.454   5.639  0.4848 -1.0550  0.4596
 9062SOL    HW138645   1.699   1.445   5.569  0.2721 -0.2270  0.1581
 9062SOL    HW238646   1.552   1.454   5.591 -0.0774  3.7235  1.4264
 9063SOL     OW38647   0.909   4.361   0.493  0.6557  0.7309  0.0596
 9063SOL    HW138648   0.981   4.303   0.516  0.3892 -0.4849 -2.1666
 9063SOL    HW238649   0.955   4.412   0.426  1.3811 -1.2222 -0.9283
 9064SOL     OW38650   3.652   3.683   6.480  0.3022  0.2455 -0.1271
 9064SOL    HW138651   3.607   3.598   6.473  0.1656  0.3885 -1.0343
 9064SOL    HW238652   3.679   3.692   6.389 -0.7475 -0.0170 -0.4688
 9065SOL     OW38653   2.871   2.218  17.035  0.7538  0.5737  0.2393
 9065SOL    HW138654   2.855   2.307  17.006  2.1967  1.1039  1.0878
 9065SOL    HW238655   2.782   2.194  17.059  0.1090  0.3129 -2.3832
 9066SOL     OW38656   4.651   0.099   6.705  0.2063 -0.1012 -0.3116
 9066SOL    HW138657   0.008   0.093   6.758 -0.0158  0.1839  0.0508
 9066SOL    HW238658   4.584   0.071   6.766  0.0250  1.5237  0.2370
 9067SOL     OW38659   1.573   1.366  12.895  0.2781  0.3267 -0.2829
 9067SOL    HW138660   1.657   1.390  12.933 -0.2699  2.8209 -0.6677
 9067SOL    HW238661   1.512   1.433  12.925  0.8454  0.8837 -0.3833
 9068SOL     OW38662   3.425   0.087  13.804  0.3493 -0.6408 -0.6320
 9068SOL    HW138663   3.370   0.165  13.793 -0.3377 -1.1273 -0.6860
 9068SOL    HW238664   3.359   0.023  13.777 -2.3887  1.4565  0.9362
 9069SOL     OW38665   2.692   4.075  15.458 -0.5960  0.4495 -0.7562
 9069SOL    HW138666   2.607   4.090  15.416  0.6220  0.7359 -3.1263
 9069SOL    HW238667   2.675   3.987  15.492  0.1697  1.4128  2.1427
 9070SOL     OW38668   3.107   2.508  15.088  0.6485  0.1720  0.3496
 9070SOL    HW138669   3.100   2.600  15.114  0.4848  0.3753 -0.3832
 9070SOL    HW238670   3.021   2.473  15.112  1.4278 -1.7413  0.3547
 9071SOL     OW38671   2.611   0.214   2.648  0.0315 -0.2308 -0.0684
 9071SOL    HW138672   2.573   0.246   2.730 -0.3693 -0.8156 -0.0268
 9071SOL    HW238673   2.583   0.278   2.582  2.2406  2.9406  2.0977
 9072SOL     OW38674   2.610   1.860   5.636  0.1455  0.9165 -0.2890
 9072SOL    HW138675   2.630   1.939   5.686 -0.3201  0.4715  0.6221
 9072SOL    HW238676   2.681   1.803   5.665  0.0078  0.8666 -0.0424
 9073SOL     OW38677   3.553   4.490   0.600  0.5238  0.9595 -0.3620
 9073SOL    HW138678   3.525   4.581   0.617 -0.3521  0.8804 -1.4029
 9073SOL    HW238679   3.527   4.435   0.674  0.1052  0.9239 -0.5318
 9074SOL     OW38680   4.342   0.453   6.143  0.3534 -0.0414 -0.6104
 9074SOL    HW138681   4.346   0.358   6.133 -2.4843 -0.0291 -1.9526
 9074SOL    HW238682   4.297   0.462   6.227  0.0302 -0.4658 -0.7344
 9075SOL     OW38683   3.942   0.584   2.390  0.0551  0.6192 -0.1567
 9075SOL    HW138684   3.881   0.590   2.464  0.5604  0.6699  0.2522
 9075SOL    HW238685   3.898   0.642   2.329 -0.2830 -0.1035 -0.6011
 9076SOL     OW38686   2.843   2.225   4.117 -0.2924 -0.1853  0.7481
 9076SOL    HW138687   2.922   2.279   4.111  0.1176 -0.7573  0.8972
 9076SOL    HW238688   2.799   2.263   4.193 -1.7239 -1.5050  0.5899
 9077SOL     OW38689   1.445   4.034   1.988 -0.3303  0.2471 -0.5338
 9077SOL    HW138690   1.369   4.011   1.934 -1.7939  2.6649  0.5124
 9077SOL    HW238691   1.519   3.982   1.956  0.1730 -1.2368  3.0802
 9078SOL     OW38692   3.581   4.250   2.546 -0.2732  0.5631 -0.1366
 9078SOL    HW138693   3.553   4.251   2.454 -1.0796  0.1861  0.1044
 9078SOL    HW238694   3.512   4.197   2.586  0.6232 -1.0168 -0.6619
 9079SOL     OW38695   2.932   1.704  12.301 -0.0744  0.1254  0.1194
 9079SOL    HW138696   2.871   1.630  12.309  0.5051 -0.2321  1.2253
 9079SOL    HW238697   3.016   1.662  12.319 -1.1910 -1.3214  1.9930
 9080SOL     OW38698   0.199   3.690   8.540 -0.2615  0.3605 -0.4787
 9080SOL    HW138699   0.153   3.664   8.620 -0.0315  2.4272  0.3333
 9080SOL    HW238700   0.284   3.661   8.571 -1.2398 -0.9404  0.9553
 9081SOL     OW38701   0.659   4.672   4.559 -0.7798 -0.6157 -1.0203
 9081SOL    HW138702   0.710   4.591   4.550  0.0178 -0.3794  1.3890
 9081SOL    HW238703   0.626   4.685   4.470  1.9300 -1.5202 -2.1672
 9082SOL     OW38704   0.975   0.010  10.842  0.4226  0.2155 -0.0719
 9082SOL    HW138705   1.040   0.025  10.911  2.2802  0.3363 -1.8245
 9082SOL    HW238706   0.897   0.052  10.878  0.1951 -0.1399 -0.1516
 9083SOL     OW38707   4.460   0.919   1.369 -0.0121 -0.4077  0.3917
 9083SOL    HW138708   4.415   0.975   1.305  0.9047  0.4987  0.5376
 9083SOL    HW238709   4.395   0.916   1.439 -1.3193  3.4066 -0.6580
 9084SOL     OW38710   0.545   0.116   4.869  0.0114 -0.1437  0.2472
 9084SOL    HW138711   0.633   0.081   4.853  1.4658  2.3443  2.8529
 9084SOL    HW238712   0.499   0.037   4.898  0.0319  0.0665  0.8603
 9085SOL     OW38713   2.536   2.191   2.635 -0.1889  0.4049  0.3474
 9085SOL    HW138714   2.548   2.284   2.613 -2.5022  0.9165  1.1990
 9085SOL    HW238715   2.607   2.172   2.696  1.7339  1.6526 -1.4961
 9086SOL     OW38716   3.474   4.582  13.384 -0.3804  0.2012  0.0965
 9086SOL    HW138717   3.424   4.594  13.464 -0.0257 -1.1722  0.5242
 9086SOL    HW238718   3.537   4.654  13.380  0.1424 -0.2379  0.4149
 9087SOL     OW38719   0.216   1.825  11.018  0.7642  0.6523 -0.0171
 9087SOL    HW138720   0.135   1.850  10.974  0.8966 -1.0775 -1.2291
 9087SOL    HW238721   0.194   1.850  11.108 -3.9941  0.8885 -1.2494
 9088SOL     OW38722   3.930   1.299   3.975  0.5313  0.8305 -0.0919
 9088SOL    HW138723   3.990   1.265   4.041  2.9170  2.2020 -1.5501
 9088SOL    HW238724   3.842   1.273   4.004  0.5549  1.1980  0.3163
 9089SOL     OW38725   0.212   0.930  16.448 -0.0341  0.5259 -0.3288
 9089SOL    HW138726   0.118   0.936  16.469 -0.7919  0.2438 -3.5524
 9089SOL    HW238727   0.220   0.995  16.378 -1.5356  0.1076 -0.9054
 9090SOL     OW38728   0.455   1.508  17.098 -0.0427 -0.0568  0.2532
 9090SOL    HW138729   0.472   1.556  17.179  0.1446  2.0913 -1.0682
 9090SOL    HW238730   0.540   1.463  17.096  0.8535  1.7427 -2.4891
 9091SOL     OW38731   3.626   0.716   4.040  0.3548  0.7623  0.0560
 9091SOL    HW138732   3.660   0.627   4.033 -0.8943  0.1829  1.3070
 9091SOL    HW238733   3.615   0.736   3.947  1.3879  0.5069 -0.1208
 9092SOL     OW38734   0.886   0.938   4.995  0.1040 -1.2541  0.1761
 9092SOL    HW138735   0.900   1.028   4.966 -1.1425 -0.6434  1.4896
 9092SOL    HW238736   0.884   0.891   4.911 -1.6138 -1.3222  0.2713
 9093SOL     OW38737   1.990   1.602   3.484  0.0767  0.0052 -0.1861
 9093SOL    HW138738   1.982   1.645   3.399 -0.0892  3.0845  1.3466
 9093SOL    HW238739   2.027   1.517   3.462 -2.2941 -1.1671  0.3916
 9094SOL     OW38740   0.363   3.856   9.102 -0.2978 -0.7018 -0.4281
 9094SOL    HW138741   0.307   3.933   9.095  0.4934 -0.2470 -1.7959
 9094SOL    HW238742   0.305   3.789   9.065  0.2371 -0.2880 -2.0208
 9095SOL     OW38743   4.181   3.873   3.035 -0.0662 -0.3458  0.2464
 9095SOL    HW138744   4.139   3.949   3.075 -2.0133 -2.4625  2.2167
 9095SOL    HW238745   4.155   3.797   3.088 -0.5112  0.0662  0.6256
 9096SOL     OW38746   3.059   0.050   1.968  0.1808  0.0064 -0.2284
 9096SOL    HW138747   3.134   4.713   1.960 -1.3087 -1.7527 -1.0578
 9096SOL    HW238748   3.099   0.137   1.962  0.2903  0.0303  0.8516
 9097SOL     OW38749   1.622   3.503   3.244  0.1017  1.1065 -0.1929
 9097SOL    HW138750   1.606   3.490   3.337  2.8600  0.4114  0.1922
 9097SOL    HW238751   1.711   3.469   3.235  0.2846  1.3744  0.6310
 9098SOL     OW38752   4.452   3.075   6.626  0.0984 -0.3903  0.2750
 9098SOL    HW138753   4.410   3.086   6.541 -0.9425 -1.0216  0.7069
 9098SOL    HW238754   4.446   3.164   6.661 -0.8887 -0.3686  0.0475
 9099SOL     OW38755   2.324   0.485   3.014 -0.3082  1.1396 -0.4689
 9099SOL    HW138756   2.337   0.424   3.086 -0.8600 -0.9753 -2.1841
 9099SOL    HW238757   2.356   0.567   3.053 -1.0114  0.7328  0.9263
 9100SOL     OW38758   3.300   4.278  13.167 -0.1680  0.0193 -0.3038
 9100SOL    HW138759   3.324   4.186  13.161 -1.4228 -0.4505  2.0128
 9100SOL    HW238760   3.212   4.279  13.203  0.2138  0.5432  0.6341
 9101SOL     OW38761   3.387   2.347   9.251  0.1096  0.2063 -0.4235
 9101SOL    HW138762   3.458   2.293   9.285  0.8838  0.4278 -1.6875
 9101SOL    HW238763   3.320   2.338   9.318  0.3048  1.8174 -0.0037
 9102SOL     OW38764   2.929   1.543   2.562  0.1301 -0.0515 -0.0180
 9102SOL    HW138765   2.984   1.537   2.484  2.1927  2.0103  1.2872
 9102SOL    HW238766   2.846   1.505   2.534  0.8974 -0.2990 -1.9902
 9103SOL     OW38767   0.396   3.453   8.120 -0.0652  0.0687  0.2176
 9103SOL    HW138768   0.422   3.385   8.058 -3.1243 -0.3715 -0.5527
 9103SOL    HW238769   0.472   3.509   8.099  0.4742 -0.3887  0.9565
 9104SOL     OW38770   4.229   3.906   8.471  0.2927 -0.3558  0.0584
 9104SOL    HW138771   4.239   3.901   8.376 -2.0923 -0.4362 -0.1750
 9104SOL    HW238772   4.223   4.002   8.470 -1.2384 -0.4502 -0.0371
 9105SOL     OW38773   1.657   1.969  13.597 -0.4189  0.4722 -0.1414
 9105SOL    HW138774   1.606   1.936  13.670 -1.2322 -1.5409 -1.6036
 9105SOL    HW238775   1.740   1.922  13.598 -0.3252  0.5833 -1.7604
 9106SOL     OW38776   1.842   2.830  16.189  0.3789  0.0528  0.0490
 9106SOL    HW138777   1.883   2.830  16.275  0.7717  0.2921 -0.1329
 9106SOL    HW238778   1.919   2.796  16.143 -0.4913 -0.0999 -1.2885
 9107SOL     OW38779   2.748   1.782  14.127 -0.3024  0.2483  0.0636
 9107SOL    HW138780   2.825   1.804  14.180 -0.2866  1.4316 -0.4588
 9107SOL    HW238781   2.795   1.745  14.052 -0.1472 -1.8667  1.2162
 9108SOL     OW38782   1.322   1.477  10.379  0.4428 -0.4127 -0.3043
 9108SOL    HW138783   1.351   1.552  10.432  0.5099 -1.1081  0.6430
 9108SOL    HW238784   1.405   1.431  10.366  0.9883  0.3317  0.5064
 9109SOL     OW38785   2.558   4.616   4.478  0.6529 -0.1484 -0.4135
 9109SOL    HW138786   2.551   4.628   4.573  1.2231  2.1816 -0.6569
 9109SOL    HW238787   2.499   4.686   4.449 -3.7003 -3.2424  0.8545
 9110SOL     OW38788   2.803   3.536   2.313  0.3440  0.1423 -0.0714
 9110SOL    HW138789   2.805   3.447   2.348  1.4910  0.6593  1.1941
 9110SOL    HW238790   2.870   3.570   2.373 -0.3196  1.1116  0.1288
 9111SOL     OW38791   3.957   0.900   3.498 -0.3765  0.2914 -0.4575
 9111SOL    HW138792   3.870   0.889   3.460 -1.4833  1.4527  1.7270
 9111SOL    HW238793   3.985   0.810   3.514 -0.5588  0.2520 -0.3672
 9112SOL     OW38794   1.664   1.978   2.792 -0.0541 -0.2007  0.0674
 9112SOL    HW138795   1.591   1.972   2.730  1.6232 -2.1493 -1.7006
 9112SOL    HW238796   1.618   1.996   2.874  0.0532 -0.7968  0.2611
 9113SOL     OW38797   2.178   2.428   0.100 -0.5202 -0.3362  0.0376
 9113SOL    HW138798   2.160   2.377   0.179  0.7837  2.0609  1.8696
 9113SOL    HW238799   2.258   2.383   0.074 -0.1760 -0.8963  2.0151
 9114SOL     OW38800   3.399   3.518   5.193 -0.1562  0.1722 -0.3296
 9114SOL    HW138801   3.387   3.557   5.279  0.5205 -1.0256  0.3160
 9114SOL    HW238802   3.389   3.426   5.217  1.1373  0.1074 -0.0118
 9115SOL     OW38803   0.875   3.727   3.595 -0.3416  0.5159  0.3130
 9115SOL    HW138804   0.862   3.751   3.687  1.7493  0.7049  0.5598
 9115SOL    HW238805   0.933   3.802   3.580  2.2444 -1.5845 -0.1166
 9116SOL     OW38806   1.957   2.465   4.605 -0.2056  0.1006  0.2575
 9116SOL    HW138807   1.978   2.405   4.678  1.1638 -0.4352 -0.5676
 9116SOL    HW238808   1.899   2.520   4.658 -2.5792 -1.3293 -0.8445
 9117SOL     OW38809   1.442   2.881   0.447  0.3271 -0.4395 -0.2389
 9117SOL    HW138810   1.408   2.883   0.357  0.7180 -2.5105 -0.4361
 9117SOL    HW238811   1.380   2.816   0.478  2.3150 -1.1037  2.2940
 9118SOL     OW38812   3.180   2.917   3.730 -0.5947 -0.1620  0.3539
 9118SOL    HW138813   3.088   2.892   3.741 -0.5963  0.1135  0.9421
 9118SOL    HW238814   3.216   2.912   3.818 -0.0739  3.0386  0.3398
 9119SOL     OW38815   4.488   2.973   6.321 -0.1909  0.7696 -0.1267
 9119SOL    HW138816   4.401   2.993   6.355 -1.3483 -0.4551 -2.4177
 9119SOL    HW238817   4.533   3.057   6.336  1.0266  0.2243 -0.7178
 9120SOL     OW38818   4.151   1.210   2.899 -0.4445  0.4506  0.7098
 9120SOL    HW138819   4.194   1.293   2.918 -2.2014  1.4590  0.1965
 9120SOL    HW238820   4.089   1.202   2.971  0.5751 -0.2256  1.5226
 9121SOL     OW38821   3.893   2.657  15.595  0.2523  0.7421  0.0666
 9121SOL    HW138822   3.850   2.576  15.568  1.9114  0.3791 -1.5185
 9121SOL    HW238823   3.983   2.627  15.580 -0.0908 -0.7080  0.8411
 9122SOL     OW38824   1.097   1.267   5.296 -0.4581  0.0788  0.0916
 9122SOL    HW138825   1.137   1.353   5.306 -0.3706  0.2639 -1.8219
 9122SOL    HW238826   1.071   1.273   5.204 -0.0199  0.0119 -0.0380
 9123SOL     OW38827   1.539   3.153  10.369  0.2496  0.0359  0.2940
 9123SOL    HW138828   1.492   3.229  10.403 -0.2955 -0.1656 -0.0000
 9123SOL    HW238829   1.514   3.105  10.448 -0.0578  0.8698  0.7059
 9124SOL     OW38830   0.133   0.934   4.820 -0.1333 -0.8680 -0.1181
 9124SOL    HW138831   0.209   0.877   4.835 -0.1773 -0.2315  2.4815
 9124SOL    HW238832   0.168   1.021   4.838  0.0680 -0.7485 -1.0761
 9125SOL     OW38833   0.333   1.857   8.570 -0.5207 -0.0501 -1.1666
 9125SOL    HW138834   0.362   1.767   8.579  3.7964  1.3105 -1.7565
 9125SOL    HW238835   0.356   1.881   8.660  0.4286  1.0586 -1.6979
 9126SOL     OW38836   2.677   0.597   6.675 -0.3357  0.0490 -0.1160
 9126SOL    HW138837   2.661   0.662   6.606 -2.1194  0.4236  0.6466
 9126SOL    HW238838   2.602   0.599   6.735 -1.7042 -1.1583 -1.7888
 9127SOL     OW38839   3.017   3.707   5.576  0.3672 -0.2422  0.5487
 9127SOL    HW138840   3.005   3.687   5.669 -0.9155  2.4787  0.9484
 9127SOL    HW238841   2.931   3.692   5.537  0.7994 -0.4737 -0.3031
 9128SOL     OW38842   2.095   3.440   2.144 -0.0128  1.4409  0.0001
 9128SOL    HW138843   2.142   3.396   2.215 -1.3240  1.7255  1.0336
 9128SOL    HW238844   2.024   3.494   2.179  1.1081  2.1576  1.1586
 9129SOL     OW38845   0.850   4.520   4.356  0.1148 -0.6221  0.5090
 9129SOL    HW138846   0.848   4.449   4.291  0.5403  1.9040 -2.2440
 9129SOL    HW238847   0.900   4.491   4.432  1.5736 -3.1231 -1.4075
 9130SOL     OW38848   0.716   0.422  12.441 -0.0656  0.1740 -0.7500
 9130SOL    HW138849   0.659   0.345  12.436 -0.9592  0.7827 -0.1639
 9130SOL    HW238850   0.708   0.453  12.531  1.1844 -2.9056  0.4233
 9131SOL     OW38851   0.792   2.860   2.608  0.1891  0.5762 -0.2353
 9131SOL    HW138852   0.753   2.943   2.582 -3.1407 -1.3216 -1.3179
 9131SOL    HW238853   0.876   2.865   2.561  0.9602 -1.0140  0.9768
 9132SOL     OW38854   1.432   3.936   4.757 -0.3179 -0.4332 -0.2385
 9132SOL    HW138855   1.438   4.022   4.716 -1.0480 -0.1114  0.3247
 9132SOL    HW238856   1.481   3.948   4.838  0.9334 -3.8607 -0.4586
 9133SOL     OW38857   2.306   1.796   7.541 -0.3516 -0.1994  0.3403
 9133SOL    HW138858   2.386   1.812   7.491  0.7804 -0.8835  1.9871
 9133SOL    HW238859   2.286   1.708   7.510  0.1062  0.4546 -1.8766
 9134SOL     OW38860   3.363   3.138   0.532  0.1643 -0.4290  0.0545
 9134SOL    HW138861   3.415   3.136   0.613  0.4714 -0.8908 -0.1526
 9134SOL    HW238862   3.285   3.189   0.555 -0.9910 -2.3579  0.4110
 9135SOL     OW38863   1.920   0.838   6.412  0.7168  0.3524 -0.2043
 9135SOL    HW138864   1.939   0.866   6.502 -2.1421 -1.0902  0.8357
 9135SOL    HW238865   1.961   0.752   6.403 -0.5367 -0.1607 -0.9479
 9136SOL     OW38866   0.751   2.507  11.544  0.4281 -0.3698 -0.5894
 9136SOL    HW138867   0.692   2.474  11.475 -1.3628  0.3448  0.6047
 9136SOL    HW238868   0.824   2.450  11.521 -1.2813 -2.2767 -1.3007
 9137SOL     OW38869   0.340   1.752   7.521  0.0393 -0.1724  0.2347
 9137SOL    HW138870   0.335   1.670   7.472 -0.7990 -0.4500  0.7849
 9137SOL    HW238871   0.248   1.780   7.522  0.5399  1.5306 -2.2243
 9138SOL     OW38872   4.573   1.501  13.505  0.2365  0.1486 -0.9422
 9138SOL    HW138873   4.663   1.467  13.508  0.5771  1.0505 -0.9020
 9138SOL    HW238874   4.588   1.596  13.507 -0.0767  0.2039 -1.2727
 9139SOL     OW38875   1.190   1.875   2.180 -0.0278  0.3055 -0.2126
 9139SOL    HW138876   1.249   1.932   2.130 -1.5397  1.6066 -0.5057
 9139SOL    HW238877   1.107   1.868   2.133 -0.4127  1.3213  0.3172
 9140SOL     OW38878   4.548   3.646   1.735  0.4279  0.3189 -0.3678
 9140SOL    HW138879   4.636   3.643   1.772  0.3458 -2.0884 -0.3535
 9140SOL    HW238880   4.496   3.598   1.800  0.3492  2.1864  0.9471
 9141SOL     OW38881   0.784   2.491   7.732  0.5685  0.3475 -0.1968
 9141SOL    HW138882   0.720   2.451   7.675 -0.2706  0.9496  0.3234
 9141SOL    HW238883   0.815   2.405   7.758 -0.7641  0.7970  2.9076
 9142SOL     OW38884   3.242   1.335   7.110 -0.4911 -0.2883 -0.3806
 9142SOL    HW138885   3.285   1.409   7.152 -0.2712  0.4775 -1.9251
 9142SOL    HW238886   3.152   1.326   7.142 -0.0189  0.1693  1.0647
 9143SOL     OW38887   2.023   3.681  11.629  0.0399 -0.2048  0.0306
 9143SOL    HW138888   1.997   3.773  11.638  1.2671 -0.0259  1.7652
 9143SOL    HW238889   1.948   3.631  11.660 -0.0557 -0.9134 -1.3331
 9144SOL     OW38890   1.160   3.354   5.889 -0.1385 -0.0972  0.2533
 9144SOL    HW138891   1.100   3.328   5.818  0.2820 -1.2690  0.3190
 9144SOL    HW238892   1.103   3.418   5.930 -1.5421 -0.3612 -1.2472
 9145SOL     OW38893   4.178   2.743   3.992  0.0447  0.1224  0.2132
 9145SOL    HW138894   4.123   2.750   4.071  0.4328 -1.2077  0.5980
 9145SOL    HW238895   4.238   2.670   4.007 -1.2290 -0.5611  2.1030
 9146SOL     OW38896   2.940   1.280   5.374  0.9753 -0.3397 -0.4954
 9146SOL    HW138897   3.019   1.313   5.332  1.7445 -0.3273  0.9641
 9146SOL    HW238898   2.980   1.247   5.454 -0.7053 -1.1464  0.0223
 9147SOL     OW38899   0.965   3.396  13.166  1.0617  0.1836 -0.2068
 9147SOL    HW138900   0.952   3.491  13.163  2.9455  0.4329 -0.4768
 9147SOL    HW238901   0.992   3.375  13.077  0.5573 -1.8754  0.1318
 9148SOL     OW38902   0.196   3.833  17.009 -0.1814  0.0176  0.0248
 9148SOL    HW138903   0.257   3.760  17.019  0.0310  0.0748 -0.9094
 9148SOL    HW238904   0.225   3.853  16.920 -0.2435 -1.0372 -0.2313
 9149SOL     OW38905   4.056   1.287   2.658  0.2772  0.9533  0.3787
 9149SOL    HW138906   4.035   1.379   2.676  2.0432  1.5243 -0.4767
 9149SOL    HW238907   4.066   1.256   2.748 -1.2975 -2.2123 -0.5357
 9150SOL     OW38908   3.341   1.100  11.206  0.1870 -0.0109  0.1984
 9150SOL    HW138909   3.394   1.074  11.281 -1.3672  0.6989  1.5211
 9150SOL    HW238910   3.334   1.025  11.147 -1.7901 -0.1609  0.6256
 9151SOL     OW38911   4.071   0.138   1.177 -0.8103  0.3291  0.1612
 9151SOL    HW138912   4.121   0.076   1.124  1.0308  2.4251 -0.5469
 9151SOL    HW238913   3.992   0.146   1.123 -0.4242 -0.0481 -0.4733
 9152SOL     OW38914   0.372   4.684   3.604 -0.2128  0.4524 -0.5593
 9152SOL    HW138915   0.322   4.619   3.655  3.2789 -2.3137 -0.7195
 9152SOL    HW238916   0.346   0.042   3.650 -1.6042 -1.4171  1.8970
 9153SOL     OW38917   2.173   2.538   1.037  0.0237 -0.0857  0.1654
 9153SOL    HW138918   2.227   2.559   0.960  2.8953 -0.9924  1.9321
 9153SOL    HW238919   2.227   2.583   1.101 -0.3849  0.2533  0.2723
 9154SOL     OW38920   1.421   0.981   8.970 -0.5495 -0.3697 -0.1758
 9154SOL    HW138921   1.444   1.073   8.974 -1.1090 -0.2682  0.8388
 9154SOL    HW238922   1.509   0.945   8.966 -0.1967  0.5619 -0.7206
 9155SOL     OW38923   1.810   1.261   7.934  0.5820  0.7500 -0.4488
 9155SOL    HW138924   1.784   1.194   7.998 -2.2697  1.4499 -0.8660
 9155SOL    HW238925   1.787   1.341   7.981 -0.1357  0.4683 -0.3182
 9156SOL     OW38926   3.990   1.602   7.666 -0.6998 -0.2949  0.1973
 9156SOL    HW138927   3.999   1.621   7.759 -1.1012 -1.6307  0.5177
 9156SOL    HW238928   3.908   1.643   7.638 -1.5093 -2.3225 -0.4502
 9157SOL     OW38929   2.805   2.539  13.619 -0.5149 -0.6157  0.4581
 9157SOL    HW138930   2.886   2.550  13.570 -0.8250  0.1010  0.1140
 9157SOL    HW238931   2.802   2.444  13.633  3.1730 -1.0269 -1.3539
 9158SOL     OW38932   3.145   2.976   4.266  0.4533  0.1677 -0.6148
 9158SOL    HW138933   3.097   2.892   4.267 -0.3438  0.6465  1.3648
 9158SOL    HW238934   3.205   2.959   4.338  1.0085 -0.3678 -1.2036
 9159SOL     OW38935   2.317   3.316   9.984  0.1490 -0.0114 -0.1754
 9159SOL    HW138936   2.385   3.302  10.049 -0.7416 -0.0261  0.7492
 9159SOL    HW238937   2.365   3.307   9.902  0.3487 -1.9087  0.1424
 9160SOL     OW38938   4.320   0.794   4.664  0.0918 -0.1826  0.5179
 9160SOL    HW138939   4.394   0.854   4.654  0.8578 -1.2650 -0.2919
 9160SOL    HW238940   4.311   0.806   4.758  0.3687  1.5095  0.3212
 9161SOL     OW38941   0.713   0.440  14.847  0.0717  0.2187  0.2573
 9161SOL    HW138942   0.755   0.403  14.925 -0.7862 -0.8673  0.2067
 9161SOL    HW238943   0.701   0.532  14.870  2.0283  0.5659 -0.1486
 9162SOL     OW38944   0.670   3.945  13.360 -0.1501  0.3111 -0.1798
 9162SOL    HW138945   0.647   3.995  13.281 -0.9252 -0.9270 -0.7444
 9162SOL    HW238946   0.715   3.867  13.327 -2.4976 -0.4966 -1.4567
 9163SOL     OW38947   4.005   4.608   0.548 -0.3382  0.0200  0.4737
 9163SOL    HW138948   3.933   4.548   0.526 -1.5477  1.3580  0.8368
 9163SOL    HW238949   4.047   4.550   0.611  1.1856  1.0500  0.4208
 9164SOL     OW38950   4.584   3.588   8.081  0.4465 -0.1659 -0.2046
 9164SOL    HW138951   4.629   3.672   8.096  0.9098 -0.4591  0.0515
 9164SOL    HW238952   4.534   3.613   8.004  0.9893  0.9096 -0.2182
 9165SOL     OW38953   2.161   1.034   4.950  0.3551 -1.1081 -0.1511
 9165SOL    HW138954   2.251   1.050   4.977  0.2444 -0.3308 -0.2328
 9165SOL    HW238955   2.175   0.989   4.867  1.2739 -1.2130  0.0634
 9166SOL     OW38956   3.042   0.185   9.304 -0.0264  0.2770  0.4805
 9166SOL    HW138957   3.091   0.118   9.351  0.0851  1.2832  1.7881
 9166SOL    HW238958   2.978   0.129   9.260 -0.0648 -0.2446  1.2111
 9167SOL     OW38959   3.591   0.753   9.168  0.2238  0.2824  0.4420
 9167SOL    HW138960   3.662   0.696   9.197  1.6754  1.8021 -0.1135
 9167SOL    HW238961   3.533   0.767   9.243 -0.4189 -0.6766  0.1246
 9168SOL     OW38962   3.814   0.904   8.925 -0.5580 -0.6966 -0.3873
 9168SOL    HW138963   3.847   0.830   8.977  0.0286  0.2178  0.5357
 9168SOL    HW238964   3.720   0.899   8.941 -0.4974  1.3909  0.7123
 9169SOL     OW38965   1.277   0.987   8.568 -0.5774 -0.4775  0.3518
 9169SOL    HW138966   1.194   1.035   8.573  0.5273  1.4607 -0.0775
 9169SOL    HW238967   1.289   0.968   8.475  3.0545 -1.1898  0.9776
 9170SOL     OW38968   2.431   2.641  12.645 -0.5472  0.1215  0.3721
 9170SOL    HW138969   2.437   2.722  12.594  1.3678 -1.8138 -2.4470
 9170SOL    HW238970   2.392   2.672  12.728 -0.4385 -0.6511  0.7060
 9171SOL     OW38971   3.257   2.496   1.877 -0.0195 -0.1299 -0.0798
 9171SOL    HW138972   3.281   2.589   1.880 -2.2157  0.3752  1.2198
 9171SOL    HW238973   3.213   2.497   1.792 -2.0109  0.7142  0.9563
 9172SOL     OW38974   1.767   2.876  16.677  0.0546  0.4924 -0.3068
 9172SOL    HW138975   1.821   2.949  16.647 -0.6878  0.3476 -1.9539
 9172SOL    HW238976   1.762   2.886  16.772 -1.1747  0.5465 -0.3835
 9173SOL     OW38977   1.523   3.613   5.687 -0.2270 -0.1163  0.0169
 9173SOL    HW138978   1.617   3.624   5.704 -0.1167 -1.2780  0.1320
 9173SOL    HW238979   1.487   3.670   5.755 -1.3565 -1.0000  0.1666
 9174SOL     OW38980   3.874   2.887   3.100  0.3993 -0.3021  0.1419
 9174SOL    HW138981   3.931   2.812   3.080 -2.9198 -2.7374 -0.1635
 9174SOL    HW238982   3.801   2.832   3.130  0.6686 -1.0987 -0.6407
 9175SOL     OW38983   4.494   2.078   6.212 -0.3580 -0.6889 -0.3321
 9175SOL    HW138984   4.477   2.111   6.124  1.5027 -1.5070 -1.0140
 9175SOL    HW238985   4.420   2.117   6.257  0.3135  0.2600 -0.0397
 9176SOL     OW38986   4.349   0.893  13.782  0.5073  0.2818 -0.4423
 9176SOL    HW138987   4.380   0.868  13.869 -0.3270  0.3009 -0.1331
 9176SOL    HW238988   4.268   0.842  13.771  1.1633 -0.7623 -0.4171
 9177SOL     OW38989   2.977   3.300  15.144 -0.1719  0.0675 -1.0139
 9177SOL    HW138990   2.986   3.382  15.095  2.3812 -1.0107 -2.3783
 9177SOL    HW238991   2.882   3.292  15.147 -0.2424  0.5610 -2.2901
 9178SOL     OW38992   3.454   4.691  14.739  0.0451  0.4648  1.1525
 9178SOL    HW138993   3.538   4.660  14.772  1.2164  2.0267 -0.4048
 9178SOL    HW238994   3.398   4.702  14.816  0.8773 -0.1675  1.8551
 9179SOL     OW38995   4.414   0.981  15.523  0.5224 -0.3878  0.0353
 9179SOL    HW138996   4.408   1.018  15.611 -0.5679  1.1234 -0.6945
 9179SOL    HW238997   4.346   0.913  15.526 -1.2094  1.3534  0.2417
 9180SOL     OW38998   2.475   1.781   5.212  0.3457 -0.4027  0.0101
 9180SOL    HW138999   2.416   1.810   5.142 -0.3291  0.9869  1.1572
 9180SOL    HW239000   2.554   1.787   5.158  0.0380 -0.1434 -0.4090
 9181SOL     OW39001   4.444   4.479   7.775 -0.8005  0.3459 -0.1595
 9181SOL    HW139002   4.356   4.495   7.808 -1.1213  1.3878 -1.5334
 9181SOL    HW239003   4.466   4.561   7.730  0.4777 -0.0263 -0.2187
 9182SOL     OW39004   0.994   4.243  17.370  0.1223  0.5385  0.2010
 9182SOL    HW139005   1.007   4.260  17.464 -3.0720 -1.5291  0.9981
 9182SOL    HW239006   0.970   4.328  17.334 -2.9259 -0.9545 -1.2488
 9183SOL     OW39007   1.557   4.064   7.874 -0.2679 -0.3802 -0.2834
 9183SOL    HW139008   1.594   4.060   7.786  1.7604 -0.2646  0.5739
 9183SOL    HW239009   1.463   4.075   7.856 -0.4239 -2.8892 -1.0662
 9184SOL     OW39010   4.490   2.804   3.015  0.3261  0.1989  0.4289
 9184SOL    HW139011   4.538   2.791   3.097  1.6175 -1.6438 -0.6260
 9184SOL    HW239012   4.553   2.839   2.952  0.3183 -1.9041 -0.7472
 9185SOL     OW39013   0.445   2.267   7.439  0.3349  0.6179  0.5258
 9185SOL    HW139014   0.451   2.351   7.392  0.6243  0.7136  0.7361
 9185SOL    HW239015   0.516   2.271   7.503  0.7299 -1.4697  0.2037
 9186SOL     OW39016   0.414   0.474  15.409 -0.1183 -0.4313 -0.2521
 9186SOL    HW139017   0.434   0.554  15.459 -2.0837 -1.3098  1.9180
 9186SOL    HW239018   0.494   0.430  15.438  0.1849 -0.3686 -0.9866
 9187SOL     OW39019   1.218   3.296   8.366  0.1469 -0.4889 -0.1810
 9187SOL    HW139020   1.234   3.205   8.391 -1.0171 -0.2907  1.3112
 9187SOL    HW239021   1.308   3.315   8.340  0.8317 -0.4184  2.3143
 9188SOL     OW39022   1.959   3.741   6.029  0.5160  0.0572  0.0346
 9188SOL    HW139023   2.050   3.730   6.000  0.9038 -1.2973  1.7788
 9188SOL    HW239024   1.964   3.837   6.034 -2.3304  0.2349 -0.9425
 9189SOL     OW39025   3.738   0.185   1.845  0.0109  0.1525 -0.5339
 9189SOL    HW139026   3.690   0.268   1.844 -1.3217 -0.6494 -2.0399
 9189SOL    HW239027   3.783   0.211   1.765 -0.4032  0.9201 -0.5241
 9190SOL     OW39028   2.701   4.283   7.697  0.0321  0.5941  0.2992
 9190SOL    HW139029   2.721   4.195   7.664 -0.3842  1.1852 -1.5156
 9190SOL    HW239030   2.702   4.260   7.790  1.9751 -1.7326 -0.2803
 9191SOL     OW39031   0.142   1.249  13.094  0.4038 -0.1010 -0.5366
 9191SOL    HW139032   0.050   1.251  13.122  0.5530 -3.1831  0.1041
 9191SOL    HW239033   0.178   1.162  13.110  0.8816  0.2090  0.0931
 9192SOL     OW39034   2.743   1.120   4.375  0.0462 -0.0380 -0.7631
 9192SOL    HW139035   2.814   1.181   4.356  1.1252 -0.6283  1.3266
 9192SOL    HW239036   2.687   1.152   4.305 -1.0024  0.5767  0.3708
 9193SOL     OW39037   4.078   2.519   6.975 -0.0931 -0.1433  0.6603
 9193SOL    HW139038   4.096   2.585   6.908  0.6277  0.2582  1.2486
 9193SOL    HW239039   4.045   2.566   7.052  0.2091 -2.8708  2.4498
 9194SOL     OW39040   4.712   1.294   4.367  0.2228 -0.0282  0.5443
 9194SOL    HW139041   0.016   1.227   4.305  0.3183  0.2243  0.3104
 9194SOL    HW239042   4.717   1.240   4.446  1.1485 -1.5269 -0.5373
 9195SOL     OW39043   3.636   2.437   6.803 -0.3109  0.2396 -0.1066
 9195SOL    HW139044   3.686   2.510   6.767 -0.9174  0.7499  0.0715
 9195SOL    HW239045   3.696   2.363   6.798  0.5920  1.0392 -0.9690
 9196SOL     OW39046   1.333   3.150   7.977 -0.4016 -0.5540 -0.2861
 9196SOL    HW139047   1.340   3.091   8.052 -4.9421 -2.0520 -1.0228
 9196SOL    HW239048   1.295   3.098   7.906 -0.6442 -1.3709  0.4467
 9197SOL     OW39049   0.636   4.698   8.495  0.1350 -0.3182 -0.1135
 9197SOL    HW139050   0.560   4.700   8.436 -0.6006  0.5132  0.8609
 9197SOL    HW239051   0.601   0.025   8.569  1.3698 -0.4769  0.5655
 9198SOL     OW39052   4.269   1.966  10.656 -0.1199 -0.4695  0.1412
 9198SOL    HW139053   4.209   1.908  10.704  0.2259 -1.1570 -0.2444
 9198SOL    HW239054   4.261   2.039  10.717  0.2119  2.2937 -3.1154
 9199SOL     OW39055   1.483   2.877  16.724  0.0032  0.0456 -0.0952
 9199SOL    HW139056   1.422   2.892  16.652  0.5942  0.3513 -0.5336
 9199SOL    HW239057   1.566   2.866  16.678 -0.0893  0.0099 -0.2513
 9200SOL     OW39058   3.144   1.275   8.174 -0.0871 -0.5227 -0.6478
 9200SOL    HW139059   3.064   1.286   8.122  0.1382 -0.4687 -0.9825
 9200SOL    HW239060   3.125   1.209   8.240 -0.3453  2.6458  2.4204
 9201SOL     OW39061   3.924   2.296   7.191 -0.2986  0.6529 -0.8582
 9201SOL    HW139062   3.946   2.389   7.183  1.1702  0.2085 -2.1932
 9201SOL    HW239063   4.008   2.272   7.230 -1.2020 -0.6764  0.2751
 9202SOL     OW39064   1.521   0.217   2.841  0.4400  0.3517  0.2851
 9202SOL    HW139065   1.589   0.213   2.773 -0.4152 -1.7029 -0.4215
 9202SOL    HW239066   1.577   0.245   2.914  2.5749 -3.4722  0.1274
 9203SOL     OW39067   1.185   4.507  11.621 -0.1044 -0.2302 -0.1834
 9203SOL    HW139068   1.165   4.503  11.527 -4.8014  0.9894  0.7502
 9203SOL    HW239069   1.270   4.465  11.631 -0.0276 -0.1686 -0.5657
 9204SOL     OW39070   2.406   0.070   5.518 -0.2421  0.0465  0.2022
 9204SOL    HW139071   2.335   0.029   5.568 -0.8506 -0.3781 -1.0093
 9204SOL    HW239072   2.485   0.033   5.557  1.3862  1.8609 -1.3592
 9205SOL     OW39073   1.421   1.436   3.543  0.1013  0.6520  0.3024
 9205SOL    HW139074   1.327   1.418   3.548  0.2167  0.0154  0.2529
 9205SOL    HW239075   1.441   1.446   3.450  1.4412  0.5293  0.5782
 9206SOL     OW39076   3.484   1.813   8.037 -0.0296  0.2596  0.0365
 9206SOL    HW139077   3.405   1.795   7.986 -0.1746  0.7486  0.0907
 9206SOL    HW239078   3.546   1.756   7.991 -0.6741 -2.1607  2.2209
 9207SOL     OW39079   3.529   1.445   2.335 -0.3256  0.2055 -0.0876
 9207SOL    HW139080   3.600   1.472   2.393 -1.1706 -0.1572  1.1168
 9207SOL    HW239081   3.481   1.528   2.329 -1.3545 -0.5359 -2.3094
 9208SOL     OW39082   1.101   0.326   8.942  0.0614  0.2183  0.2316
 9208SOL    HW139083   1.098   0.381   8.863 -1.3988  1.0758  0.8812
 9208SOL    HW239084   1.099   0.239   8.903  2.4636 -0.2396  1.1830
 9209SOL     OW39085   1.276   0.995   9.722 -0.0370  0.0017 -0.0084
 9209SOL    HW139086   1.277   0.966   9.631 -1.1085  1.8300 -0.6150
 9209SOL    HW239087   1.184   0.976   9.743  0.4320  0.1778  2.1910
 9210SOL     OW39088   3.135   0.624   1.028 -0.3709 -0.4831 -0.1591
 9210SOL    HW139089   3.086   0.545   1.048  0.1495 -0.2157  2.1142
 9210SOL    HW239090   3.088   0.653   0.949  1.7848 -0.7530 -1.5368
 9211SOL     OW39091   2.900   2.492  11.157  0.0978  0.4296  0.2107
 9211SOL    HW139092   2.940   2.563  11.209 -0.2983 -0.3200  1.5452
 9211SOL    HW239093   2.967   2.489  11.089 -0.0414 -0.3408  0.1090
 9212SOL     OW39094   0.941   0.008   5.345  0.3803  0.0313  0.4066
 9212SOL    HW139095   0.867   4.698   5.396  0.0080  1.1073  0.5447
 9212SOL    HW239096   0.898   0.045   5.269 -0.5191  0.3111  1.0581
 9213SOL     OW39097   1.143   4.642   1.329 -0.0355 -0.4086 -0.0542
 9213SOL    HW139098   1.070   4.704   1.320  0.2898  0.3812  2.8515
 9213SOL    HW239099   1.081   4.570   1.324 -0.6554  0.0825  0.5254
 9214SOL     OW39100   3.654   0.325   3.955  0.4924  0.0294  0.3708
 9214SOL    HW139101   3.623   0.241   3.921 -0.4378  0.8566 -0.8467
 9214SOL    HW239102   3.577   0.372   3.986  0.4763  0.0017  0.3727
 9215SOL     OW39103   1.046   0.083   2.947 -0.2712  0.3521  0.0145
 9215SOL    HW139104   1.138   0.055   2.946 -0.4149 -0.0270 -1.5638
 9215SOL    HW239105   1.020   0.066   3.038 -0.8282 -1.3197 -0.4659
 9216SOL     OW39106   2.913   1.634   3.718  0.3233 -0.4732 -0.1766
 9216SOL    HW139107   2.873   1.638   3.805 -2.0191 -2.0343 -1.1697
 9216SOL    HW239108   2.963   1.716   3.717  0.0026 -0.2867 -0.8051
 9217SOL     OW39109   0.483   1.955   9.461 -0.3648 -0.0231  0.1311
 9217SOL    HW139110   0.481   1.942   9.366 -0.1957  2.2133 -0.1769
 9217SOL    HW239111   0.565   2.003   9.471 -0.3445  0.5296 -2.6870
 9218SOL     OW39112   3.505   0.318   8.294 -0.1722 -0.1559  0.0994
 9218SOL    HW139113   3.461   0.235   8.310 -0.7523  0.0250 -0.6034
 9218SOL    HW239114   3.572   0.298   8.229  0.7542 -1.5087  1.4574
 9219SOL     OW39115   2.653   0.915  10.086 -0.2750  0.0565  0.7504
 9219SOL    HW139116   2.615   0.839  10.041 -0.1990  0.8888 -0.7330
 9219SOL    HW239117   2.624   0.989  10.032 -1.6687 -1.6659 -0.8582
 9220SOL     OW39118   0.171   2.943  16.322 -0.5404 -0.1724  0.2325
 9220SOL    HW139119   0.178   2.874  16.389  1.4878 -0.7462 -0.5821
 9220SOL    HW239120   0.154   3.014  16.384 -2.3990  1.0521 -1.6795
 9221SOL     OW39121   1.312   4.221   6.471  0.0139  0.6378 -0.2601
 9221SOL    HW139122   1.312   4.299   6.527 -1.2336  0.5563 -0.1540
 9221SOL    HW239123   1.221   4.196   6.486 -0.3707  1.5124 -1.1917
 9222SOL     OW39124   3.880   1.347   7.548  0.4497  0.5512  0.0077
 9222SOL    HW139125   3.948   1.330   7.483  1.6563 -1.3883  1.7764
 9222SOL    HW239126   3.897   1.438   7.573 -0.1680  0.1898  1.7226
 9223SOL     OW39127   1.606   0.751   6.831 -0.0849 -0.1758 -0.1857
 9223SOL    HW139128   1.622   0.838   6.796  1.1747  0.2395  1.3989
 9223SOL    HW239129   1.511   0.743   6.821  0.2998 -1.0785 -3.0818
 9224SOL     OW39130   4.436   1.774   4.995 -0.0896  0.3100 -0.0190
 9224SOL    HW139131   4.447   1.839   4.926  2.0564 -0.7044 -0.6240
 9224SOL    HW239132   4.494   1.813   5.060  0.5843 -0.0215 -0.4185
 9225SOL     OW39133   2.665   1.026   5.021 -0.1940  0.0755 -0.5452
 9225SOL    HW139134   2.725   1.092   5.056  2.6172 -0.8959 -3.5665
 9225SOL    HW239135   2.719   0.947   5.025 -0.0236  0.1982 -0.4509
 9226SOL     OW39136   0.899   1.584   7.715 -0.3255  0.1902 -0.2883
 9226SOL    HW139137   0.901   1.641   7.637  1.8455  2.1701  1.2048
 9226SOL    HW239138   0.897   1.655   7.779  1.1460  1.2549 -1.4300
 9227SOL     OW39139   2.238   2.859   5.114  0.3863 -0.4023  0.7851
 9227SOL    HW139140   2.172   2.809   5.065  0.8002 -1.0038  0.8354
 9227SOL    HW239141   2.208   2.946   5.089 -0.5816 -0.9476  0.0298
 9228SOL     OW39142   3.830   4.515   9.770  0.0589  0.3784 -0.1163
 9228SOL    HW139143   3.749   4.506   9.821 -0.0342  0.5360 -0.2351
 9228SOL    HW239144   3.854   4.607   9.780 -1.4934  1.1491 -3.8595
 9229SOL     OW39145   2.019   4.310   8.005  0.6498  0.3386 -0.0841
 9229SOL    HW139146   2.029   4.380   7.940 -0.2659 -0.0548 -0.6479
 9229SOL    HW239147   2.017   4.233   7.948  1.7591  0.3088 -0.0915
 9230SOL     OW39148   2.167   0.530   7.084  0.1829 -0.2615 -0.4219
 9230SOL    HW139149   2.212   0.589   7.144 -0.6697 -0.1762  0.1372
 9230SOL    HW239150   2.189   0.569   7.000 -0.6862 -0.7193 -0.8697
 9231SOL     OW39151   3.030   2.792   4.843  0.0165 -0.1516 -0.2972
 9231SOL    HW139152   2.960   2.727   4.840  0.8460 -1.0552 -0.0612
 9231SOL    HW239153   3.094   2.754   4.782  1.9210  2.0167  0.3392
 9232SOL     OW39154   3.717   2.194   8.775  0.0992 -0.0747 -0.3226
 9232SOL    HW139155   3.757   2.269   8.818  0.3116 -0.0994 -0.4775
 9232SOL    HW239156   3.671   2.150   8.847  1.4608 -1.9817 -0.6094
 9233SOL     OW39157   3.439   3.821   1.587 -0.1146  0.2682 -0.3100
 9233SOL    HW139158   3.389   3.900   1.605 -2.3189 -1.2430  0.2375
 9233SOL    HW239159   3.399   3.753   1.642  0.3163 -0.2505 -0.6394
 9234SOL     OW39160   1.713   4.702   5.973 -0.3021  0.3724 -0.0282
 9234SOL    HW139161   1.761   4.687   5.891  0.9441 -0.3935  0.8362
 9234SOL    HW239162   1.738   0.070   5.991 -0.0953 -0.0693  1.9359
 9235SOL     OW39163   0.329   1.617   1.193 -0.3020 -0.3690 -0.4037
 9235SOL    HW139164   0.254   1.597   1.249 -0.9104 -1.5219 -1.6344
 9235SOL    HW239165   0.338   1.710   1.215 -1.4483 -0.5406  0.8005
 9236SOL     OW39166   3.661   2.178   4.797 -0.2563 -0.1287 -0.2977
 9236SOL    HW139167   3.721   2.169   4.723 -1.1318  0.4693 -1.0827
 9236SOL    HW239168   3.612   2.097   4.782 -1.7275  0.5982  0.5537
 9237SOL     OW39169   3.962   2.379  17.436  0.1805 -0.3592  0.1146
 9237SOL    HW139170   4.025   2.435  17.481 -0.2993  1.0573 -0.9705
 9237SOL    HW239171   3.956   2.420  17.349  0.4069  1.5671  1.0106
 9238SOL     OW39172   4.248   3.943   5.720  0.2858  0.5450 -0.2963
 9238SOL    HW139173   4.206   4.029   5.708 -0.9107  0.0304  0.1592
 9238SOL    HW239174   4.257   3.917   5.628 -3.4385  1.0190 -0.8116
 9239SOL     OW39175   2.606   1.215   9.976 -0.2606  0.1311 -0.7908
 9239SOL    HW139176   2.673   1.272   9.938 -0.0713 -1.5486 -2.9473
 9239SOL    HW239177   2.564   1.259  10.049  2.3469 -0.5908  1.1473
 9240SOL     OW39178   1.242   2.304  11.616  0.1393  0.6182  0.0439
 9240SOL    HW139179   1.300   2.295  11.691  1.2118  0.3007 -0.8310
 9240SOL    HW239180   1.274   2.230  11.564  1.4805 -0.5659  2.5998
 9241SOL     OW39181   0.604   4.648  10.824  0.9657 -0.1143 -0.4232
 9241SOL    HW139182   0.650   4.564  10.822 -1.6177 -1.5310  0.1771
 9241SOL    HW239183   0.653   4.692  10.894 -0.1156 -0.3004  0.4499
 9242SOL     OW39184   2.151   4.254   6.951 -0.3355 -0.2556 -0.5541
 9242SOL    HW139185   2.226   4.253   6.891 -1.2303 -1.9576 -1.6723
 9242SOL    HW239186   2.134   4.346   6.971 -2.5114 -0.6904 -0.4666
 9243SOL     OW39187   3.622   3.698   5.115 -0.1874  0.2936 -0.3515
 9243SOL    HW139188   3.560   3.636   5.155 -0.7941  0.9894 -0.2088
 9243SOL    HW239189   3.554   3.749   5.072 -1.6270 -1.1932  0.1484
 9244SOL     OW39190   0.533   3.248   5.627 -0.1131  0.3704 -1.0733
 9244SOL    HW139191   0.460   3.310   5.619 -0.9110 -0.3123  0.9312
 9244SOL    HW239192   0.501   3.205   5.706  3.0317 -1.6097 -0.8923
 9245SOL     OW39193   2.032   3.765  12.891 -0.3897 -0.2912 -0.6548
 9245SOL    HW139194   1.949   3.768  12.938  0.2860  0.3978  0.5028
 9245SOL    HW239195   2.049   3.671  12.891 -1.5119 -0.4869 -1.9905
 9246SOL     OW39196   1.635   3.136  16.453  0.7194  0.4049 -0.0883
 9246SOL    HW139197   1.621   3.101  16.366  0.2331 -1.5124  0.7700
 9246SOL    HW239198   1.726   3.110  16.471  0.5403  0.5708  1.0767
 9247SOL     OW39199   0.417   1.608   2.325 -0.0207  0.3046 -0.5910
 9247SOL    HW139200   0.356   1.590   2.397  0.6030 -1.1335 -0.4128
 9247SOL    HW239201   0.372   1.594   2.242 -1.4074 -0.7776  0.3252
 9248SOL     OW39202   3.464   2.763  11.793 -0.1890 -0.4636 -0.6794
 9248SOL    HW139203   3.544   2.728  11.831  0.6660 -1.2286 -3.1870
 9248SOL    HW239204   3.404   2.688  11.799  0.1670 -0.4865  2.4890
 9249SOL     OW39205   0.936   2.425   8.865  0.5699  0.0016  0.8721
 9249SOL    HW139206   0.940   2.419   8.769 -1.3806  2.7247  0.6143
 9249SOL    HW239207   1.018   2.468   8.889  1.8509 -3.8591  3.4059
 9250SOL     OW39208   3.819   4.246  17.072  0.1388  0.1429  0.1702
 9250SOL    HW139209   3.913   4.234  17.087  0.3638  0.1449 -1.3024
 9250SOL    HW239210   3.799   4.171  17.016 -3.7539  0.8393  0.6244
 9251SOL     OW39211   0.269   2.076   4.931 -0.7091  0.0141 -0.0689
 9251SOL    HW139212   0.318   1.994   4.928 -0.4133  0.2419 -1.6907
 9251SOL    HW239213   0.181   2.043   4.914 -0.4038  0.1134 -1.8917
 9252SOL     OW39214   4.040   0.101   3.566  0.0313 -0.7945  0.1762
 9252SOL    HW139215   4.103   0.159   3.522 -1.1721  0.0072 -0.4722
 9252SOL    HW239216   4.079   0.091   3.653 -2.8970  0.7273  1.6711
 9253SOL     OW39217   4.352   0.029   2.937  0.0129  0.1121  0.9891
 9253SOL    HW139218   4.309   4.671   2.966 -0.3898 -0.2750 -0.7032
 9253SOL    HW239219   4.346   0.094   3.007  2.3702  0.0845  1.2243
 9254SOL     OW39220   1.613   4.078   0.469  0.6507  0.4654  0.0031
 9254SOL    HW139221   1.534   4.073   0.523 -0.3715  1.1094 -1.4357
 9254SOL    HW239222   1.589   4.154   0.416  2.7473  1.3736  0.3342
 9255SOL     OW39223   3.612   3.789   2.145  0.1334  0.1011 -0.3152
 9255SOL    HW139224   3.573   3.874   2.164  1.4734  1.0095 -1.6343
 9255SOL    HW239225   3.556   3.753   2.076  1.2834 -1.5633 -0.3676
 9256SOL     OW39226   4.481   3.816  14.976 -0.4593 -0.2541 -1.1785
 9256SOL    HW139227   4.506   3.724  14.979  0.4269 -0.0762 -3.2302
 9256SOL    HW239228   4.396   3.803  14.935 -0.9744  1.0923 -0.5246
 9257SOL     OW39229   4.107   4.024   4.029 -0.6606  0.5820 -0.6574
 9257SOL    HW139230   4.125   4.111   3.993  1.3266  0.0203 -1.0180
 9257SOL    HW239231   4.012   4.021   4.020 -0.7014 -0.5166  0.0401
 9258SOL     OW39232   0.078   2.358   0.159  0.3091  0.0503 -0.0629
 9258SOL    HW139233   0.054   2.357   0.251 -1.7662 -0.5148 -0.6119
 9258SOL    HW239234   0.109   2.448   0.149 -1.5768  0.6581 -0.4768
 9259SOL     OW39235   3.466   1.156   7.115  0.2761 -0.1762  0.3167
 9259SOL    HW139236   3.403   1.228   7.114  0.6860  0.1759  0.1225
 9259SOL    HW239237   3.411   1.077   7.112  0.5166 -0.4429  2.9958
 9260SOL     OW39238   4.599   2.960   7.022  0.0704 -0.2559 -0.7743
 9260SOL    HW139239   4.600   3.055   7.014  0.9704 -0.3809 -1.9933
 9260SOL    HW239240   4.504   2.948   7.026  0.3588 -2.9016 -1.9404
 9261SOL     OW39241   2.622   1.660   5.969 -0.1679  0.3774  0.0123
 9261SOL    HW139242   2.650   1.732   5.912  0.2287 -0.3087 -0.6617
 9261SOL    HW239243   2.695   1.657   6.031 -1.2356 -2.1512  1.1614
 9262SOL     OW39244   4.248   1.328   8.146  0.0840 -0.1884 -0.3182
 9262SOL    HW139245   4.217   1.348   8.234  2.2560 -2.6026  0.9807
 9262SOL    HW239246   4.187   1.259   8.122 -3.7440  2.9412  0.3982
 9263SOL     OW39247   3.671   4.271   5.822  0.6913  0.4783  0.6116
 9263SOL    HW139248   3.609   4.292   5.892  0.8079  0.8541  0.6061
 9263SOL    HW239249   3.734   4.221   5.875 -0.6665 -2.4493 -0.5497
 9264SOL     OW39250   1.747   3.405   8.457  0.5106 -0.1725 -0.5038
 9264SOL    HW139251   1.769   3.491   8.421 -2.9607  0.7610 -0.3518
 9264SOL    HW239252   1.829   3.361   8.433  0.8817  0.0107  0.4254
 9265SOL     OW39253   0.794   1.572   3.968 -0.0124  0.3059 -0.0554
 9265SOL    HW139254   0.751   1.529   3.894 -0.9245  0.7822  0.1963
 9265SOL    HW239255   0.760   1.511   4.032 -1.3614 -1.3009 -2.3197
 9266SOL     OW39256   4.716   4.050  10.278  0.1582 -0.1294  0.6366
 9266SOL    HW139257   0.020   3.967  10.239  0.1029  0.0780  0.1511
 9266SOL    HW239258   4.636   4.030  10.327  0.3648  1.0651  1.4655
 9267SOL     OW39259   0.353   4.504   7.575  0.4628  0.0596 -0.4732
 9267SOL    HW139260   0.404   4.553   7.510  2.0289 -1.5087 -0.4188
 9267SOL    HW239261   0.278   4.477   7.522  0.1710 -3.5089  1.7986
 9268SOL     OW39262   0.023   1.323  10.031  0.0713 -0.2764  0.0113
 9268SOL    HW139263   0.055   1.355  10.115 -1.4210 -2.1768  1.3055
 9268SOL    HW239264   0.027   1.404   9.980  1.1718 -0.4480 -0.1697
 9269SOL     OW39265   2.612   0.255  13.992  0.4321  0.6229 -0.1049
 9269SOL    HW139266   2.677   0.325  13.990  1.3401 -0.2589 -1.6309
 9269SOL    HW239267   2.614   0.208  13.908 -0.6288 -2.1865  1.4267
 9270SOL     OW39268   0.801   0.938   8.894  0.3213 -0.1650 -0.2802
 9270SOL    HW139269   0.750   0.857   8.889 -2.2524  1.3478  1.6806
 9270SOL    HW239270   0.830   0.946   8.803  1.6162 -3.2889 -0.1304
 9271SOL     OW39271   3.337   3.755   9.422  0.0551  0.3529  0.1860
 9271SOL    HW139272   3.375   3.696   9.488  0.5171 -0.5467 -0.8951
 9271SOL    HW239273   3.259   3.715   9.384  0.2478  1.7070 -1.6689
 9272SOL     OW39274   0.733   2.404  14.568 -0.2305  0.0927  0.3026
 9272SOL    HW139275   0.714   2.342  14.496 -1.2780  1.7340 -0.8370
 9272SOL    HW239276   0.827   2.407  14.555  0.2666 -2.4178  3.2955
 9273SOL     OW39277   4.187   4.222   0.340  0.1277  0.2584 -0.2501
 9273SOL    HW139278   4.215   4.233   0.431  1.7295 -0.5653 -0.6412
 9273SOL    HW239279   4.105   4.272   0.337  0.8017  1.4217  0.6790
 9274SOL     OW39280   0.855   3.244   2.787  0.6494  0.1739 -0.3451
 9274SOL    HW139281   0.859   3.335   2.757  2.2818  0.1560 -0.1547
 9274SOL    HW239282   0.759   3.244   2.793  0.7283  0.8507  0.9020
 9275SOL     OW39283   3.859   3.176   3.798  0.9817 -0.4534  0.2890
 9275SOL    HW139284   3.936   3.153   3.745  0.6144  3.0856 -1.7879
 9275SOL    HW239285   3.821   3.093   3.825  0.0963 -0.1758 -0.1127
 9276SOL     OW39286   1.500   2.113  13.403  0.3150 -0.2268 -0.4402
 9276SOL    HW139287   1.569   2.075  13.457 -0.9286 -1.5034  0.2872
 9276SOL    HW239288   1.422   2.078  13.447  0.5902 -1.7899 -1.1790
 9277SOL     OW39289   1.758   2.691   7.279 -0.1529 -0.2323  0.1494
 9277SOL    HW139290   1.778   2.622   7.215  0.5469  0.4501 -0.3727
 9277SOL    HW239291   1.724   2.654   7.361  0.0608  0.3590  0.5019
 9278SOL     OW39292   2.694   2.562  15.020  0.1689  0.0308  0.4015
 9278SOL    HW139293   2.635   2.625  15.061 -0.7207 -0.6827  0.2260
 9278SOL    HW239294   2.759   2.559  15.090 -0.3879 -0.6970  0.8804
 9279SOL     OW39295   0.029   4.045   6.842 -0.3890 -0.1637 -0.2065
 9279SOL    HW139296   0.001   4.095   6.919  0.1611  1.0149 -0.7573
 9279SOL    HW239297   0.108   4.097   6.825  0.0883 -1.3282 -1.6014
 9280SOL     OW39298   3.914   0.333   3.357 -0.0686 -0.0389 -0.5891
 9280SOL    HW139299   3.983   0.310   3.419  1.2687  0.7882 -1.7557
 9280SOL    HW239300   3.938   0.276   3.284 -2.4504 -1.3556 -0.3609
 9281SOL     OW39301   1.886   3.593  10.238 -0.0654  0.2846 -0.1876
 9281SOL    HW139302   1.943   3.612  10.312  0.6029 -0.5530 -0.4838
 9281SOL    HW239303   1.948   3.540  10.187 -1.3945 -2.3886  1.0045
 9282SOL     OW39304   0.761   3.395   2.024  0.3693  0.3617 -0.1137
 9282SOL    HW139305   0.806   3.479   2.035 -0.1597  0.4092  1.7319
 9282SOL    HW239306   0.813   3.343   2.085 -0.8013 -1.0922 -0.3423
 9283SOL     OW39307   2.214   1.546   6.852 -0.2169  0.4560  0.2823
 9283SOL    HW139308   2.131   1.499   6.850  0.4463 -0.8026  2.3564
 9283SOL    HW239309   2.233   1.553   6.946 -0.4014  0.2437  0.3357
 9284SOL     OW39310   2.469   2.774  11.182 -0.1588  0.5314 -0.4869
 9284SOL    HW139311   2.560   2.786  11.155  0.2688  0.8094  1.0215
 9284SOL    HW239312   2.472   2.829  11.261  0.2842  0.7276 -0.6371
 9285SOL     OW39313   2.172   0.554   2.291  0.7815  0.2997 -0.3065
 9285SOL    HW139314   2.242   0.596   2.242  1.1981 -0.3672 -0.2781
 9285SOL    HW239315   2.118   0.535   2.215  1.0300  0.9008 -0.6338
 9286SOL     OW39316   4.109   3.306   3.571 -0.9468 -0.3055  0.2652
 9286SOL    HW139317   4.064   3.328   3.490  0.3568 -1.8704 -0.8963
 9286SOL    HW239318   4.156   3.232   3.531 -0.4059  1.1716 -1.8171
 9287SOL     OW39319   2.642   0.993   5.334 -1.1956 -0.4559  0.0526
 9287SOL    HW139320   2.549   0.975   5.320 -1.6714  0.8400  1.6433
 9287SOL    HW239321   2.656   1.080   5.297 -0.2794 -0.2048  1.0076
 9288SOL     OW39322   2.306   1.343   8.725  0.4630 -0.3648 -0.2814
 9288SOL    HW139323   2.294   1.383   8.811  2.1160  0.4633 -0.4309
 9288SOL    HW239324   2.362   1.412   8.689 -0.2174  0.6181  0.5460
 9289SOL     OW39325   0.727   1.414   5.564 -0.3511 -0.2711 -1.0222
 9289SOL    HW139326   0.691   1.357   5.632  0.4339  0.7065  0.2335
 9289SOL    HW239327   0.666   1.401   5.492 -1.2226 -1.2466 -0.1188
 9290SOL     OW39328   4.030   4.155   7.245  0.5332 -1.2762  0.6770
 9290SOL    HW139329   4.117   4.193   7.258  0.1196 -0.4657  1.0368
 9290SOL    HW239330   3.993   4.202   7.319 -0.0168 -0.0139 -0.4178
 9291SOL     OW39331   0.208   4.304   1.881  0.0622  0.0707 -0.6776
 9291SOL    HW139332   0.180   4.214   1.861 -0.1627  0.0804 -0.4055
 9291SOL    HW239333   0.126   4.352   1.871  0.6275  1.1972  0.1286
 9292SOL     OW39334   0.513   2.680   5.052 -0.3391 -0.0714  0.1587
 9292SOL    HW139335   0.467   2.752   5.009  0.8055  0.3266 -0.3910
 9292SOL    HW239336   0.584   2.673   4.989 -1.9292 -1.3335 -1.5029
 9293SOL     OW39337   3.764   4.271   4.119  0.0152  0.2305  0.0413
 9293SOL    HW139338   3.760   4.211   4.193  1.3845 -1.0511 -0.9127
 9293SOL    HW239339   3.822   4.344   4.141 -0.7314  1.1790 -1.1013
 9294SOL     OW39340   3.892   1.307   0.562  0.1154 -0.3712 -0.1893
 9294SOL    HW139341   3.847   1.387   0.536 -2.3309 -1.6487  0.0694
 9294SOL    HW239342   3.983   1.308   0.532 -0.4302  3.0121 -1.7516
 9295SOL     OW39343   2.195   2.840   7.976  0.2761  0.4156  0.0481
 9295SOL    HW139344   2.277   2.796   7.997  0.8186  1.2292 -0.3563
 9295SOL    HW239345   2.183   2.890   8.057 -0.3743  0.8429 -0.3050
 9296SOL     OW39346   3.827   1.442   6.271  0.5341  0.0185 -0.2187
 9296SOL    HW139347   3.908   1.393   6.291  0.2245 -0.8438 -1.0773
 9296SOL    HW239348   3.755   1.384   6.295 -1.5324  2.7458  0.0914
 9297SOL     OW39349   1.617   0.751   5.368 -0.0615 -0.6074  0.1368
 9297SOL    HW139350   1.572   0.667   5.374  0.7299 -1.0191  0.3310
 9297SOL    HW239351   1.688   0.730   5.307  1.1231  2.1980  0.5316
 9298SOL     OW39352   4.582   2.419  11.517 -0.2354  0.4992  0.2521
 9298SOL    HW139353   4.617   2.442  11.431  3.0757  4.4169  2.6154
 9298SOL    HW239354   4.499   2.375  11.499 -0.9367  1.4684  1.1422
 9299SOL     OW39355   0.880   0.105  11.916 -0.6242  0.0102  0.1846
 9299SOL    HW139356   0.870   0.013  11.938  1.3708  0.6061  3.5610
 9299SOL    HW239357   0.853   0.113  11.824  0.9401  1.1884 -0.1944
 9300SOL     OW39358   2.615   3.711   3.625 -0.4152  0.2458  0.5030
 9300SOL    HW139359   2.675   3.730   3.697 -1.0518  0.3769  1.0020
 9300SOL    HW239360   2.681   3.700   3.556 -1.5706  0.9431 -0.7286
 9301SOL     OW39361   1.436   3.508  14.144  0.3973  0.4957  0.8119
 9301SOL    HW139362   1.378   3.540  14.075 -0.1694 -0.3600  0.8808
 9301SOL    HW239363   1.523   3.544  14.126  0.5246  0.0436  0.5155
 9302SOL     OW39364   3.525   0.304   3.482  0.2072 -0.4271 -0.5243
 9302SOL    HW139365   3.470   0.238   3.441 -0.3100 -0.3379  0.0112
 9302SOL    HW239366   3.510   0.285   3.575 -1.3684  2.6245 -0.1497
 9303SOL     OW39367   3.701   1.392  14.198  0.3128 -0.0048  0.0643
 9303SOL    HW139368   3.741   1.313  14.233  0.4567 -1.2095 -2.8924
 9303SOL    HW239369   3.614   1.398  14.237  0.0663 -3.4262  0.0088
 9304SOL     OW39370   2.188   2.006   6.693 -0.1526 -0.5651 -0.2821
 9304SOL    HW139371   2.153   1.927   6.735 -1.9821  0.9693  1.0728
 9304SOL    HW239372   2.166   2.076   6.755 -0.1040  0.5885 -1.5717
 9305SOL     OW39373   4.244   0.304   7.398  0.0916  0.3445 -0.1317
 9305SOL    HW139374   4.151   0.320   7.383 -0.2205 -0.0244  1.4293
 9305SOL    HW239375   4.273   0.393   7.417 -1.6092  0.4979  1.7647
 9306SOL     OW39376   3.069   0.632   1.701 -0.1337 -0.4079 -0.2958
 9306SOL    HW139377   3.043   0.641   1.609  0.6746 -0.2306 -0.5092
 9306SOL    HW239378   3.020   0.703   1.741 -0.1208 -2.1754  2.8821
 9307SOL     OW39379   1.043   1.973   5.532 -0.3654 -0.2408  0.2575
 9307SOL    HW139380   1.117   2.004   5.584  0.0885  0.1459 -0.6292
 9307SOL    HW239381   1.013   2.056   5.495  0.9388 -0.0695 -0.3968
 9308SOL     OW39382   0.633   1.950  13.064  0.3034  0.4074 -0.1542
 9308SOL    HW139383   0.570   1.972  13.132  1.8404  0.1208  1.3667
 9308SOL    HW239384   0.648   1.857  13.078  1.7479  0.6612 -0.0100
 9309SOL     OW39385   3.926   1.546   3.437  0.2834 -0.2481 -0.1092
 9309SOL    HW139386   3.838   1.535   3.400 -0.2466  2.3246  0.4206
 9309SOL    HW239387   3.945   1.634   3.404 -1.4608 -0.4142 -1.5372
 9310SOL     OW39388   0.640   0.820   6.795 -0.0473 -0.3864 -0.0564
 9310SOL    HW139389   0.548   0.834   6.773  0.7639  2.7000 -1.5167
 9310SOL    HW239390   0.650   0.739   6.745 -0.0030 -0.7323  0.5230
 9311SOL     OW39391   1.535   0.132  10.037 -0.0484  0.1256 -0.0118
 9311SOL    HW139392   1.572   0.055  10.079  0.2779  0.8891  1.0939
 9311SOL    HW239393   1.505   0.178  10.115 -0.8774  1.6400 -1.2209
 9312SOL     OW39394   2.953   0.894   1.772 -0.3351 -0.6093  0.1954
 9312SOL    HW139395   2.861   0.873   1.788 -0.2525  0.8203  2.5853
 9312SOL    HW239396   2.942   0.963   1.707 -1.9307  0.7300  1.8804
 9313SOL     OW39397   4.407   2.196   4.540  0.3104 -0.0391  0.0942
 9313SOL    HW139398   4.454   2.232   4.615 -0.9454  1.1913  0.2984
 9313SOL    HW239399   4.462   2.220   4.464  0.6829 -0.0996  0.3437
 9314SOL     OW39400   2.539   4.722   7.240  0.6471 -0.1392  0.1230
 9314SOL    HW139401   2.629   0.013   7.209  0.8290  0.1912  0.8101
 9314SOL    HW239402   2.567   4.655   7.302  2.1674 -1.5316 -2.0351
 9315SOL     OW39403   3.780   3.464   6.809  0.2352  0.6290 -0.1943
 9315SOL    HW139404   3.685   3.450   6.800  0.3511 -0.7742  0.7168
 9315SOL    HW239405   3.803   3.415   6.888  0.5004  0.0189 -0.6510
 9316SOL     OW39406   2.389   4.280   4.521 -0.3714 -0.4461  0.3094
 9316SOL    HW139407   2.300   4.314   4.517 -0.0028  0.4455 -0.1574
 9316SOL    HW239408   2.381   4.210   4.456 -2.1102 -0.1210  0.1713
 9317SOL     OW39409   3.556   2.987   3.368 -0.7276  0.2929  0.3029
 9317SOL    HW139410   3.500   2.946   3.302 -1.2106  0.0614  0.8657
 9317SOL    HW239411   3.495   3.037   3.422 -1.0688 -0.2610  0.4355
 9318SOL     OW39412   0.548   0.701   5.321  0.2325  0.1894  0.1983
 9318SOL    HW139413   0.602   0.625   5.346  0.2513  0.9398  2.4212
 9318SOL    HW239414   0.505   0.675   5.240 -0.8966  1.0299  0.5310
 9319SOL     OW39415   4.709   0.298   5.609  0.0247  0.2644 -0.8267
 9319SOL    HW139416   4.713   0.343   5.693 -1.8638 -0.1087 -0.5282
 9319SOL    HW239417   4.642   0.233   5.631  0.5604  0.2253  0.7408
 9320SOL     OW39418   3.487   2.783   5.945 -0.3254  0.5425  0.5715
 9320SOL    HW139419   3.457   2.788   6.035 -1.6965  1.5418  0.0552
 9320SOL    HW239420   3.484   2.872   5.909 -3.4432  0.1868 -0.0575
 9321SOL     OW39421   1.147   1.525  10.158  0.5494  0.3424 -0.1763
 9321SOL    HW139422   1.131   1.431  10.167  0.1660  0.6398  2.2484
 9321SOL    HW239423   1.222   1.539  10.216  2.8522 -2.2114 -2.5778
 9322SOL     OW39424   4.355   3.089   7.966 -0.4311  0.0201 -0.6621
 9322SOL    HW139425   4.288   3.083   7.898 -1.6601 -1.3557  0.6907
 9322SOL    HW239426   4.313   3.035   8.032  0.1004 -0.8629 -1.0379
 9323SOL     OW39427   2.836   4.718  15.174  0.0136  0.1102  0.5669
 9323SOL    HW139428   2.927   4.689  15.180 -0.3006 -1.1265 -0.7031
 9323SOL    HW239429   2.789   4.635  15.186 -0.5033  0.1427 -1.1804
 9324SOL     OW39430   4.660   0.665   1.577  0.3473 -0.2059 -0.2357
 9324SOL    HW139431   4.692   0.747   1.541 -0.1718 -0.9450 -2.3500
 9324SOL    HW239432   4.649   0.617   1.495 -0.5173 -0.0549 -0.2085
 9325SOL     OW39433   0.238   1.161   6.873  0.2152  0.4906 -0.3781
 9325SOL    HW139434   0.327   1.147   6.843  0.6747 -1.3467  1.7929
 9325SOL    HW239435   0.241   1.239   6.928 -0.7396  0.3092 -0.0630
 9326SOL     OW39436   4.694   1.670   3.403 -0.6432 -0.1375 -0.2465
 9326SOL    HW139437   4.642   1.603   3.448  0.7701 -1.0683 -0.0144
 9326SOL    HW239438   0.056   1.627   3.406 -0.6625 -0.0105  2.7059
 9327SOL     OW39439   1.750   1.491   2.913  0.3419 -0.0982  0.3278
 9327SOL    HW139440   1.679   1.531   2.962  0.6456 -0.3603  0.9791
 9327SOL    HW239441   1.726   1.399   2.905 -0.4039 -0.1080  2.6623
 9328SOL     OW39442   2.866   3.942  17.474 -0.9461  0.5225 -0.3181
 9328SOL    HW139443   2.849   3.999  17.399  1.0428  0.4020 -0.8525
 9328SOL    HW239444   2.800   3.987  17.526  2.0156  2.9332  1.3666
 9329SOL     OW39445   1.033   0.946  15.163  0.3094  0.0488  0.4568
 9329SOL    HW139446   0.942   0.946  15.195  0.3429  2.3102  0.5742
 9329SOL    HW239447   1.016   1.025  15.111 -0.6481  0.3520  1.2350
 9330SOL     OW39448   1.673   3.401   0.290  0.4122  0.6145 -0.1659
 9330SOL    HW139449   1.664   3.407   0.195 -0.2303  1.4220 -0.0619
 9330SOL    HW239450   1.686   3.307   0.299 -1.8861  0.3337  0.2399
 9331SOL     OW39451   0.038   4.051  12.392 -0.2354 -0.1028 -0.3235
 9331SOL    HW139452   0.073   4.010  12.313 -0.2102  0.3089 -0.5272
 9331SOL    HW239453   0.026   3.966  12.434  1.0408  0.7490  1.7509
 9332SOL     OW39454   0.811   3.140   3.390  0.2765 -0.8098  0.2389
 9332SOL    HW139455   0.829   3.087   3.313 -0.6717  0.3097 -0.7688
 9332SOL    HW239456   0.891   3.190   3.406 -0.4030  0.6232 -0.8270
 9333SOL     OW39457   0.988   4.514  12.694 -0.1672  0.4502 -0.4023
 9333SOL    HW139458   0.897   4.538  12.709 -0.6479 -1.5135 -0.2020
 9333SOL    HW239459   0.984   4.471  12.608  0.9889  1.0620 -0.7649
 9334SOL     OW39460   3.568   4.433   5.361 -0.6986 -0.3035 -0.2163
 9334SOL    HW139461   3.639   4.428   5.426 -1.8114  0.3352  1.0523
 9334SOL    HW239462   3.623   4.446   5.283  1.6629  0.9804  1.6535
 9335SOL     OW39463   0.836   3.188   6.813  0.1954  0.0868 -0.0463
 9335SOL    HW139464   0.763   3.236   6.773 -1.0227 -1.3586  0.4132
 9335SOL    HW239465   0.850   3.242   6.891  1.4263 -2.0763  1.2462
 9336SOL     OW39466   3.121   0.767  13.230 -0.1862  0.1951  0.3354
 9336SOL    HW139467   3.026   0.772  13.228 -0.1377  0.8378 -0.4216
 9336SOL    HW239468   3.148   0.859  13.223  0.7452 -0.0896  0.0830
 9337SOL     OW39469   0.579   2.242   8.851 -0.2128 -0.6034 -0.1594
 9337SOL    HW139470   0.605   2.156   8.884 -0.6344 -0.6752 -0.0222
 9337SOL    HW239471   0.624   2.307   8.905 -3.2490  0.7292  0.7440
 9338SOL     OW39472   1.815   3.229   6.604 -0.2127 -0.1503 -0.1086
 9338SOL    HW139473   1.774   3.282   6.536 -0.5464  1.2680  1.2029
 9338SOL    HW239474   1.760   3.232   6.681 -0.0106  2.1393 -0.0626
 9339SOL     OW39475   4.236   2.911  16.848  0.3532 -0.2684 -0.4250
 9339SOL    HW139476   4.328   2.911  16.820  0.8315 -2.2492  1.2132
 9339SOL    HW239477   4.222   3.003  16.870  0.1460 -0.6322  0.9606
 9340SOL     OW39478   2.886   1.356   1.739 -0.0388  0.0251  0.2107
 9340SOL    HW139479   2.857   1.409   1.664 -1.3497 -1.0192 -0.0195
 9340SOL    HW239480   2.978   1.382   1.731  0.7242 -3.2553 -1.5506
 9341SOL     OW39481   3.732   4.137  16.753 -0.1840 -0.2078  0.0092
 9341SOL    HW139482   3.691   4.081  16.818 -0.0308 -1.7432 -1.2124
 9341SOL    HW239483   3.706   4.091  16.673 -0.6166 -0.7710  0.4753
 9342SOL     OW39484   2.142   2.975   7.550  0.5363  0.3575 -0.0675
 9342SOL    HW139485   2.237   2.970   7.559  0.4018 -0.0777  1.0215
 9342SOL    HW239486   2.122   2.890   7.509 -1.0259  1.0120 -0.6451
 9343SOL     OW39487   3.005   2.330  12.046  0.5121  0.0846  0.2511
 9343SOL    HW139488   2.964   2.332  11.960  1.1309 -0.6892 -0.0530
 9343SOL    HW239489   2.971   2.412  12.082  1.0351  0.3904  0.0523
 9344SOL     OW39490   2.651   2.514   0.679  0.1718 -0.2710  0.0101
 9344SOL    HW139491   2.678   2.439   0.626 -0.4467 -0.2769 -0.2931
 9344SOL    HW239492   2.564   2.531   0.643  0.1062  2.0590  1.2714
 9345SOL     OW39493   0.608   3.221   6.682  0.0901  0.0485  0.0019
 9345SOL    HW139494   0.567   3.259   6.760 -2.3781 -2.5620 -0.0075
 9345SOL    HW239495   0.537   3.253   6.625 -0.8565  0.0071  1.1511
 9346SOL     OW39496   2.329   2.918   8.807  0.5640 -0.2025  0.1197
 9346SOL    HW139497   2.419   2.953   8.809 -0.2112  1.7306  0.8388
 9346SOL    HW239498   2.316   2.928   8.713  1.3028 -1.9308 -0.1670
 9347SOL     OW39499   3.697   2.925  15.046  0.2042  0.5172 -0.2636
 9347SOL    HW139500   3.744   2.990  14.993  0.4392 -0.3517 -1.1047
 9347SOL    HW239501   3.769   2.888  15.097  0.9230 -0.4289 -1.9994
 9348SOL     OW39502   2.218   0.340   7.636  0.5712 -0.8865  0.2575
 9348SOL    HW139503   2.125   0.323   7.651 -0.0182  3.1988  1.0553
 9348SOL    HW239504   2.219   0.421   7.585  1.3133  0.6176  2.6940
 9349SOL     OW39505   1.471   0.427   3.110  0.9257  0.2823 -0.2569
 9349SOL    HW139506   1.516   0.494   3.162  0.7870 -0.9390  1.4230
 9349SOL    HW239507   1.540   0.386   3.058 -0.4398 -1.0601 -0.9953
 9350SOL     OW39508   0.019   2.495  15.170  0.5747  0.3099 -0.1864
 9350SOL    HW139509   4.686   2.539  15.234  1.2129  0.2929  0.3784
 9350SOL    HW239510   4.719   2.403  15.158 -0.7530  0.6195  0.0048
 9351SOL     OW39511   2.797   1.459   5.032  0.2795  0.1046 -0.0548
 9351SOL    HW139512   2.827   1.449   4.942  0.9618  1.9636 -0.0474
 9351SOL    HW239513   2.819   1.551   5.050 -1.2681  0.2801  0.9244
 9352SOL     OW39514   1.624   0.768   2.747 -0.1001  0.6581  0.4738
 9352SOL    HW139515   1.573   0.737   2.672 -0.9870 -0.0741  1.3817
 9352SOL    HW239516   1.692   0.702   2.755 -1.6684 -1.3884 -2.9281
 9353SOL     OW39517   3.703   0.966   4.675 -0.0777 -0.5645 -0.0847
 9353SOL    HW139518   3.777   0.926   4.630  0.8521  0.9629  0.0937
 9353SOL    HW239519   3.738   1.006   4.755 -0.9940  2.1558 -1.0550
 9354SOL     OW39520   4.400   0.299  16.891  0.1957  0.1541  0.3099
 9354SOL    HW139521   4.307   0.306  16.914 -0.0146 -0.1428 -0.4732
 9354SOL    HW239522   4.400   0.339  16.804 -0.6853  0.2865  0.3632
 9355SOL     OW39523   3.190   3.358  11.645 -0.1229 -0.4841  0.2709
 9355SOL    HW139524   3.130   3.395  11.581  1.4359  0.4209 -0.6800
 9355SOL    HW239525   3.255   3.428  11.645 -1.1848  0.4909  0.2285
 9356SOL     OW39526   2.979   2.971   8.255 -0.5580 -0.0200 -0.2474
 9356SOL    HW139527   2.911   2.961   8.321 -1.2594 -2.5368 -1.3269
 9356SOL    HW239528   2.928   2.988   8.176 -0.2428  1.0045 -0.2273
 9357SOL     OW39529   2.573   4.134   3.575 -0.2727  0.9283 -0.2582
 9357SOL    HW139530   2.584   4.155   3.483  0.8036 -1.0160 -0.5914
 9357SOL    HW239531   2.480   4.110   3.569  0.6712 -3.2835  1.5850
 9358SOL     OW39532   4.209   3.058  10.350 -0.1062 -0.1473 -0.3624
 9358SOL    HW139533   4.287   3.063  10.294  0.4784  0.5586  0.5070
 9358SOL    HW239534   4.223   3.140  10.397 -3.4723  0.4240 -0.3743
 9359SOL     OW39535   0.009   0.233   9.054 -0.4224 -0.0303 -0.1468
 9359SOL    HW139536   4.701   0.151   9.091 -1.5722  0.6929  0.5136
 9359SOL    HW239537   0.034   0.275   9.136  0.4923 -0.3493 -0.2644
 9360SOL     OW39538   1.657   4.226   6.129 -0.2726  0.3217 -0.1286
 9360SOL    HW139539   1.644   4.218   6.223 -2.5044 -0.1649 -0.4768
 9360SOL    HW239540   1.719   4.298   6.116 -0.1474  0.3107  0.4101
 9361SOL     OW39541   2.427   3.925   4.787  0.4304 -0.1097  0.2101
 9361SOL    HW139542   2.501   3.982   4.809 -1.6103  2.0681  1.4848
 9361SOL    HW239543   2.370   3.953   4.858  0.9440  0.1732  0.5151
 9362SOL     OW39544   1.198   3.810  16.674  0.2354 -0.1461 -0.2203
 9362SOL    HW139545   1.185   3.722  16.638 -0.7488 -0.0321 -0.1637
 9362SOL    HW239546   1.149   3.858  16.607  0.8769  0.1521 -0.4669
 9363SOL     OW39547   4.457   1.399   1.918  0.1148  0.0209 -0.1257
 9363SOL    HW139548   4.484   1.364   2.003 -3.1181 -1.0963  0.4560
 9363SOL    HW239549   4.426   1.318   1.878  2.1009  0.2659 -2.1381
 9364SOL     OW39550   2.452   1.569   7.757  0.3832  0.2613  0.6189
 9364SOL    HW139551   2.437   1.475   7.751  0.8485  0.2999 -1.0596
 9364SOL    HW239552   2.397   1.599   7.685  2.1884  0.3197 -0.7110
 9365SOL     OW39553   0.287   1.446   5.614 -0.4347  0.9147 -0.1344
 9365SOL    HW139554   0.312   1.524   5.664  2.3834 -1.1413  1.6229
 9365SOL    HW239555   0.360   1.451   5.553  0.1868 -4.2959  0.1633
 9366SOL     OW39556   1.404   4.200   4.685 -0.2125  0.2355 -0.3876
 9366SOL    HW139557   1.310   4.190   4.701 -0.7866  2.5767 -2.3803
 9366SOL    HW239558   1.419   4.271   4.748 -3.1488  3.0594 -2.9033
 9367SOL     OW39559   0.066   0.197  12.950  0.4112  0.1260 -0.4152
 9367SOL    HW139560   0.118   0.269  12.986  0.4383 -1.3949  2.6029
 9367SOL    HW239561   4.698   0.222  12.969 -0.9574 -3.4732 -2.1879
 9368SOL     OW39562   4.214   1.987  13.976  0.9783  0.6800 -0.5569
 9368SOL    HW139563   4.146   1.974  13.910  2.4755 -1.0898 -1.7497
 9368SOL    HW239564   4.293   1.970  13.925  0.4963 -1.4125 -0.5797
 9369SOL     OW39565   2.176   3.178   6.049 -0.4593 -0.8640  0.1357
 9369SOL    HW139566   2.257   3.140   6.016 -0.8619 -1.3056 -0.3365
 9369SOL    HW239567   2.206   3.263   6.081  0.5787 -0.2285 -2.4994
 9370SOL     OW39568   2.405   3.985  15.399 -0.5136 -0.0493 -0.5530
 9370SOL    HW139569   2.328   3.999  15.344 -0.7440 -1.8032 -0.6869
 9370SOL    HW239570   2.404   3.889  15.400  0.9421 -0.0506  0.9278
 9371SOL     OW39571   1.823   3.145   8.816 -0.5129 -0.2444  0.0879
 9371SOL    HW139572   1.861   3.224   8.779 -0.0713 -0.6502 -0.3263
 9371SOL    HW239573   1.801   3.181   8.902 -1.1612 -0.4980  0.0282
 9372SOL     OW39574   0.018   2.079   4.574 -0.3287  0.5429 -0.4959
 9372SOL    HW139575   0.107   2.083   4.540  0.3227  1.1836  1.3073
 9372SOL    HW239576   4.692   2.081   4.491 -3.9442  1.5960  1.6131
 9373SOL     OW39577   1.527   3.981   5.172  0.6006 -0.1133 -0.5753
 9373SOL    HW139578   1.520   3.893   5.135  1.5374 -0.4321  0.0237
 9373SOL    HW239579   1.440   4.013   5.148  1.0027  1.1102 -0.3848
 9374SOL     OW39580   4.120   1.255  12.002  0.6865 -0.3896  0.4400
 9374SOL    HW139581   4.102   1.176  11.951 -0.5669 -0.0779  0.4060
 9374SOL    HW239582   4.056   1.246  12.073 -1.0662 -1.6898 -1.3172
 9375SOL     OW39583   0.781   3.916   8.171  0.3051 -0.4456 -0.4423
 9375SOL    HW139584   0.868   3.948   8.197  0.4641 -1.1894 -0.0577
 9375SOL    HW239585   0.809   3.902   8.080  0.1777  0.3666 -0.6058
 9376SOL     OW39586   0.370   0.529   0.026  0.4574  0.3404 -0.0808
 9376SOL    HW139587   0.438   0.492   0.083 -1.1276  1.4377  2.4906
 9376SOL    HW239588   0.407   0.610  17.683 -0.0661  0.8507  0.5717
 9377SOL     OW39589   2.348   4.606  12.577  0.7510  0.6227 -0.1029
 9377SOL    HW139590   2.290   4.536  12.607  0.4509  0.3766 -1.2249
 9377SOL    HW239591   2.405   4.555  12.519 -0.7729 -0.0134 -1.0491
 9378SOL     OW39592   2.551   3.070   2.018 -0.2899 -0.2539 -0.0426
 9378SOL    HW139593   2.504   3.148   1.989  0.1957  0.1226  0.1797
 9378SOL    HW239594   2.561   3.082   2.113  0.8114  1.3540 -0.3582
 9379SOL     OW39595   3.597   3.579  14.204  0.6529 -0.6583 -0.1414
 9379SOL    HW139596   3.600   3.533  14.288 -1.7257 -0.9013 -0.1992
 9379SOL    HW239597   3.578   3.506  14.145 -0.6935 -1.8046  1.7191
 9380SOL     OW39598   2.573   0.533   7.625 -0.0945 -0.1622  0.6746
 9380SOL    HW139599   2.595   0.455   7.573  2.2951  1.0954 -0.1655
 9380SOL    HW239600   2.547   0.479   7.700 -2.1347  2.2108  1.6812
 9381SOL     OW39601   0.155   4.493   8.378 -0.3957  0.0622 -0.5291
 9381SOL    HW139602   0.157   4.587   8.358  0.2275  0.3570  0.9002
 9381SOL    HW239603   0.152   4.514   8.471  0.3938 -0.0516 -0.4762
 9382SOL     OW39604   0.345   1.318   3.138  0.2251  0.0597 -0.2570
 9382SOL    HW139605   0.256   1.290   3.161  0.1989 -0.3392 -0.8428
 9382SOL    HW239606   0.345   1.292   3.046 -0.3402  1.2258 -0.5944
 9383SOL     OW39607   2.809   1.905   7.135 -0.1392 -0.3198  0.0171
 9383SOL    HW139608   2.887   1.879   7.085 -1.8504  0.0944 -2.8407
 9383SOL    HW239609   2.751   1.927   7.062  1.5558 -0.6754 -1.4266
 9384SOL     OW39610   4.371   2.260   6.934 -0.6404  0.5787 -0.1764
 9384SOL    HW139611   4.292   2.289   6.980 -1.0669  2.1245 -1.8853
 9384SOL    HW239612   4.346   2.266   6.842 -0.0021 -0.1299 -0.3895
 9385SOL     OW39613   2.488   2.815   1.923  0.2300  0.0290 -0.3627
 9385SOL    HW139614   2.527   2.897   1.953  0.4053 -0.6863  1.3446
 9385SOL    HW239615   2.402   2.811   1.965  0.5458 -0.2616  0.2594
 9386SOL     OW39616   2.319   1.395   3.907  0.2870  0.5896 -0.3951
 9386SOL    HW139617   2.324   1.345   3.826  1.3780 -1.0657  0.6953
 9386SOL    HW239618   2.401   1.444   3.913 -1.4547  3.3162  1.4384
 9387SOL     OW39619   0.209   1.562   6.010  0.6941  0.6825  0.2299
 9387SOL    HW139620   0.199   1.640   5.955  0.9265  0.5236 -0.0358
 9387SOL    HW239621   0.144   1.501   5.977 -0.0012  1.7954 -0.4587
 9388SOL     OW39622   3.705   4.166   6.310 -0.4017  0.6583  0.2860
 9388SOL    HW139623   3.749   4.134   6.389 -0.2800  1.6361  0.6050
 9388SOL    HW239624   3.751   4.098   6.260 -0.9622 -0.7367  1.6789
 9389SOL     OW39625   4.494   3.804   3.716 -0.1121  0.1520  0.0322
 9389SOL    HW139626   4.438   3.842   3.648  1.3975  1.3812 -0.5314
 9389SOL    HW239627   4.429   3.806   3.786 -1.0778  1.2108 -0.8932
 9390SOL     OW39628   4.302   2.251   3.619 -0.1807 -0.5956  0.2984
 9390SOL    HW139629   4.294   2.190   3.545 -1.4398  0.5885 -0.5392
 9390SOL    HW239630   4.394   2.269   3.600  0.1177  0.2613  2.5529
 9391SOL     OW39631   3.053   1.248   5.644 -0.4578  0.7388 -0.1341
 9391SOL    HW139632   2.962   1.224   5.661 -0.4554  1.6984  1.2706
 9391SOL    HW239633   3.058   1.313   5.715 -0.5562  1.6612 -0.9761
 9392SOL     OW39634   4.035   3.286  12.853 -0.2072 -0.4118 -0.4229
 9392SOL    HW139635   4.015   3.379  12.850  4.2718  0.5908  0.6105
 9392SOL    HW239636   4.023   3.266  12.946 -0.8958 -1.1347 -0.6636
 9393SOL     OW39637   4.031   3.107   2.647  0.0352  0.2858 -0.5304
 9393SOL    HW139638   4.123   3.124   2.669  0.2306  2.8011 -3.2060
 9393SOL    HW239639   3.996   3.085   2.733  2.2855  1.4961  0.6982
 9394SOL     OW39640   4.202   0.729   3.342  0.1022  0.2067 -0.4471
 9394SOL    HW139641   4.109   0.705   3.352  0.4620 -1.8033 -1.8524
 9394SOL    HW239642   4.233   0.722   3.432  1.4193  2.4051 -0.7290
 9395SOL     OW39643   4.209   1.763   0.015 -0.5308  0.9116 -0.2426
 9395SOL    HW139644   4.264   1.840   0.001 -0.3637  1.0701  1.3465
 9395SOL    HW239645   4.257   1.682   0.033 -1.1824  0.5604 -0.0708
 9396SOL     OW39646   0.932   2.767  16.787  0.2907 -0.2429 -0.1450
 9396SOL    HW139647   0.929   2.677  16.755  0.1049 -0.8507  1.5756
 9396SOL    HW239648   0.996   2.766  16.859 -0.3362  0.6277  0.4270
 9397SOL     OW39649   1.123   0.738   7.091  0.1924 -0.2039 -1.1622
 9397SOL    HW139650   1.094   0.655   7.052 -1.3740  0.3314 -1.1584
 9397SOL    HW239651   1.075   0.727   7.173 -0.4452 -0.3635 -1.5499
 9398SOL     OW39652   2.832   2.395   1.615 -0.5153  0.4410  0.4773
 9398SOL    HW139653   2.747   2.386   1.658 -0.3063 -0.0598  0.7877
 9398SOL    HW239654   2.800   2.424   1.530  3.0977 -0.1062 -1.0715
 9399SOL     OW39655   3.458   2.251   6.333 -0.1563 -0.0068 -0.5667
 9399SOL    HW139656   3.513   2.219   6.405 -0.3388 -1.8661 -1.2685
 9399SOL    HW239657   3.373   2.256   6.378  1.0906  3.2973  1.4740
 9400SOL     OW39658   3.283   1.387   2.201  0.3015 -0.3059  0.3213
 9400SOL    HW139659   3.376   1.384   2.226  1.2726 -0.4328 -3.1708
 9400SOL    HW239660   3.284   1.317   2.136 -0.9563 -1.0479  1.1281
 9401SOL     OW39661   4.289   4.224   7.256  0.1636  0.3627  0.0168
 9401SOL    HW139662   4.350   4.151   7.252 -1.3794 -1.1483  3.1650
 9401SOL    HW239663   4.332   4.296   7.211  0.4368  0.8506  1.0443
 9402SOL     OW39664   0.527   4.205   1.428  0.1567  0.0820 -0.7381
 9402SOL    HW139665   0.506   4.119   1.392 -1.7897  0.1842  0.1588
 9402SOL    HW239666   0.464   4.205   1.500  0.6179 -2.3399 -0.3320
 9403SOL     OW39667   1.818   1.871   6.847 -0.1702 -0.1193  0.0116
 9403SOL    HW139668   1.852   1.959   6.829 -1.2328  0.2102 -0.3301
 9403SOL    HW239669   1.729   1.901   6.864 -0.4709 -0.9372 -0.1576
 9404SOL     OW39670   2.926   2.588   8.147 -0.3269 -0.0534  0.3323
 9404SOL    HW139671   2.941   2.623   8.234 -2.5377  2.1925 -0.1823
 9404SOL    HW239672   2.842   2.546   8.168  0.1623 -0.3570  1.6946
 9405SOL     OW39673   1.760   4.165   8.558  0.1174 -0.6084 -0.0822
 9405SOL    HW139674   1.780   4.071   8.553  0.2301 -0.5724 -0.2996
 9405SOL    HW239675   1.689   4.171   8.621  1.7812 -1.5415  1.8779
 9406SOL     OW39676   0.595   0.400   4.203 -0.2490  0.1604  0.2549
 9406SOL    HW139677   0.594   0.304   4.204  0.0572  0.1589  0.3048
 9406SOL    HW239678   0.662   0.423   4.267 -2.0678  0.1371  2.1538
 9407SOL     OW39679   4.407   1.263   2.716  0.0766  0.0880 -0.1806
 9407SOL    HW139680   4.459   1.263   2.636 -1.0132  1.7948 -0.8757
 9407SOL    HW239681   4.321   1.276   2.676 -0.1373  0.9389  0.5452
 9408SOL     OW39682   4.288   2.118   7.950  0.2376  0.5865  0.2498
 9408SOL    HW139683   4.360   2.132   7.888  1.2831 -3.2020  0.5826
 9408SOL    HW239684   4.337   2.101   8.030  0.1063  1.1660  0.4496
 9409SOL     OW39685   2.149   3.835  13.381 -0.1060  0.1201  0.6643
 9409SOL    HW139686   2.231   3.822  13.332 -1.8600 -1.4260 -1.8769
 9409SOL    HW239687   2.179   3.893  13.451  0.5712 -0.2510  0.6858
 9410SOL     OW39688   0.515   3.049   4.431  0.1141  0.2010  0.5819
 9410SOL    HW139689   0.425   3.029   4.408  0.8810 -0.5809 -1.6987
 9410SOL    HW239690   0.520   3.031   4.525  0.0340  1.7876  0.8947
 9411SOL     OW39691   0.320   1.298   4.363 -0.4346  0.4111 -0.1188
 9411SOL    HW139692   0.326   1.290   4.268 -0.4351 -0.1535 -0.0726
 9411SOL    HW239693   0.343   1.391   4.366  2.2751 -0.2215 -1.3840
 9412SOL     OW39694   2.380   3.222  11.392 -0.2876  0.2289  0.6163
 9412SOL    HW139695   2.342   3.309  11.386  1.6281  1.0062 -0.2424
 9412SOL    HW239696   2.376   3.221  11.487  2.4023 -0.2999  0.7323
 9413SOL     OW39697   4.314   2.731   7.784  0.1749  0.2376  0.1216
 9413SOL    HW139698   4.405   2.761   7.783  0.7708 -1.5361  0.1879
 9413SOL    HW239699   4.283   2.733   7.693  0.9801 -1.9828 -0.2257
 9414SOL     OW39700   3.641   0.442   2.195 -0.1707  0.2012  0.2249
 9414SOL    HW139701   3.637   0.491   2.277 -1.3099  0.4992 -0.0142
 9414SOL    HW239702   3.604   0.505   2.133 -0.5770  1.5242  1.7923
 9415SOL     OW39703   1.585   3.738   9.708 -0.5255  0.0716  0.4498
 9415SOL    HW139704   1.663   3.705   9.663 -0.3164  0.0775  0.8049
 9415SOL    HW239705   1.517   3.702   9.651  1.0960 -1.8091 -0.3287
 9416SOL     OW39706   1.295   1.591   2.601  0.3467 -0.2002  0.3290
 9416SOL    HW139707   1.317   1.573   2.509  1.0140  1.1860  0.2048
 9416SOL    HW239708   1.212   1.545   2.604  1.0449 -1.5458 -0.7910
 9417SOL     OW39709   2.790   0.247   9.096  0.0202  0.6204  0.6101
 9417SOL    HW139710   2.805   0.173   9.156  1.9299  0.3376 -0.1827
 9417SOL    HW239711   2.811   0.210   9.010 -0.4100 -0.3605  0.9269
 9418SOL     OW39712   3.558   0.990   9.753  0.0844 -0.0186  0.1932
 9418SOL    HW139713   3.570   0.970   9.660 -2.1096 -3.0519  0.5732
 9418SOL    HW239714   3.463   0.978   9.758 -0.0164  0.2221 -1.2741
 9419SOL     OW39715   3.893   3.829   8.088 -0.2614  0.3452  0.6829
 9419SOL    HW139716   3.931   3.899   8.035 -2.0475  0.1451 -0.8444
 9419SOL    HW239717   3.898   3.867   8.176 -2.1648  0.4377  0.7521
 9420SOL     OW39718   1.793   1.374   3.597  0.3515 -0.1365  0.1194
 9420SOL    HW139719   1.786   1.427   3.518 -1.8027 -0.6862 -0.0797
 9420SOL    HW239720   1.883   1.378   3.628  0.2668  0.3051  0.3243
 9421SOL     OW39721   4.623   0.734   8.841 -0.2800 -0.3651 -0.4449
 9421SOL    HW139722   4.576   0.652   8.853  0.5620 -1.3393 -3.7202
 9421SOL    HW239723   4.569   0.786   8.782  0.5422  0.0808 -0.8173
 9422SOL     OW39724   3.155   0.877   7.522  0.0962  0.1584 -0.6358
 9422SOL    HW139725   3.142   0.971   7.531  0.2945  0.2058 -0.8431
 9422SOL    HW239726   3.250   0.872   7.509  0.6172  0.5215  3.1397
 9423SOL     OW39727   3.237   2.358   2.824  0.7399  0.3291  0.2196
 9423SOL    HW139728   3.217   2.427   2.762 -0.2734  1.8718  2.2542
 9423SOL    HW239729   3.161   2.387   2.876  0.4200  1.2607 -0.7910
 9424SOL     OW39730   2.696   0.071   1.252 -0.0037  0.3665  0.2986
 9424SOL    HW139731   2.739   0.078   1.338  0.5397  1.4006 -0.0629
 9424SOL    HW239732   2.771   0.096   1.199 -0.1696  1.4552  0.5733
 9425SOL     OW39733   3.878   0.788   5.951  0.2639 -0.1133 -0.5305
 9425SOL    HW139734   3.932   0.863   5.978 -0.7303  0.1582  0.6994
 9425SOL    HW239735   3.912   0.716   6.004 -1.9535  0.7078  2.0463
 9426SOL     OW39736   1.824   4.204   2.310  0.2108  0.8629 -0.2040
 9426SOL    HW139737   1.803   4.173   2.222  1.7446  2.3959 -1.1201
 9426SOL    HW239738   1.733   4.218   2.339 -0.2813 -0.8711 -0.9328
 9427SOL     OW39739   1.236   2.615   2.401 -0.5397 -0.3455 -0.1820
 9427SOL    HW139740   1.292   2.567   2.462 -0.3769  0.1602  0.0645
 9427SOL    HW239741   1.301   2.657   2.344 -2.4080 -0.3011 -2.2695
 9428SOL     OW39742   4.534   3.904   6.771  0.5253  0.0193  0.0431
 9428SOL    HW139743   4.603   3.963   6.802 -1.4574  1.6646  1.2839
 9428SOL    HW239744   4.483   3.896   6.851 -0.5160 -0.6376 -0.6843
 9429SOL     OW39745   2.359   4.718  10.906 -0.4023  0.1948 -0.1354
 9429SOL    HW139746   2.454   4.715  10.910 -0.4255  0.6753  0.9890
 9429SOL    HW239747   2.340   0.035  10.991  1.6485 -0.9687  0.8714
 9430SOL     OW39748   2.007   1.259   2.771  0.3140  0.2615 -0.2724
 9430SOL    HW139749   1.964   1.324   2.716  2.7558  1.6989 -0.4933
 9430SOL    HW239750   2.007   1.187   2.708  0.8789  0.3622 -0.3917
 9431SOL     OW39751   3.476   3.283   6.059  0.3975 -0.3849 -0.0677
 9431SOL    HW139752   3.556   3.331   6.077  0.3793 -0.7283  0.9085
 9431SOL    HW239753   3.518   3.204   6.025 -0.9014 -0.3385 -1.8005
 9432SOL     OW39754   2.484   4.003   1.720 -0.1479  0.1597 -0.1117
 9432SOL    HW139755   2.453   4.047   1.641  1.1497  2.1637  0.4752
 9432SOL    HW239756   2.579   4.009   1.706 -0.2854 -0.2723 -1.1982
 9433SOL     OW39757   0.375   2.334   5.685  0.0579 -0.8134  0.4331
 9433SOL    HW139758   0.399   2.241   5.679 -0.6250 -1.0240  1.0364
 9433SOL    HW239759   0.285   2.316   5.712 -0.8160  3.0108  0.0539
 9434SOL     OW39760   4.500   4.210  14.053 -0.2647 -0.3211  0.2870
 9434SOL    HW139761   4.560   4.193  13.981 -0.5047  0.7081 -0.1617
 9434SOL    HW239762   4.557   4.225  14.128  2.9937 -3.5789 -1.5492
 9435SOL     OW39763   2.000   1.977   5.415 -0.7179  0.0767 -0.4914
 9435SOL    HW139764   1.941   2.053   5.419 -0.6203  0.1185  0.1501
 9435SOL    HW239765   2.037   1.971   5.503  0.0803 -0.7617 -0.8789
 9436SOL     OW39766   0.315   4.706   1.871 -0.4435 -0.5810 -0.2696
 9436SOL    HW139767   0.375   0.045   1.829  0.0311  0.3088  1.6811
 9436SOL    HW239768   0.379   4.638   1.894  1.4373  1.3456  0.2066
 9437SOL     OW39769   0.265   0.992   8.260  0.0960  0.0136 -0.1783
 9437SOL    HW139770   0.326   1.051   8.304  0.5831 -1.3679  1.0144
 9437SOL    HW239771   0.188   1.047   8.245  0.8658  0.9984 -0.5110
 9438SOL     OW39772   1.245   3.331  13.902  0.0593 -0.0130  0.0092
 9438SOL    HW139773   1.232   3.422  13.931  2.4856  1.3192 -2.9999
 9438SOL    HW239774   1.223   3.327  13.809  0.2342  0.0057 -0.0338
 9439SOL     OW39775   0.214   0.036  15.389  0.1126 -0.1122 -0.4580
 9439SOL    HW139776   0.169   4.679  15.361 -2.2487  0.3626  1.9195
 9439SOL    HW239777   0.223   0.018  15.483  0.5469 -1.2820 -0.7164
 9440SOL     OW39778   3.465   2.616   5.437  0.1338 -0.0523  0.2853
 9440SOL    HW139779   3.522   2.582   5.368  0.3126  1.0996 -0.1392
 9440SOL    HW239780   3.530   2.659   5.493  1.8207 -1.0218 -0.9272
 9441SOL     OW39781   1.009   3.583  14.992 -0.0055 -0.1229 -0.0425
 9441SOL    HW139782   1.061   3.565  14.914 -0.6063  0.0796 -0.4863
 9441SOL    HW239783   1.046   3.663  15.028  0.2037 -0.1828 -0.1273
 9442SOL     OW39784   3.553   0.312  12.034 -0.1337  0.5249  0.3812
 9442SOL    HW139785   3.532   0.350  12.119 -0.1931  0.2114  0.5063
 9442SOL    HW239786   3.488   0.242  12.026  0.7199  0.0243 -2.1865
 9443SOL     OW39787   1.891   2.862   9.120  0.2573 -0.2597 -0.3426
 9443SOL    HW139788   1.866   2.781   9.076 -2.3867 -0.2090  1.0909
 9443SOL    HW239789   1.976   2.865   9.076 -1.2009 -1.7373 -3.2123
 9444SOL     OW39790   1.345   1.012   6.000  0.2439 -0.6366 -0.2242
 9444SOL    HW139791   1.389   1.070   6.062 -1.8249  0.5811  0.1238
 9444SOL    HW239792   1.400   1.009   5.922 -0.8723 -2.0380 -0.9553
 9445SOL     OW39793   2.081   3.835  10.914 -0.2212 -0.0131 -0.7595
 9445SOL    HW139794   2.121   3.883  10.987 -1.9425  2.2079 -1.2623
 9445SOL    HW239795   2.004   3.886  10.889 -0.5129 -1.5689 -3.0021
 9446SOL     OW39796   3.449   4.480   6.838 -0.0846  0.3948 -0.0548
 9446SOL    HW139797   3.354   4.477   6.826 -0.3018  0.8641  1.5412
 9446SOL    HW239798   3.455   4.569   6.872  2.1556  0.5079 -0.7183
 9447SOL     OW39799   4.649   1.746   0.202 -0.4189 -0.0283 -0.2019
 9447SOL    HW139800   0.011   1.713   0.173  0.2053  0.4731  1.0756
 9447SOL    HW239801   4.623   1.670   0.253 -2.1372  0.0878 -0.9154
 9448SOL     OW39802   3.057   2.040   2.867 -0.7993  0.4846  0.0329
 9448SOL    HW139803   3.016   1.975   2.809 -0.2061 -1.7645  2.0890
 9448SOL    HW239804   3.029   2.004   2.952 -0.1619 -0.4585 -0.1517
 9449SOL     OW39805   0.842   2.062   7.815 -0.0871  0.3198 -0.1596
 9449SOL    HW139806   0.808   2.124   7.879 -1.3655 -0.4660 -0.1010
 9449SOL    HW239807   0.763   2.012   7.796  0.5985 -0.3755 -1.2588
 9450SOL     OW39808   3.327   3.440   5.664 -0.1829 -0.1533  1.0189
 9450SOL    HW139809   3.316   3.453   5.758  0.9780  0.8365  1.0144
 9450SOL    HW239810   3.421   3.442   5.647 -0.6347  0.3770 -1.5653
 9451SOL     OW39811   4.597   0.393   6.081  0.6131  0.2068 -0.6667
 9451SOL    HW139812   4.650   0.392   6.160 -0.4823  3.5542  0.1190
 9451SOL    HW239813   4.519   0.439   6.112  0.9951 -0.4486  1.2402
 9452SOL     OW39814   3.116   3.160   5.276  0.4251  0.0846 -0.3711
 9452SOL    HW139815   3.087   3.069   5.289  0.8859 -0.3419 -2.3753
 9452SOL    HW239816   3.145   3.160   5.185  1.4951 -0.3963 -0.0343
 9453SOL     OW39817   3.438   3.084   6.301 -0.4089 -0.5575 -0.0543
 9453SOL    HW139818   3.383   3.121   6.370  0.3374 -0.6645  0.6064
 9453SOL    HW239819   3.447   3.161   6.246  0.8461  0.9827  2.3053
 9454SOL     OW39820   4.120   4.410   6.755 -0.2163  0.2719 -0.4755
 9454SOL    HW139821   4.100   4.316   6.762  1.2149  0.0339  0.5038
 9454SOL    HW239822   4.094   4.417   6.664 -1.5835 -0.1655 -0.1229
 9455SOL     OW39823   3.378   2.704   6.900 -0.1621  0.2004  0.0556
 9455SOL    HW139824   3.385   2.790   6.943 -1.6076 -0.3528  1.4324
 9455SOL    HW239825   3.355   2.747   6.817 -0.9437  0.9010  0.6281
 9456SOL     OW39826   0.691   2.585   2.962 -0.4379  0.1421  0.0044
 9456SOL    HW139827   0.617   2.564   2.905 -0.5811  1.0136 -0.1273
 9456SOL    HW239828   0.723   2.666   2.922  3.5763 -0.3271  2.1971
 9457SOL     OW39829   4.031   3.128   6.688  0.1757  0.1884  1.2780
 9457SOL    HW139830   4.048   3.035   6.705  1.2389 -0.2528 -2.2584
 9457SOL    HW239831   4.081   3.159   6.763  3.7187 -3.4228  0.3771
 9458SOL     OW39832   2.193   4.369   3.188  0.1210 -0.1946  0.8433
 9458SOL    HW139833   2.193   4.464   3.198  1.0885  0.1251 -1.9358
 9458SOL    HW239834   2.112   4.340   3.229 -0.3564  0.9417  0.7224
 9459SOL     OW39835   4.113   3.974   2.763 -0.3469 -0.0535  0.3090
 9459SOL    HW139836   4.139   3.944   2.850  0.3070 -0.3539  0.0084
 9459SOL    HW239837   4.050   3.903   2.751  2.0676 -2.2752  0.7049
 9460SOL     OW39838   4.143   3.946   6.486 -0.1056 -0.2864  0.8490
 9460SOL    HW139839   4.083   3.872   6.492 -0.5111 -0.1153 -0.9982
 9460SOL    HW239840   4.217   3.903   6.529  0.7591  1.6806  1.3349
 9461SOL     OW39841   2.968   4.304  11.000 -0.0250 -0.1798 -0.2887
 9461SOL    HW139842   2.873   4.305  11.016  0.2828  0.0386  1.5025
 9461SOL    HW239843   2.972   4.301  10.905 -2.1921 -0.3779 -0.3736
 9462SOL     OW39844   3.869   0.047   9.841 -0.3593  0.7040  0.4325
 9462SOL    HW139845   3.798   0.062   9.778 -1.2426  3.5538  2.1268
 9462SOL    HW239846   3.825   0.088   9.915  0.1293  0.6463  0.7530
 9463SOL     OW39847   4.237   2.595   5.430 -0.2264  0.0765 -0.2253
 9463SOL    HW139848   4.314   2.552   5.467  0.9422  1.1884 -1.3328
 9463SOL    HW239849   4.243   2.685   5.461  2.9371 -0.1251 -0.2186
 9464SOL     OW39850   2.987   4.023   3.165  0.1717  0.0323  0.5050
 9464SOL    HW139851   2.980   4.060   3.253  1.2630 -0.0307  0.6255
 9464SOL    HW239852   3.061   4.070   3.126 -0.0518 -1.0914 -1.2542
 9465SOL     OW39853   2.683   0.480  16.199 -0.3080  0.6951  0.0478
 9465SOL    HW139854   2.592   0.481  16.227 -0.2684 -2.5938  0.3061
 9465SOL    HW239855   2.682   0.564  16.153 -2.2441  1.1228  0.9120
 9466SOL     OW39856   0.300   0.052   5.248 -0.6008 -0.5316 -0.5216
 9466SOL    HW139857   0.380   0.104   5.244  0.1770 -1.8070 -1.4956
 9466SOL    HW239858   0.251   0.101   5.314 -1.8269 -0.3664 -1.5550
 9467SOL     OW39859   3.729   1.871   8.416 -0.4192 -0.3406 -0.2130
 9467SOL    HW139860   3.704   1.787   8.454 -0.2588  0.7295  2.2986
 9467SOL    HW239861   3.707   1.923   8.493  1.4690  0.5641 -0.2865
 9468SOL     OW39862   2.428   1.868   3.877  0.1505  0.2445 -0.5316
 9468SOL    HW139863   2.434   1.926   3.801 -2.2542  0.8836 -0.2335
 9468SOL    HW239864   2.385   1.924   3.942 -1.4767 -1.1480 -0.4154
 9469SOL     OW39865   4.404   4.451   9.522 -0.1706 -0.4570 -0.4098
 9469SOL    HW139866   4.335   4.514   9.541 -0.5871 -1.6106  1.8539
 9469SOL    HW239867   4.420   4.460   9.428  0.3196 -0.3225 -0.3166
 9470SOL     OW39868   0.960   1.018   0.099  0.0780 -0.1547  0.2330
 9470SOL    HW139869   0.948   1.096   0.044 -0.5767 -0.0665  0.5015
 9470SOL    HW239870   0.883   0.963   0.089 -0.2270  0.2170  0.5192
 9471SOL     OW39871   1.482   3.893   2.743 -0.4982  0.0630 -0.1130
 9471SOL    HW139872   1.400   3.921   2.701 -0.0565  0.6000 -0.6272
 9471SOL    HW239873   1.532   3.846   2.676 -0.4726 -1.4236  0.9542
 9472SOL     OW39874   0.541   4.673  10.548 -0.1049  0.2484 -0.2582
 9472SOL    HW139875   0.572   4.657  10.638  1.5396  0.3633 -0.7979
 9472SOL    HW239876   0.536   0.046  10.544 -0.1236  0.1928 -1.4443
 9473SOL     OW39877   4.648   0.832   0.656 -0.3448  0.1907 -0.6515
 9473SOL    HW139878   0.004   0.797   0.613 -0.2501  0.2797 -0.5513
 9473SOL    HW239879   4.626   0.760   0.714  0.0117  2.2750  2.0498
 9474SOL     OW39880   0.236   3.054   8.431  0.2393 -0.0597  0.3437
 9474SOL    HW139881   0.165   3.118   8.431  0.6374  0.3951  2.0027
 9474SOL    HW239882   0.202   2.973   8.394  1.2456 -0.8446  1.1278
 9475SOL     OW39883   3.977   0.612   7.056 -0.0957  0.1370 -0.3903
 9475SOL    HW139884   3.952   0.700   7.086  0.2160 -0.2618  1.0243
 9475SOL    HW239885   3.892   0.569   7.059  0.2566 -0.5754 -0.8057
 9476SOL     OW39886   3.485   0.864   4.792 -0.6202 -0.3275 -0.2289
 9476SOL    HW139887   3.518   0.879   4.880 -1.6520  2.4930 -0.3099
 9476SOL    HW239888   3.562   0.897   4.746 -0.6231 -0.4347 -0.3100
 9477SOL     OW39889   1.360   1.064   2.224  0.0338  0.7202  0.0386
 9477SOL    HW139890   1.361   0.981   2.271  0.4946  1.2037  0.8860
 9477SOL    HW239891   1.269   1.074   2.194  0.4424 -0.7591 -1.6690
 9478SOL     OW39892   0.668   0.591  17.603  0.3782  0.0426 -0.0270
 9478SOL    HW139893   0.602   0.659  17.616  0.8669  0.5902 -0.4033
 9478SOL    HW239894   0.645   0.530  17.673 -0.8790 -0.7919 -1.1779
 9479SOL     OW39895   0.353   0.314  14.027  0.0730  0.4489  0.0420
 9479SOL    HW139896   0.371   0.237  14.081 -2.1964 -0.4487 -0.4614
 9479SOL    HW239897   0.301   0.362  14.092 -0.5904 -0.1612 -0.0361
 9480SOL     OW39898   3.825   0.268  14.549 -0.9290  0.0208 -0.0672
 9480SOL    HW139899   3.786   0.307  14.471 -1.4802 -0.2072  0.0926
 9480SOL    HW239900   3.780   0.314  14.620  0.5361  0.6886  0.4286
 9481SOL     OW39901   1.809   3.016  14.039  0.0519  0.0446 -0.4884
 9481SOL    HW139902   1.901   3.031  14.062  0.3470 -1.5378 -0.6434
 9481SOL    HW239903   1.777   3.106  14.045 -1.1834 -0.5003  0.9693
 9482SOL     OW39904   4.449   0.377  10.870 -0.4061  0.6470  0.8194
 9482SOL    HW139905   4.372   0.346  10.916 -1.7711  1.0824 -1.1704
 9482SOL    HW239906   4.490   0.291  10.882 -0.5481  0.3268 -0.9851
 9483SOL     OW39907   2.474   0.174   4.429 -0.5751  0.4248  0.6072
 9483SOL    HW139908   2.445   0.210   4.513 -1.5114  1.6384 -0.2339
 9483SOL    HW239909   2.472   0.260   4.386 -3.0573 -0.5617 -1.2749
 9484SOL     OW39910   3.462   0.390   1.558  0.2682 -0.4391  0.3695
 9484SOL    HW139911   3.434   0.435   1.478 -1.5747 -0.5652  0.9381
 9484SOL    HW239912   3.376   0.383   1.600  0.1145 -0.3172  0.0766
 9485SOL     OW39913   3.377   2.604  15.821 -0.0132  0.7238 -0.0160
 9485SOL    HW139914   3.430   2.659  15.763 -2.1141  0.5289 -2.1221
 9485SOL    HW239915   3.405   2.517  15.792 -1.9828 -0.3637  1.3903
 9486SOL     OW39916   2.793   2.981   8.481  0.1109  0.3228 -0.1035
 9486SOL    HW139917   2.823   3.018   8.564 -0.3864  1.2033 -0.3235
 9486SOL    HW239918   2.713   3.032   8.476 -0.5684 -0.7955 -0.5205
 9487SOL     OW39919   1.528   4.023  16.942  0.9795 -0.3873 -0.4795
 9487SOL    HW139920   1.523   4.116  16.920  0.8642 -0.2892 -0.0364
 9487SOL    HW239921   1.436   3.996  16.946  0.6676  0.8471  0.6630
 9488SOL     OW39922   0.285   1.604   5.177  0.3612 -0.5609 -0.6255
 9488SOL    HW139923   0.344   1.600   5.102  2.0027  1.6342  0.5455
 9488SOL    HW239924   0.337   1.622   5.256 -0.5782  0.7187 -0.3086
 9489SOL     OW39925   3.241   3.606   4.114 -0.5455 -0.3550 -0.2099
 9489SOL    HW139926   3.274   3.601   4.203  2.6261  2.6074 -1.2121
 9489SOL    HW239927   3.154   3.572   4.135 -0.0741 -2.1059 -1.1359
 9490SOL     OW39928   2.484   2.813   5.196 -0.0563  0.6432 -0.5170
 9490SOL    HW139929   2.535   2.850   5.125 -2.2329  0.1535 -2.3295
 9490SOL    HW239930   2.397   2.816   5.156 -0.6229  1.9081  0.8208
 9491SOL     OW39931   3.028   3.227   3.738  0.3342  0.1389  0.0671
 9491SOL    HW139932   2.991   3.190   3.818  0.0504 -0.3552 -0.2944
 9491SOL    HW239933   3.074   3.299   3.782  0.4887 -1.2108  2.1149
 9492SOL     OW39934   0.044   3.912  11.405 -0.0347 -0.2680 -1.1142
 9492SOL    HW139935   4.718   3.994  11.421  2.0189  0.3541  1.8777
 9492SOL    HW239936   0.108   3.946  11.342  1.5046  2.3648  1.8656
 9493SOL     OW39937   2.040   2.925  10.759 -0.0709  0.3471  0.5846
 9493SOL    HW139938   2.002   2.978  10.689 -0.2873 -1.4201 -0.6599
 9493SOL    HW239939   2.093   2.985  10.810  0.0523 -0.1854  1.0758
 9494SOL     OW39940   2.996   2.213   1.940  0.0322  0.3608 -0.5927
 9494SOL    HW139941   2.917   2.267   1.941 -0.7378 -0.7837 -1.3682
 9494SOL    HW239942   2.965   2.136   1.894 -1.8624  0.3250  0.7627
 9495SOL     OW39943   0.707   4.477   8.343  0.0077 -0.1688  0.8943
 9495SOL    HW139944   0.794   4.516   8.351 -0.7914  1.8275 -0.1427
 9495SOL    HW239945   0.657   4.543   8.391  1.0961  0.3909  1.2387
 9496SOL     OW39946   1.182   2.068  13.204 -0.2633 -0.2492  0.3815
 9496SOL    HW139947   1.222   2.144  13.161 -0.0311 -1.2467 -1.1666
 9496SOL    HW239948   1.113   2.045  13.142  0.1341 -0.3763 -0.0084
 9497SOL     OW39949   0.231   4.205   8.347 -0.4631 -0.0808 -0.1930
 9497SOL    HW139950   0.172   4.276   8.372  0.6948  0.1087  1.9295
 9497SOL    HW239951   0.239   4.160   8.431  1.2461 -0.8359 -0.7735
 9498SOL     OW39952   4.075   3.162  10.867 -0.3696  0.5734  0.1082
 9498SOL    HW139953   4.087   3.198  10.955 -0.8120 -0.0045  0.4058
 9498SOL    HW239954   4.034   3.230  10.813 -0.0227  1.4539  0.9368
 9499SOL     OW39955   3.978   2.338   8.409  0.2243  0.5027  0.1572
 9499SOL    HW139956   3.885   2.322   8.393  1.0585 -1.7401 -2.2470
 9499SOL    HW239957   3.997   2.268   8.471 -1.1453 -0.0012  0.0166
 9500SOL     OW39958   0.178   3.599  15.487  0.1535 -0.2307 -0.1499
 9500SOL    HW139959   0.267   3.593  15.451  0.0896 -0.5561 -0.2522
 9500SOL    HW239960   0.207   3.638  15.571  1.5471 -2.6955  0.5071
 9501SOL     OW39961   4.153   0.037   1.946 -0.2521 -0.2971  0.3489
 9501SOL    HW139962   4.058   0.028   1.943 -0.4495  1.9001  0.1273
 9501SOL    HW239963   4.163   0.113   2.003 -0.3279  0.1823 -0.2842
 9502SOL     OW39964   4.663   3.994   5.322  0.0572 -0.7269 -0.3015
 9502SOL    HW139965   0.028   4.032   5.321 -0.8557  1.4276  2.3419
 9502SOL    HW239966   4.675   3.938   5.399  0.8931 -0.7286 -0.4388
 9503SOL     OW39967   2.135   2.008   2.914  0.6579  0.3675  0.0120
 9503SOL    HW139968   2.107   2.003   2.822  1.4788  0.5359 -0.2500
 9503SOL    HW239969   2.226   2.031   2.895  0.6866 -2.2504 -3.0806
 9504SOL     OW39970   3.441   1.985  10.338 -0.0961 -0.3465  0.2981
 9504SOL    HW139971   3.459   2.079  10.347 -2.2893  0.0792  0.4007
 9504SOL    HW239972   3.424   1.961  10.430  0.1151 -0.6553  0.2573
 9505SOL     OW39973   1.481   4.365  15.451 -0.3524  0.2564 -0.1361
 9505SOL    HW139974   1.488   4.322  15.537 -0.3409 -0.4155 -0.4761
 9505SOL    HW239975   1.416   4.435  15.459 -1.6774 -1.1526  1.3422
 9506SOL     OW39976   0.160   1.012  17.523  0.2322  0.0234  0.4434
 9506SOL    HW139977   0.213   0.949  17.473 -1.9640 -0.3924 -1.3553
 9506SOL    HW239978   0.160   0.966  17.607 -1.3545  0.3993  0.6421
 9507SOL     OW39979   3.612   1.022  15.436 -0.4825  0.3666  0.1221
 9507SOL    HW139980   3.662   1.103  15.442  1.1559 -0.6175 -0.4194
 9507SOL    HW239981   3.551   1.046  15.507 -0.7516  1.7332 -0.5582
 9508SOL     OW39982   0.616   1.028   2.101 -0.1594 -0.8362 -0.2292
 9508SOL    HW139983   0.599   0.942   2.139  1.5637 -0.5584  1.1523
 9508SOL    HW239984   0.604   1.086   2.176  1.7188 -1.4265  0.5231
 9509SOL     OW39985   3.569   1.447   9.621  0.2669  0.1206 -0.5296
 9509SOL    HW139986   3.488   1.446   9.570 -1.2734  0.1321  1.8951
 9509SOL    HW239987   3.584   1.541   9.631 -0.1200 -0.0133  1.3504
 9510SOL     OW39988   3.256   0.436  12.258  0.2519  0.0974  0.0590
 9510SOL    HW139989   3.288   0.519  12.291 -1.8973  0.1471  2.0407
 9510SOL    HW239990   3.334   0.384  12.238  0.1634 -0.1152  0.2521
 9511SOL     OW39991   3.306   0.469   3.469 -0.1752  0.5645  0.5172
 9511SOL    HW139992   3.261   0.425   3.397 -0.7621  2.0853 -0.0462
 9511SOL    HW239993   3.383   0.413   3.480 -1.1240 -0.9323 -0.4641
 9512SOL     OW39994   1.712   2.746   5.689  0.2895 -0.5501 -0.7097
 9512SOL    HW139995   1.752   2.743   5.602  0.8674  1.1812 -0.4944
 9512SOL    HW239996   1.618   2.731   5.677  0.0988  0.4828 -0.5009
 9513SOL     OW39997   0.987   0.977   3.795  0.2510 -0.1732  0.3108
 9513SOL    HW139998   0.951   0.888   3.798 -2.0182  0.7303  0.1053
 9513SOL    HW239999   1.079   0.958   3.813  0.8220  0.6091 -1.8363
 9514SOL     OW40000   4.010   2.866   4.390  0.2349 -0.4070  0.3635
 9514SOL    HW140001   3.956   2.937   4.424  1.7357  1.5483 -1.3558
 9514SOL    HW240002   4.094   2.912   4.391  0.0894 -0.1703  2.2898
 9515SOL     OW40003   2.534   3.595  12.359  0.3099  0.1746  0.4365
 9515SOL    HW140004   2.615   3.576  12.406  0.8272  3.3014  0.8096
 9515SOL    HW240005   2.556   3.677  12.315 -0.1641  0.0070 -0.1241
 9516SOL     OW40006   2.935   4.576   1.052 -0.6032 -0.0645 -0.0025
 9516SOL    HW140007   3.000   4.573   1.122 -2.3534  1.1872  1.7124
 9516SOL    HW240008   2.902   4.486   1.058 -1.0149  0.0956  0.2052
 9517SOL     OW40009   0.436   2.262   2.608  0.2741  0.1641  0.3096
 9517SOL    HW140010   0.493   2.186   2.611 -1.5284 -1.2212 -0.7122
 9517SOL    HW240011   0.496   2.332   2.636 -0.9757  1.1156  0.6059
 9518SOL     OW40012   1.982   0.234  10.528  0.4412  0.4027 -0.4972
 9518SOL    HW140013   2.004   0.291  10.454 -0.8159 -1.0807 -2.0249
 9518SOL    HW240014   2.070   0.218  10.561  0.3043  1.5905  0.4595
 9519SOL     OW40015   1.268   3.429   9.033  0.4401 -0.9721 -0.4278
 9519SOL    HW140016   1.214   3.359   8.996  0.3511 -1.0622 -0.1329
 9519SOL    HW240017   1.222   3.441   9.117 -0.9844  0.8485 -1.4545
 9520SOL     OW40018   1.909   0.332  13.364  0.1792  0.6012 -0.0314
 9520SOL    HW140019   1.900   0.402  13.301  0.5210  1.4135  0.8206
 9520SOL    HW240020   2.003   0.325  13.350  0.1103 -0.1191 -0.1635
 9521SOL     OW40021   3.762   3.647   5.498 -0.2540  0.2565  0.2496
 9521SOL    HW140022   3.854   3.646   5.472 -0.0141  0.3665  1.1066
 9521SOL    HW240023   3.730   3.681   5.414 -4.0327 -1.4231  0.9728
 9522SOL     OW40024   4.034   2.387  16.420  0.5072  0.3210  0.4775
 9522SOL    HW140025   3.984   2.428  16.491  0.2588  2.9578 -1.2069
 9522SOL    HW240026   4.049   2.468  16.372  1.7992  0.1921  0.6665
 9523SOL     OW40027   0.522   1.812   6.986 -0.5912  0.4764  0.2097
 9523SOL    HW140028   0.492   1.889   6.936 -0.8414  1.1618  1.4185
 9523SOL    HW240029   0.617   1.823   6.990 -0.6334  0.4309  1.2545
 9524SOL     OW40030   4.645   3.142   3.133 -0.7512  0.4357 -0.1105
 9524SOL    HW140031   0.002   3.149   3.080 -0.6465  1.2449  0.1448
 9524SOL    HW240032   4.670   3.189   3.213  1.4531 -1.0725  0.0825
 9525SOL     OW40033   2.942   1.910   3.736 -0.0786  0.4804  0.4423
 9525SOL    HW140034   3.024   1.958   3.724  0.4309 -0.9000 -1.5939
 9525SOL    HW240035   2.906   1.904   3.648 -0.5936  0.9824  0.6171
 9526SOL     OW40036   3.531   3.574  15.877  0.2778  0.4136  0.0142
 9526SOL    HW140037   3.560   3.496  15.830  0.1213 -0.3232  1.1343
 9526SOL    HW240038   3.616   3.601  15.911 -0.5308  2.5239  0.3291
 9527SOL     OW40039   2.449   3.126   5.982  0.1453  0.6039  0.4409
 9527SOL    HW140040   2.541   3.113   5.961  0.0728 -1.7492  1.5853
 9527SOL    HW240041   2.439   3.073   6.061  1.1992 -1.9174 -1.1212
 9528SOL     OW40042   1.600   4.704   2.401 -0.3624  0.3152 -0.4207
 9528SOL    HW140043   1.597   0.029   2.318 -0.8524  0.1644 -0.4880
 9528SOL    HW240044   1.669   4.640   2.382  0.1542  1.3324 -1.9584
 9529SOL     OW40045   2.545   0.512   0.564 -0.0210 -0.1084 -0.0638
 9529SOL    HW140046   2.498   0.595   0.573  0.1544 -0.0304  0.1398
 9529SOL    HW240047   2.636   0.533   0.584  0.6393 -2.6064 -0.4111
 9530SOL     OW40048   0.460   1.557   6.869  0.3111 -0.0215  0.2615
 9530SOL    HW140049   0.440   1.508   6.948 -0.0448 -2.5118 -1.3931
 9530SOL    HW240050   0.502   1.636   6.903 -1.5079  0.7816  0.6667
 9531SOL     OW40051   2.138   1.004   7.873 -0.3528  0.7040 -0.6198
 9531SOL    HW140052   2.114   1.093   7.848 -0.3879  1.1024  0.8108
 9531SOL    HW240053   2.072   0.951   7.829 -1.3529  1.2407  0.2226
 9532SOL     OW40054   2.709   2.040   8.287  0.4580 -0.2859 -0.3255
 9532SOL    HW140055   2.644   2.099   8.325 -1.3720 -1.7943 -1.0940
 9532SOL    HW240056   2.793   2.067   8.323  0.1049 -0.4350  0.6214
 9533SOL     OW40057   2.056   3.324   7.462 -0.3520 -0.0354  0.3686
 9533SOL    HW140058   2.053   3.304   7.369  0.1451 -0.4854  0.4516
 9533SOL    HW240059   2.140   3.367   7.473  0.0168 -0.6610 -0.0147
 9534SOL     OW40060   3.009   3.947   1.645 -0.6516 -0.0856 -0.0373
 9534SOL    HW140061   3.001   4.035   1.610  0.9859 -0.3098 -0.9761
 9534SOL    HW240062   3.042   3.897   1.570 -1.4882  2.2826 -1.9885
 9535SOL     OW40063   4.476   2.469   5.457 -0.1968  0.6180 -0.0640
 9535SOL    HW140064   4.496   2.460   5.363 -0.7279  0.2914 -0.1466
 9535SOL    HW240065   4.566   2.495   5.475  0.4430 -0.8224 -1.0982
 9536SOL     OW40066   3.630   1.073  17.014  0.2849 -0.1860  0.4053
 9536SOL    HW140067   3.679   0.997  16.983  2.3745  1.0387  0.7149
 9536SOL    HW240068   3.672   1.105  17.094  1.9950  2.9705 -1.7737
 9537SOL     OW40069   2.453   2.067  15.362  0.3927 -0.2434 -0.3405
 9537SOL    HW140070   2.503   2.143  15.332  1.2414 -0.0239  1.6835
 9537SOL    HW240071   2.518   2.022  15.415 -0.9579 -0.5390  1.0746
 9538SOL     OW40072   4.530   0.394   8.580 -0.3737  0.2403  0.1254
 9538SOL    HW140073   4.540   0.333   8.507  1.8268 -0.2568  0.8666
 9538SOL    HW240074   4.488   0.472   8.543  1.3706 -0.9778 -4.5006
 9539SOL     OW40075   1.701   4.260   5.166 -0.4952 -0.2737  0.0089
 9539SOL    HW140076   1.755   4.335   5.139 -0.0394 -1.1907 -1.6441
 9539SOL    HW240077   1.624   4.289   5.117 -1.4127 -2.3291  0.2413
 9540SOL     OW40078   0.688   3.751   9.364 -0.0695  0.1106  0.5491
 9540SOL    HW140079   0.675   3.845   9.370  0.8734  0.2009  1.0742
 9540SOL    HW240080   0.711   3.729   9.454  0.7218  1.8872  0.7741
 9541SOL     OW40081   1.045   1.444   4.489  0.7846  0.5586  0.3711
 9541SOL    HW140082   1.131   1.453   4.531  0.5153 -1.6129  1.3699
 9541SOL    HW240083   1.070   1.462   4.398 -0.8497  0.3351 -0.1286
 9542SOL     OW40084   0.821   4.046   2.164  0.1617 -0.1744  0.6498
 9542SOL    HW140085   0.762   3.974   2.184  2.0625 -1.2323  2.5056
 9542SOL    HW240086   0.905   4.001   2.151  1.0530  0.9712  2.4236
 9543SOL     OW40087   3.506   4.177   4.974 -0.4293  0.3802  0.1109
 9543SOL    HW140088   3.482   4.097   4.927  0.5078 -0.0447  0.3422
 9543SOL    HW240089   3.585   4.213   4.933 -3.1300  2.0079 -3.6464
 9544SOL     OW40090   3.524   1.126  17.383  0.0441 -0.3837  0.1334
 9544SOL    HW140091   3.612   1.093  17.364 -0.0600  0.3851 -1.7040
 9544SOL    HW240092   3.510   1.180  17.304 -0.6825 -0.2941  0.3245
 9545SOL     OW40093   1.567   0.814   6.460 -0.0272  0.2348  0.1519
 9545SOL    HW140094   1.618   0.823   6.379  0.3463 -0.9578  0.2506
 9545SOL    HW240095   1.582   0.722   6.482 -1.0306  0.4467  1.6961
 9546SOL     OW40096   0.349   3.000   5.176  0.2554  0.1358 -0.0294
 9546SOL    HW140097   0.331   3.080   5.126  2.2365  0.0070 -0.9548
 9546SOL    HW240098   0.441   3.018   5.193 -0.3359  2.0664  1.1918
 9547SOL     OW40099   3.729   1.682   1.875 -0.3529 -0.2500 -0.5744
 9547SOL    HW140100   3.772   1.748   1.819  0.6492  0.6813  1.2585
 9547SOL    HW240101   3.770   1.599   1.851  0.0611 -0.7102  1.7180
 9548SOL     OW40102   2.262   2.365  14.294 -0.4248 -0.1219 -0.2594
 9548SOL    HW140103   2.305   2.413  14.224 -0.7832 -0.4559 -0.7112
 9548SOL    HW240104   2.305   2.279  14.283  2.1655  1.4084 -2.1618
 9549SOL     OW40105   2.158   0.423   5.763 -0.0005  0.3821 -0.1310
 9549SOL    HW140106   2.230   0.457   5.710 -1.0750  1.7875 -0.6705
 9549SOL    HW240107   2.201   0.402   5.845  0.4193  1.0774 -0.1735
 9550SOL     OW40108   1.741   0.823  12.326 -0.4841 -0.8323 -0.1182
 9550SOL    HW140109   1.653   0.827  12.363 -0.2948 -2.1031  0.4739
 9550SOL    HW240110   1.745   0.913  12.295 -0.0232 -0.4403  1.0940
 9551SOL     OW40111   4.513   0.323   4.308  0.4499  0.0944  0.3374
 9551SOL    HW140112   4.517   0.313   4.403  1.2052 -1.5953  0.1173
 9551SOL    HW240113   4.594   0.283   4.278  0.4768  1.9580 -2.1365
 9552SOL     OW40114   2.554   4.241  16.876 -0.4100  0.0527 -0.1427
 9552SOL    HW140115   2.494   4.257  16.803 -1.4708 -0.0047  0.7126
 9552SOL    HW240116   2.576   4.328  16.908 -0.0255  0.1960 -0.8000
 9553SOL     OW40117   3.928   0.445   1.961 -1.0270 -0.3238 -0.0792
 9553SOL    HW140118   3.906   0.353   1.943 -3.7251  0.2515  0.2365
 9553SOL    HW240119   3.875   0.490   1.895 -1.7858  1.5440  1.7753
 9554SOL     OW40120   1.050   2.342   1.087 -0.3579  0.2005 -0.2000
 9554SOL    HW140121   0.972   2.308   1.043  0.3605 -0.1959 -1.1622
 9554SOL    HW240122   1.117   2.303   1.032 -1.5092  1.4081 -2.4614
 9555SOL     OW40123   4.621   2.361  17.642  0.4905  0.1298 -0.0919
 9555SOL    HW140124   4.697   2.365  17.585 -0.1759  0.3513 -0.9561
 9555SOL    HW240125   4.671   2.358   0.032  1.3706  0.8888 -0.6044
 9556SOL     OW40126   4.175   2.085   6.830 -0.6977 -0.5287 -0.1587
 9556SOL    HW140127   4.193   1.991   6.831 -0.4298 -0.4754  0.1266
 9556SOL    HW240128   4.242   2.119   6.770 -1.2894 -0.9930 -1.0797
 9557SOL     OW40129   1.962   4.685  17.503  0.1186  0.4393  0.0668
 9557SOL    HW140130   1.918   0.023  17.562 -0.4895 -0.3530  0.4291
 9557SOL    HW240131   1.896   4.659  17.439  1.3378 -0.4946 -0.7966
 9558SOL     OW40132   3.782   0.258   2.527  0.3407 -0.5822  0.1560
 9558SOL    HW140133   3.763   0.337   2.579  1.1110 -0.5487  0.3934
 9558SOL    HW240134   3.830   0.205   2.590 -1.4094 -0.5588  1.5240
 9559SOL     OW40135   1.598   1.867  10.115  0.1151 -0.6586  0.1188
 9559SOL    HW140136   1.668   1.828  10.166  0.1067  0.2023  0.7742
 9559SOL    HW240137   1.666   1.897  10.055  0.4922 -0.8017  0.4715
 9560SOL     OW40138   2.403   0.050   8.069 -0.2970 -0.7881  0.1926
 9560SOL    HW140139   2.447   0.034   7.985 -1.1069 -0.1292 -0.3590
 9560SOL    HW240140   2.319   0.086   8.041  0.4779  0.7969 -0.1158
 9561SOL     OW40141   1.715   0.435   3.891 -0.0477  0.3705  0.1945
 9561SOL    HW140142   1.725   0.437   3.796  0.6176 -1.1680  0.2390
 9561SOL    HW240143   1.746   0.524   3.910  2.3657 -0.2449 -0.9236
 9562SOL     OW40144   4.207   4.595   5.554  0.2369 -0.1497 -0.3254
 9562SOL    HW140145   4.194   4.688   5.569 -1.5498 -0.4582 -0.0364
 9562SOL    HW240146   4.279   4.572   5.613  0.9861  2.2940 -0.3062
 9563SOL     OW40147   3.068   3.943   7.669 -0.1105  0.4467 -0.5609
 9563SOL    HW140148   3.067   3.854   7.633 -2.0755  0.6079 -0.9163
 9563SOL    HW240149   2.977   3.951   7.700  0.5429 -1.1525  1.7679
 9564SOL     OW40150   4.582   2.293  10.794 -0.4353  0.3767  0.1955
 9564SOL    HW140151   4.592   2.387  10.804 -0.3031  0.0241  3.2359
 9564SOL    HW240152   4.488   2.276  10.802  0.1639 -2.3089  1.4594
 9565SOL     OW40153   4.061   3.496   8.020 -0.1127 -0.4313  0.5205
 9565SOL    HW140154   4.147   3.455   8.005 -0.6131 -1.1011 -0.5032
 9565SOL    HW240155   4.059   3.484   8.115 -0.0587 -2.7225  0.2467
   4.72256   4.72256  17.69226
