Membrane in water
40155
    1TCq1    O1    1   3.151   1.025  11.464  0.4012 -0.4894 -0.5191
    1TCq1    C1    2   3.127   0.908  11.536  0.7225  0.1893 -0.4601
    1TCq1    O2    3   3.105   0.909  11.655 -0.1505 -0.8352 -0.0173
    1TCq1    C2    4   3.051   0.824  11.445 -0.0863  0.0798  0.0786
    1TCq1    C3    5   3.132   0.767  11.348 -0.2023 -0.1799  0.4722
    1TCq1    C4    6   3.083   0.652  11.288 -0.7460  0.1560  0.7381
    1TCq1    C5    7   2.967   0.590  11.338  0.3815 -0.1139 -0.0844
    1TCq1    C6    8   2.894   0.652  11.432 -0.2838 -0.4648 -0.0466
    1TCq1    C7    9   2.932   0.770  11.489 -1.0062 -0.6575 -0.4115
    1TCq1    C8   10   2.752   0.615  11.437 -0.4760  0.0257 -0.2680
    1TCq1    O4   11   2.698   0.654  11.537 -0.1655  0.3670 -0.5229
    1TCq1    C9   12   3.154   0.580  11.182 -0.2563  0.2198 -0.2337
    1TCq1    O5   13   3.082   0.499  11.117 -0.1981 -0.5606  0.5786
    1TCq1    O6   14   3.259   0.637  11.145 -0.6473 -0.5306  0.3762
    1TCq1    H1   15   3.132   1.015  11.368 -1.1738  1.2209 -0.3823
    1TCq1    H2   16   3.228   0.805  11.315 -0.0881  1.3000  2.5073
    1TCq1    H3   17   2.934   0.494  11.300 -1.8659  2.2479 -4.1301
    1TCq1    H4   18   2.868   0.832  11.550  2.0872  0.9107  1.2107
    2MPD2     C   19   2.317   0.460  11.219  0.2071  0.0533  0.1860
    2MPD2    C1   20   2.354   0.481  11.355 -1.0081  0.1444 -0.7466
    2MPD2    C2   21   2.479   0.522  11.383  0.6470  0.5705  0.4708
    2MPD2    C3   22   2.578   0.539  11.284  0.1305 -0.3571  0.3536
    2MPD2    C4   23   2.541   0.513  11.155  1.1789  0.0248  0.3556
    2MPD2    C5   24   2.412   0.479  11.123  0.2838  0.1564 -0.1195
    2MPD2     H   25   2.497   0.539  11.489  0.5686 -0.2263  0.6091
    2MPD2    H1   26   2.613   0.509  11.074  1.0221 -0.5177  0.2370
    2MPD2    H2   27   2.213   0.443  11.194  0.0384  2.1283 -0.5481
    2MPD2    H3   28   2.389   0.455  11.020 -0.0744  0.9217 -0.2176
    2MPD2     N   29   2.705   0.581  11.313  0.5802  0.0639  0.1991
    2MPD2    H5   30   2.768   0.589  11.233  2.1998 -0.4349  1.4280
    2MPD2    N1   31   2.262   0.452  11.455 -0.3174  0.0447 -0.0652
    2MPD2    H7   32   2.293   0.481  11.547 -1.0773  0.6772 -0.0115
    3TCq1    O1   33   1.920   0.562  11.185  0.4938  0.5927 -0.4028
    3TCq1    C1   34   1.953   0.677  11.249  0.2931 -0.2202 -0.3026
    3TCq1    O2   35   1.947   0.694  11.368  0.1904  0.8646  0.2423
    3TCq1    C2   36   1.937   0.792  11.158 -0.0025 -0.1690  0.7894
    3TCq1    C3   37   1.974   0.784  11.027  0.8481 -0.3784 -0.3046
    3TCq1    C4   38   1.937   0.884  10.941  0.1874 -0.4336 -0.3717
    3TCq1    C5   39   1.852   0.985  10.978 -0.3899  0.2185  0.3335
    3TCq1    C6   40   1.802   0.974  11.104 -0.8733 -0.3358  0.2354
    3TCq1    C7   41   1.841   0.880  11.193  0.1224  0.5863 -0.6299
    3TCq1    C8   42   1.699   1.066  11.151 -0.0011  0.1531 -0.9281
    3TCq1    O4   43   1.650   1.062  11.261  0.3877 -0.2576  0.0534
    3TCq1    C9   44   1.985   0.882  10.805  0.5009 -0.2849  0.6861
    3TCq1    O5   45   1.948   0.969  10.717  0.0447  0.2991  0.6718
    3TCq1    O6   46   2.043   0.777  10.766 -0.3294 -0.1571  0.5283
    3TCq1    H1   47   1.936   0.557  11.088  0.6865 -0.6476 -0.3010
    3TCq1    H2   48   2.051   0.716  10.994  1.4307  0.4339 -0.6252
    3TCq1    H3   49   1.827   1.063  10.906  0.3918 -0.6037 -0.8218
    3TCq1    H4   50   1.793   0.885  11.290  1.7129  0.8569  0.1522
    4MPD2     C   51   1.455   1.511  11.112 -0.4550 -0.5727  0.9818
    4MPD2    C1   52   1.571   1.512  11.035  0.3286 -0.1618  0.1916
    4MPD2    C2   53   1.659   1.407  11.027  1.0629 -0.6526 -0.4950
    4MPD2    C3   54   1.623   1.291  11.092 -0.4265 -0.2622 -0.2658
    4MPD2    C4   55   1.505   1.288  11.166 -0.2186  0.1485 -0.4333
    4MPD2    C5   56   1.423   1.395  11.180 -0.1961 -0.2630  0.1728
    4MPD2     H   57   1.746   1.406  10.963  1.4872 -0.1278  0.0794
    4MPD2    H1   58   1.484   1.201  11.228  1.0478  0.0419 -0.1602
    4MPD2    H2   59   1.394   1.599  11.132  0.0974  0.1783 -0.6293
    4MPD2    H3   60   1.342   1.405  11.251 -2.7531 -2.4152 -2.4211
    4MPD2     N   61   1.707   1.183  11.077 -0.5897  0.0018  0.3578
    4MPD2    H5   62   1.776   1.192  11.003 -1.8334  2.0628 -0.5675
    4MPD2    N1   63   1.602   1.625  10.956  0.6461 -0.3466 -0.3753
    4MPD2    H7   64   1.693   1.631  10.911 -0.2530  1.3287 -1.9932
    5TCq1    O1   65   1.209   2.810  10.618  0.6108  0.1299  0.2246
    5TCq1    C1   66   1.322   2.785  10.546  0.0039 -0.0745  0.1722
    5TCq1    O2   67   1.380   2.678  10.532 -0.0142  0.3243 -0.5972
    5TCq1    C2   68   1.395   2.914  10.553 -0.9108  0.2560  0.1253
    5TCq1    C3   69   1.337   3.038  10.551  0.2528 -0.3973  0.7431
    5TCq1    C4   70   1.413   3.153  10.550  1.1428  0.1850 -0.8698
    5TCq1    C5   71   1.548   3.149  10.551 -0.0110 -0.2901 -0.1104
    5TCq1    C6   72   1.600   3.020  10.540  0.3753  0.0737  0.3103
    5TCq1    C7   73   1.528   2.903  10.545  0.0217 -0.6188 -0.3489
    5TCq1    C8   74   1.747   3.001  10.548  0.0778 -0.0858 -0.0800
    5TCq1    O4   75   1.787   2.895  10.589 -0.0149 -0.3955  0.2634
    5TCq1    C9   76   1.345   3.278  10.566 -1.1337  0.7076  0.4438
    5TCq1    O5   77   1.412   3.385  10.555 -0.0429 -0.3126 -0.1453
    5TCq1    O6   78   1.224   3.274  10.540 -0.3489 -0.3669  0.3488
    5TCq1    H1   79   1.221   2.897  10.662  0.8458  0.3239 -0.2220
    5TCq1    H2   80   1.230   3.055  10.556  0.0521 -1.0644 -1.2275
    5TCq1    H3   81   1.603   3.243  10.555 -2.4190  1.2051 -1.8522
    5TCq1    H4   82   1.586   2.813  10.531  0.6416 -0.7432  3.0088
    6MPD2     C   83   1.997   3.256  10.513 -0.4714  0.2439  0.0964
    6MPD2    C1   84   1.954   3.126  10.519 -0.2914 -0.0315 -0.1556
    6MPD2    C2   85   2.037   3.025  10.490 -0.5585  0.2065  0.2359
    6MPD2    C3   86   2.173   3.044  10.470  0.0186  0.1621 -0.2819
    6MPD2    C4   87   2.224   3.168  10.480 -1.0573  0.4501 -0.3489
    6MPD2    C5   88   2.131   3.268  10.498 -0.1688 -0.0614 -0.0658
    6MPD2     H   89   1.997   2.924  10.482  0.3079 -0.1544  0.4474
    6MPD2    H1   90   2.324   3.198  10.452 -0.7114 -0.6459 -0.3019
    6MPD2    H2   91   1.938   3.340  10.548  0.2834 -0.2361  2.5477
    6MPD2    H3   92   2.178   3.366  10.495 -1.0029  0.3465  0.0704
    6MPD2     N   93   2.254   2.932  10.448  0.0455 -0.3737 -0.5924
    6MPD2    H5   94   2.209   2.842  10.444 -1.5020  0.4004 -0.8232
    6MPD2    N1   95   1.818   3.117  10.534  0.2776  0.3506 -0.0827
    6MPD2    H7   96   1.757   3.198  10.534  2.1288  1.7479  1.4014
    7TCq1    O1   97   4.194   2.763  12.607  0.5839 -0.1993 -0.3214
    7TCq1    C1   98   4.280   2.688  12.687  0.2507 -0.0115  0.0292
    7TCq1    O2   99   4.350   2.719  12.781 -0.3220 -0.7603  0.0723
    7TCq1    C2  100   4.279   2.550  12.640  0.2477 -0.5274 -0.1932
    7TCq1    C3  101   4.240   2.511  12.515 -0.3035  0.2447  0.4136
    7TCq1    C4  102   4.265   2.384  12.473  0.7421  0.4787 -0.3983
    7TCq1    C5  103   4.319   2.289  12.564  0.0508 -0.3532 -0.0776
    7TCq1    C6  104   4.356   2.335  12.688 -0.5022 -0.7344  0.0548
    7TCq1    C7  105   4.339   2.465  12.724 -0.0965 -0.6619  1.1660
    7TCq1    C8  106   4.420   2.237  12.787 -1.1055  0.8958  0.5490
    7TCq1    O4  107   4.377   2.125  12.777  0.4926  0.3424 -0.1590
    7TCq1    C9  108   4.233   2.348  12.335  0.1227  0.2161 -0.5558
    7TCq1    O5  109   4.257   2.231  12.294  0.5913  0.1719 -0.1773
    7TCq1    O6  110   4.182   2.442  12.266 -0.1316  0.0472 -0.1083
    7TCq1    H1  111   4.156   2.718  12.529 -0.7492  3.4480 -1.7612
    7TCq1    H2  112   4.202   2.584  12.444  1.1116  0.7824  0.2075
    7TCq1    H3  113   4.337   2.185  12.537  3.0471 -0.0039  0.6356
    7TCq1    H4  114   4.346   2.500  12.826  0.9977  1.2149  0.4586
    8MPD2     C  115   4.674   2.171  13.228  0.0630  0.5086  0.1913
    8MPD2    C1  116   4.591   2.082  13.163 -0.1565  0.2720 -0.0340
    8MPD2    C2  117   4.531   2.125  13.045  0.0997  0.1631 -0.1051
    8MPD2    C3  118   4.563   2.248  12.994 -0.2354 -0.7557 -1.0368
    8MPD2    C4  119   4.655   2.326  13.055 -0.0604 -0.3331  0.1028
    8MPD2    C5  120   4.715   2.290  13.172 -0.0695  0.5626  0.0650
    8MPD2     H  121   4.445   2.069  13.010  0.0429 -0.1746  0.5699
    8MPD2    H1  122   4.676   2.421  13.007 -0.4863  0.3102  1.2057
    8MPD2    H2  123   4.720   2.124  13.314  0.2423  0.7181  0.2126
    8MPD2    H3  124   0.057   2.364  13.217 -0.9762 -0.3257  2.8202
    8MPD2     N  125   4.511   2.299  12.873  0.2340 -0.2368  0.6442
    8MPD2    H5  126   4.538   2.392  12.841 -1.8306  0.3221  0.5256
    8MPD2    N1  127   4.562   1.956  13.223  0.0571  0.4585  0.2855
    8MPD2    H7  128   4.608   1.932  13.311  0.6093  0.9533  0.1330
    9TCq1    O1  129   2.130   1.464  11.490  0.2141  0.2179  0.2261
    9TCq1    C1  130   2.093   1.413  11.368 -0.1455 -0.2339  0.7085
    9TCq1    O2  131   1.987   1.358  11.343  0.1991 -0.1001 -0.6391
    9TCq1    C2  132   2.193   1.442  11.273  0.0160  0.1056  0.3324
    9TCq1    C3  133   2.159   1.458  11.141 -0.0952  0.9260  0.3193
    9TCq1    C4  134   2.254   1.502  11.049  1.0026  0.7383  0.1358
    9TCq1    C5  135   2.377   1.529  11.080  0.3562 -0.1563 -0.2630
    9TCq1    C6  136   2.408   1.503  11.214 -0.3716 -0.4257  0.2422
    9TCq1    C7  137   2.321   1.462  11.313  0.1067 -0.3456 -0.1515
    9TCq1    C8  138   2.553   1.506  11.243  0.6840 -0.1489  0.7444
    9TCq1    O4  139   2.628   1.539  11.152 -0.2180  0.2991  1.0073
    9TCq1    C9  140   2.214   1.524  10.915 -0.7242 -0.3990  0.3606
    9TCq1    O5  141   2.293   1.582  10.837 -0.1068 -0.0171  0.6690
    9TCq1    O6  142   2.107   1.473  10.881 -0.0249  0.3195  0.4108
    9TCq1    H1  143   2.210   1.519  11.495 -0.1031  0.4802  2.3434
    9TCq1    H2  144   2.055   1.437  11.117  0.9856 -5.9296  1.7288
    9TCq1    H3  145   2.443   1.567  11.004  1.1316  1.6318  1.3141
    9TCq1    H4  146   2.340   1.446  11.419  1.0454 -2.0734 -0.5739
   10MPD2     C  147   2.815   1.526  11.385 -0.0916  0.3683  0.1143
   10MPD2    C1  148   2.718   1.438  11.424  0.5514 -0.8021  0.6247
   10MPD2    C2  149   2.739   1.354  11.531  0.7734 -0.2678  0.0593
   10MPD2    C3  150   2.865   1.336  11.595  0.3101 -0.5775 -0.2202
   10MPD2    C4  151   2.969   1.418  11.543  0.1741  0.0529 -1.0101
   10MPD2    C5  152   2.938   1.513  11.447 -0.3447  0.3235 -0.3799
   10MPD2     H  153   2.658   1.301  11.580  0.4732  0.0269 -0.1233
   10MPD2    H1  154   3.073   1.412  11.573  0.5857  1.4457 -2.1762
   10MPD2    H2  155   2.795   1.596  11.305 -0.5966 -2.0913 -1.9451
   10MPD2    H3  156   3.015   1.579  11.408  0.0396 -1.1058 -2.0095
   10MPD2     N  157   2.890   1.252  11.704  0.6241  0.3169 -0.5911
   10MPD2    H5  158   2.980   1.258  11.750 -0.0457  1.5694  0.5652
   10MPD2    N1  159   2.592   1.439  11.359 -0.1644 -0.5176 -0.1083
   10MPD2    H7  160   2.521   1.385  11.407 -0.1296  1.1528  1.8537
   11TCq1    O1  161   2.881   1.857  14.255 -0.0237  0.4390 -0.0947
   11TCq1    C1  162   2.952   1.821  14.148 -0.5140 -0.0153 -0.5086
   11TCq1    O2  163   3.048   1.888  14.103  0.3224  0.9167  0.0679
   11TCq1    C2  164   2.927   1.681  14.121 -0.0195 -0.2751  0.1827
   11TCq1    C3  165   3.012   1.585  14.175  0.1593 -0.5359 -0.2923
   11TCq1    C4  166   3.033   1.465  14.101  0.0510 -0.1658  0.0090
   11TCq1    C5  167   2.961   1.440  13.984 -0.1089  0.5220 -0.8916
   11TCq1    C6  168   2.864   1.531  13.943  0.3969  0.6979  0.7041
   11TCq1    C7  169   2.844   1.650  14.016  0.1064 -0.4885  0.1157
   11TCq1    C8  170   2.791   1.509  13.817  0.4002  0.1056  0.0862
   11TCq1    O4  171   2.741   1.608  13.763 -0.0405  0.0167 -0.1764
   11TCq1    C9  172   3.129   1.363  14.155 -0.6047  0.1031 -0.5546
   11TCq1    O5  173   3.199   1.405  14.250  0.6378  0.1232  0.1019
   11TCq1    O6  174   3.168   1.274  14.075 -0.5142  0.1291  0.4254
   11TCq1    H1  175   2.814   1.792  14.284 -1.0554  1.4236 -0.2478
   11TCq1    H2  176   3.075   1.610  14.260  2.0542  1.4540 -2.2851
   11TCq1    H3  177   2.968   1.343  13.936 -1.0454  0.4794 -0.9482
   11TCq1    H4  178   2.765   1.713  13.976  0.0072 -0.8843 -0.3054
   12MPD2     C  179   2.642   1.398  13.587  0.1388  0.1446 -0.4804
   12MPD2    C1  180   2.683   1.322  13.696  0.3350 -0.0344  0.4758
   12MPD2    C2  181   2.649   1.188  13.694 -0.4817 -0.0109  1.0564
   12MPD2    C3  182   2.571   1.129  13.594 -0.6576 -0.4515 -0.2662
   12MPD2    C4  183   2.523   1.208  13.494 -0.1864 -0.1125 -0.1850
   12MPD2    C5  184   2.558   1.342  13.494  0.6934 -0.0038 -0.5102
   12MPD2     H  185   2.670   1.125  13.780 -0.8816 -1.6030 -0.0103
   12MPD2    H1  186   2.460   1.177  13.412 -2.0494  1.9235  0.4828
   12MPD2    H2  187   2.671   1.501  13.566 -2.1876  0.6686 -1.0996
   12MPD2    H3  188   2.526   1.403  13.410 -1.2262 -2.5107 -1.5926
   12MPD2     N  189   2.538   0.989  13.595  0.7838 -0.1365 -0.3546
   12MPD2    H5  190   2.480   0.965  13.515 -1.2235  0.1123  1.0417
   12MPD2    N1  191   2.763   1.370  13.802 -0.7215 -0.1218 -0.2039
   12MPD2    H7  192   2.795   1.307  13.874 -0.5895  1.0130  0.7286
   13TCq1    O1  193   2.549   1.531  10.767 -0.9427  0.0417  0.4958
   13TCq1    C1  194   2.579   1.427  10.694  0.2763  0.4927 -0.4356
   13TCq1    O2  195   2.690   1.377  10.690  0.1503  0.6357 -0.1435
   13TCq1    C2  196   2.464   1.339  10.704  0.2532 -0.5578 -0.2940
   13TCq1    C3  197   2.350   1.373  10.642  0.1621 -0.4042 -0.2030
   13TCq1    C4  198   2.229   1.307  10.672 -0.2283 -0.7448  0.0350
   13TCq1    C5  199   2.235   1.212  10.768  0.6560 -0.0614 -0.1066
   13TCq1    C6  200   2.351   1.176  10.826  0.3556  0.0463 -0.7448
   13TCq1    C7  201   2.470   1.234  10.789 -0.0488  0.3820  1.1527
   13TCq1    C8  202   2.352   1.081  10.936  0.2056 -0.5911 -1.1781
   13TCq1    O4  203   2.456   1.021  10.959 -0.1399 -0.6352  0.0450
   13TCq1    C9  204   2.102   1.351  10.627 -0.8407 -0.5167  0.5730
   13TCq1    O5  205   2.009   1.271  10.648 -0.2731 -0.4199  0.3153
   13TCq1    O6  206   2.108   1.454  10.560  0.0866 -0.3118 -0.6474
   13TCq1    H1  207   2.453   1.543  10.785 -1.1518  0.3718 -0.8300
   13TCq1    H2  208   2.360   1.465  10.584  0.4898 -0.0660  0.3826
   13TCq1    H3  209   2.141   1.166  10.797  2.1521 -2.5994  0.6989
   13TCq1    H4  210   2.561   1.221  10.848 -0.1124  0.8081  1.3436
   14MPD2     C  211   2.296   0.928  11.174  1.1217 -0.5848  0.1565
   14MPD2    C1  212   2.226   1.040  11.134 -0.5940 -0.0831  0.2048
   14MPD2    C2  213   2.133   1.100  11.220 -0.2301  0.5171  1.0340
   14MPD2    C3  214   2.101   1.042  11.337 -0.0676  0.9869 -0.2104
   14MPD2    C4  215   2.169   0.927  11.378  0.2318 -0.0205 -0.2820
   14MPD2    C5  216   2.262   0.871  11.297 -0.1029 -0.2797  0.7207
   14MPD2     H  217   2.075   1.185  11.188  1.1231  0.1949 -2.3299
   14MPD2    H1  218   2.141   0.879  11.471  0.0986 -0.9357 -0.7950
   14MPD2    H2  219   2.366   0.872  11.114 -0.8066 -0.4102 -2.2936
   14MPD2    H3  220   2.291   0.771  11.327 -1.9732 -1.2529 -0.7031
   14MPD2     N  221   1.990   1.101  11.414  0.3275  0.1811 -0.0759
   14MPD2    H5  222   1.957   1.194  11.390  0.4652  0.7535  1.9157
   14MPD2    N1  223   2.243   1.101  11.013 -0.2513  0.6133  0.0662
   14MPD2    H7  224   2.168   1.163  10.982 -0.7148 -0.8777 -1.7753
   15TCq1    O1  225   3.616   0.810   1.094  0.4267 -0.2050 -0.9220
   15TCq1    C1  226   3.651   0.700   1.031 -0.7922 -0.1111  0.5786
   15TCq1    O2  227   3.637   0.703   0.907  0.0351 -0.1810 -0.2409
   15TCq1    C2  228   3.727   0.609   1.116 -0.3590 -0.2411 -0.1430
   15TCq1    C3  229   3.734   0.632   1.249  0.0955  0.3672 -0.5259
   15TCq1    C4  230   3.843   0.595   1.324 -0.1044  0.4883  0.1144
   15TCq1    C5  231   3.945   0.527   1.262  0.7120  0.3980  0.3731
   15TCq1    C6  232   3.938   0.494   1.128  0.5488 -0.0300 -0.2085
   15TCq1    C7  233   3.831   0.546   1.056  0.9989  0.1327  0.7108
   15TCq1    C8  234   4.051   0.428   1.066 -0.3078 -0.0756 -0.3291
   15TCq1    O4  235   4.154   0.441   1.132  0.1551  0.1963  0.3602
   15TCq1    C9  236   3.853   0.634   1.462 -0.5701 -0.1288 -0.1491
   15TCq1    O5  237   3.953   0.597   1.525 -1.2082 -0.0196 -0.0514
   15TCq1    O6  238   3.763   0.714   1.502  0.5874 -0.7108 -0.2917
   15TCq1    H1  239   3.661   0.812   1.181 -0.5215  1.8828 -0.4874
   15TCq1    H2  240   3.645   0.670   1.298 -0.6654 -1.4861 -0.4767
   15TCq1    H3  241   4.028   0.483   1.316  0.0897  0.7832  1.6268
   15TCq1    H4  242   3.827   0.532   0.949 -0.9303 -0.3281  0.8505
   16MPD2     C  243   4.090   0.264   0.733 -0.0942  0.0848 -0.1148
   16MPD2    C1  244   4.130   0.327   0.852  0.2141  0.5083 -0.4223
   16MPD2    C2  245   4.265   0.335   0.880  0.0808  0.3991  0.2360
   16MPD2    C3  246   4.358   0.260   0.801  0.5062 -0.4992  0.1898
   16MPD2    C4  247   4.310   0.192   0.689  0.0996  0.4692 -1.1461
   16MPD2    C5  248   4.186   0.206   0.647 -0.6607  0.0064 -0.2460
   16MPD2     H  249   4.300   0.386   0.969 -2.4400  1.1927  0.7696
   16MPD2    H1  250   4.382   0.148   0.622 -0.6391 -0.1621 -1.5154
   16MPD2    H2  251   3.986   0.270   0.702 -0.5536 -1.1353  1.1956
   16MPD2    H3  252   4.163   0.154   0.555  0.4884  1.8777 -1.5881
   16MPD2     N  253   4.496   0.262   0.834  0.1731  0.1880  0.3205
   16MPD2    H5  254   4.529   0.321   0.910  1.1557  1.6538 -1.2559
   16MPD2    N1  255   4.026   0.378   0.940  0.1249  0.3618  0.0787
   16MPD2    H7  256   3.927   0.362   0.920  0.4395 -1.6447  0.1078
   17TCq1    O1  257   1.994   0.090  11.315  0.3518  0.2053  0.2591
   17TCq1    C1  258   1.976   4.721  11.216 -0.2253 -0.1985 -0.0033
   17TCq1    O2  259   1.931   4.610  11.236 -0.1575 -0.0723  0.1238
   17TCq1    C2  260   2.051   0.047  11.102  0.6511 -0.1695  0.6888
   17TCq1    C3  261   2.050   0.181  11.074 -0.2174 -0.2182 -0.2726
   17TCq1    C4  262   2.119   0.231  10.971  0.1816 -0.3651  0.2850
   17TCq1    C5  263   2.216   0.146  10.920  0.0717 -0.4151 -0.2554
   17TCq1    C6  264   2.209   0.013  10.948 -0.0450 -0.6455 -0.6722
   17TCq1    C7  265   2.117   4.680  11.035  0.4704  0.1102 -0.4800
   17TCq1    C8  266   2.318   4.646  10.911  0.2364  0.2338 -0.1404
   17TCq1    O4  267   2.284   4.528  10.893 -0.2159  0.2729 -0.5645
   17TCq1    C9  268   2.106   0.367  10.921  0.7345 -1.2719 -0.1220
   17TCq1    O5  269   2.181   0.401  10.819 -0.5593 -0.0423 -0.1351
   17TCq1    O6  270   2.013   0.439  10.967 -0.5135 -0.0719 -0.0308
   17TCq1    H1  271   2.044   0.172  11.298 -0.4408  0.6701  0.1941
   17TCq1    H2  272   1.988   0.253  11.125  2.2922  0.1769  2.2559
   17TCq1    H3  273   2.287   0.193  10.853 -0.9406  1.7789  0.2222
   17TCq1    H4  274   2.118   4.576  11.067 -2.7901  0.5441  1.0036
   18MPD2     C  275   2.571   4.520  10.801  0.7647 -0.3744  0.5551
   18MPD2    C1  276   2.553   4.658  10.832 -0.5809 -0.1468  0.0740
   18MPD2    C2  277   2.657   0.022  10.799 -0.2861  0.2058 -0.1411
   18MPD2    C3  278   2.770   4.702  10.740 -0.7292 -0.8120  0.7540
   18MPD2    C4  279   2.775   4.572  10.709  0.3081  0.3458  0.5777
   18MPD2    C5  280   2.682   4.478  10.742  0.3925 -0.2532  0.0784
   18MPD2     H  281   2.645   0.130  10.803  0.0344  0.2356 -0.0393
   18MPD2    H1  282   2.864   4.539  10.655  1.6468  2.9216  1.2441
   18MPD2    H2  283   2.498   4.441  10.815  0.3699 -0.0662  0.2336
   18MPD2    H3  284   2.715   4.376  10.727  1.7063  0.4135 -1.6128
   18MPD2     N  285   2.867   0.080  10.703  0.3487 -0.1918  0.2018
   18MPD2    H5  286   2.837   0.176  10.715 -1.6027 -0.9573  1.4367
   18MPD2    N1  287   2.433   4.717  10.883  0.7119  0.0212 -0.2085
   18MPD2    H7  288   2.431   0.091  10.914 -0.2459  0.1486 -0.6778
   19TMC2    C1  289   4.168   0.793  14.024  0.1745 -0.0749  0.1278
   19TMC2    C2  290   4.198   0.895  13.933 -0.6923 -0.1994  0.7041
   19TMC2    C3  291   4.091   0.971  13.888 -0.1776 -0.3006 -0.4803
   19TMC2    C4  292   4.045   0.784  14.079 -0.3723  0.6284 -0.1925
   19TMC2    C5  293   3.941   0.847  14.015 -0.3552  0.2176 -0.0260
   19TMC2    C6  294   3.962   0.949  13.925 -0.4573 -0.7417  0.6699
   19TMC2     C  295   4.284   0.717  14.068 -0.5589 -1.1173 -0.0128
   19TMC2     O  296   4.383   0.706  13.996  0.2679 -0.2004 -0.5945
   19TMC2     H  297   4.297   0.909  13.892 -0.3753 -0.4753  1.3771
   19TMC2    H1  298   4.020   0.717  14.160 -0.9845 -1.1076 -1.8183
   19TMC2    H2  299   3.881   1.012  13.891  0.9627 -0.0228 -1.3314
   19TMC2    C7  300   3.812   0.780  14.027 -0.3617  0.5809 -0.1866
   19TMC2    C8  301   4.109   1.077  13.789 -0.2120 -0.0259 -0.0339
   19TMC2    O1  302   3.816   0.687  14.107  0.2813 -0.0306 -0.0795
   19TMC2    O2  303   4.217   1.137  13.780 -0.0644  0.0532  0.3841
   19TMC2    O5  304   4.018   1.061  13.690 -0.2095 -0.4297  0.1590
   19TMC2    H5  305   3.956   0.991  13.720  0.6745 -0.9452  0.7882
   20MPD2     C  306   4.455   0.531  14.201 -0.2779 -0.1571  0.1850
   20MPD2    C1  307   4.377   0.622  14.270 -0.5115 -0.7698 -0.0745
   20MPD2    C2  308   4.395   0.633  14.404  0.0173 -0.4107  0.7068
   20MPD2    C3  309   4.495   0.562  14.469 -0.6168 -0.3225  0.2119
   20MPD2    C4  310   4.570   0.465  14.396  0.1006  0.4264  0.1088
   20MPD2    C5  311   4.549   0.459  14.262  0.0410  0.1226  0.5654
   20MPD2     H  312   4.333   0.703  14.459  1.0215  2.2149 -1.5158
   20MPD2    H1  313   4.650   0.415  14.450 -0.3208 -1.5593 -1.0969
   20MPD2    H2  314   4.441   0.516  14.095  0.4096  0.2792  0.0286
   20MPD2    H3  315   4.613   0.400  14.198  2.5990  1.6366  1.7382
   20MPD2     N  316   4.523   0.580  14.601  0.3779  0.1428 -0.0576
   20MPD2    H5  317   4.596   0.524  14.643  1.5649 -1.0066 -3.6322
   20MPD2    N1  318   4.276   0.694  14.204  0.3616  0.7442 -0.7255
   20MPD2    H7  319   4.212   0.756  14.252  0.5905  1.5443 -1.4398
   21MPD2     C  320   1.475   0.997  13.832  0.4908 -0.0569  0.3867
   21MPD2    C1  321   1.579   0.990  13.921 -0.0165 -0.2735  0.5412
   21MPD2    C2  322   1.563   1.059  14.041  0.6917 -0.0127  0.5056
   21MPD2    C3  323   1.453   1.139  14.072 -0.2258 -0.2905  0.3029
   21MPD2    C4  324   1.358   1.150  13.975 -0.4338 -0.0484  0.5809
   21MPD2    C5  325   1.373   1.081  13.861  0.1881 -0.6911 -0.2404
   21MPD2     H  326   1.644   1.050  14.112  0.9509 -1.1164  0.0761
   21MPD2    H1  327   1.268   1.206  13.994  0.2006  1.5976 -1.3303
   21MPD2    H2  328   1.472   0.936  13.742 -1.9440 -0.7262  0.9186
   21MPD2    H3  329   1.291   1.071  13.792  0.9891  1.9774 -1.5722
   21MPD2     N  330   1.435   1.212  14.190  0.2204  0.0641  0.3145
   21MPD2    H5  331   1.365   1.286  14.186  0.5210  0.4122  1.6924
   21MPD2    N1  332   1.688   0.908  13.902  0.4787  0.4969  0.7339
   21MPD2    H7  333   1.757   0.907  13.977 -0.9941  0.3251  2.0923
   22TCq2    C1  334   1.509   1.197  14.309 -0.8643 -0.6796  0.1534
   22TCq2    O2  335   1.590   1.113  14.336  0.2421  0.4506  0.1077
   22TCq2    C2  336   1.484   1.309  14.398  0.2628 -0.2707  0.3756
   22TCq2    C3  337   1.504   1.293  14.529 -0.4637  0.2539 -0.1188
   22TCq2    C4  338   1.512   1.400  14.612  0.5001  0.0441 -0.0800
   22TCq2    C5  339   1.508   1.528  14.555 -0.1066  0.3191  0.2954
   22TCq2    C6  340   1.502   1.538  14.418  0.0031  0.6397 -0.2900
   22TCq2    C7  341   1.489   1.435  14.336  0.1865  0.4562  0.2963
   22TCq2    C8  342   1.481   1.672  14.367  0.4026 -0.0789 -0.8920
   22TCq2    O4  343   1.526   1.769  14.426  0.3477  0.6256 -0.1625
   22TCq2    C9  344   1.523   1.398  14.755  0.7760  0.2576 -0.4569
   22TCq2    O5  345   1.578   1.296  14.800  0.3192  0.2530  0.4169
   22TCq2    O6  346   1.458   1.485  14.824  0.3470 -0.1069  0.2094
   22TCq2    H2  347   1.498   1.194  14.571  0.3911  0.4946  0.5649
   22TCq2    H3  348   1.525   1.613  14.620 -0.4500 -0.6713  1.6944
   22TCq2    H4  349   1.491   1.455  14.230  0.1858  0.9282  0.3874
   23MPD2     C  350   3.424   2.148  14.600  0.3992  0.0343  0.5598
   23MPD2    C1  351   3.294   2.125  14.639 -0.2871 -0.1107 -0.0043
   23MPD2    C2  352   3.190   2.210  14.595 -0.1821 -0.1899 -0.9819
   23MPD2    C3  353   3.217   2.327  14.525  0.0737 -0.1907 -0.3579
   23MPD2    C4  354   3.349   2.346  14.491 -0.8036  0.3094  0.0219
   23MPD2    C5  355   3.448   2.263  14.526 -0.5354  0.0043  0.1223
   23MPD2     H  356   3.095   2.193  14.643  0.8843  1.5639  1.7714
   23MPD2    H1  357   3.371   2.428  14.423  2.5123 -0.9636 -0.4785
   23MPD2    H2  358   3.503   2.082  14.633  1.7207  0.6441 -1.3680
   23MPD2    H3  359   3.553   2.286  14.507 -0.7902  1.4034  0.4023
   23MPD2     N  360   3.118   2.418  14.486 -0.8826  0.0529 -1.1292
   23MPD2    H5  361   3.154   2.509  14.456  0.4797  0.2989  1.2461
   23MPD2    N1  362   3.256   2.011  14.716 -0.7203 -0.3154 -0.4034
   23MPD2    H7  363   3.157   2.012  14.736 -0.0856  0.3190  2.7497
   24TCq2    C1  364   2.988   2.391  14.516 -0.0107 -0.4272  0.7469
   24TCq2    O2  365   2.926   2.284  14.514  0.2566 -0.5113  0.5309
   24TCq2    C2  366   2.918   2.512  14.498 -0.4553  0.3987  0.0721
   24TCq2    C3  367   2.816   2.528  14.586  0.0803  0.1367  0.1749
   24TCq2    C4  368   2.701   2.599  14.551  0.2857 -0.2340  0.2331
   24TCq2    C5  369   2.687   2.642  14.427 -0.8259  0.2309  0.3207
   24TCq2    C6  370   2.787   2.622  14.331 -0.1804 -0.3113  0.3950
   24TCq2    C7  371   2.904   2.555  14.365  0.1776  0.0032  0.3001
   24TCq2    C8  372   2.758   2.637  14.189  0.1752 -0.2754  0.3566
   24TCq2    O4  373   2.849   2.610  14.111 -0.1326  0.0396  0.0176
   24TCq2    C9  374   2.596   2.612  14.648  0.2799 -0.7342  0.3593
   24TCq2    O5  375   2.635   2.623  14.769  0.0944 -0.0913  0.0845
   24TCq2    O6  376   2.491   2.663  14.611 -0.2392  0.4605 -0.1148
   24TCq2    H2  377   2.823   2.485  14.685  1.8847  0.0469  0.0022
   24TCq2    H3  378   2.597   2.697  14.402 -0.6420  0.3818 -0.0061
   24TCq2    H4  379   2.974   2.532  14.286 -0.8864  1.0809 -0.9744
   25TMC2    C1  380   2.380   4.000  11.276 -0.3112 -0.3788 -1.3943
   25TMC2    C2  381   2.513   3.991  11.309  0.2352  0.4761  0.0685
   25TMC2    C3  382   2.556   4.041  11.430  0.4407 -0.4659 -0.2472
   25TMC2    C4  383   2.285   4.045  11.367 -0.0970 -0.4936 -0.2921
   25TMC2    C5  384   2.334   4.090  11.482  0.8341  0.0682 -0.3856
   25TMC2    C6  385   2.466   4.094  11.514  0.5361  0.5993 -0.2424
   25TMC2     C  386   2.339   3.977  11.137 -0.9171 -0.1455  0.5393
   25TMC2     O  387   2.428   3.938  11.060  0.1785 -0.3318  0.2728
   25TMC2     H  388   2.579   3.938  11.242 -0.9237 -1.8695  0.8033
   25TMC2    H1  389   2.178   4.033  11.350 -0.3205  0.6729  0.2368
   25TMC2    H2  390   2.484   4.149  11.606  0.3527 -0.1188  0.2287
   25TMC2    C7  391   2.246   4.150  11.584 -0.7285 -0.0579  0.5197
   25TMC2    C8  392   2.688   4.086  11.434 -1.0599  0.0162  0.3823
   25TMC2    O1  393   2.277   4.116  11.698 -0.8667 -0.4991 -0.1898
   25TMC2    O2  394   2.723   4.177  11.366  0.2847  0.3568 -0.4872
   25TMC2    O5  395   2.745   4.039  11.552 -0.3250 -0.4068 -0.1325
   25TMC2    H5  396   2.696   3.970  11.601  1.2036 -0.6223  1.0900
   26MPD2     C  397   1.985   3.867  10.782  0.8224 -1.1406 -0.4420
   26MPD2    C1  398   1.922   3.912  10.891  0.1886 -0.2287  0.0398
   26MPD2    C2  399   1.992   3.961  10.997  0.6965 -0.4656  0.5983
   26MPD2    C3  400   2.132   3.966  10.994 -0.2925  0.2710 -0.9522
   26MPD2    C4  401   2.196   3.909  10.882 -0.8286 -0.3697  0.2643
   26MPD2    C5  402   2.120   3.877  10.771 -0.4972  0.0706 -0.4668
   26MPD2     H  403   1.942   4.000  11.085 -1.0283  0.5569 -0.8139
   26MPD2    H1  404   2.303   3.909  10.866 -1.1097  1.4975 -1.7036
   26MPD2    H2  405   1.930   3.833  10.695 -0.6611  0.1600 -0.0116
   26MPD2    H3  406   2.159   3.843  10.676 -1.5347 -0.0493 -0.8484
   26MPD2     N  407   2.203   3.997  11.117 -0.2367 -0.2318  0.3883
   26MPD2    H5  408   2.158   4.049  11.192  1.5361  0.9929  0.5984
   26MPD2    N1  409   1.780   3.900  10.890  0.3537  0.3293 -0.2154
   26MPD2    H7  410   1.745   3.835  10.821 -0.1799 -0.3539  0.6929
   27TMC2    C1  411   0.784   1.608  11.873  0.4262  0.1034  0.6727
   27TMC2    C2  412   0.906   1.548  11.889 -0.0896 -0.1240 -0.4910
   27TMC2    C3  413   1.005   1.633  11.923  0.2374  0.5427  0.2963
   27TMC2    C4  414   0.762   1.735  11.919  0.4680 -0.1930  0.3325
   27TMC2    C5  415   0.869   1.817  11.950 -0.2869 -0.2675  0.0039
   27TMC2    C6  416   0.993   1.765  11.951  0.2704 -0.0505  0.2107
   27TMC2     C  417   0.671   1.509  11.871  0.4582 -0.1184  0.1733
   27TMC2     O  418   0.690   1.391  11.848 -0.1934 -0.3718  0.3106
   27TMC2     H  419   0.921   1.441  11.881 -2.3318 -0.5205  0.6821
   27TMC2    H1  420   0.667   1.786  11.918  1.6429  2.0179  0.5607
   27TMC2    H2  421   1.072   1.824  11.997 -0.6615  0.4528  1.1976
   27TMC2    C7  422   0.826   1.869  12.081  0.2680  0.5974  0.3687
   27TMC2    C8  423   1.138   1.577  11.950  0.2974 -0.2171  0.7248
   27TMC2    O1  424   0.759   1.786  12.141  0.0423  0.1783 -0.0798
   27TMC2    O2  425   1.195   1.600  12.058  0.5220 -0.6177 -0.3919
   27TMC2    O5  426   1.183   1.501  11.843  1.0784 -0.7398 -0.0906
   27TMC2    H5  427   1.116   1.492  11.772 -0.1727 -1.7435  1.2240
   28MPD2     C  428   0.179   1.404  11.967  0.9197  0.8921 -0.0767
   28MPD2    C1  429   0.221   1.503  12.050  0.3287  0.7782  0.6343
   28MPD2    C2  430   0.350   1.547  12.040 -0.5189  0.0257 -0.5414
   28MPD2    C3  431   0.432   1.502  11.935 -0.6160  0.1721  0.3461
   28MPD2    C4  432   0.393   1.391  11.854 -0.1098  0.6954  0.4725
   28MPD2    C5  433   0.262   1.349  11.872  0.6481  0.9364 -0.7267
   28MPD2     H  434   0.385   1.624  12.109 -2.0635  0.2289  0.0148
   28MPD2    H1  435   0.466   1.345  11.788 -1.0474  0.8967 -0.7000
   28MPD2    H2  436   0.080   1.359  11.969  0.7804  1.3022  1.8721
   28MPD2    H3  437   0.222   1.273  11.806  2.6485 -1.1896  0.4877
   28MPD2     N  438   0.560   1.564  11.924 -0.1675  0.0979 -0.0146
   28MPD2    H5  439   0.576   1.653  11.970 -1.5422  0.0465  0.5741
   28MPD2    N1  440   0.119   1.554  12.138  0.3324 -0.3273  0.1094
   28MPD2    H7  441   0.024   1.518  12.129 -0.5524  1.4594  2.2020
   29MPD2     C  442   0.276   3.976  14.037  0.2080  0.3852 -0.3303
   29MPD2    C1  443   0.404   3.943  14.081 -0.3563  0.2557  0.1450
   29MPD2    C2  444   0.484   4.045  14.119 -0.7964 -0.0907  0.0002
   29MPD2    C3  445   0.429   4.175  14.136  0.4932 -0.4353  0.4163
   29MPD2    C4  446   0.304   4.206  14.099 -0.0205 -0.3368 -0.2528
   29MPD2    C5  447   0.226   4.109  14.041 -0.4577  1.0594  0.1992
   29MPD2     H  448   0.584   4.020  14.154 -1.2962 -2.1415 -0.0327
   29MPD2    H1  449   0.262   4.300  14.134 -0.6191 -0.0114 -1.8530
   29MPD2    H2  450   0.216   3.897  13.993 -0.2114  0.5470 -0.0471
   29MPD2    H3  451   0.128   4.131  13.999 -0.7514 -2.8463 -1.1763
   29MPD2     N  452   0.508   4.281  14.186  0.2312  0.0402  0.4175
   29MPD2    H5  453   0.459   4.368  14.203  0.9925  0.7498 -1.0605
   29MPD2    N1  454   0.458   3.815  14.080  0.6252 -0.0714  0.0905
   29MPD2    H7  455   0.557   3.812  14.104  0.8910 -1.7294 -1.2018
   30TCq2    C1  456   0.640   4.275  14.217  0.0384  0.0078 -0.7170
   30TCq2    O2  457   0.732   4.199  14.191 -0.6872 -0.8556  0.7507
   30TCq2    C2  458   0.668   4.396  14.291  0.7022 -0.1002 -0.5045
   30TCq2    C3  459   0.597   4.424  14.405  0.0137  0.5459  0.0824
   30TCq2    C4  460   0.606   4.547  14.454  0.3082 -0.4287 -0.1195
   30TCq2    C5  461   0.670   4.651  14.389  0.0676  0.0443 -0.3860
   30TCq2    C6  462   0.740   4.617  14.275  0.3907  0.4198 -0.3407
   30TCq2    C7  463   0.736   4.492  14.221  0.7896 -0.3063 -0.1519
   30TCq2    C8  464   0.828   4.715  14.217 -0.3913 -0.9301 -0.6190
   30TCq2    O4  465   0.842   4.710  14.098  0.2858 -0.0476 -0.5634
   30TCq2    C9  466   0.551   4.575  14.584 -0.1482 -0.3664 -0.2354
   30TCq2    O5  467   0.595   4.683  14.632 -0.2700 -0.2558 -0.2846
   30TCq2    O6  468   0.475   4.486  14.635  0.1600  0.4505 -0.1328
   30TCq2    H2  469   0.560   4.343  14.467  0.8663 -0.1174 -0.2864
   30TCq2    H3  470   0.661   0.029  14.427 -0.1494  0.0903 -0.5608
   30TCq2    H4  471   0.776   4.476  14.121 -1.0060  0.1858 -0.9538
   31MPD2     C  472   3.226   2.645  14.727 -1.1165  0.0800  0.0593
   31MPD2    C1  473   3.116   2.720  14.754  0.2301 -0.3351 -0.0794
   31MPD2    C2  474   3.022   2.682  14.854  0.2365  0.1682  0.4801
   31MPD2    C3  475   3.047   2.580  14.934 -0.0680 -0.4810 -0.1989
   31MPD2    C4  476   3.163   2.505  14.912 -0.1447  0.1515 -0.1162
   31MPD2    C5  477   3.247   2.542  14.809  0.2654 -1.1401 -0.0619
   31MPD2     H  478   2.937   2.749  14.862 -0.7014 -1.0170  0.4228
   31MPD2    H1  479   3.192   2.426  14.981  0.3790  0.4590  0.0199
   31MPD2    H2  480   3.300   2.672  14.652  0.4863  2.4990  2.5038
   31MPD2    H3  481   3.334   2.481  14.792 -0.8801 -2.5554 -0.8127
   31MPD2     N  482   2.969   2.545  15.048 -0.3256 -0.5703  0.6837
   31MPD2    H5  483   2.997   2.462  15.101  0.7055 -1.0201 -0.5684
   31MPD2    N1  484   3.099   2.836  14.670 -0.5947  0.7812  0.2325
   31MPD2    H7  485   3.181   2.868  14.621  0.2554 -1.6134  0.0793
   32TCq2    C1  486   2.848   2.608  15.085  0.0931 -0.2015 -0.0663
   32TCq2    O2  487   2.786   2.700  15.029 -0.4298  0.1955  0.4440
   32TCq2    C2  488   2.787   2.543  15.201  0.2865  0.2213 -0.0409
   32TCq2    C3  489   2.652   2.556  15.227  0.5958  0.0877  0.2260
   32TCq2    C4  490   2.593   2.514  15.337 -0.7688  0.2681 -0.4628
   32TCq2    C5  491   2.671   2.469  15.434 -0.5536  0.3383  0.0354
   32TCq2    C6  492   2.808   2.470  15.422  0.3158  0.4022  0.4648
   32TCq2    C7  493   2.866   2.500  15.301 -0.0070  0.6096  0.3120
   32TCq2    C8  494   2.881   2.410  15.536 -0.0392  0.3444  0.5286
   32TCq2    O4  495   2.818   2.343  15.614 -0.0338  0.3864 -0.0383
   32TCq2    C9  496   2.453   2.529  15.360  0.4080  0.1325  0.4867
   32TCq2    O5  497   2.402   2.468  15.459  0.1034 -0.4725 -0.2839
   32TCq2    O6  498   2.396   2.606  15.278 -0.4026  0.0894 -0.3751
   32TCq2    H2  499   2.588   2.604  15.153 -0.7901  1.2708  2.1963
   32TCq2    H3  500   2.626   2.440  15.528  2.2588 -0.8674  0.9975
   32TCq2    H4  501   2.967   2.468  15.281  0.3163  0.5227  2.1063
   33MPD2     C  502   3.142   0.857  10.876  0.1388 -0.0770 -0.3859
   33MPD2    C1  503   3.061   0.767  10.812 -0.2751 -0.1355 -0.0148
   33MPD2    C2  504   2.936   0.802  10.764 -0.2185 -0.2338  0.4266
   33MPD2    C3  505   2.903   0.936  10.764  0.6755 -0.4251  0.5515
   33MPD2    C4  506   2.984   1.026  10.836 -0.1777  0.0233  0.3395
   33MPD2    C5  507   3.103   0.986  10.890  0.3064 -0.7697  0.0880
   33MPD2     H  508   2.886   0.742  10.688  1.5552 -1.2189  0.0467
   33MPD2    H1  509   2.965   1.133  10.834 -0.0406  0.0560  0.9557
   33MPD2    H2  510   3.227   0.824  10.934 -0.0949 -1.1898 -0.6765
   33MPD2    H3  511   3.157   1.064  10.942  1.6732 -0.5363 -1.6718
   33MPD2     N  512   2.795   0.993  10.689  0.3857 -0.6148 -0.0359
   33MPD2    H5  513   2.798   1.094  10.679  0.8089 -0.4518  1.6814
   33MPD2    N1  514   3.105   0.636  10.797  0.3785  0.1639 -0.0301
   33MPD2    H7  515   3.199   0.616  10.829  0.7359  0.5851 -0.8156
   34TCq2    C1  516   2.686   0.925  10.641  0.1551  0.1382  0.3375
   34TCq2    O2  517   2.644   0.809  10.665  0.3375 -0.3021 -0.3544
   34TCq2    C2  518   2.598   1.010  10.563  0.2901 -0.0064  0.1482
   34TCq2    C3  519   2.468   0.972  10.564 -0.9953 -0.2986  0.2210
   34TCq2    C4  520   2.385   1.046  10.483 -0.1159  0.0993 -0.5581
   34TCq2    C5  521   2.429   1.135  10.397  0.1615  0.8988  0.1684
   34TCq2    C6  522   2.561   1.175  10.399  0.2370 -0.2170  0.4200
   34TCq2    C7  523   2.647   1.109  10.479  0.2310  0.2654 -0.4768
   34TCq2    C8  524   2.613   1.260  10.290  0.0888  0.1256 -0.9182
   34TCq2    O4  525   2.736   1.265  10.279  0.4778  0.6662  0.5026
   34TCq2    C9  526   2.254   0.995  10.473  0.2435  0.3794 -0.4444
   34TCq2    O5  527   2.172   1.061  10.406 -0.0290  0.3099 -0.2782
   34TCq2    O6  528   2.228   0.889  10.532 -0.1203  0.2170 -0.5032
   34TCq2    H2  529   2.438   0.877  10.608 -1.7756 -0.3577 -0.4325
   34TCq2    H3  530   2.361   1.161  10.317  1.4310 -2.1025 -1.8466
   34TCq2    H4  531   2.755   1.112  10.466 -0.0536 -0.1741 -3.0202
   35MPD2     C  532   4.090   2.032  11.472  0.4863 -0.4788 -0.1406
   35MPD2    C1  533   4.034   2.011  11.596  0.7301 -0.0314 -0.9915
   35MPD2    C2  534   3.903   2.042  11.619  0.5233 -0.3793  0.4186
   35MPD2    C3  535   3.822   2.092  11.514  0.0409  0.1130  0.2811
   35MPD2    C4  536   3.880   2.116  11.390  0.0139 -0.3125 -0.0707
   35MPD2    C5  537   4.014   2.088  11.371 -0.2307  0.5840  0.1385
   35MPD2     H  538   3.863   2.025  11.718  0.8178 -0.1061  0.5851
   35MPD2    H1  539   3.823   2.148  11.304 -1.2570  1.0429  1.2723
   35MPD2    H2  540   4.194   2.003  11.458  0.8849  0.9751 -0.1446
   35MPD2    H3  541   4.059   2.106  11.273 -0.2282  2.1527  0.4254
   35MPD2     N  542   3.687   2.116  11.544  0.6292 -0.1892 -0.5512
   35MPD2    H5  543   3.650   2.095  11.636 -1.1651  0.9952 -1.0023
   35MPD2    N1  544   4.128   1.965  11.697 -0.2280 -0.0840 -0.1911
   35MPD2    H7  545   4.222   1.943  11.667  0.7463  1.2120  1.8813
   36TCq2    C1  546   3.604   2.180  11.464  0.1751  0.4220 -0.2055
   36TCq2    O2  547   3.621   2.246  11.358  0.0109 -0.3217  0.3715
   36TCq2    C2  548   3.474   2.183  11.523 -0.2593 -0.7530  0.0455
   36TCq2    C3  549   3.395   2.297  11.501 -0.1519  0.2680  0.6316
   36TCq2    C4  550   3.268   2.303  11.551 -0.0955  0.3336  0.4298
   36TCq2    C5  551   3.218   2.202  11.629 -0.1692  0.4214  0.1618
   36TCq2    C6  552   3.299   2.089  11.646 -0.3876  0.9414 -0.0244
   36TCq2    C7  553   3.423   2.076  11.597  0.2462 -0.6499 -0.1929
   36TCq2    C8  554   3.228   1.983  11.725 -0.1627 -0.5550 -0.1737
   36TCq2    O4  555   3.111   1.993  11.760  0.4565  0.1423 -0.0701
   36TCq2    C9  556   3.178   2.410  11.522  0.1277 -0.0532 -0.3281
   36TCq2    O5  557   3.201   2.484  11.421  0.0189 -0.0109  0.0541
   36TCq2    O6  558   3.072   2.416  11.586 -0.4778 -0.7620 -0.2788
   36TCq2    H2  559   3.430   2.386  11.451 -0.8249  0.4295  0.4528
   36TCq2    H3  560   3.119   2.213  11.671  1.1138  3.9346  2.2900
   36TCq2    H4  561   3.484   1.987  11.602  0.6830 -0.3088  0.4973
   37TMC2    C1  562   1.700   2.166  11.364  0.0302 -0.7930 -0.5768
   37TMC2    C2  563   1.647   2.249  11.269  0.5764 -0.5291  0.3317
   37TMC2    C3  564   1.727   2.301  11.169  0.4234  0.7178 -0.2864
   37TMC2    C4  565   1.833   2.136  11.362 -0.2864 -0.2782 -0.0710
   37TMC2    C5  566   1.915   2.185  11.261 -0.8018  0.4011 -0.1141
   37TMC2    C6  567   1.864   2.261  11.161  0.2265 -1.4389 -0.1474
   37TMC2     C  568   1.608   2.099  11.462  0.2195 -0.0121  0.5641
   37TMC2     O  569   1.489   2.121  11.440 -0.1930 -0.0355  0.4443
   37TMC2     H  570   1.546   2.285  11.287  0.4024 -0.9492  0.2008
   37TMC2    H1  571   1.876   2.076  11.441 -0.6571 -0.4264  0.0177
   37TMC2    H2  572   1.929   2.306  11.087 -1.1504  2.5218  1.0088
   37TMC2    C7  573   2.057   2.164  11.282 -0.2866  0.4727 -0.7603
   37TMC2    C8  574   1.672   2.400  11.083 -0.0059 -0.1090  0.2784
   37TMC2    O1  575   2.088   2.120  11.390 -0.2903 -0.0730  0.0139
   37TMC2    O2  576   1.559   2.446  11.110  0.3996 -0.3752  0.7595
   37TMC2    O5  577   1.715   2.381  10.952 -0.2960  0.2509 -0.4280
   37TMC2    H5  578   1.777   2.306  10.943  0.9927  1.3618 -0.6651
   38MPD2     C  579   1.493   1.810  11.882 -0.1848  0.7172  0.5909
   38MPD2    C1  580   1.631   1.827  11.871  0.3802 -0.3201 -0.1742
   38MPD2    C2  581   1.682   1.889  11.762  0.0882 -0.4626  0.5815
   38MPD2    C3  582   1.607   1.958  11.672  0.1020  0.3159  0.3708
   38MPD2    C4  583   1.473   1.939  11.676 -0.1001 -0.0912 -0.3203
   38MPD2    C5  584   1.420   1.857  11.773  0.0247 -0.4154  0.1494
   38MPD2     H  585   1.789   1.883  11.745 -0.3532 -5.0239 -0.6743
   38MPD2    H1  586   1.407   1.988  11.605 -0.9132 -1.2844 -0.3816
   38MPD2    H2  587   1.446   1.759  11.965 -1.9587  0.2745 -0.6962
   38MPD2    H3  588   1.313   1.840  11.777 -0.0849  0.2087 -0.0733
   38MPD2     N  589   1.670   2.030  11.570 -0.2227 -0.3770 -0.3377
   38MPD2    H5  590   1.771   2.033  11.572 -0.2120 -1.5219  0.6974
   38MPD2    N1  591   1.720   1.773  11.971 -0.6191 -0.1516  0.0222
   38MPD2    H7  592   1.816   1.804  11.964 -1.0724  1.0545 -0.8226
   39MPD2     C  593   0.264   4.627   1.218 -0.5858  0.0710 -0.0863
   39MPD2    C1  594   0.183   0.008   1.253  0.7788 -0.3150 -0.3579
   39MPD2    C2  595   0.051   4.721   1.221  0.0200 -0.3330 -0.1323
   39MPD2    C3  596   4.718   4.609   1.158 -0.6157 -0.0180  0.0519
   39MPD2    C4  597   0.075   4.507   1.120  0.3242 -0.5112 -0.6467
   39MPD2    C5  598   0.207   4.512   1.162  1.3623  0.0568  0.3745
   39MPD2     H  599   4.714   0.086   1.241  2.5844  0.8241  2.4112
   39MPD2    H1  600   0.049   4.414   1.071  0.3785 -1.0066  0.2673
   39MPD2    H2  601   0.369   4.627   1.244  0.1649  1.5863 -3.1480
   39MPD2    H3  602   0.270   4.424   1.151  0.4379 -0.3100 -2.1392
   39MPD2     N  603   4.588   4.607   1.105 -0.5545 -0.1395  0.5214
   39MPD2    H5  604   4.567   4.531   1.041  0.8678  0.6858 -0.9343
   39MPD2    N1  605   0.246   0.120   1.305  0.4767 -0.2451 -0.1741
   39MPD2    H7  606   0.347   0.112   1.309  0.4900  1.1533  1.8823
   40TCq2    C1  607   0.181   0.231   1.359 -0.3809  0.5778  0.1441
   40TCq2    O2  608   0.060   0.264   1.371 -0.3394 -0.5081 -0.2656
   40TCq2    C2  609   0.277   0.320   1.425 -0.2069  0.2956  0.4235
   40TCq2    C3  610   0.231   0.421   1.516  0.0264  0.2992 -0.1724
   40TCq2    C4  611   0.325   0.489   1.594  0.2344 -0.7896 -0.4159
   40TCq2    C5  612   0.454   0.476   1.558 -0.5350 -0.5813 -0.2202
   40TCq2    C6  613   0.494   0.395   1.450  0.3248  0.3363 -0.0738
   40TCq2    C7  614   0.405   0.318   1.380  0.6002 -0.0418 -0.7542
   40TCq2    C8  615   0.632   0.388   1.407 -0.0503  0.1644 -0.1205
   40TCq2    O4  616   0.670   0.292   1.337 -0.5504  0.0479  0.2797
   40TCq2    C9  617   0.288   0.568   1.709 -0.3612  0.1110 -0.1884
   40TCq2    O5  618   0.379   0.650   1.742  0.0946  0.1091 -1.4231
   40TCq2    O6  619   0.180   0.545   1.771  0.7269 -0.0769  1.2621
   40TCq2    H2  620   0.128   0.427   1.550 -0.1314  2.8679 -1.0699
   40TCq2    H3  621   0.532   0.525   1.615 -0.4980  0.3451 -1.0461
   40TCq2    H4  622   0.438   0.272   1.287 -0.9766 -2.7137  0.0052
   41TMC2    C1  623   3.936   2.156  13.660  0.1838  0.1270  0.1410
   41TMC2    C2  624   3.997   2.280  13.628 -0.2181  0.9842 -0.8317
   41TMC2    C3  625   4.014   2.305  13.501  0.4134  0.6307 -1.1394
   41TMC2    C4  626   3.895   2.075  13.562  0.0694 -0.3252 -0.4276
   41TMC2    C5  627   3.902   2.118  13.432  0.5003  0.5744 -0.2757
   41TMC2    C6  628   3.953   2.239  13.396  0.1032 -0.9172 -0.2302
   41TMC2     C  629   3.913   2.133  13.801 -0.9479 -0.1352 -0.0483
   41TMC2     O  630   3.929   2.235  13.865  0.3757 -0.0855  0.4759
   41TMC2     H  631   4.036   2.355  13.696 -1.4327  0.7485  0.1268
   41TMC2    H1  632   3.834   1.990  13.588  0.5925 -0.7288 -0.5179
   41TMC2    H2  633   3.962   2.269  13.292  2.6731  0.0833  0.2805
   41TMC2    C7  634   3.782   2.070  13.352  0.4446 -0.0823  0.3520
   41TMC2    C8  635   4.075   2.433  13.468 -0.2368 -0.2836 -0.3214
   41TMC2    O1  636   3.677   2.036  13.402  0.1472 -0.0076  0.2746
   41TMC2    O2  637   4.173   2.470  13.526 -0.2465  0.3511 -0.3560
   41TMC2    O5  638   4.008   2.497  13.365  0.0870  0.0801  0.3356
   41TMC2    H5  639   3.925   2.452  13.336  0.7306 -0.9248  0.0348
   42MPD2     C  640   3.883   1.806  13.967 -0.3099  0.4328  0.0994
   42MPD2    C1  641   3.895   1.943  13.959 -0.2583  0.1112 -0.4588
   42MPD2    C2  642   3.884   2.017  14.077  0.6116 -0.3195  0.0797
   42MPD2    C3  643   3.887   1.955  14.197  0.6311  0.1551 -0.0326
   42MPD2    C4  644   3.881   1.820  14.204  0.4880  0.1326 -0.1038
   42MPD2    C5  645   3.881   1.749  14.087 -0.0498 -0.3528  0.2481
   42MPD2     H  646   3.890   2.124  14.063  1.5562 -0.4357 -0.3787
   42MPD2    H1  647   3.883   1.763  14.296  1.2864 -2.5001 -1.7490
   42MPD2    H2  648   3.874   1.738  13.883 -0.5385 -1.7747  1.9136
   42MPD2    H3  649   3.877   1.641  14.091  4.1939 -0.5046 -0.3727
   42MPD2     N  650   3.888   2.026  14.320  0.1790 -0.2272  0.1833
   42MPD2    H5  651   3.877   1.975  14.407  0.8435  1.4080  1.2275
   42MPD2    N1  652   3.908   2.000  13.830 -0.7455  0.9806  0.4116
   42MPD2    H7  653   3.911   1.940  13.748  0.2144  0.1677  1.0508
   43MPD2     C  654   4.532   0.754   0.448  0.1662 -0.0637  0.4565
   43MPD2    C1  655   4.647   0.827   0.474 -0.0640 -0.5037  0.0029
   43MPD2    C2  656   4.631   0.950   0.531 -0.3917 -0.8845 -0.6914
   43MPD2    C3  657   4.513   0.996   0.587  1.0852  0.0162  0.1526
   43MPD2    C4  658   4.406   0.916   0.572  0.2844 -0.2786 -0.2412
   43MPD2    C5  659   4.420   0.799   0.503 -0.6839  0.1271 -0.0002
   43MPD2     H  660   4.714   1.019   0.524 -0.3303 -0.8000  0.9169
   43MPD2    H1  661   4.307   0.944   0.607 -0.3487 -1.5354 -1.0051
   43MPD2    H2  662   4.532   0.663   0.390 -1.7297  0.0946  0.2026
   43MPD2    H3  663   4.335   0.735   0.480  1.2799 -2.4796 -0.0169
   43MPD2     N  664   4.493   1.119   0.646 -0.2649 -0.2411 -0.0027
   43MPD2    H5  665   4.398   1.147   0.669  0.2377  1.5242 -0.0283
   43MPD2    N1  666   0.047   0.785   0.435  0.6031 -0.0732 -0.3044
   43MPD2    H7  667   0.132   0.832   0.464  0.3788  1.7231 -2.5905
   44TCq2    C1  668   4.694   1.588   0.940  0.5797 -0.3944 -0.0268
   44TCq2    O2  669   4.669   1.702   0.980 -0.2399 -0.6755  0.3543
   44TCq2    C2  670   4.604   1.515   0.854 -0.2267  0.6116  0.3795
   44TCq2    C3  671   4.473   1.555   0.858  0.0079  0.6905 -0.3045
   44TCq2    C4  672   4.380   1.488   0.787  0.4750 -0.1767 -0.6068
   44TCq2    C5  673   4.421   1.376   0.712  0.3240 -1.1093 -0.1848
   44TCq2    C6  674   4.549   1.336   0.724  0.4199  0.2883 -0.6376
   44TCq2    C7  675   4.648   1.404   0.792 -0.5445  0.2008  0.7488
   44TCq2    C8  676   4.593   1.211   0.655  0.6352 -0.4815  0.3560
   44TCq2    O4  677   4.713   1.207   0.634  0.3727  0.2345  0.1885
   44TCq2    C9  678   4.246   1.542   0.800 -0.4461 -0.3201  0.3493
   44TCq2    O5  679   4.212   1.595   0.910  0.2653 -0.4485  0.3712
   44TCq2    O6  680   4.181   1.547   0.689 -0.5828 -0.1223  0.0594
   44TCq2    H2  681   4.444   1.640   0.917 -1.5684 -1.0721  1.4748
   44TCq2    H3  682   4.346   1.329   0.648 -0.7507 -0.1250  0.3475
   44TCq2    H4  683   0.027   1.367   0.796 -0.9235 -1.0524 -1.0785
   45TMC2    C1  684   0.995   2.332   9.582  0.1142 -1.0587 -0.2251
   45TMC2    C2  685   1.091   2.317   9.681  0.3750 -0.4465 -0.0570
   45TMC2    C3  686   1.128   2.433   9.738  1.0458 -0.8754  0.0966
   45TMC2    C4  687   0.943   2.446   9.542 -0.5107 -0.2611 -0.1652
   45TMC2    C5  688   0.994   2.563   9.596 -0.5166 -0.4555  0.2682
   45TMC2    C6  689   1.084   2.554   9.697  0.2615 -0.1238  0.8376
   45TMC2     C  690   0.917   2.209   9.554 -0.0394  0.1223 -0.2015
   45TMC2     O  691   0.962   2.108   9.603 -0.4946  0.9480  0.0974
   45TMC2     H  692   1.119   2.219   9.718  0.4005 -0.1070  0.8440
   45TMC2    H1  693   0.867   2.447   9.465  0.9130  1.8051 -1.5539
   45TMC2    H2  694   1.114   2.635   9.763  0.9557 -0.5197  1.0136
   45TMC2    C7  695   0.987   2.692   9.523 -0.0069 -0.1279  0.4611
   45TMC2    C8  696   1.211   2.436   9.859 -0.1655  0.3997 -0.5048
   45TMC2    O1  697   0.918   2.696   9.419  0.2048  0.4043 -0.1557
   45TMC2    O2  698   1.270   2.533   9.902 -0.5796 -0.2964 -0.3568
   45TMC2    O5  699   1.145   2.343   9.931  0.0376  0.3615 -0.2760
   45TMC2    H5  700   1.072   2.293   9.889  0.8833 -1.0458 -0.0962
   46MPD2     C  701   0.696   2.006   9.538 -0.0102  0.1761 -0.0427
   46MPD2    C1  702   0.688   2.135   9.497  0.0825 -0.7167 -0.3690
   46MPD2    C2  703   0.571   2.173   9.429  0.0080  0.4966  0.0471
   46MPD2    C3  704   0.461   2.093   9.429 -0.2627 -0.0772 -0.6611
   46MPD2    C4  705   0.467   1.968   9.488 -0.6629  0.0991 -1.1437
   46MPD2    C5  706   0.588   1.915   9.528 -0.3085 -0.0194 -0.4390
   46MPD2     H  707   0.571   2.277   9.399  2.6228  0.7557  0.9629
   46MPD2    H1  708   0.380   1.909   9.514 -0.2654 -0.1362 -0.3572
   46MPD2    H2  709   0.784   1.980   9.596 -1.2913  0.7730  2.2039
   46MPD2    H3  710   0.605   1.818   9.573  1.2674  0.0637 -0.8548
   46MPD2     N  711   0.344   2.146   9.377  0.0367  0.2352 -0.4102
   46MPD2    H5  712   0.345   2.244   9.350  0.3475  0.1843 -0.5874
   46MPD2    N1  713   0.793   2.230   9.507 -0.5682 -0.4044 -0.6089
   46MPD2    H7  714   0.770   2.324   9.477 -1.0430 -0.1642  0.4860
   47TMC2    C1  715   2.387   3.335   9.492  0.2094 -0.3746 -0.0322
   47TMC2    C2  716   2.357   3.220   9.568 -0.2386 -0.0309  0.1949
   47TMC2    C3  717   2.249   3.233   9.648  0.5685 -0.1114  0.5076
   47TMC2    C4  718   2.299   3.437   9.476  0.3539 -0.0979 -0.4054
   47TMC2    C5  719   2.189   3.441   9.558 -0.5029  0.3793 -0.2336
   47TMC2    C6  720   2.166   3.346   9.651  0.6096 -0.2243  0.0640
   47TMC2     C  721   2.515   3.345   9.416 -0.0611  0.2988  0.9120
   47TMC2     O  722   2.535   3.461   9.384 -0.6596  0.0278 -0.3023
   47TMC2     H  723   2.429   3.141   9.586 -0.7466 -0.4340  0.4563
   47TMC2    H1  724   2.329   3.513   9.405  0.4164 -0.3822 -0.6853
   47TMC2    H2  725   2.078   3.356   9.714 -0.0526 -0.9768 -0.7583
   47TMC2    C7  726   2.085   3.540   9.530 -0.4871 -0.6683  0.1646
   47TMC2    C8  727   2.224   3.125   9.742  0.4139  0.8845  0.2594
   47TMC2    O1  728   2.084   3.637   9.605  0.1879  0.0849 -0.7245
   47TMC2    O2  729   2.309   3.045   9.774 -0.4375  0.2388  0.1117
   47TMC2    O5  730   2.094   3.086   9.722  0.1394  0.3159  0.1527
   47TMC2    H5  731   2.047   3.147   9.660 -1.1697 -1.0017 -0.1282
   48MPD2     C  732   2.786   3.305   9.289 -0.3360 -0.2197  0.0037
   48MPD2    C1  733   2.708   3.206   9.333  0.7111 -0.3268  0.2779
   48MPD2    C2  734   2.764   3.077   9.337 -0.2813 -0.4297 -0.7822
   48MPD2    C3  735   2.898   3.059   9.301  0.3698 -0.4133  0.1821
   48MPD2    C4  736   2.973   3.163   9.258  1.0034  0.1665  0.1230
   48MPD2    C5  737   2.916   3.286   9.253 -0.1340  0.6678 -0.5434
   48MPD2     H  738   2.697   2.998   9.370  0.5026 -0.2148  1.3551
   48MPD2    H1  739   3.073   3.146   9.220  1.6621 -0.3639  2.1112
   48MPD2    H2  740   2.740   3.403   9.277  0.5203  0.0615 -1.0479
   48MPD2    H3  741   2.976   3.363   9.206 -1.0768  0.4093 -2.1733
   48MPD2     N  742   2.959   2.929   9.324  0.4351  0.1541 -0.1319
   48MPD2    H5  743   2.903   2.855   9.364  0.5750 -0.1160 -0.4409
   48MPD2    N1  744   2.576   3.226   9.388 -0.2170 -0.0908 -0.8856
   48MPD2    H7  745   2.530   3.145   9.429  1.3118 -0.4069  0.2163
   49MPD2     C  746   1.371   0.410   9.742  0.2505 -0.1579 -0.0458
   49MPD2    C1  747   1.352   0.335   9.855  0.5209  0.2620 -0.4275
   49MPD2    C2  748   1.390   0.387   9.977  1.0484  0.0214 -0.2765
   49MPD2    C3  749   1.439   0.508   9.985 -0.9626  0.0082 -0.5981
   49MPD2    C4  750   1.453   0.587   9.865 -0.2437  0.0901  0.1097
   49MPD2    C5  751   1.420   0.537   9.744 -1.1321  0.0135 -0.2441
   49MPD2     H  752   1.367   0.337  10.070  1.8180  0.0403 -0.0778
   49MPD2    H1  753   1.508   0.680   9.862 -1.4064  0.7290 -1.1046
   49MPD2    H2  754   1.348   0.374   9.642 -2.4921 -0.6192  0.7511
   49MPD2    H3  755   1.437   0.590   9.651 -0.7513  0.3970  0.0523
   49MPD2     N  756   1.496   0.567  10.101 -0.5905  0.3009  0.0773
   49MPD2    H5  757   1.518   0.665  10.088 -0.7566  0.5031  1.3387
   49MPD2    N1  758   1.289   0.208   9.862 -0.6628  0.1464 -0.2061
   49MPD2    H7  759   1.298   0.162   9.952 -0.7825  0.1544 -0.1889
   50TCq2    C1  760   1.209   0.160   9.766  0.3455 -0.2609 -0.0246
   50TCq2    O2  761   1.165   0.211   9.663 -0.7583  0.2299  0.0809
   50TCq2    C2  762   1.151   0.030   9.810  0.1064 -0.2994 -0.3513
   50TCq2    C3  763   1.173   4.698   9.931 -0.3872  0.5475  0.1926
   50TCq2    C4  764   1.115   4.579   9.968 -0.1484  0.1425  0.3760
   50TCq2    C5  765   1.036   4.514   9.876 -1.0175  0.5936  0.1736
   50TCq2    C6  766   1.006   4.579   9.760 -0.1845 -0.0567 -0.5079
   50TCq2    C7  767   1.066   4.696   9.721 -1.0800 -0.3621  0.1241
   50TCq2    C8  768   0.888   4.536   9.685  0.4329  0.2519  0.0160
   50TCq2    O4  769   0.869   4.574   9.571 -0.1218  0.1119  0.0250
   50TCq2    C9  770   1.143   4.520  10.097 -0.1644 -0.1383  0.0615
   50TCq2    O5  771   1.231   4.573  10.165 -0.1145 -0.0019  0.0765
   50TCq2    O6  772   1.101   4.402  10.122 -0.8034  0.9163  0.0464
   50TCq2    H2  773   1.245   0.014  10.001 -0.8314 -1.4063  1.7472
   50TCq2    H3  774   1.016   4.408   9.886  1.3864  0.1539  0.2254
   50TCq2    H4  775   1.044   0.009   9.621  1.7175  0.3438 -0.2332
   51MPD2     C  776   1.880   3.729   0.394  0.2506 -0.1268  0.3771
   51MPD2    C1  777   1.959   3.774   0.497  0.0053 -0.3099  0.9460
   51MPD2    C2  778   1.927   3.900   0.544  0.7393 -0.0293  0.3237
   51MPD2    C3  779   1.819   3.975   0.490 -0.4424  0.7522 -0.5883
   51MPD2    C4  780   1.745   3.923   0.383  0.0363  0.2740 -0.3454
   51MPD2    C5  781   1.786   3.805   0.336 -0.0904 -0.1224 -0.5550
   51MPD2     H  782   1.988   3.939   0.625 -2.8239  2.5587  1.7648
   51MPD2    H1  783   1.660   3.978   0.343 -0.2865  1.1343  1.4925
   51MPD2    H2  784   1.905   3.635   0.348  0.0346  0.5111 -1.0276
   51MPD2    H3  785   1.741   3.768   0.244 -1.2831 -0.1954  0.0662
   51MPD2     N  786   1.784   4.104   0.529  0.0690 -0.3801 -0.2355
   51MPD2    H5  787   1.704   4.143   0.481  1.0899  0.7852 -0.9914
   51MPD2    N1  788   2.078   3.709   0.544 -0.0490 -0.2048 -0.1711
   51MPD2    H7  789   2.118   3.748   0.628 -1.1281  1.7166 -0.5364
   52TCq2    C1  790   1.865   4.186   0.605  0.7285  0.4245 -0.1371
   52TCq2    O2  791   1.985   4.175   0.627  0.2895  0.1012 -0.0069
   52TCq2    C2  792   1.819   4.329   0.613  0.4559  0.0483  0.0652
   52TCq2    C3  793   1.731   4.382   0.515  0.1971  0.0384  0.0448
   52TCq2    C4  794   1.721   4.518   0.510 -0.4972 -0.4405  0.1499
   52TCq2    C5  795   1.804   4.602   0.577 -0.3064 -0.1813 -0.4828
   52TCq2    C6  796   1.901   4.551   0.654 -0.0531  0.2260  0.2605
   52TCq2    C7  797   1.904   4.417   0.679 -0.1191 -0.4879 -0.4856
   52TCq2    C8  798   1.986   4.645   0.731 -0.0398  0.2931 -0.1303
   52TCq2    O4  799   1.963   0.040   0.743 -0.0223 -0.1801  0.1850
   52TCq2    C9  800   1.622   4.576   0.421 -0.5078 -0.2949 -0.0578
   52TCq2    O5  801   1.619   4.528   0.305 -0.5938  0.1726  0.3250
   52TCq2    O6  802   1.573   4.689   0.445  1.2122  0.1579 -0.2539
   52TCq2    H2  803   1.679   4.315   0.448 -0.4205  1.0193 -0.4466
   52TCq2    H3  804   1.795   4.709   0.563 -0.4818 -0.0818  0.3635
   52TCq2    H4  805   1.966   4.370   0.754  1.2154  0.0625 -1.2612
   53TMC2    C1  806   2.735   2.149  11.567  0.0312  0.0277  0.2179
   53TMC2    C2  807   2.830   2.221  11.628 -0.3698 -0.1588 -0.3521
   53TMC2    C3  808   2.833   2.225  11.768 -0.0743 -0.7357 -0.0148
   53TMC2    C4  809   2.646   2.075  11.633  0.5262 -0.0415  0.3502
   53TMC2    C5  810   2.643   2.084  11.771  0.2333  0.5341 -0.1493
   53TMC2    C6  811   2.736   2.155  11.846 -0.3816  0.2766 -0.7389
   53TMC2     C  812   2.691   2.201  11.438  0.5309 -0.7031 -0.3322
   53TMC2     O  813   2.770   2.260  11.368  0.4342 -0.0424 -0.3185
   53TMC2     H  814   2.898   2.273  11.562  0.9790  0.1577  1.2615
   53TMC2    H1  815   2.574   2.008  11.589  0.1922  0.9739 -0.6679
   53TMC2    H2  816   2.731   2.176  11.952 -3.1362  2.3019 -1.2765
   53TMC2    C7  817   2.512   2.078  11.823 -0.1029 -0.0469 -0.2772
   53TMC2    C8  818   2.920   2.308  11.839 -0.0467 -0.2904  0.4417
   53TMC2    O1  819   2.431   2.068  11.734  0.6772  0.0062  0.0166
   53TMC2    O2  820   2.927   2.293  11.963 -0.4662  0.3015 -0.1067
   53TMC2    O5  821   2.907   2.428  11.786 -0.2255 -0.3101 -0.0405
   53TMC2    H5  822   2.963   2.430  11.705  2.6492 -0.1590  1.9693
   54MPD2     C  823   2.539   2.295  11.196 -0.3815  0.1250  0.0256
   54MPD2    C1  824   2.480   2.234  11.307 -0.6083  0.1237  0.3564
   54MPD2    C2  825   2.344   2.215  11.303  0.4229 -0.0645 -0.9231
   54MPD2    C3  826   2.271   2.250  11.192 -0.1252 -0.1397  0.2078
   54MPD2    C4  827   2.337   2.298  11.081 -0.2877  0.1483  0.0644
   54MPD2    C5  828   2.467   2.322  11.083  0.6835 -0.3092 -0.5787
   54MPD2     H  829   2.302   2.170  11.392 -1.4907  0.3185 -1.6232
   54MPD2    H1  830   2.287   2.311  10.986 -0.3596 -0.4558  0.0219
   54MPD2    H2  831   2.647   2.304  11.192 -0.2884 -1.0892 -0.3159
   54MPD2    H3  832   2.515   2.360  10.994  0.9949 -1.8212 -1.0619
   54MPD2     N  833   2.134   2.213  11.179 -0.6713  0.0457  0.3221
   54MPD2    H5  834   2.088   2.251  11.097  0.6939  1.2892  0.1296
   54MPD2    N1  835   2.554   2.192  11.425 -0.8270  0.3879 -0.6980
   54MPD2    H7  836   2.505   2.150  11.503  2.9192 -0.5962  1.1493
   55MPD2     C  837   3.062   4.438  16.742  0.6364  0.5515  0.6592
   55MPD2    C1  838   3.094   4.388  16.865 -0.5743  0.1126 -0.1803
   55MPD2    C2  839   3.053   4.459  16.975  0.1903 -0.1021  0.0171
   55MPD2    C3  840   2.973   4.575  16.973  0.1575  0.0666  0.1271
   55MPD2    C4  841   2.938   4.615  16.846 -0.3699  0.5904 -0.0166
   55MPD2    C5  842   2.984   4.548  16.734  0.4388  1.0483  0.0355
   55MPD2     H  843   3.100   4.432  17.069 -0.5474 -2.4262 -0.2889
   55MPD2    H1  844   2.869   4.697  16.829  1.1612  1.7965 -0.3627
   55MPD2    H2  845   3.082   4.393  16.645 -0.6450 -3.2842  2.1630
   55MPD2    H3  846   2.961   4.578  16.632  0.6723 -0.0974 -0.3597
   55MPD2     N  847   2.932   4.642  17.093  0.0996  0.9522  0.0359
   55MPD2    H5  848   2.970   4.597  17.176  0.3803  0.5398 -0.3136
   55MPD2    N1  849   3.186   4.277  16.875  0.3835  0.3016 -0.0077
   55MPD2    H7  850   3.212   4.226  16.791 -1.3796  2.4979 -1.8895
   56TCq2    C1  851   3.230   4.221  16.986  0.4162  0.3993 -0.0256
   56TCq2    O2  852   3.199   4.238  17.105 -0.1643  0.6967  0.1627
   56TCq2    C2  853   3.314   4.114  16.958 -0.0697 -0.6730  0.0096
   56TCq2    C3  854   3.430   4.141  16.891  0.5323 -0.2700 -0.7097
   56TCq2    C4  855   3.537   4.055  16.913  0.3270 -0.1668 -0.1095
   56TCq2    C5  856   3.526   3.943  16.995 -0.5368 -0.4800 -0.0876
   56TCq2    C6  857   3.407   3.929  17.059  0.3632  0.0823  0.4070
   56TCq2    C7  858   3.301   4.012  17.047  0.7072 -0.3183 -0.3471
   56TCq2    C8  859   3.404   3.840  17.170  0.8372  0.0169  0.5085
   56TCq2    O4  860   3.464   3.735  17.158  0.1429  0.0384  0.6261
   56TCq2    C9  861   3.658   4.075  16.836 -0.2836 -0.4743  0.0359
   56TCq2    O5  862   3.676   4.194  16.796 -0.1553  0.2139 -0.0389
   56TCq2    O6  863   3.743   3.983  16.835 -0.4364 -0.5794  0.0425
   56TCq2    H2  864   3.438   4.209  16.807 -1.3885  2.0926  1.0357
   56TCq2    H3  865   3.608   3.875  17.017  0.0773 -0.5616 -2.6626
   56TCq2    H4  866   3.203   3.993  17.088  0.3681 -0.8090 -1.3799
   57TMC2    C1  867   1.974   1.209  13.027  0.0134  0.6115  0.2844
   57TMC2    C2  868   1.949   1.297  12.928 -0.1128 -0.3416  0.1856
   57TMC2    C3  869   2.018   1.290  12.816 -0.3726  0.3541  0.0819
   57TMC2    C4  870   2.081   1.125  13.028  0.2297 -0.1084 -0.3481
   57TMC2    C5  871   2.160   1.132  12.920 -0.3463 -0.3884 -0.2958
   57TMC2    C6  872   2.133   1.209  12.810 -0.0114  0.3285  0.6527
   57TMC2     C  873   1.918   1.258  13.148 -0.1372  0.3039  0.3580
   57TMC2     O  874   1.869   1.369  13.147  0.3219 -0.0960  0.7346
   57TMC2     H  875   1.854   1.348  12.920  0.8596  1.3245 -0.7089
   57TMC2    H1  876   2.116   1.066  13.112 -1.8493  1.2207  1.4502
   57TMC2    H2  877   2.197   1.211  12.723 -2.2585 -1.7080 -1.0320
   57TMC2    C7  878   2.292   1.051  12.925 -0.8854  0.3713 -0.0886
   57TMC2    C8  879   2.008   1.418  12.750  0.1504 -0.0791 -0.0447
   57TMC2    O1  880   2.285   0.945  12.989 -0.3580 -0.2893 -0.2453
   57TMC2    O2  881   1.902   1.483  12.745  0.0300  0.1917 -0.1974
   57TMC2    O5  882   2.125   1.475  12.796 -0.5201 -0.4461 -0.4931
   57TMC2    H5  883   2.204   1.417  12.806  0.0433  0.1365 -1.5904
   58MPD2     C  884   1.772   1.136  13.626 -0.0315 -0.5131 -0.3610
   58MPD2    C1  885   1.788   1.266  13.572 -0.5053  0.8124  0.4914
   58MPD2    C2  886   1.838   1.272  13.443  0.2041 -0.0938 -0.6188
   58MPD2    C3  887   1.866   1.155  13.368 -0.0138 -0.1428  0.3805
   58MPD2    C4  888   1.850   1.030  13.431  0.6713 -0.3698 -0.4921
   58MPD2    C5  889   1.809   1.027  13.555 -0.6963 -0.2850  0.1181
   58MPD2     H  890   1.852   1.364  13.387 -0.4171 -1.0884 -2.4314
   58MPD2    H1  891   1.858   0.934  13.381 -2.0468 -0.6741 -0.3545
   58MPD2    H2  892   1.742   1.119  13.729 -2.6202 -3.1469 -1.5557
   58MPD2    H3  893   1.787   0.924  13.582 -0.5666 -0.7556 -1.5417
   58MPD2     N  894   1.919   1.156  13.239 -0.5091 -0.3505 -0.1381
   58MPD2    H5  895   1.948   1.063  13.210  3.3783  0.4573  1.2176
   58MPD2    N1  896   1.759   1.384  13.639  0.4223 -0.0504 -0.1931
   58MPD2    H7  897   1.764   1.469  13.582  0.9008 -1.9933 -3.0438
   59MPD2     C  898   0.110   1.042  12.644  0.0371  0.2896 -0.1878
   59MPD2    C1  899   0.045   1.141  12.719 -0.3339  0.0380 -0.1080
   59MPD2    C2  900   0.125   1.234  12.787 -0.0732 -0.0552  0.2782
   59MPD2    C3  901   0.257   1.232  12.769  0.3565 -0.6248  0.5649
   59MPD2    C4  902   0.313   1.147  12.678  0.5379 -0.6650  0.5697
   59MPD2    C5  903   0.246   1.053  12.617  0.1299 -0.9915  0.1482
   59MPD2     H  904   0.071   1.300  12.854 -0.2184  1.1209 -0.9863
   59MPD2    H1  905   0.420   1.149  12.662  0.2757 -1.9362 -1.2156
   59MPD2    H2  906   0.048   0.976  12.585 -0.6412 -0.5695  1.4956
   59MPD2    H3  907   0.281   0.986  12.540  0.5008 -0.2695 -0.3138
   59MPD2     N  908   0.347   1.322  12.830  0.3504  0.3920  0.2334
   59MPD2    H5  909   0.445   1.304  12.813  0.2910  1.8675 -1.6781
   59MPD2    N1  910   4.632   1.138  12.737 -0.1027 -0.3587 -0.0018
   59MPD2    H7  911   4.593   1.224  12.774 -0.7663 -1.4323  1.7627
   60TCq2    C1  912   4.554   1.022  12.734  0.0309 -0.6780 -0.3142
   60TCq2    O2  913   4.597   0.904  12.730 -0.0174 -0.3454  0.5857
   60TCq2    C2  914   4.414   1.042  12.759  0.4453  0.2518 -0.4980
   60TCq2    C3  915   4.356   0.951  12.838  0.1489 -0.2553  0.5225
   60TCq2    C4  916   4.237   0.978  12.891  0.3004  0.8584 -0.6395
   60TCq2    C5  917   4.183   1.100  12.875 -0.5458  0.1436 -0.6471
   60TCq2    C6  918   4.236   1.183  12.785  0.4491  0.1543 -0.4473
   60TCq2    C7  919   4.352   1.159  12.716 -0.3653 -0.4155  0.8054
   60TCq2    C8  920   4.148   1.285  12.731  0.3721 -0.6213 -0.0486
   60TCq2    O4  921   4.034   1.291  12.777  0.2224  0.2893 -0.1859
   60TCq2    C9  922   4.175   0.881  12.972 -0.1095 -0.0744  0.1309
   60TCq2    O5  923   4.233   0.774  13.000  0.3786  0.2093  0.3070
   60TCq2    O6  924   4.086   0.924  13.053  0.4377  0.1136 -0.2090
   60TCq2    H2  925   4.406   0.863  12.875 -1.3359 -0.8337  1.1531
   60TCq2    H3  926   4.092   1.121  12.931 -0.3585 -1.2016  0.1770
   60TCq2    H4  927   4.410   1.223  12.651 -0.4940 -0.5277  0.5790
   61MPD2     C  928   4.205   2.463  14.509 -0.3805 -0.0751 -0.9382
   61MPD2    C1  929   4.265   2.579  14.547  0.4885 -0.0085 -0.6914
   61MPD2    C2  930   4.345   2.638  14.456 -0.0719  0.6034 -0.1002
   61MPD2    C3  931   4.355   2.585  14.322  0.2132 -0.2471  0.5840
   61MPD2    C4  932   4.272   2.479  14.284  0.0994 -0.1621 -0.0759
   61MPD2    C5  933   4.203   2.416  14.380 -0.8575  0.2722 -0.2089
   61MPD2     H  934   4.379   2.737  14.483  1.6729 -0.1974  0.6803
   61MPD2    H1  935   4.274   2.453  14.179 -1.4567 -0.1606 -0.1036
   61MPD2    H2  936   4.139   2.407  14.574 -1.0697 -0.2979 -1.8338
   61MPD2    H3  937   4.154   2.323  14.354 -1.0135 -0.4243  2.6275
   61MPD2     N  938   4.412   2.667  14.216  0.1986 -0.2700 -0.2983
   61MPD2    H5  939   4.391   2.649  14.118  0.4728 -0.8517 -0.2550
   61MPD2    N1  940   4.255   2.643  14.675  1.1561 -0.3465 -0.0051
   61MPD2    H7  941   4.300   2.731  14.697 -0.0615  1.0571 -3.2481
   62TCq2    C1  942   4.171   2.602  14.767  0.9843  0.4466 -0.5429
   62TCq2    O2  943   4.099   2.501  14.776  0.5420 -0.0598 -0.3472
   62TCq2    C2  944   4.172   2.689  14.878 -1.4562 -0.4692  0.7126
   62TCq2    C3  945   4.134   2.629  14.997  0.5622 -0.1827 -0.0676
   62TCq2    C4  946   4.079   2.706  15.089 -0.5331  0.1980  0.3798
   62TCq2    C5  947   4.049   2.836  15.064  0.2456  0.2907  0.1348
   62TCq2    C6  948   4.098   2.894  14.950  0.0858  0.1259  0.4230
   62TCq2    C7  949   4.161   2.822  14.853 -0.8426  0.5054  0.2357
   62TCq2    C8  950   4.097   3.032  14.923  0.9372 -0.1167 -0.0480
   62TCq2    O4  951   4.186   3.084  14.861 -0.0188 -0.8195 -0.2169
   62TCq2    C9  952   4.022   2.641  15.208 -0.4932 -0.6042 -0.2619
   62TCq2    O5  953   3.964   2.712  15.292  0.2535 -0.4721 -0.2098
   62TCq2    O6  954   4.029   2.515  15.215  0.2572 -0.7678 -0.2848
   62TCq2    H2  955   4.145   2.523  15.012 -2.5347 -0.8475 -2.4906
   62TCq2    H3  956   4.018   2.904  15.143 -1.3755  1.0163 -1.1335
   62TCq2    H4  957   4.184   2.875  14.761  0.2948  1.2159  0.9293
   63TMC2    C1  958   3.476   2.568   9.916  0.0773 -0.8514 -0.3277
   63TMC2    C2  959   3.578   2.579  10.010 -0.2251  0.2255  0.1823
   63TMC2    C3  960   3.672   2.666   9.973  0.0162  0.0128 -1.2326
   63TMC2    C4  961   3.455   2.650   9.810 -0.2590  0.1720  0.1650
   63TMC2    C5  962   3.548   2.745   9.784  0.2979 -0.3488 -0.6334
   63TMC2    C6  963   3.662   2.748   9.865 -0.2116 -0.4474 -0.1468
   63TMC2     C  964   3.367   2.474   9.946 -0.0508 -0.4512 -0.0091
   63TMC2     O  965   3.273   2.485   9.869  0.0028  0.1138  0.0582
   63TMC2     H  966   3.616   2.499  10.072 -1.8242 -1.0795 -0.5526
   63TMC2    H1  967   3.375   2.631   9.739  1.4549  0.2744 -1.7947
   63TMC2    H2  968   3.743   2.819   9.851 -0.6456 -0.0055 -0.4079
   63TMC2    C7  969   3.515   2.852   9.690 -0.3102  0.2468 -0.4967
   63TMC2    C8  970   3.783   2.687  10.054  0.2146 -0.5382 -0.3407
   63TMC2    O1  971   3.397   2.858   9.657 -0.7910 -0.8451 -0.8035
   63TMC2    O2  972   3.895   2.667  10.006 -0.2122  0.3410  0.2875
   63TMC2    O5  973   3.740   2.663  10.180 -0.5059  0.0890 -0.0740
   63TMC2    H5  974   3.643   2.676  10.190 -0.3000 -0.3621  2.3418
   64MPD2     C  975   3.123   2.158  10.257 -0.0720 -0.0439  0.3658
   64MPD2    C1  976   3.236   2.198  10.321  0.0747  0.0937 -0.1573
   64MPD2    C2  977   3.318   2.281  10.245  0.0659 -0.8919 -0.4409
   64MPD2    C3  978   3.285   2.325  10.119 -0.0994  0.8418 -0.0024
   64MPD2    C4  979   3.177   2.277  10.057  0.1621 -0.1830  0.2859
   64MPD2    C5  980   3.097   2.189  10.120 -0.2039  0.0407 -0.0679
   64MPD2     H  981   3.413   2.316  10.285 -0.9113  0.3708  0.7541
   64MPD2    H1  982   3.139   2.303   9.958  0.5209  0.1747  0.2399
   64MPD2    H2  983   3.048   2.092  10.300 -0.0589 -1.9006 -2.4997
   64MPD2    H3  984   3.019   2.136  10.067  0.1414  1.0360 -1.5825
   64MPD2     N  985   3.383   2.408  10.065 -0.2690 -0.2287 -0.5448
   64MPD2    H5  986   3.466   2.431  10.119 -0.3581  2.7131 -1.6343
   64MPD2    N1  987   3.278   2.157  10.449 -0.1015 -0.4808  0.4052
   64MPD2    H7  988   3.369   2.181  10.489 -0.1049 -1.9386  1.2737
   65MPD2     C  989   0.208   2.221  15.599  0.3246 -0.5368 -0.0019
   65MPD2    C1  990   0.207   2.174  15.472  0.3328 -0.0606  0.2426
   65MPD2    C2  991   0.170   2.047  15.443 -0.2906  0.1630 -0.0997
   65MPD2    C3  992   0.129   1.964  15.540 -0.1247 -0.0694  0.1878
   65MPD2    C4  993   0.124   2.011  15.670 -0.3607 -0.2285  0.5540
   65MPD2    C5  994   0.168   2.137  15.704  0.7363 -0.7847 -0.0575
   65MPD2     H  995   0.181   2.014  15.340  1.6799 -3.5456  1.2704
   65MPD2    H1  996   0.086   1.955  15.754 -0.3995 -0.3217  0.4745
   65MPD2    H2  997   0.246   2.319  15.621  0.1756 -1.1191  2.8225
   65MPD2    H3  998   0.165   2.170  15.807  1.6563 -0.2377 -0.2083
   65MPD2     N  999   0.072   1.834  15.516 -0.4695  0.2121  0.0312
   65MPD2    H5 1000   0.037   1.782  15.596  0.6341 -0.8991 -0.2063
   65MPD2    N1 1001   0.244   2.253  15.364  0.4074 -0.1203  0.0503
   65MPD2    H7 1002   0.248   2.199  15.278 -2.7157  0.1742 -0.3040
   66TCq2    C1 1003   0.236   2.384  15.348 -0.5946  0.0165  0.2744
   66TCq2    O2 1004   0.186   2.461  15.430 -0.2715  0.1585  0.2613
   66TCq2    C2 1005   0.233   2.423  15.208  0.1728 -0.2340  0.2523
   66TCq2    C3 1006   0.247   2.323  15.116  0.1945 -0.6133 -0.4353
   66TCq2    C4 1007   0.154   2.317  15.017 -0.0725 -1.0162 -0.0850
   66TCq2    C5 1008   0.052   2.401  15.004  0.3423  0.0574 -0.6563
   66TCq2    C6 1009   0.045   2.502  15.092 -0.1600  0.3817  0.1447
   66TCq2    C7 1010   0.143   2.518  15.183  0.0863  0.2544  0.1877
   66TCq2    C8 1011   4.641   2.567  15.110 -0.9592  0.3641  0.6038
   66TCq2    O4 1012   4.558   2.572  15.022  0.3102  0.0384  0.3113
   66TCq2    C9 1013   0.163   2.204  14.927  0.0144  0.3225 -0.3868
   66TCq2    O5 1014   0.084   2.193  14.829  0.3967 -0.0378 -0.2385
   66TCq2    O6 1015   0.251   2.122  14.948 -0.3334 -0.5738 -0.8329
   66TCq2    H2 1016   0.323   2.245  15.123  0.2960 -0.5532 -0.8475
   66TCq2    H3 1017   4.705   2.386  14.922  0.1257  0.2743 -0.5150
   66TCq2    H4 1018   0.150   2.613  15.235  0.8660  0.6139 -0.5520
   67MPD2     C 1019   4.693   1.339  13.983  0.8397 -0.2417 -0.9319
   67MPD2    C1 1020   4.624   1.373  14.102  0.8343 -0.1512  0.4591
   67MPD2    C2 1021   4.489   1.356  14.113 -0.2578 -0.6179 -0.1527
   67MPD2    C3 1022   4.416   1.334  13.998  0.8495  0.4041 -1.4329
   67MPD2    C4 1023   4.485   1.313  13.876  0.0643 -0.0199 -0.0437
   67MPD2    C5 1024   4.622   1.338  13.868 -0.8211  0.9882 -0.5239
   67MPD2     H 1025   4.444   1.369  14.212 -1.0437  0.7527 -0.6791
   67MPD2    H1 1026   4.432   1.286  13.785 -1.7584  2.5699  0.2749
   67MPD2    H2 1027   0.077   1.356  13.971  1.3849 -1.8025  1.8685
   67MPD2    H3 1028   4.669   1.330  13.771  2.9796  4.1038  1.0802
   67MPD2     N 1029   4.273   1.327  14.006  0.3153 -0.2465 -0.1869
   67MPD2    H5 1030   4.232   1.299  13.917  2.3186 -1.0680 -0.8477
   67MPD2    N1 1031   4.690   1.423  14.217 -0.1727  1.4190  0.4509
   67MPD2    H7 1032   4.630   1.438  14.298 -0.8518 -0.4389  0.2964
   68TCq2    C1 1033   0.107   1.446  14.231 -0.0753 -0.4711 -0.2282
   68TCq2    O2 1034   0.195   1.416  14.150  0.0868  0.0216 -0.4071
   68TCq2    C2 1035   0.143   1.546  14.331 -0.0504 -0.4397 -0.7228
   68TCq2    C3 1036   0.045   1.631  14.380  1.1912 -0.2284 -0.7185
   68TCq2    C4 1037   0.084   1.739  14.451  0.7016  0.4386  0.0304
   68TCq2    C5 1038   0.213   1.764  14.476 -0.5542  0.6206 -0.9673
   68TCq2    C6 1039   0.307   1.675  14.433  0.3449 -0.1563  1.0322
   68TCq2    C7 1040   0.275   1.563  14.358 -0.3213  0.3685 -0.3396
   68TCq2    C8 1041   0.440   1.676  14.490 -0.6314 -0.1672  0.3354
   68TCq2    O4 1042   0.520   1.603  14.433 -0.6968 -0.1280 -0.1173
   68TCq2    C9 1043   4.696   1.820  14.495  0.5249 -0.3788 -0.0652
   68TCq2    O5 1044   4.717   1.900  14.590  0.1518 -0.0105 -0.3788
   68TCq2    O6 1045   4.594   1.815  14.427  0.1166 -0.2187  0.0639
   68TCq2    H2 1046   4.661   1.620  14.361  1.3476  0.7709 -2.2006
   68TCq2    H3 1047   0.251   1.850  14.530 -0.8743  0.0645  0.1411
   68TCq2    H4 1048   0.349   1.501  14.311 -0.6931 -0.1560 -0.2326
   69TMC2    C1 1049   1.626   2.792  11.678 -0.5132  0.7412  0.0226
   69TMC2    C2 1050   1.491   2.781  11.705 -0.0457 -0.1612  1.1047
   69TMC2    C3 1051   1.407   2.869  11.642 -0.2905  0.4990  0.4633
   69TMC2    C4 1052   1.680   2.897  11.599 -0.4014  0.1921  0.6693
   69TMC2    C5 1053   1.584   2.983  11.547 -0.3608 -0.3938 -1.4745
   69TMC2    C6 1054   1.451   2.969  11.559 -0.3875  0.5142 -0.2522
   69TMC2     C 1055   1.712   2.721  11.771 -0.4007 -0.3360  0.0517
   69TMC2     O 1056   1.666   2.658  11.864 -0.3025  0.3153  0.4870
   69TMC2     H 1057   1.456   2.703  11.771  3.3437 -1.5182  1.3084
   69TMC2    H1 1058   1.785   2.919  11.579 -0.2683 -1.0938 -0.0452
   69TMC2    H2 1059   1.379   3.049  11.542  0.8153  2.0629  1.8812
   69TMC2    C7 1060   1.619   3.059  11.424  0.1997 -0.3354  0.5958
   69TMC2    C8 1061   1.264   2.865  11.682 -0.5806 -0.0826  0.4688
   69TMC2    O1 1062   1.526   3.086  11.351  0.2804  0.2348  0.5759
   69TMC2    O2 1063   1.192   2.961  11.654  0.1231  0.1111 -0.1738
   69TMC2    O5 1064   1.217   2.739  11.690  0.3495 -0.1250  0.1771
   69TMC2    H5 1065   1.296   2.681  11.689  1.8017  1.9603 -4.1401
   70MPD2     C 1066   2.074   2.663  11.714 -0.0350  0.1266  0.5079
   70MPD2    C1 1067   1.951   2.659  11.782  0.0591 -0.5810 -0.6151
   70MPD2    C2 1068   1.944   2.594  11.908 -0.3758 -0.7544  0.7581
   70MPD2    C3 1069   2.058   2.544  11.967  0.4026  0.6170  0.1838
   70MPD2    C4 1070   2.180   2.546  11.894  0.5062 -0.3144  0.4507
   70MPD2    C5 1071   2.191   2.608  11.769 -0.1233  0.1382 -0.3871
   70MPD2     H 1072   1.848   2.593  11.959 -1.1533  0.9917 -0.6750
   70MPD2    H1 1073   2.266   2.496  11.939  0.0970 -0.4234  1.1223
   70MPD2    H2 1074   2.080   2.715  11.619 -1.2997  1.5076  1.1766
   70MPD2    H3 1075   2.272   2.588  11.700 -0.2882  1.7062 -1.0285
   70MPD2     N 1076   2.060   2.485  12.099  0.5258  0.2957 -0.3616
   70MPD2    H5 1077   2.152   2.464  12.135  0.5612  1.5028  0.2421
   70MPD2    N1 1078   1.841   2.721  11.720  0.1485 -0.0374  0.3371
   70MPD2    H7 1079   1.844   2.765  11.629  0.1597  0.5294  0.6058
   71TMC2    C1 1080   1.034   3.169   1.263 -0.0958 -0.2579  0.3348
   71TMC2    C2 1081   1.127   3.104   1.340  0.7384  0.6691 -0.6958
   71TMC2    C3 1082   1.144   2.969   1.327 -0.4424 -0.6165 -0.3590
   71TMC2    C4 1083   0.953   3.094   1.179  0.2731 -0.8369 -0.3551
   71TMC2    C5 1084   0.973   2.953   1.171 -0.3380  1.0216 -0.7565
   71TMC2    C6 1085   1.070   2.887   1.241 -0.5787 -0.0513  0.5940
   71TMC2     C 1086   0.970   3.295   1.292  0.5146 -1.0829 -0.5336
   71TMC2     O 1087   0.854   3.310   1.245  0.5398  0.4445 -0.2301
   71TMC2     H 1088   1.186   3.160   1.411  0.1419  1.4093 -0.7801
   71TMC2    H1 1089   0.890   3.141   1.105  3.0992  4.8805  0.8266
   71TMC2    H2 1090   1.084   2.779   1.234 -2.2257 -0.2875  1.0278
   71TMC2    C7 1091   0.861   2.865   1.131  0.0063  0.5770 -0.3583
   71TMC2    C8 1092   1.243   2.922   1.419  0.1314  0.1649  0.8003
   71TMC2    O1 1093   0.880   2.760   1.068 -0.0503 -0.1264 -0.5875
   71TMC2    O2 1094   1.319   2.987   1.491  0.3822  0.6581 -0.2819
   71TMC2    O5 1095   1.210   2.791   1.442 -0.3040  0.4416  0.0097
   71TMC2    H5 1096   1.127   2.758   1.402 -0.1674  1.6764 -1.2896
   72MPD2     C 1097   0.929   3.781   1.468 -0.1933 -0.0181  0.3834
   72MPD2    C1 1098   0.864   3.719   1.359  0.1727 -0.0267  0.2287
   72MPD2    C2 1099   0.912   3.585   1.320  0.4097  0.1241  0.3065
   72MPD2    C3 1100   1.007   3.518   1.391  0.2030  0.1321 -0.5086
   72MPD2    C4 1101   1.063   3.582   1.498 -0.3710 -0.1976 -0.6093
   72MPD2    C5 1102   1.022   3.707   1.533 -0.0634  0.2194  1.2368
   72MPD2     H 1103   0.862   3.536   1.238 -0.0397  2.7014 -0.9811
   72MPD2    H1 1104   1.142   3.527   1.549  0.5959 -0.9649 -2.9469
   72MPD2    H2 1105   0.915   3.884   1.500  0.8241 -0.0270  0.8436
   72MPD2    H3 1106   1.071   3.754   1.618 -1.3174  3.2712  0.2674
   72MPD2     N 1107   1.039   3.383   1.373 -0.1954 -0.2444 -0.1453
   72MPD2    H5 1108   1.130   3.356   1.408 -0.6313 -1.7949 -0.2152
   72MPD2    N1 1109   0.758   3.781   1.283  0.1364 -0.3992  0.6608
   72MPD2    H7 1110   0.705   3.722   1.220 -0.6537  1.1784 -0.1658
   73TMC2    C1 1111   4.105   0.249  14.451 -0.6998  0.0255  0.3747
   73TMC2    C2 1112   4.058   0.375  14.490 -0.2773 -0.2738  0.3381
   73TMC2    C3 1113   4.110   0.423  14.609 -0.2365 -0.5377 -0.3122
   73TMC2    C4 1114   4.191   0.175  14.528 -1.1950 -0.0789 -0.0100
   73TMC2    C5 1115   4.248   0.239  14.635 -0.1239 -0.6907 -0.0910
   73TMC2    C6 1116   4.209   0.359  14.680 -0.0787  0.2732 -0.3166
   73TMC2     C 1117   4.128   0.227  14.314  0.2788  0.0579  0.1882
   73TMC2     O 1118   4.230   0.161  14.289  0.0841 -0.2462  0.2886
   73TMC2     H 1119   4.009   0.448  14.426  1.9424 -1.1820 -2.4359
   73TMC2    H1 1120   4.192   0.068  14.516 -0.6021  0.1029 -1.5976
   73TMC2    H2 1121   4.272   0.407  14.754 -1.5225  0.9954  0.4418
   73TMC2    C7 1122   4.385   0.203  14.636 -0.0183  0.0082  0.0361
   73TMC2    C8 1123   4.103   0.568  14.629 -0.1800 -0.9830 -0.4152
   73TMC2    O1 1124   4.459   0.259  14.720 -0.3474  0.2927  0.2693
   73TMC2    O2 1125   4.071   0.650  14.543 -0.1443  0.2339  0.8376
   73TMC2    O5 1126   4.083   0.590  14.763 -0.1487 -0.2166  0.2987
   73TMC2    H5 1127   4.097   0.507  14.813 -1.7336  0.5565  2.0445
   74MPD2     C 1128   4.191   0.427  13.847 -0.0646  1.0244 -0.6907
   74MPD2    C1 1129   4.273   0.355  13.928 -0.0930 -0.1201  0.3144
   74MPD2    C2 1130   4.233   0.310  14.051  0.5273 -0.9313 -0.3416
   74MPD2    C3 1131   4.108   0.343  14.102 -0.1634  0.2986  0.2543
   74MPD2    C4 1132   4.027   0.422  14.024 -0.8070  0.0953 -0.5121
   74MPD2    C5 1133   4.065   0.461  13.893  0.4987 -0.0996  0.2625
   74MPD2     H 1134   4.302   0.249  14.109  1.4246  0.5837  0.1888
   74MPD2    H1 1135   3.930   0.455  14.057 -0.2890  1.3141 -0.2173
   74MPD2    H2 1136   4.215   0.467  13.749  1.5072  1.2205 -0.2361
   74MPD2    H3 1137   3.996   0.529  13.843  0.4882 -0.7956 -0.6650
   74MPD2     N 1138   4.062   0.311  14.235  0.2079 -0.6002 -0.7047
   74MPD2    H5 1139   3.968   0.341  14.259  0.5920  0.2774 -0.3028
   74MPD2    N1 1140   4.401   0.318  13.881 -0.0194 -0.5409 -0.4421
   74MPD2    H7 1141   4.447   0.242  13.930  2.1197  1.1141  0.1291
   75TCq2    C1 1142   4.198   1.358  14.120  0.4877  0.5670  0.6338
   75TCq2    O2 1143   4.228   1.418  14.223  0.0056 -0.2523  0.3800
   75TCq2    C2 1144   4.054   1.347  14.100  0.0515 -0.1585 -0.5387
   75TCq2    C3 1145   3.975   1.360  14.209  0.2130  0.3423 -0.2276
   75TCq2    C4 1146   3.842   1.367  14.188  0.3240 -0.0485  0.5496
   75TCq2    C5 1147   3.785   1.343  14.066  0.2094  0.1799 -0.0175
   75TCq2    C6 1148   3.877   1.330  13.962  0.0334 -0.1240 -0.1154
   75TCq2    C7 1149   4.010   1.324  13.970 -0.1174  0.4850 -0.0998
   75TCq2    C8 1150   3.834   1.397  13.842  0.0543  0.2718 -1.1301
   75TCq2    O4 1151   3.893   1.373  13.740  0.9300 -0.0165  0.6068
   75TCq2    C9 1152   3.755   1.391  14.303  0.3922 -0.1222 -0.2153
   75TCq2    O5 1153   3.818   1.395  14.413  0.4549 -0.6405 -0.6574
   75TCq2    O6 1154   3.632   1.424  14.288 -0.4226  0.3659 -0.0648
   75TCq2    H2 1155   4.011   1.383  14.308 -0.2071 -0.6001  0.1441
   75TCq2    H3 1156   3.677   1.342  14.060  0.3238 -1.2307 -1.7440
   75TCq2    H4 1157   4.072   1.317  13.881  0.7894 -0.5502  0.6040
   76MPD2     C 1158   2.797   3.194  11.884  0.6792 -0.0944  0.6627
   76MPD2    C1 1159   2.808   3.111  11.765  0.7846  0.0663 -0.2308
   76MPD2    C2 1160   2.876   2.992  11.769 -0.4584 -0.3588 -0.2444
   76MPD2    C3 1161   2.935   2.954  11.892  1.0158 -0.0789 -0.1222
   76MPD2    C4 1162   2.922   3.035  12.003 -0.8987  0.4261 -0.2315
   76MPD2    C5 1163   2.852   3.155  12.005  0.4746  0.3338 -1.3162
   76MPD2     H 1164   2.888   2.935  11.678 -0.4779 -1.4023  0.4129
   76MPD2    H1 1165   2.963   3.008  12.100  3.7934 -1.1455 -2.6300
   76MPD2    H2 1166   2.751   3.292  11.889  0.1913 -0.3193  0.6150
   76MPD2    H3 1167   2.849   3.232  12.082  1.7706 -1.0615  0.1357
   76MPD2     N 1168   3.012   2.839  11.908 -0.3832  0.2189 -0.5710
   76MPD2    H5 1169   3.048   2.818  12.000 -2.1112  0.5495  0.1718
   76MPD2    N1 1170   2.747   3.149  11.640  0.4517  0.3405 -0.4847
   76MPD2    H7 1171   2.773   3.080  11.571 -2.1772 -1.5050  0.3566
   77TCq2    C1 1172   3.056   2.752  11.816  0.0196 -0.5138 -0.7017
   77TCq2    O2 1173   3.042   2.755  11.697 -0.7297 -0.1449 -0.4034
   77TCq2    C2 1174   3.121   2.647  11.886 -0.2693  0.4474  0.2285
   77TCq2    C3 1175   3.081   2.624  12.014 -0.7257 -0.0404  1.9707
   77TCq2    C4 1176   3.132   2.515  12.074  0.4347  0.6843 -0.4818
   77TCq2    C5 1177   3.236   2.439  12.012 -0.4274 -0.9976  0.4601
   77TCq2    C6 1178   3.286   2.478  11.892  0.3167  0.2892 -0.2409
   77TCq2    C7 1179   3.223   2.578  11.818 -0.0067  0.1774 -0.0990
   77TCq2    C8 1180   3.424   2.441  11.853 -0.1100 -0.2151  0.9654
   77TCq2    O4 1181   3.464   2.494  11.749 -0.3818 -0.2318  0.1713
   77TCq2    C9 1182   3.065   2.468  12.188  0.2841  0.3693  0.1302
   77TCq2    O5 1183   2.972   2.535  12.237 -0.5057  0.1660  0.3396
   77TCq2    O6 1184   3.106   2.357  12.232 -0.1125 -0.4212 -0.0891
   77TCq2    H2 1185   3.009   2.678  12.074 -0.8024  1.9046  0.1356
   77TCq2    H3 1186   3.276   2.356  12.067  0.5350 -0.5468  0.4341
   77TCq2    H4 1187   3.256   2.605  11.719 -1.3179  0.4430 -0.4632
   78MPD1     C 1188   4.466   2.312   1.032 -0.0779 -0.0426 -0.5676
   78MPD1    C1 1189   4.588   2.376   1.057  0.1082 -0.4845  0.0353
   78MPD1    C2 1190   4.640   2.452   0.954 -0.4203 -0.1021  0.5103
   78MPD1    C3 1191   4.579   2.458   0.829 -0.6794 -0.2373 -0.2203
   78MPD1    C4 1192   4.464   2.379   0.801  0.2545 -0.6600 -0.3846
   78MPD1    C5 1193   4.410   2.312   0.908 -0.1744 -0.4878  0.0504
   78MPD1     H 1194   0.015   2.495   0.969  0.5493 -1.5306 -1.7707
   78MPD1    H1 1195   4.415   2.393   0.705 -1.0206 -0.5849  0.2783
   78MPD1    H2 1196   4.416   2.253   1.108 -1.1438 -1.8254 -2.6504
   78MPD1    H3 1197   4.312   2.268   0.891  0.5074 -1.8542 -0.3064
   78MPD1     N 1198   4.634   2.532   0.721 -0.2051  0.1168  0.0978
   78MPD1    H5 1199   4.601   2.519   0.626 -1.2953 -0.8383  0.6093
   78MPD1    N1 1200   4.650   2.387   1.183  0.0160  0.6970 -0.3123
   78MPD1    H6 1201   4.636   2.313   1.251 -1.4820  1.3535  0.0915
   78MPD1    H7 1202   0.028   2.387   1.172  0.1538 -1.7712  0.9386
   79TCq2    C1 1203   0.005   2.639   0.735 -0.0200 -0.3117  0.3186
   79TCq2    O2 1204   0.052   2.686   0.841 -0.1834  0.7289  0.5918
   79TCq2    C2 1205   0.045   2.702   0.613 -0.5354  0.5576  0.3656
   79TCq2    C3 1206   4.667   2.707   0.516  0.7569  0.1739  0.4650
   79TCq2    C4 1207   4.696   2.774   0.398  0.6076 -0.4449 -0.5234
   79TCq2    C5 1208   0.094   2.845   0.387 -0.1137 -0.2076 -0.3501
   79TCq2    C6 1209   0.186   2.843   0.493 -0.4103  0.2501  0.2663
   79TCq2    C7 1210   0.162   2.775   0.606 -0.0725  0.6899 -0.2475
   79TCq2    C8 1211   0.294   2.931   0.493  0.4949  0.5458 -0.0710
   79TCq2    O4 1212   0.395   2.897   0.554  0.2751  0.4336  0.4196
   79TCq2    C9 1213   4.595   2.771   0.293 -0.3144 -0.2723  0.9418
   79TCq2    O5 1214   4.634   2.794   0.173 -0.4750  0.4658  0.2975
   79TCq2    O6 1215   4.488   2.714   0.328 -0.4827  0.2410 -0.4792
   79TCq2    H2 1216   4.574   2.652   0.522  0.1157  1.4272  2.0746
   79TCq2    H3 1217   0.118   2.892   0.292 -0.3044  0.6190  0.0116
   79TCq2    H4 1218   0.226   2.781   0.693  2.2131  0.0880 -1.9029
   80MPD2     C 1219   2.461   1.975  12.625 -0.0594 -0.1869  0.3920
   80MPD2    C1 1220   2.469   1.906  12.511  0.0263 -0.4091 -0.2358
   80MPD2    C2 1221   2.357   1.867  12.444  1.0799 -0.5150  0.6204
   80MPD2    C3 1222   2.228   1.909  12.490 -0.3921 -0.4054  0.1687
   80MPD2    C4 1223   2.219   1.989  12.607 -0.0987 -0.1279 -0.0527
   80MPD2    C5 1224   2.338   2.013  12.672  1.1882  0.2609 -0.7196
   80MPD2     H 1225   2.366   1.815  12.350 -2.9399  1.4626 -0.8397
   80MPD2    H1 1226   2.129   2.008  12.664 -0.4888 -2.4751  0.1401
   80MPD2    H2 1227   2.555   2.005  12.668 -0.6845  3.7861 -1.0218
   80MPD2    H3 1228   2.351   2.067  12.765  1.9740  1.5467 -1.5651
   80MPD2     N 1229   2.111   1.855  12.437  0.3589  0.0923 -0.6046
   80MPD2    H5 1230   2.029   1.872  12.494  1.3527 -1.1335  1.2063
   80MPD2    N1 1231   2.597   1.856  12.462 -0.7189 -0.5485  0.5133
   80MPD2    H7 1232   2.594   1.807  12.373 -0.8444  2.1900 -0.9995
   81TCq2    C1 1233   2.721   1.894  12.505  0.3625  0.0213  0.3880
   81TCq2    O2 1234   2.752   1.979  12.583  0.1782  0.0852 -0.3189
   81TCq2    C2 1235   2.828   1.832  12.431 -0.7557  0.3983 -0.5605
   81TCq2    C3 1236   2.949   1.901  12.416 -0.1425 -0.4074 -0.0885
   81TCq2    C4 1237   3.023   1.870  12.304  0.5969 -0.1650  0.1852
   81TCq2    C5 1238   2.987   1.772  12.221  0.7506  0.3102  0.6947
   81TCq2    C6 1239   2.874   1.696  12.247  0.0994 -0.2074 -0.1352
   81TCq2    C7 1240   2.793   1.732  12.353 -0.2864  0.0810 -0.7299
   81TCq2    C8 1241   2.810   1.643  12.126  0.2654 -0.2384  0.6052
   81TCq2    O4 1242   2.788   1.720  12.037  0.6059  0.5585  0.7889
   81TCq2    C9 1243   3.134   1.953  12.284  0.3892  0.0357  0.5748
   81TCq2    O5 1244   3.199   1.928  12.176  0.1082 -0.0915  0.2416
   81TCq2    O6 1245   3.106   2.073  12.319  0.1430  0.6189  0.4156
   81TCq2    H2 1246   2.988   1.977  12.483 -0.0611 -0.3379 -0.2139
   81TCq2    H3 1247   3.052   1.744  12.139 -0.8706  2.0441 -1.1775
   81TCq2    H4 1248   2.702   1.674  12.363 -1.4683  1.8425 -1.3716
   82MPD2     C 1249   0.747   1.768  10.719  0.0190 -0.2614  0.2533
   82MPD2    C1 1250   0.649   1.687  10.778 -0.5973  0.3212 -0.2103
   82MPD2    C2 1251   0.686   1.604  10.880  0.1895 -0.3318 -0.0542
   82MPD2    C3 1252   0.809   1.619  10.934 -0.0429  0.2008  0.2226
   82MPD2    C4 1253   0.901   1.706  10.884 -0.3933  0.2689  0.2954
   82MPD2    C5 1254   0.866   1.777  10.772  0.7677 -0.6320 -0.1580
   82MPD2     H 1255   0.614   1.532  10.919 -0.8598 -0.0830 -1.4933
   82MPD2    H1 1256   1.000   1.719  10.927 -0.3985  0.7272  0.1656
   82MPD2    H2 1257   0.733   1.830  10.631 -0.6627  1.6442  1.7156
   82MPD2    H3 1258   0.940   1.845  10.732  1.6183 -1.7915 -0.5493
   82MPD2     N 1259   0.844   1.547  11.058 -0.4312 -0.1224  0.6889
   82MPD2    H5 1260   0.937   1.557  11.099  0.2569  1.2220 -1.1954
   82MPD2    N1 1261   0.520   1.699  10.721  0.2977 -0.1595  0.2475
   82MPD2    H7 1262   0.505   1.772  10.652 -1.5204  2.0429  2.9784
   83TCq2    C1 1263   0.777   1.445  11.114  0.6755 -0.1625 -0.0384
   83TCq2    O2 1264   0.684   1.380  11.073  0.7912  0.3670 -0.2322
   83TCq2    C2 1265   0.847   1.398  11.230 -0.3166  0.3372  1.2845
   83TCq2    C3 1266   0.900   1.487  11.315  0.0243 -0.5989 -0.7155
   83TCq2    C4 1267   0.976   1.446  11.421 -0.1075  0.6455  0.8269
   83TCq2    C5 1268   0.991   1.311  11.447  0.1820 -0.1432 -1.0202
   83TCq2    C6 1269   0.933   1.227  11.357  0.0309 -0.0192  0.6369
   83TCq2    C7 1270   0.850   1.265  11.255  0.7035  0.0632  0.1738
   83TCq2    C8 1271   0.898   1.103  11.411  0.0954 -0.6933  0.0734
   83TCq2    O4 1272   0.926   1.080  11.532 -0.0300  0.2596 -0.3394
   83TCq2    C9 1273   1.026   1.542  11.509  0.3479 -0.2871  0.3466
   83TCq2    O5 1274   1.046   1.653  11.455  0.3788  0.2009  0.3502
   83TCq2    O6 1275   1.063   1.504  11.626 -0.3736  0.1597  0.8135
   83TCq2    H2 1276   0.885   1.595  11.314 -0.8912 -0.7185 -0.2947
   83TCq2    H3 1277   1.065   1.272  11.516 -0.1241  0.1587 -0.5197
   83TCq2    H4 1278   0.784   1.206  11.193  1.1416 -0.9996  0.7265
   84TCq2    C1 1279   1.518   0.501  10.220 -0.0627  0.4515 -0.1829
   84TCq2    O2 1280   1.471   0.398  10.264  0.0869 -0.1553  0.0045
   84TCq2    C2 1281   1.599   0.576  10.317 -0.1226 -0.1810 -0.2594
   84TCq2    C3 1282   1.670   0.684  10.280 -1.1834 -0.2441 -0.6056
   84TCq2    C4 1283   1.748   0.754  10.368  0.3059 -1.1690  0.0453
   84TCq2    C5 1284   1.731   0.728  10.498  0.1636 -0.2108 -0.3124
   84TCq2    C6 1285   1.639   0.635  10.538 -0.3349  0.1674  0.4540
   84TCq2    C7 1286   1.577   0.554  10.447  0.0710 -0.0310  0.6609
   84TCq2    C8 1287   1.591   0.629  10.678 -0.0532 -0.1438  0.3018
   84TCq2    O4 1288   1.544   0.525  10.721 -1.0986  0.6197 -0.3109
   84TCq2    C9 1289   1.864   0.833  10.325  0.3744  0.5001  1.1438
   84TCq2    O5 1290   1.935   0.887  10.412 -0.2331  0.0342 -0.6102
   84TCq2    O6 1291   1.894   0.829  10.200  0.2782  0.4759  0.0103
   84TCq2    H2 1292   1.691   0.698  10.175 -0.9543 -1.0834 -0.6662
   84TCq2    H3 1293   1.791   0.783  10.569 -1.0786 -1.4265  1.6778
   84TCq2    H4 1294   1.510   0.473  10.471  1.1201 -0.8448  0.8737
   85MPD2     C 1295   2.107   2.821  16.064  0.3603 -1.1291 -0.1965
   85MPD2    C1 1296   2.059   2.832  15.937  0.3519  1.1472  0.0456
   85MPD2    C2 1297   2.099   2.938  15.859 -0.3729 -0.3222  0.9774
   85MPD2    C3 1298   2.187   3.032  15.904 -0.1278 -0.4120  0.3353
   85MPD2    C4 1299   2.232   3.026  16.031  0.8802 -0.1222 -0.2574
   85MPD2    C5 1300   2.200   2.914  16.106 -0.3417  0.1773 -0.7144
   85MPD2     H 1301   2.064   2.959  15.758  0.6629  0.2336  0.7382
   85MPD2    H1 1302   2.304   3.100  16.064 -0.5709  1.0575  0.2576
   85MPD2    H2 1303   2.078   2.744  16.135 -1.0881  0.2062  0.6593
   85MPD2    H3 1304   2.241   2.900  16.205 -0.7517  0.9236 -0.4418
   85MPD2     N 1305   2.211   3.137  15.816 -0.2665  0.7191 -0.0806
   85MPD2    H5 1306   2.189   3.130  15.717  0.1657 -0.1654 -0.1166
   85MPD2    N1 1307   1.960   2.742  15.883  0.4317  0.0899 -0.5701
   85MPD2    H7 1308   1.945   2.753  15.783 -0.8190 -0.4376 -0.4418
   86TCq2    C1 1309   2.278   3.254  15.856  0.4267 -0.2336  0.6269
   86TCq2    O2 1310   2.284   3.303  15.968 -0.4025  0.0196 -0.3005
   86TCq2    C2 1311   2.297   3.352  15.745 -0.2908 -0.7923 -0.2591
   86TCq2    C3 1312   2.306   3.487  15.772 -0.2913 -0.3416 -0.3348
   86TCq2    C4 1313   2.329   3.579  15.675  0.5503  0.0551 -0.2947
   86TCq2    C5 1314   2.330   3.541  15.547  0.8541  0.1268  0.9386
   86TCq2    C6 1315   2.322   3.411  15.520  0.1733 -0.1311  0.2302
   86TCq2    C7 1316   2.314   3.313  15.616  0.5606 -0.1697  0.3340
   86TCq2    C8 1317   2.341   3.369  15.379  0.0530 -1.0651 -0.5885
   86TCq2    O4 1318   2.349   3.248  15.357  0.1417  0.3982  0.4253
   86TCq2    C9 1319   2.339   3.720  15.706 -0.2084  0.2348 -0.0142
   86TCq2    O5 1320   2.313   3.754  15.825 -0.3083  0.1129 -0.3974
   86TCq2    O6 1321   2.366   3.791  15.604  0.0448  0.1037 -0.3454
   86TCq2    H2 1322   2.286   3.505  15.877  2.7233  0.7353  0.0440
   86TCq2    H3 1323   2.349   3.615  15.470  1.1683 -2.2626 -1.2398
   86TCq2    H4 1324   2.307   3.208  15.588 -1.2802 -0.2186  0.9534
   87MPD2     C 1325   0.101   3.153   1.504 -0.8982  0.2873 -0.0219
   87MPD2    C1 1326   0.079   3.053   1.414 -0.1115 -0.6100 -0.1016
   87MPD2    C2 1327   4.687   3.055   1.335  0.3085 -0.2497  0.6866
   87MPD2    C3 1328   4.598   3.157   1.349 -0.2986  0.7927  0.3674
   87MPD2    C4 1329   4.615   3.258   1.444 -0.5962  0.1284 -0.3563
   87MPD2    C5 1330   0.007   3.256   1.509  0.2280 -0.2978  0.0438
   87MPD2     H 1331   4.661   2.976   1.266  2.9468 -0.4173 -0.1100
   87MPD2    H1 1332   4.545   3.339   1.457 -1.8681 -0.8473 -1.1922
   87MPD2    H2 1333   0.194   3.159   1.559  0.0754  0.4362 -1.6985
   87MPD2    H3 1334   0.036   3.332   1.580  1.3398 -0.9656  0.3210
   87MPD2     N 1335   4.473   3.169   1.282 -0.4602  0.4133 -0.1770
   87MPD2    H5 1336   4.394   3.217   1.323  1.7489  0.9277  3.5398
   87MPD2    N1 1337   0.177   2.956   1.403  0.1501 -0.1839 -0.4550
   87MPD2    H7 1338   0.252   2.962   1.470 -1.0089  0.3254  0.8022
   88TCq2    C1 1339   0.170   2.843   1.316 -0.6919 -1.1449 -0.1210
   88TCq2    O2 1340   0.076   2.816   1.238 -0.1679  0.6184 -0.0509
   88TCq2    C2 1341   0.265   2.734   1.350 -0.1096  0.1295  0.7525
   88TCq2    C3 1342   0.394   2.760   1.388 -0.1123 -0.3720 -0.0128
   88TCq2    C4 1343   0.486   2.660   1.365 -0.1305  0.3280 -0.0368
   88TCq2    C5 1344   0.453   2.542   1.306  0.3609  0.6357 -0.2974
   88TCq2    C6 1345   0.331   2.526   1.250  1.1134 -0.2467 -0.0487
   88TCq2    C7 1346   0.236   2.613   1.289  0.3815 -0.1010  0.4377
   88TCq2    C8 1347   0.307   2.441   1.136 -1.0559 -0.1112  1.2296
   88TCq2    O4 1348   0.196   2.393   1.119  0.4422 -0.0372 -0.2338
   88TCq2    C9 1349   0.630   2.679   1.397 -0.1879 -0.5213 -0.4928
   88TCq2    O5 1350   0.655   2.758   1.491 -0.2066 -0.8551  0.2622
   88TCq2    O6 1351   0.699   2.579   1.359 -0.5024 -0.3312  0.1064
   88TCq2    H2 1352   0.424   2.852   1.436  1.2700 -0.4214 -0.7686
   88TCq2    H3 1353   0.522   2.459   1.311  1.9379  2.0033  0.8240
   88TCq2    H4 1354   0.146   2.604   1.229  3.2886 -0.2082 -3.9298
   89MPD2     C 1355   0.931   0.439   1.371 -0.0932 -0.0673  0.0037
   89MPD2    C1 1356   0.838   0.527   1.425  0.1311  0.3809 -0.3395
   89MPD2    C2 1357   0.879   0.653   1.463  0.2059  0.1600 -0.2375
   89MPD2    C3 1358   1.010   0.697   1.448 -0.3610 -0.5327 -0.2374
   89MPD2    C4 1359   1.102   0.606   1.402 -0.5418  0.0465  0.4293
   89MPD2    C5 1360   1.068   0.481   1.366  0.6310  0.6960 -0.1611
   89MPD2     H 1361   0.807   0.727   1.493 -1.0513 -1.3588  0.4978
   89MPD2    H1 1362   1.207   0.631   1.386 -0.5972  0.6718  1.0430
   89MPD2    H2 1363   0.903   0.339   1.338 -0.1969  0.0576 -0.2892
   89MPD2    H3 1364   1.146   0.418   1.326  1.4559 -0.0161  2.6086
   89MPD2     N 1365   1.041   0.825   1.473 -0.3662 -0.0514  0.3563
   89MPD2    H5 1366   0.965   0.882   1.508 -0.5257 -1.0420  1.6148
   89MPD2    N1 1367   0.695   0.497   1.440  0.9633  0.2647  0.2271
   89MPD2    H7 1368   0.640   0.579   1.466  2.0437  0.7234  1.1262
   90TCq2    C1 1369   1.149   0.895   1.429 -0.2084  0.6599  0.0862
   90TCq2    O2 1370   1.232   0.863   1.343 -0.1475 -0.6360 -0.0321
   90TCq2    C2 1371   1.167   1.020   1.506  0.1092  0.2744 -0.8264
   90TCq2    C3 1372   1.118   1.037   1.633 -0.1740 -0.7587  0.2333
   90TCq2    C4 1373   1.171   1.142   1.710 -0.7359 -0.0585 -0.2640
   90TCq2    C5 1374   1.258   1.235   1.663  0.3071 -0.0770  0.4989
   90TCq2    C6 1375   1.305   1.215   1.537 -0.5816  1.0154  0.3338
   90TCq2    C7 1376   1.280   1.091   1.468  0.1133  0.4150 -0.3869
   90TCq2    C8 1377   1.440   1.269   1.524  0.6944  0.6304 -0.5852
   90TCq2    O4 1378   1.478   1.357   1.601  0.0879 -0.1032  0.7166
   90TCq2    C9 1379   1.116   1.162   1.844  0.0139 -0.7105  0.2132
   90TCq2    O5 1380   1.040   1.075   1.887 -0.0163 -1.2354  0.0545
   90TCq2    O6 1381   1.147   1.272   1.899 -0.6676  0.3439  0.2373
   90TCq2    H2 1382   1.053   0.960   1.672 -0.4816  0.4459  2.0903
   90TCq2    H3 1383   1.281   1.328   1.714  1.6329 -1.1431  1.8578
   90TCq2    H4 1384   1.301   1.089   1.362 -2.0213  0.5548 -0.8236
   91TMC2    C1 1385   2.123   4.021  16.378 -0.8906  0.4938  0.3251
   91TMC2    C2 1386   2.131   4.157  16.361 -0.3750  0.0316  0.2494
   91TMC2    C3 1387   2.017   4.227  16.345  0.8314 -0.3639 -0.0459
   91TMC2    C4 1388   2.006   3.954  16.361  0.4287  0.5248 -0.2882
   91TMC2    C5 1389   1.893   4.028  16.336  0.8666 -0.7908 -0.2457
   91TMC2    C6 1390   1.898   4.164  16.333 -0.3056 -0.1040  0.5649
   91TMC2     C 1391   2.251   3.955  16.366  0.6825  0.5473  0.3707
   91TMC2     O 1392   2.260   3.837  16.387  0.0165  0.6330  0.4904
   91TMC2     H 1393   2.219   4.213  16.391  0.3159 -1.5577  1.1552
   91TMC2    H1 1394   2.011   3.845  16.359  0.0633  0.4995  0.4017
   91TMC2    H2 1395   1.808   4.222  16.316  1.5381  2.9788  1.1625
   91TMC2    C7 1396   1.780   3.949  16.311  0.0387  0.8924  0.4031
   91TMC2    C8 1397   2.030   4.373  16.336  0.2740  0.0473 -0.0141
   91TMC2    O1 1398   1.781   3.829  16.331 -0.2681  0.1719 -0.1109
   91TMC2    O2 1399   2.129   4.433  16.376 -0.3356 -0.3833  0.2689
   91TMC2    O5 1400   1.928   4.422  16.266  0.0897  0.0695  0.0574
   91TMC2    H5 1401   1.882   4.349  16.220  1.4408 -0.8476  0.1427
   92MPD2     C 1402   2.543   3.907  16.364  0.9110  0.1786 -0.1752
   92MPD2    C1 1403   2.486   4.012  16.295  0.0058  0.2549  0.5368
   92MPD2    C2 1404   2.567   4.103  16.228  0.7272 -0.1337  0.4648
   92MPD2    C3 1405   2.707   4.100  16.228  1.2410  0.4263 -0.1752
   92MPD2    C4 1406   2.761   3.991  16.294 -0.4634 -0.5630  0.4358
   92MPD2    C5 1407   2.682   3.905  16.372  0.3756 -0.0167 -0.5029
   92MPD2     H 1408   2.518   4.184  16.175 -1.6520 -2.2893 -0.6704
   92MPD2    H1 1409   2.860   3.959  16.262  0.1744  0.9261  0.9639
   92MPD2    H2 1410   2.482   3.845  16.429 -0.8123 -0.0046 -1.9412
   92MPD2    H3 1411   2.734   3.827  16.427  1.4014  1.4517  0.5806
   92MPD2     N 1412   2.768   4.200  16.154 -0.1723 -0.2894  0.7319
   92MPD2    H5 1413   2.703   4.263  16.109  0.0456 -1.0035 -0.5898
   92MPD2    N1 1414   2.348   4.041  16.308  0.6912 -0.7975 -0.5318
   92MPD2    H7 1415   2.321   4.127  16.261 -1.9154 -0.5266  1.4356
   93MPD2     C 1416   4.103   3.942  13.209  0.1430  0.1238  0.3200
   93MPD2    C1 1417   4.063   4.025  13.311 -0.0767  0.0068  0.8968
   93MPD2    C2 1418   3.941   4.004  13.368  0.2644 -0.6690  0.1336
   93MPD2    C3 1419   3.845   3.920  13.316 -0.1365 -0.1131  0.1988
   93MPD2    C4 1420   3.887   3.843  13.205  0.8636  0.5715 -0.3698
   93MPD2    C5 1421   4.012   3.856  13.151 -0.2788 -0.3532 -0.4403
   93MPD2     H 1422   3.923   4.068  13.453 -0.0212 -0.1742 -0.2978
   93MPD2    H1 1423   3.821   3.761  13.179  1.5268 -0.1967  0.4212
   93MPD2    H2 1424   4.197   3.963  13.160  0.2492 -0.4981  0.2676
   93MPD2    H3 1425   4.043   3.795  13.067  0.7011 -0.0338 -0.3149
   93MPD2     N 1426   3.714   3.913  13.364 -1.0698  0.1529 -0.4483
   93MPD2    H5 1427   3.650   3.848  13.320 -1.7613 -0.5583  1.5883
   93MPD2    N1 1428   4.149   4.115  13.373 -0.1074  0.8282 -0.0614
   93MPD2    H7 1429   4.110   4.167  13.451  3.5548  0.9488  1.6942
   94TCq2    C1 1430   4.287   4.115  13.372  0.6036 -0.3641 -0.3712
   94TCq2    O2 1431   4.362   4.027  13.327  0.5138 -0.1030  0.6722
   94TCq2    C2 1432   4.334   4.231  13.442 -0.8703  0.6201 -0.5630
   94TCq2    C3 1433   4.261   4.343  13.438 -0.7907  0.4898  0.8706
   94TCq2    C4 1434   4.303   4.459  13.503 -0.6683 -0.3428 -0.0604
   94TCq2    C5 1435   4.421   4.455  13.585 -0.1562  0.2309  0.2376
   94TCq2    C6 1436   4.489   4.342  13.582  0.4332  1.0169 -0.0775
   94TCq2    C7 1437   4.454   4.227  13.510 -0.3245  0.3374 -0.2212
   94TCq2    C8 1438   4.626   4.331  13.647 -0.0154  0.2885  0.1334
   94TCq2    O4 1439   4.687   4.229  13.633  0.3446 -0.3277  0.6533
   94TCq2    C9 1440   4.229   4.579  13.485  0.5145  0.2324  0.6874
   94TCq2    O5 1441   4.123   4.573  13.420 -0.0380 -0.2570  0.0238
   94TCq2    O6 1442   4.288   4.687  13.503  0.1505  0.3958 -0.8340
   94TCq2    H2 1443   4.174   4.349  13.373  1.6877  0.2619 -2.4781
   94TCq2    H3 1444   4.450   4.551  13.627 -1.6565  0.2929  1.1298
   94TCq2    H4 1445   4.510   4.135  13.512 -3.6028 -1.7118 -2.3768
   95TMC2    C1 1446   4.082   1.613  16.137 -0.3012  0.1714 -1.1425
   95TMC2    C2 1447   4.057   1.528  16.238  0.5782  0.1275 -0.1734
   95TMC2    C3 1448   4.060   1.578  16.364 -0.1652  0.1957 -0.1686
   95TMC2    C4 1449   4.067   1.749  16.155 -0.3272  0.5062 -0.3335
   95TMC2    C5 1450   4.050   1.801  16.284 -0.5865  0.6225 -0.2012
   95TMC2    C6 1451   4.064   1.713  16.390  0.2533  0.7277 -0.4814
   95TMC2     C 1452   4.114   1.572  16.003 -0.2117  0.0448  0.2712
   95TMC2     O 1453   4.152   1.654  15.922 -0.4489 -0.4013 -0.2269
   95TMC2     H 1454   4.087   1.425  16.228  1.3992  0.2615  0.9002
   95TMC2    H1 1455   4.074   1.810  16.065  2.4707  2.4440  1.1998
   95TMC2    H2 1456   4.070   1.758  16.489 -1.3350  0.1198 -0.1133
   95TMC2    C7 1457   3.980   1.922  16.303 -0.3130 -0.3572  0.0757
   95TMC2    C8 1458   4.132   1.490  16.454  0.1636 -0.0992 -0.1095
   95TMC2    O1 1459   3.934   1.931  16.417  0.7054  0.1959  0.6249
   95TMC2    O2 1460   4.214   1.406  16.414  0.1534  0.6477  0.5765
   95TMC2    O5 1461   4.120   1.538  16.586  0.0381 -0.4772  0.2157
   95TMC2    H5 1462   4.043   1.595  16.607 -0.1849  0.3609 -2.9218
   96MPD2     C 1463   4.275   1.205  15.686 -1.2966 -0.0821  0.3168
   96MPD2    C1 1464   4.304   1.339  15.689  0.6487 -0.2217  0.3018
   96MPD2    C2 1465   4.248   1.418  15.789  0.8909  0.4106  0.3181
   96MPD2    C3 1466   4.162   1.363  15.889 -0.1335  0.1720  0.2611
   96MPD2    C4 1467   4.141   1.221  15.885 -0.1576 -0.8238 -0.0455
   96MPD2    C5 1468   4.188   1.149  15.773 -0.0826  0.8304  0.4950
   96MPD2     H 1469   4.270   1.524  15.784  1.1788  0.2645 -1.6589
   96MPD2    H1 1470   4.086   1.177  15.967 -0.3097  1.7193  1.2377
   96MPD2    H2 1471   4.300   1.140  15.603  1.1970  0.3975  0.6989
   96MPD2    H3 1472   4.164   1.043  15.772  1.1871  0.5706 -1.6553
   96MPD2     N 1473   4.100   1.434  15.989 -0.4858 -0.2345 -0.1759
   96MPD2    H5 1474   4.031   1.389  16.049 -2.0158  0.6502 -1.2636
   96MPD2    N1 1475   4.381   1.390  15.585  0.4250 -0.5713  0.4364
   96MPD2    H7 1476   4.404   1.329  15.508  0.9763  0.8945 -0.5514
   97MPD2     C 1477   1.054   0.006  17.682  0.1997 -0.3700 -0.6413
   97MPD2    C1 1478   1.024   4.618   0.062  0.1478  0.9441  0.2992
   97MPD2    C2 1479   1.037   4.497  17.692 -0.6917  0.1572 -0.0214
   97MPD2    C3 1480   1.095   4.480  17.566  0.8210  1.2084 -0.4655
   97MPD2    C4 1481   1.146   4.597  17.500  0.8755 -0.5137  0.5756
   97MPD2    C5 1482   1.121   4.717  17.563  0.0251 -0.5677 -0.9483
   97MPD2     H 1483   0.994   4.409   0.046  3.4996 -0.8404  1.9313
   97MPD2    H1 1484   1.188   4.594  17.399 -0.1400  2.1643  0.0685
   97MPD2    H2 1485   1.041   0.106   0.027  1.7675 -0.0054 -1.0804
   97MPD2    H3 1486   1.159   0.085  17.518 -3.2292  1.9210  1.2821
   97MPD2     N 1487   1.119   4.353  17.509 -0.0155 -0.5139  0.3626
   97MPD2    H5 1488   1.189   4.344  17.436 -0.4639 -0.6562 -0.0526
   97MPD2    N1 1489   0.992   4.642   0.194 -0.0052 -0.0863  0.3649
   97MPD2    H7 1490   0.992   0.012   0.235  0.4255  0.3270 -0.5699
   98TCq2    C1 1491   1.046   4.244  17.536  0.5247  0.5778  0.4102
   98TCq2    O2 1492   0.939   4.233  17.591 -0.3130 -0.1025 -0.2834
   98TCq2    C2 1493   1.103   4.125  17.490 -0.0189 -0.4598 -0.4188
   98TCq2    C3 1494   1.005   4.025  17.475 -0.0858  0.9700  0.3669
   98TCq2    C4 1495   1.050   3.897  17.460 -0.0236 -0.6318  0.6610
   98TCq2    C5 1496   1.180   3.860  17.480 -0.0306  0.2751 -0.3793
   98TCq2    C6 1497   1.278   3.962  17.503 -0.1985 -1.3735  0.1282
   98TCq2    C7 1498   1.238   4.098  17.503 -0.2599 -0.4498  0.0861
   98TCq2    C8 1499   1.416   3.923  17.535  0.9093 -0.4971  0.6888
   98TCq2    O4 1500   1.499   4.009  17.492 -0.1750  0.4198 -0.1069
   98TCq2    C9 1501   0.959   3.802  17.418 -0.6784 -0.4083 -0.5635
   98TCq2    O5 1502   0.837   3.841  17.417 -0.0289 -0.0325  0.1610
   98TCq2    O6 1503   0.999   3.682  17.418  0.2371 -0.8296  0.4925
   98TCq2    H2 1504   0.899   4.047  17.464  0.0654  0.9413 -1.1439
   98TCq2    H3 1505   1.221   3.762  17.459 -0.4458 -0.0193  0.1860
   98TCq2    H4 1506   1.313   4.174  17.520  0.1480 -0.5361 -1.3238
   99MPD2     C 1507   0.431   1.624   1.162 -0.8524 -0.2426 -0.1093
   99MPD2    C1 1508   0.376   1.502   1.185  0.1555  0.3486  0.6569
   99MPD2    C2 1509   0.254   1.466   1.128  0.8120  0.3030 -0.2032
   99MPD2    C3 1510   0.186   1.558   1.047  0.6670 -0.1046 -0.1801
   99MPD2    C4 1511   0.240   1.686   1.029 -0.6213 -0.3672  0.1243
   99MPD2    C5 1512   0.363   1.716   1.088  0.1990 -0.5846 -0.1114
   99MPD2     H 1513   0.199   1.376   1.153 -1.1087  1.6283  0.3977
   99MPD2    H1 1514   0.193   1.761   0.966 -1.2398 -1.4061 -0.6574
   99MPD2    H2 1515   0.529   1.653   1.198 -0.5452  0.0477 -1.1742
   99MPD2    H3 1516   0.420   1.807   1.072 -1.6437  0.4523 -0.7827
   99MPD2     N 1517   0.072   1.508   0.986  0.0008 -0.6521  1.0701
   99MPD2    H5 1518   0.050   1.409   0.997 -0.7746 -0.5848  0.1502
   99MPD2    N1 1519   0.441   1.408   1.274  0.7527 -0.2684  0.2941
   99MPD2    H7 1520   0.406   1.313   1.270 -1.0366  0.3257  1.8019
  100TCq2    C1 1521   0.535   1.443   1.366  0.4496  0.5063  0.8236
  100TCq2    O2 1522   0.602   1.546   1.386  0.4150  0.3547  0.0237
  100TCq2    C2 1523   0.552   1.331   1.461 -0.2047  0.0640 -0.6070
  100TCq2    C3 1524   0.662   1.334   1.546  0.3968  0.0572  0.2905
  100TCq2    C4 1525   0.666   1.243   1.650  0.1990 -0.8414 -0.7498
  100TCq2    C5 1526   0.574   1.142   1.661 -0.3638  0.0310  0.9217
  100TCq2    C6 1527   0.472   1.144   1.568  0.0646  0.8839  0.8696
  100TCq2    C7 1528   0.460   1.238   1.475 -0.4808 -0.0156  0.6722
  100TCq2    C8 1529   0.363   1.054   1.585 -0.2853 -0.3376  0.2073
  100TCq2    O4 1530   0.352   0.998   1.693 -0.3004 -0.3192  0.6588
  100TCq2    C9 1531   0.767   1.261   1.747 -0.3361 -0.2467 -0.1328
  100TCq2    O5 1532   0.845   1.356   1.724  0.1916 -0.0674 -0.2576
  100TCq2    O6 1533   0.748   1.200   1.851 -0.1706  0.2501 -0.2836
  100TCq2    H2 1534   0.731   1.417   1.538  0.4471 -0.1058 -0.9492
  100TCq2    H3 1535   0.577   1.068   1.740  0.7365 -1.7865 -0.7980
  100TCq2    H4 1536   0.358   1.252   1.439 -0.3090  1.2135  0.6597
  101MPD2     C 1537   1.016   1.917  12.507 -0.1452  0.1034  0.4646
  101MPD2    C1 1538   0.967   1.992  12.609  0.1798 -0.1829  0.4334
  101MPD2    C2 1539   0.899   1.922  12.709 -0.0031 -0.3012  0.0735
  101MPD2    C3 1540   0.858   1.794  12.689 -0.5496  0.2841  0.0806
  101MPD2    C4 1541   0.895   1.729  12.575  0.0140  0.0135  0.2631
  101MPD2    C5 1542   0.975   1.791  12.485 -0.5718  0.2353  1.2825
  101MPD2     H 1543   0.855   1.965  12.798 -1.0696  0.1596 -0.6764
  101MPD2    H1 1544   0.853   1.633  12.546  0.0750 -0.0512  0.3870
  101MPD2    H2 1545   1.087   1.944  12.430  2.4201 -0.8938  2.4941
  101MPD2    H3 1546   1.007   1.731  12.400 -1.1544 -1.3284  2.1655
  101MPD2     N 1547   0.775   1.740  12.787 -0.2394 -0.4589 -0.0602
  101MPD2    H5 1548   0.768   1.786  12.877 -1.1573  0.5248 -0.6329
  101MPD2    N1 1549   1.019   2.122  12.626 -0.1032 -0.4162 -0.6798
  101MPD2    H7 1550   1.063   2.165  12.545 -2.7205  0.0229 -1.8813
  102TCq2    C1 1551   1.161   2.413  12.374 -0.4027  0.5668  0.3586
  102TCq2    O2 1552   1.266   2.353  12.378 -0.1475  0.0816  0.7093
  102TCq2    C2 1553   1.094   2.447  12.504  0.5936  0.4915 -0.1020
  102TCq2    C3 1554   0.978   2.530  12.512  0.4470 -0.4790  0.1724
  102TCq2    C4 1555   0.881   2.507  12.607  0.6721 -0.0082 -0.4493
  102TCq2    C5 1556   0.899   2.402  12.684 -0.4111 -0.5261  0.4623
  102TCq2    C6 1557   1.018   2.333  12.688 -0.0599  0.5370 -0.4973
  102TCq2    C7 1558   1.120   2.362  12.607 -0.5212  0.3999  0.3301
  102TCq2    C8 1559   1.012   2.197  12.730  0.6311 -0.7691 -0.5981
  102TCq2    O4 1560   0.998   2.164  12.846 -0.2150 -0.9834 -0.2136
  102TCq2    C9 1561   0.758   2.584  12.604 -0.1537 -0.5698  0.7169
  102TCq2    O5 1562   0.649   2.528  12.620 -0.2471  0.4939 -0.1314
  102TCq2    O6 1563   0.774   2.688  12.529  0.0751 -0.0454  0.4395
  102TCq2    H2 1564   0.973   2.616  12.446  1.1770  0.4431  1.3275
  102TCq2    H3 1565   0.816   2.370  12.745 -0.8361  1.0567  0.6959
  102TCq2    H4 1566   1.190   2.282  12.586 -1.2759  0.2809 -1.7671
  103TMC2    C1 1567   3.913   2.047  12.357  0.3101 -0.1060 -0.4919
  103TMC2    C2 1568   4.048   2.027  12.335  0.9363 -0.0392  0.2332
  103TMC2    C3 1569   4.127   2.000  12.444 -0.4301 -0.5376  0.3194
  103TMC2    C4 1570   3.853   2.009  12.478  0.0789 -0.1160  0.1334
  103TMC2    C5 1571   3.943   1.967  12.580 -0.9897  0.7800 -0.0656
  103TMC2    C6 1572   4.078   1.970  12.570 -0.1477 -0.3969 -0.5307
  103TMC2     C 1573   3.827   2.115  12.263  0.6682  0.6885  0.2876
  103TMC2     O 1574   3.712   2.142  12.300  0.1416 -0.1599  0.4019
  103TMC2     H 1575   4.086   2.021  12.234 -1.2593  0.3128 -0.6025
  103TMC2    H1 1576   3.749   2.026  12.501  0.2958 -0.5151  1.3748
  103TMC2    H2 1577   4.155   1.955  12.644 -1.0159 -1.7952  0.0920
  103TMC2    C7 1578   3.896   1.937  12.714 -0.0814 -0.4916  0.2371
  103TMC2    C8 1579   4.255   1.941  12.426 -0.5470  0.1398  0.3822
  103TMC2    O1 1580   3.980   1.900  12.792  0.2576  0.1194 -0.4423
  103TMC2    O2 1581   4.270   1.832  12.478 -0.1322 -0.0014  0.3048
  103TMC2    O5 1582   4.302   1.972  12.300 -0.0720  0.4397  0.9296
  103TMC2    H5 1583   4.286   2.064  12.272  2.1800 -0.3106 -2.7866
  104MPD2     C 1584   3.885   2.221  11.917 -0.0694 -0.4315  0.0744
  104MPD2    C1 1585   3.802   2.192  12.025 -0.6089  1.4768 -0.3238
  104MPD2    C2 1586   3.671   2.237  12.018 -0.0804 -0.1707  0.4022
  104MPD2    C3 1587   3.619   2.309  11.914 -0.1012 -0.2664  0.3721
  104MPD2    C4 1588   3.694   2.330  11.806  0.2678 -0.6703  0.1025
  104MPD2    C5 1589   3.829   2.290  11.813  0.3968 -0.4360  0.1606
  104MPD2     H 1590   3.603   2.238  12.103 -1.1654  1.8431 -0.4919
  104MPD2    H1 1591   3.661   2.390  11.722  0.0820 -0.5887  0.2351
  104MPD2    H2 1592   3.990   2.193  11.909  0.3626  1.0111  0.6485
  104MPD2    H3 1593   3.890   2.311  11.726  1.2035 -2.2005  0.2898
  104MPD2     N 1594   3.482   2.348  11.932 -0.2956  0.0134 -0.3095
  104MPD2    H5 1595   3.425   2.314  12.008 -0.5769 -1.6083 -1.2532
  104MPD2    N1 1596   3.872   2.124  12.131 -0.1519  0.8072 -1.0590
  104MPD2    H7 1597   3.971   2.104  12.121 -0.2319 -1.2217  2.3127
  105MPD2     C 1598   4.709   1.492  17.671 -0.1088  0.3366  0.3585
  105MPD2    C1 1599   0.103   1.565  17.673 -0.0507  0.2048  1.2796
  105MPD2    C2 1600   0.103   1.675   0.064  0.4177 -0.1007 -0.0877
  105MPD2    C3 1601   4.719   1.710   0.139 -0.1883 -0.2189 -0.3083
  105MPD2    C4 1602   4.611   1.624   0.138  0.1373 -0.3036  0.3420
  105MPD2    C5 1603   4.609   1.506   0.069 -0.1493  0.4312  0.4808
  105MPD2     H 1604   0.192   1.738   0.066 -0.2632  0.8350  0.8920
  105MPD2    H1 1605   4.525   1.638   0.204  1.2473  0.6387  1.5925
  105MPD2    H2 1606   4.695   1.404  17.609  1.5242  0.6951 -0.5107
  105MPD2    H3 1607   4.521   1.443   0.060  0.4996 -0.4613  0.3368
  105MPD2     N 1608   0.003   1.824   0.226 -0.2180  0.4970  0.3538
  105MPD2    H5 1609   0.086   1.883   0.218 -1.5659  2.2351 -1.0241
  105MPD2    N1 1610   0.211   1.554  17.583 -0.4684 -0.2946  0.5569
  105MPD2    H7 1611   0.294   1.612  17.591 -2.0409  2.1298 -0.5654
  106TCq2    C1 1612   4.616   1.878   0.291 -0.1834  0.6231  0.0437
  106TCq2    O2 1613   4.501   1.851   0.266  0.0105  0.1731  0.1965
  106TCq2    C2 1614   4.653   2.004   0.355  0.6749  0.1198  0.3500
  106TCq2    C3 1615   4.559   2.096   0.372 -0.6010 -0.0497 -0.6164
  106TCq2    C4 1616   4.589   2.204   0.441  0.3347  0.2124  0.0225
  106TCq2    C5 1617   4.713   2.226   0.502  0.6798  0.1003 -0.3850
  106TCq2    C6 1618   0.086   2.123   0.488  0.4533 -0.3150  0.0797
  106TCq2    C7 1619   0.056   2.016   0.404  0.5741 -0.0811 -0.3191
  106TCq2    C8 1620   0.218   2.132   0.547  0.6092  0.3823  0.6750
  106TCq2    O4 1621   0.298   2.046   0.515 -0.3882  0.3166  0.3802
  106TCq2    C9 1622   4.491   2.306   0.443 -0.0323  0.0610 -0.3370
  106TCq2    O5 1623   4.533   2.423   0.466 -0.1433  0.1138  0.1166
  106TCq2    O6 1624   4.379   2.288   0.385 -0.0765  0.3063  0.0991
  106TCq2    H2 1625   4.457   2.078   0.341 -0.2197 -2.6480 -0.3337
  106TCq2    H3 1626   0.012   2.315   0.559  0.6359 -0.5960  0.7009
  106TCq2    H4 1627   0.130   1.939   0.423  1.1416  0.6647  0.4699
  107TMC2    C1 1628   1.588   0.380  11.605  0.1302 -0.4253 -0.0409
  107TMC2    C2 1629   1.613   0.267  11.535  0.4499  0.1681  0.0736
  107TMC2    C3 1630   1.654   0.269  11.408  0.1862  1.4373 -0.1712
  107TMC2    C4 1631   1.597   0.497  11.538 -0.2524 -0.4041  0.2022
  107TMC2    C5 1632   1.620   0.494  11.407 -0.2396 -0.8347 -0.1935
  107TMC2    C6 1633   1.646   0.379  11.331 -0.1132  0.4893 -0.3381
  107TMC2     C 1634   1.521   0.389  11.731  0.5910  0.0725  0.4153
  107TMC2     O 1635   1.537   0.491  11.799  0.0669  0.0089 -0.0082
  107TMC2     H 1636   1.611   0.171  11.585 -0.0106  0.4243  0.5415
  107TMC2    H1 1637   1.587   0.591  11.592 -0.5060 -0.5464  0.4068
  107TMC2    H2 1638   1.683   0.382  11.229  0.8363 -0.2775 -0.0169
  107TMC2    C7 1639   1.568   0.611  11.334  0.3269  0.7371  0.0061
  107TMC2    C8 1640   1.692   0.139  11.362  1.0197 -0.0078  0.1229
  107TMC2    O1 1641   1.521   0.703  11.399  0.0919  0.2403  0.6266
  107TMC2    O2 1642   1.701   0.043  11.437 -0.0989  0.0132 -0.1475
  107TMC2    O5 1643   1.655   0.134  11.235  0.3033  0.3622 -0.2045
  107TMC2    H5 1644   1.622   0.224  11.213 -2.4944 -1.0274 -1.5354
  108MPD2     C 1645   1.236   0.190  11.842  0.0744 -0.5174  0.2826
  108MPD2    C1 1646   1.343   0.273  11.853  0.2292  0.2808 -0.9259
  108MPD2    C2 1647   1.363   0.351  11.966 -0.4808 -0.2696 -0.2734
  108MPD2    C3 1648   1.273   0.331  12.075  0.0616 -0.0132  0.1475
  108MPD2    C4 1649   1.163   0.246  12.062 -0.3048  0.7430  0.0017
  108MPD2    C5 1650   1.147   0.176  11.942 -0.0927 -0.4994 -0.1294
  108MPD2     H 1651   1.448   0.419  11.972 -1.1789  0.6570 -0.7725
  108MPD2    H1 1652   1.090   0.248  12.141 -1.9452  0.6460 -1.5190
  108MPD2    H2 1653   1.224   0.122  11.758 -3.0071 -1.6061  1.5863
  108MPD2    H3 1654   1.058   0.114  11.931 -0.3267 -0.1355 -0.2923
  108MPD2     N 1655   1.278   0.403  12.199  0.5424  0.4992  0.0225
  108MPD2    H5 1656   1.212   0.375  12.271 -0.3926 -0.6379 -1.2622
  108MPD2    N1 1657   1.434   0.285  11.748 -0.1025  0.3179 -0.1318
  108MPD2    H7 1658   1.430   0.221  11.670 -2.4404 -0.8503  0.9479
  109MPD2     C 1659   1.286   3.240   1.021  0.0565 -0.0086  0.0474
  109MPD2    C1 1660   1.201   3.326   0.958  0.6242  0.2153  0.0083
  109MPD2    C2 1661   1.182   3.458   0.999 -0.4974  0.1215 -0.0954
  109MPD2    C3 1662   1.252   3.508   1.108  0.5600 -0.2513  0.0018
  109MPD2    C4 1663   1.339   3.421   1.174 -0.7536 -0.6511  0.5712
  109MPD2    C5 1664   1.344   3.292   1.138 -0.1525  0.1487 -0.2210
  109MPD2     H 1665   1.131   3.530   0.936 -1.5570 -0.0677  0.5330
  109MPD2    H1 1666   1.404   3.442   1.258 -1.8098 -0.1757  1.2729
  109MPD2    H2 1667   1.291   3.135   0.995  1.1900  0.1379 -0.3207
  109MPD2    H3 1668   1.413   3.229   1.192  0.1338  0.6208 -0.0376
  109MPD2     N 1669   1.242   3.646   1.139 -0.4322  0.4119  0.0436
  109MPD2    H5 1670   1.168   3.698   1.094  0.4009  1.2446 -0.3676
  109MPD2    N1 1671   1.141   3.277   0.842  0.1166 -0.3436 -0.1184
  109MPD2    H7 1672   1.156   3.178   0.825  1.2041  0.0165 -1.2674
  110TCq2    C1 1673   1.313   3.709   1.240  0.2090 -0.1139  0.1415
  110TCq2    O2 1674   1.381   3.657   1.328 -0.2109 -0.5619  0.3167
  110TCq2    C2 1675   1.267   3.847   1.257 -0.2623  0.4165  0.3887
  110TCq2    C3 1676   1.276   3.901   1.381 -0.0935 -0.3840 -0.2058
  110TCq2    C4 1677   1.190   4.007   1.419  0.4958  0.7393  0.4287
  110TCq2    C5 1678   1.095   4.061   1.338 -0.4742 -0.1747  0.1707
  110TCq2    C6 1679   1.082   4.006   1.207  0.1564 -0.1136 -0.2192
  110TCq2    C7 1680   1.162   3.897   1.175  1.0106 -0.1209 -0.4443
  110TCq2    C8 1681   0.989   4.074   1.103 -0.2662 -0.5947  0.6532
  110TCq2    O4 1682   0.973   4.196   1.110 -0.3823  0.2258 -0.4488
  110TCq2    C9 1683   1.189   4.052   1.553 -0.2155 -0.1879  0.5573
  110TCq2    O5 1684   1.282   4.013   1.626  0.2835  0.4077 -0.0413
  110TCq2    O6 1685   1.114   4.149   1.576 -0.8302  0.2768  0.8594
  110TCq2    H2 1686   1.347   3.860   1.453 -1.4205  0.0533  1.3688
  110TCq2    H3 1687   1.025   4.138   1.368  0.4529  0.0498  1.7407
  110TCq2    H4 1688   1.161   3.882   1.068 -1.6851  1.6419 -0.6749
  111TMC2    C1 1689   1.430   2.986  11.018  0.5607 -1.0256 -0.0260
  111TMC2    C2 1690   1.523   3.052  10.951 -0.6869 -0.6472  0.0128
  111TMC2    C3 1691   1.655   3.011  10.972 -0.1662  0.1428  0.2384
  111TMC2    C4 1692   1.455   2.882  11.105  0.6829 -0.2071  0.2691
  111TMC2    C5 1693   1.592   2.851  11.132  1.4179 -0.3703  0.3045
  111TMC2    C6 1694   1.698   2.916  11.063  0.0605  0.5446 -0.4165
  111TMC2     C 1695   1.299   2.987  10.962  0.6861  0.1750  0.1257
  111TMC2     O 1696   1.291   2.990  10.843 -0.0287  0.2087  0.1451
  111TMC2     H 1697   1.494   3.117  10.869  2.8080 -1.4442 -1.8934
  111TMC2    H1 1698   1.373   2.830  11.153  3.2761 -2.8757  1.7662
  111TMC2    H2 1699   1.805   2.912  11.084 -0.4625 -2.2937  1.7072
  111TMC2    C7 1700   1.632   2.752  11.222  0.2761 -0.4023  0.2891
  111TMC2    C8 1701   1.775   3.084  10.914  0.3431 -0.2070  0.6115
  111TMC2    O1 1702   1.547   2.723  11.306  0.4139  0.2357 -0.6649
  111TMC2    O2 1703   1.888   3.045  10.900 -0.4926 -0.3639  0.0389
  111TMC2    O5 1704   1.733   3.200  10.870  0.3888  0.4361 -0.4336
  111TMC2    H5 1705   1.642   3.225  10.895  0.3176 -2.2595  1.9459
  112MPD2     C 1706   0.790   2.876  10.943 -0.1222 -0.1260 -0.2860
  112MPD2    C1 1707   0.880   2.897  10.840 -0.6103 -0.7170 -0.1854
  112MPD2    C2 1708   1.010   2.936  10.876 -0.0316  0.1352 -0.3233
  112MPD2    C3 1709   1.058   2.943  11.007 -0.1688 -0.9069 -0.7246
  112MPD2    C4 1710   0.965   2.928  11.103 -0.1523 -0.7544  0.3984
  112MPD2    C5 1711   0.838   2.891  11.071  0.2566  0.1495  0.1413
  112MPD2     H 1712   1.074   2.960  10.792  0.7192 -0.2917  0.1254
  112MPD2    H1 1713   0.987   2.947  11.207 -0.8157  1.3536  0.1587
  112MPD2    H2 1714   0.688   2.844  10.928  0.1373 -0.9123 -0.3574
  112MPD2    H3 1715   0.771   2.875  11.155 -0.6818  0.7186 -0.4965
  112MPD2     N 1716   1.193   2.966  11.047  0.2051 -0.1420  0.0972
  112MPD2    H5 1717   1.213   2.983  11.146 -1.1709  1.0416  0.1849
  112MPD2    N1 1718   0.849   2.897  10.703 -0.0441  0.4003 -0.6664
  112MPD2    H7 1719   0.920   2.912  10.633  1.1225  0.3973  0.5281
  113MPD2     C 1720   3.943   1.362   0.577 -0.1646  0.6074 -0.0630
  113MPD2    C1 1721   4.012   1.259   0.630 -0.6549  0.5630  0.5312
  113MPD2    C2 1722   4.028   1.139   0.552  0.0042  0.0713  0.1962
  113MPD2    C3 1723   3.975   1.125   0.421  0.1800 -0.0849  0.1410
  113MPD2    C4 1724   3.906   1.235   0.373  0.1066  0.1605  0.7957
  113MPD2    C5 1725   3.882   1.345   0.456  0.4873 -0.0683  0.8499
  113MPD2     H 1726   4.083   1.053   0.588 -2.4232 -1.5845  0.0001
  113MPD2    H1 1727   3.856   1.236   0.277  1.3051 -0.6879  0.1645
  113MPD2    H2 1728   3.927   1.455   0.630 -0.6020 -0.4891  1.7179
  113MPD2    H3 1729   3.821   1.427   0.420 -1.1406 -1.6196  0.1205
  113MPD2     N 1730   3.984   1.014   0.337 -0.3317 -0.8961  0.6292
  113MPD2    H5 1731   3.933   1.024   0.250  0.1263 -0.2783  0.4377
  113MPD2    N1 1732   4.065   1.271   0.759  0.2315  0.3579  0.4557
  113MPD2    H7 1733   4.027   1.351   0.809  3.3434  1.5806  0.8582
  114TCq2    C1 1734   4.047   0.895   0.364  0.9521 -0.2306 -0.5803
  114TCq2    O2 1735   4.095   0.849   0.465 -0.5540 -0.1756 -0.1835
  114TCq2    C2 1736   4.051   0.809   0.256  0.5643 -0.4603 -0.3496
  114TCq2    C3 1737   4.016   0.850   0.125 -0.3203 -0.2654 -0.7317
  114TCq2    C4 1738   3.996   0.755   0.028  0.2987 -0.1246  0.1636
  114TCq2    C5 1739   4.018   0.622   0.052 -0.0804  0.4880 -0.1670
  114TCq2    C6 1740   4.054   0.584   0.178 -0.2338  0.6545 -0.1779
  114TCq2    C7 1741   4.065   0.672   0.284 -0.0721 -0.5382 -0.5428
  114TCq2    C8 1742   4.010   0.449   0.213  0.2189  0.3761 -0.1058
  114TCq2    O4 1743   4.032   0.361   0.127 -0.1944 -0.7875  0.3293
  114TCq2    C9 1744   3.944   0.792  17.594  0.1040 -0.8560  0.5175
  114TCq2    O5 1745   3.900   0.712  17.508 -0.1214 -0.1781 -0.5998
  114TCq2    O6 1746   3.974   0.908  17.563 -0.7812  0.2582  0.4680
  114TCq2    H2 1747   4.005   0.955   0.100 -0.1132  0.4813  2.3432
  114TCq2    H3 1748   3.991   0.548  17.672 -0.1350  1.1620 -0.8254
  114TCq2    H4 1749   4.085   0.640   0.385 -1.5072 -2.1450 -0.7802
  115TMC2    C1 1750   0.055   3.415  17.450 -0.3085 -0.8964  0.7640
  115TMC2    C2 1751   0.157   3.390  17.360 -0.5771  0.1457  0.0501
  115TMC2    C3 1752   0.228   3.496  17.314 -0.5289  0.5891 -0.6496
  115TMC2    C4 1753   0.029   3.544  17.483 -0.5294 -0.2756 -0.1927
  115TMC2    C5 1754   0.091   3.643  17.415 -0.6447  0.2933 -0.2254
  115TMC2    C6 1755   0.201   3.626  17.334  0.0144 -0.0172 -0.3316
  115TMC2     C 1756   4.671   3.314  17.440 -0.3585  0.4328 -0.6063
  115TMC2     O 1757   4.697   3.223  17.364 -0.2224  0.2444 -0.0903
  115TMC2     H 1758   0.192   3.293  17.326  0.5978 -0.0458  1.7619
  115TMC2    H1 1759   4.674   3.569  17.554 -1.1617 -1.6301 -0.4172
  115TMC2    H2 1760   0.269   3.708  17.316 -1.1963  1.4010  1.5110
  115TMC2    C7 1761   0.036   3.778  17.435  0.2444 -0.5018  0.6156
  115TMC2    C8 1762   0.351   3.471  17.247 -0.0850  0.0551 -0.4606
  115TMC2    O1 1763   4.709   3.796  17.545 -0.2303 -0.9733  0.4578
  115TMC2    O2 1764   0.454   3.537  17.258  0.0074 -0.2060 -0.9224
  115TMC2    O5 1765   0.294   3.430  17.136 -0.6126  0.5884 -0.1040
  115TMC2    H5 1766   0.206   3.387  17.141  0.6427 -2.1679 -1.3599
  116MPD2     C 1767   4.176   3.182  17.402 -0.0541 -0.7653  0.1570
  116MPD2    C1 1768   4.291   3.112  17.369  0.1292  0.3341  0.6061
  116MPD2    C2 1769   4.414   3.166  17.394  0.7199  0.1089  0.2037
  116MPD2    C3 1770   4.424   3.283  17.460 -0.3938 -0.1778  0.0567
  116MPD2    C4 1771   4.309   3.347  17.510 -0.5128  0.2552  0.1443
  116MPD2    C5 1772   4.187   3.289  17.487 -0.4534 -0.4636  0.0971
  116MPD2     H 1773   4.502   3.109  17.365  0.0476 -1.0347  0.3933
  116MPD2    H1 1774   4.316   3.432  17.578  2.0026 -0.8398  1.2512
  116MPD2    H2 1775   4.079   3.143  17.373 -0.8165  1.2652  0.0148
  116MPD2    H3 1776   4.099   3.341  17.522  1.7067  3.3191 -0.0251
  116MPD2     N 1777   4.548   3.348  17.491 -0.4161 -0.4030  0.3775
  116MPD2    H5 1778   4.539   3.430  17.551  0.5782 -0.6041  0.8069
  116MPD2    N1 1779   4.262   2.990  17.302  0.0317  0.2672  0.6717
  116MPD2    H7 1780   4.168   2.958  17.283  0.3817 -0.2657 -0.1867
  117TMC2    C1 1781   3.256   0.088  14.074 -0.0074 -0.2376 -0.1393
  117TMC2    C2 1782   3.315   0.005  14.165  0.1994  0.4227  0.5784
  117TMC2    C3 1783   3.408   0.062  14.245 -1.0791 -0.4703  0.8082
  117TMC2    C4 1784   3.305   0.208  14.034 -0.1666 -0.4229 -0.0534
  117TMC2    C5 1785   3.407   0.255  14.109  0.1073  0.6745  0.5847
  117TMC2    C6 1786   3.460   0.189  14.221 -0.0418 -0.9881  0.3762
  117TMC2     C 1787   3.134   0.044  14.013 -0.1949  0.5529 -0.3222
  117TMC2     O 1788   3.115   4.648  14.019 -0.7341 -0.1585 -0.0178
  117TMC2     H 1789   3.269   4.632  14.184 -0.6332 -0.1742 -4.5207
  117TMC2    H1 1790   3.260   0.259  13.949  0.9374  1.7041  0.6412
  117TMC2    H2 1791   3.551   0.222  14.269  0.5728  0.7509 -1.9723
  117TMC2    C7 1792   3.477   0.382  14.081 -0.4134 -0.1067  0.2852
  117TMC2    C8 1793   3.485   4.689  14.327  0.1515  0.5927  0.4195
  117TMC2    O1 1794   3.574   0.410  14.147 -0.1637  0.0756 -0.1235
  117TMC2    O2 1795   3.490   4.566  14.309  0.3703 -0.1696  0.2044
  117TMC2    O5 1796   3.503   0.031  14.448 -0.0553 -0.3499 -0.3065
  117TMC2    H5 1797   3.491   0.128  14.444 -1.7097 -0.5309  0.1615
  118MPD2     C 1798   3.325   0.677  13.923  0.5088  0.4146 -0.4156
  118MPD2    C1 1799   3.427   0.599  13.968 -0.4331  0.8380 -0.6017
  118MPD2    C2 1800   3.554   0.652  13.975 -0.3919 -0.0903  1.0528
  118MPD2    C3 1801   3.574   0.788  13.960  0.1748  0.2622  0.4690
  118MPD2    C4 1802   3.470   0.869  13.912 -0.3093 -0.2126 -0.3369
  118MPD2    C5 1803   3.348   0.813  13.893 -0.0930  0.1160  0.0756
  118MPD2     H 1804   3.627   0.584  14.018  1.8028  1.0661 -0.7967
  118MPD2    H1 1805   3.490   0.971  13.882  1.9482 -0.8351 -0.9619
  118MPD2    H2 1806   3.223   0.641  13.916  0.8419 -0.8183  1.1087
  118MPD2    H3 1807   3.270   0.867  13.841 -0.0148 -0.3531 -0.5345
  118MPD2     N 1808   3.702   0.842  13.970 -0.1157 -0.2408 -0.3265
  118MPD2    H5 1809   3.721   0.933  13.929 -1.3231  1.8972  3.8064
  118MPD2    N1 1810   3.396   0.464  14.002 -0.3153  0.6245  0.5449
  118MPD2    H7 1811   3.297   0.437  13.998  0.0587 -0.9475  1.6665
  119MPD2     C 1812   1.751   1.705  13.270 -0.2533 -0.2908  0.1882
  119MPD2    C1 1813   1.647   1.716  13.361 -0.6832  0.8684 -0.7768
  119MPD2    C2 1814   1.520   1.715  13.321  0.0326 -0.0436 -0.3689
  119MPD2    C3 1815   1.486   1.692  13.186  0.3577 -0.0865  0.3880
  119MPD2    C4 1816   1.587   1.677  13.098  0.2982  1.2985  0.2422
  119MPD2    C5 1817   1.717   1.686  13.141 -0.1200 -0.5079 -0.3351
  119MPD2     H 1818   1.434   1.727  13.386  0.2126  0.9070 -0.2979
  119MPD2    H1 1819   1.570   1.675  12.991  2.5711 -0.4630 -0.0948
  119MPD2    H2 1820   1.854   1.728  13.296 -0.0401  0.5001 -1.3541
  119MPD2    H3 1821   1.798   1.659  13.075  0.9857  2.5815 -0.2669
  119MPD2     N 1822   1.356   1.685  13.134  0.1242  0.1519 -0.4484
  119MPD2    H5 1823   1.342   1.636  13.047  1.3249  0.2242 -0.6816
  119MPD2    N1 1824   1.681   1.719  13.501 -0.3473  0.1742  0.0684
  119MPD2    H7 1825   1.780   1.706  13.522 -0.2955  1.0231  0.3711
  120TCq2    C1 1826   1.235   1.720  13.203  0.2131 -0.4365 -0.5040
  120TCq2    O2 1827   1.219   1.784  13.309 -0.4916  0.6537 -0.4268
  120TCq2    C2 1828   1.116   1.668  13.140  0.3741 -0.1055 -0.3223
  120TCq2    C3 1829   1.136   1.640  13.012  0.1277  0.2311 -0.3406
  120TCq2    C4 1830   1.055   1.550  12.951 -0.0687 -0.2006 -0.3053
  120TCq2    C5 1831   0.967   1.474  13.017  0.7711 -0.1864 -0.0412
  120TCq2    C6 1832   0.964   1.501  13.157  0.3332  0.2828  0.1447
  120TCq2    C7 1833   1.036   1.595  13.217 -0.0353  0.0005 -0.0016
  120TCq2    C8 1834   0.872   1.422  13.239 -0.1686  0.5274 -0.0682
  120TCq2    O4 1835   0.790   1.369  13.169  0.6543  0.3467 -0.3642
  120TCq2    C9 1836   1.087   1.510  12.813  0.0462  0.0233 -0.3808
  120TCq2    O5 1837   1.027   1.415  12.760  0.1665  0.2372 -0.6306
  120TCq2    O6 1838   1.200   1.547  12.770  0.1741  0.5018  0.4669
  120TCq2    H2 1839   1.203   1.697  12.947 -0.1615  0.2191 -0.6486
  120TCq2    H3 1840   0.915   1.390  12.972 -4.3768  1.7947  2.2197
  120TCq2    H4 1841   1.035   1.609  13.324 -0.4698  0.0997 -0.0194
  121TMC2    C1 1842   3.403   3.030  13.882 -0.1739 -0.5894 -0.4837
  121TMC2    C2 1843   3.376   2.982  14.002 -0.8123  0.5919 -0.5705
  121TMC2    C3 1844   3.257   2.913  14.022 -0.5446  0.3011  0.1630
  121TMC2    C4 1845   3.320   3.003  13.779 -0.0170  0.0386 -0.4107
  121TMC2    C5 1846   3.200   2.943  13.799 -0.1889 -0.0510 -0.1661
  121TMC2    C6 1847   3.165   2.885  13.926 -0.2171 -0.1944  0.3114
  121TMC2     C 1848   3.531   3.096  13.861 -0.2324 -0.3899  0.3738
  121TMC2     O 1849   3.602   3.104  13.967  0.0421 -0.2769  0.3941
  121TMC2     H 1850   3.436   3.009  14.088 -0.9348  0.5049 -0.4593
  121TMC2    H1 1851   3.337   3.028  13.675  0.7463  0.1871 -0.2524
  121TMC2    H2 1852   3.090   2.808  13.936  1.2488 -1.7832 -0.9872
  121TMC2    C7 1853   3.121   2.905  13.682 -0.6567 -0.7038  0.6749
  121TMC2    C8 1854   3.213   2.915  14.159 -0.4304 -0.1767 -0.0440
  121TMC2    O1 1855   3.172   2.912  13.570  0.2544  0.2330 -0.0970
  121TMC2    O2 1856   3.288   2.923  14.252  0.0579 -0.4877  0.2233
  121TMC2    O5 1857   3.079   2.919  14.166 -0.1702 -0.1844 -0.0809
  121TMC2    H5 1858   3.029   2.903  14.083  0.9113  2.8042 -1.2817
  122MPD2     C 1859   3.774   3.240  13.760 -0.7573  0.0139 -0.3721
  122MPD2    C1 1860   3.666   3.193  13.686 -0.0729 -0.0178 -0.7566
  122MPD2    C2 1861   3.671   3.206  13.546  0.2366 -0.1661  0.0845
  122MPD2    C3 1862   3.780   3.272  13.484 -0.6683  0.1417  0.3470
  122MPD2    C4 1863   3.883   3.324  13.561 -0.1786  0.2422 -0.5802
  122MPD2    C5 1864   3.874   3.303  13.695 -0.7732  0.7226  0.0674
  122MPD2     H 1865   3.590   3.167  13.484 -0.0072  1.6252 -0.7178
  122MPD2    H1 1866   3.955   3.392  13.517 -1.4233  1.3885 -0.8560
  122MPD2    H2 1867   3.782   3.219  13.867 -0.0592  1.3197 -0.1712
  122MPD2    H3 1868   3.944   3.348  13.766  1.2649 -0.3364 -1.2589
  122MPD2     N 1869   3.781   3.298  13.347 -0.2715 -0.3497 -0.0842
  122MPD2    H5 1870   3.856   3.357  13.313  0.3891 -1.3979 -0.4601
  122MPD2    N1 1871   3.553   3.131  13.736  0.4139  0.0764  0.0935
  122MPD2    H7 1872   3.491   3.090  13.668  1.9935 -1.4067 -0.4310
  123MPD2     C 1873   1.090   1.122  10.022  0.2248  0.2886  0.1462
  123MPD2    C1 1874   1.089   1.232   9.937  0.0139  0.2432 -0.2642
  123MPD2    C2 1875   1.161   1.341   9.972 -0.4745  0.0251 -0.3550
  123MPD2    C3 1876   1.244   1.335  10.090 -0.3880  0.4905 -0.6964
  123MPD2    C4 1877   1.243   1.230  10.173 -0.1827 -0.2026  0.0135
  123MPD2    C5 1878   1.161   1.125  10.135  0.4549  0.1673 -0.9401
  123MPD2     H 1879   1.173   1.428   9.908 -1.1855 -1.5995 -2.7162
  123MPD2    H1 1880   1.303   1.205  10.260  1.2378  1.9208 -0.3550
  123MPD2    H2 1881   1.026   1.039   9.996 -1.4723  1.2145  1.3861
  123MPD2    H3 1882   1.154   1.051  10.215  1.1597  1.9597  0.7950
  123MPD2     N 1883   1.335   1.442  10.103 -0.2456 -0.7840  0.4223
  123MPD2    H5 1884   1.320   1.515  10.034  0.8365  0.2460  1.2764
  123MPD2    N1 1885   1.012   1.220   9.821 -0.4459 -0.0596  0.3911
  123MPD2    H7 1886   0.984   1.127   9.790  0.6266  0.2806 -1.5717
  124TCq2    C1 1887   1.441   1.449  10.194  0.1596  0.1596  0.6228
  124TCq2    O2 1888   1.473   1.363  10.273  0.4621  0.2679 -0.6877
  124TCq2    C2 1889   1.539   1.554  10.169 -0.2945  0.2996  0.2259
  124TCq2    C3 1890   1.659   1.537  10.228 -0.3580  0.8444  0.0711
  124TCq2    C4 1891   1.768   1.589  10.176  0.3611 -0.6754  0.1403
  124TCq2    C5 1892   1.763   1.682  10.073  0.1967 -0.4621  0.1050
  124TCq2    C6 1893   1.640   1.692  10.009 -0.1739 -0.3372 -0.5338
  124TCq2    C7 1894   1.524   1.631  10.056  0.9147  0.3994 -0.1649
  124TCq2    C8 1895   1.645   1.757   9.878  0.1862 -0.5468 -0.2777
  124TCq2    O4 1896   1.726   1.847   9.873 -0.0417  0.4450 -0.0320
  124TCq2    C9 1897   1.891   1.557  10.235 -0.1914  0.2135 -0.5151
  124TCq2    O5 1898   1.893   1.501  10.349 -0.3049 -1.0349 -0.3143
  124TCq2    O6 1899   1.997   1.607  10.187 -0.2283 -0.6372 -0.1364
  124TCq2    H2 1900   1.665   1.473  10.315  1.7418  2.1392  0.8939
  124TCq2    H3 1901   1.848   1.737  10.034 -1.4397  2.4932  0.6577
  124TCq2    H4 1902   1.428   1.653  10.010 -0.7379 -2.1347  2.1161
  125TMC2    C1 1903   1.731   4.281   9.576 -0.8572 -0.0970 -0.5421
  125TMC2    C2 1904   1.683   4.393   9.518  0.1205  0.4122 -0.5264
  125TMC2    C3 1905   1.643   4.390   9.388  0.2572  0.0118 -0.2989
  125TMC2    C4 1906   1.739   4.156   9.514  0.5681 -0.1127 -0.8461
  125TMC2    C5 1907   1.711   4.162   9.377  0.3023 -0.2199 -0.4952
  125TMC2    C6 1908   1.660   4.276   9.319 -0.0045  0.1963  0.4163
  125TMC2     C 1909   1.795   4.286   9.707  0.0416 -0.6522 -0.4567
  125TMC2     O 1910   1.843   4.178   9.747 -0.0797  0.4033  0.5815
  125TMC2     H 1911   1.666   4.484   9.575 -0.4077  0.4999 -0.8244
  125TMC2    H1 1912   1.778   4.070   9.568 -0.6482  1.0143  1.8640
  125TMC2    H2 1913   1.621   4.263   9.219 -1.4221 -1.8241  1.2395
  125TMC2    C7 1914   1.726   4.045   9.294 -0.4135  0.2777  0.2881
  125TMC2    C8 1915   1.661   4.517   9.319 -0.9642  0.1837  0.0595
  125TMC2    O1 1916   1.663   4.036   9.190  0.3924  0.2236  0.3811
  125TMC2    O2 1917   1.726   4.603   9.369 -0.0453  0.3521 -0.1870
  125TMC2    O5 1918   1.590   4.521   9.202  0.3484 -0.5168  0.2431
  125TMC2    H5 1919   1.523   4.449   9.203 -1.0471  0.7944  0.0524
  126MPD1     C 1920   1.867   4.498  10.165  0.2035  0.7821  0.0617
  126MPD1    C1 1921   1.843   4.595  10.070 -0.7715  0.2475 -0.0088
  126MPD1    C2 1922   1.816   4.565   9.937 -0.1860 -0.1816  0.3010
  126MPD1    C3 1923   1.824   4.437   9.896  0.1201  0.7046 -0.0807
  126MPD1    C4 1924   1.857   4.338   9.987 -0.1573  0.2529 -0.0543
  126MPD1    C5 1925   1.873   4.371  10.123 -0.8708 -0.4515  0.0778
  126MPD1     H 1926   1.788   4.648   9.874  0.4338  0.6838  1.1744
  126MPD1    H1 1927   1.864   4.232   9.965  1.8348  0.4713 -0.4708
  126MPD1    H2 1928   1.879   4.518  10.270 -1.2584  0.3768  0.3026
  126MPD1    H3 1929   1.893   4.290  10.193 -3.5541 -0.9670  0.2320
  126MPD1     N 1930   1.793   4.413   9.761  0.3996 -0.5467 -0.5272
  126MPD1    H5 1931   1.773   4.496   9.706  2.8936  0.9472  0.7994
  126MPD1    N1 1932   1.839   0.008  10.101  0.0503  0.4458  0.2488
  126MPD1    H6 1933   1.885   0.029  10.190  2.2405 -1.0725 -0.5400
  126MPD1    H7 1934   1.876   0.058  10.021 -0.5899  1.0590  0.3389
  127MPD2     C 1935   2.755   1.974   9.424  0.3438  0.2529 -0.4653
  127MPD2    C1 1936   2.884   1.981   9.475  0.4326 -0.0678  0.8788
  127MPD2    C2 1937   2.948   2.102   9.466 -0.3668  0.0360 -0.1304
  127MPD2    C3 1938   2.896   2.209   9.396 -0.5074 -0.0074  0.3381
  127MPD2    C4 1939   2.767   2.194   9.341  0.0941 -0.5365  0.5205
  127MPD2    C5 1940   2.696   2.077   9.354  0.1064 -0.3807  0.3450
  127MPD2     H 1941   3.040   2.123   9.520 -0.8374  2.2922 -0.2260
  127MPD2    H1 1942   2.714   2.267   9.281 -0.9241  1.0549  3.3736
  127MPD2    H2 1943   2.701   1.880   9.434 -0.3855  0.7304  0.1303
  127MPD2    H3 1944   2.603   2.063   9.300  1.0010 -3.2854 -0.4477
  127MPD2     N 1945   2.976   2.328   9.396 -0.4708  0.4878 -0.5312
  127MPD2    H5 1946   3.074   2.317   9.422 -0.7139 -1.3995 -0.4339
  127MPD2    N1 1947   2.923   1.862   9.542 -0.5475 -0.4945  0.7300
  127MPD2    H7 1948   2.856   1.787   9.539 -1.6197  0.3849  3.0632
  128TCq2    C1 1949   3.050   1.832   9.578 -0.2209 -0.0029 -0.4256
  128TCq2    O2 1950   3.150   1.894   9.555 -0.3784  0.5088  0.3883
  128TCq2    C2 1951   3.062   1.704   9.646  0.4659  0.6972 -0.3878
  128TCq2    C3 1952   3.186   1.654   9.651  0.9556  0.8370 -0.0693
  128TCq2    C4 1953   3.220   1.559   9.739  0.5903 -0.5318  0.0087
  128TCq2    C5 1954   3.126   1.501   9.820  0.1458 -0.2397 -0.1834
  128TCq2    C6 1955   3.004   1.553   9.811 -0.0786  0.5089 -0.2529
  128TCq2    C7 1956   2.961   1.651   9.719 -0.3354 -0.1977 -0.2434
  128TCq2    C8 1957   2.903   1.482   9.890 -0.0232 -0.1687 -0.0245
  128TCq2    O4 1958   2.932   1.441  10.000  0.1006  0.6773 -0.3090
  128TCq2    C9 1959   3.353   1.494   9.739  0.2556  0.4245 -0.2272
  128TCq2    O5 1960   3.450   1.550   9.688 -0.1500 -0.3749 -0.5415
  128TCq2    O6 1961   3.351   1.387   9.810  0.3445  0.1253  0.2395
  128TCq2    H2 1962   3.265   1.686   9.583  1.5265 -0.4138  0.0088
  128TCq2    H3 1963   3.156   1.429   9.896  1.3324  1.6959  1.1747
  128TCq2    H4 1964   2.862   1.695   9.724  0.3350  1.4575 -1.4792
  129MPD2     C 1965   2.188   3.245   1.320  0.2458 -0.4584  0.1524
  129MPD2    C1 1966   2.246   3.157   1.231 -0.8766 -1.0946  0.5626
  129MPD2    C2 1967   2.321   3.204   1.121  0.1904  0.1589 -0.1382
  129MPD2    C3 1968   2.321   3.337   1.092 -0.2337 -0.1484 -0.4523
  129MPD2    C4 1969   2.272   3.424   1.195 -0.3184  0.0699  0.1269
  129MPD2    C5 1970   2.210   3.376   1.309  0.2687  0.3288  0.2588
  129MPD2     H 1971   2.355   3.135   1.045  1.0705  0.9707 -0.4790
  129MPD2    H1 1972   2.274   3.531   1.177  0.9239  0.1771  0.9789
  129MPD2    H2 1973   2.117   3.217   1.397 -1.3978 -1.7626 -1.8484
  129MPD2    H3 1974   2.148   3.444   1.366  1.4758 -0.5530  2.6418
  129MPD2     N 1975   2.361   3.379   0.961  0.1315 -0.6446 -0.1288
  129MPD2    H5 1976   2.384   3.300   0.901 -0.3017  0.6480 -1.9897
  129MPD2    N1 1977   2.235   3.021   1.250  1.1504 -0.4994  0.4933
  129MPD2    H7 1978   2.297   2.975   1.184  0.3655  0.2567 -0.7774
  130TCq2    C1 1979   2.149   2.959   1.337 -0.4053 -0.1665 -0.5040
  130TCq2    O2 1980   2.049   2.990   1.394 -0.0651 -0.5119 -0.0304
  130TCq2    C2 1981   2.183   2.812   1.349 -0.6515  0.1230  0.1242
  130TCq2    C3 1982   2.312   2.772   1.343  0.4194  1.0311  0.4277
  130TCq2    C4 1983   2.346   2.643   1.373  0.3796 -0.5888 -0.2320
  130TCq2    C5 1984   2.255   2.547   1.410  0.1289  0.2850 -0.4579
  130TCq2    C6 1985   2.128   2.599   1.434  0.2486  0.0282  0.3678
  130TCq2    C7 1986   2.097   2.729   1.409  0.7860 -0.4878 -0.4873
  130TCq2    C8 1987   2.012   2.511   1.439 -0.4672 -0.1675 -0.1903
  130TCq2    O4 1988   1.905   2.552   1.480 -0.0242 -0.5859  0.2250
  130TCq2    C9 1989   2.482   2.603   1.346 -0.1567 -0.8073  0.0926
  130TCq2    O5 1990   2.565   2.696   1.332 -1.1587  0.0801  0.1929
  130TCq2    O6 1991   2.507   2.479   1.325 -1.0890 -0.2497 -0.1252
  130TCq2    H2 1992   2.388   2.846   1.320  0.8250  0.4295 -0.1665
  130TCq2    H3 1993   2.287   2.445   1.430 -0.0083  0.6433  1.6326
  130TCq2    H4 1994   1.991   2.748   1.413  1.0634  1.2132 -1.1578
  131MPD2     C 1995   0.531   1.826   9.148 -0.6380 -0.0675 -1.7064
  131MPD2    C1 1996   0.664   1.833   9.189 -0.6863  0.0667 -0.1285
  131MPD2    C2 1997   0.707   1.729   9.268  0.3658  0.3933 -0.0626
  131MPD2    C3 1998   0.632   1.615   9.298  0.4935  0.8103 -0.7707
  131MPD2    C4 1999   0.508   1.604   9.242 -0.1606  0.0239  0.2184
  131MPD2    C5 2000   0.459   1.713   9.179 -0.0619  0.8748 -0.3578
  131MPD2     H 2001   0.796   1.743   9.328 -0.3380  4.1889  0.1089
  131MPD2    H1 2002   0.433   1.529   9.262 -0.3444 -0.9046 -3.8204
  131MPD2    H2 2003   0.484   1.913   9.103  1.0067  1.3145 -0.7623
  131MPD2    H3 2004   0.352   1.708   9.158 -0.5036  1.8553  1.6773
  131MPD2     N 2005   0.685   1.520   9.383 -0.3818 -0.0734  0.3830
  131MPD2    H5 2006   0.776   1.540   9.421 -0.8992  1.9561  0.5526
  131MPD2    N1 2007   0.740   1.947   9.144 -0.2701 -0.3305 -0.3926
  131MPD2    H7 2008   0.680   2.012   9.094  0.2074 -0.5815 -1.2948
  132TCq2    C1 2009   1.180   2.311   9.262 -0.6291  0.1162  0.6669
  132TCq2    O2 2010   1.218   2.236   9.349 -1.1868  0.6870  0.1410
  132TCq2    C2 2011   1.066   2.269   9.183  0.2280 -0.0932 -0.5225
  132TCq2    C3 2012   0.972   2.356   9.136  0.2457 -0.5313  0.2220
  132TCq2    C4 2013   0.860   2.306   9.077 -0.5427 -0.0745  0.4333
  132TCq2    C5 2014   0.838   2.169   9.056  0.1207 -0.2469  0.5771
  132TCq2    C6 2015   0.931   2.085   9.113 -0.8611 -0.4409  0.1836
  132TCq2    C7 2016   1.034   2.134   9.186  0.2885 -0.1461 -0.3008
  132TCq2    C8 2017   0.878   1.963   9.165 -0.4314 -0.2557 -0.6447
  132TCq2    O4 2018   0.954   1.898   9.238  0.1004  0.2021 -0.1200
  132TCq2    C9 2019   0.762   2.399   9.030  0.9001 -0.0809  0.4945
  132TCq2    O5 2020   0.648   2.356   9.002 -0.0617 -0.3860 -0.1126
  132TCq2    O6 2021   0.796   2.521   9.043  0.2454 -0.5048  0.0217
  132TCq2    H2 2022   0.981   2.462   9.159  0.7490 -0.9959  2.2015
  132TCq2    H3 2023   0.746   2.137   9.008  0.5203  1.4101 -1.2694
  132TCq2    H4 2024   1.097   2.067   9.244 -0.2263  0.2444  0.7213
  133MPD2     C 2025   4.666   2.941   8.986 -0.5370 -0.5811 -0.1496
  133MPD2    C1 2026   0.062   2.916   9.059 -0.0324  0.3607  0.5993
  133MPD2    C2 2027   0.075   2.789   9.119 -0.0247  0.9646  0.3525
  133MPD2    C3 2028   4.708   2.690   9.090  0.2803  0.2378 -1.1987
  133MPD2    C4 2029   4.595   2.718   9.016 -1.2793 -0.4019 -0.1256
  133MPD2    C5 2030   4.581   2.841   8.963  0.4928 -0.9058  0.6792
  133MPD2     H 2031   0.164   2.759   9.173 -1.4401  1.0264  2.7176
  133MPD2    H1 2032   4.519   2.642   9.006 -0.5529 -1.0898 -0.4235
  133MPD2    H2 2033   4.645   3.038   8.944 -0.3090  0.3912  1.9886
  133MPD2    H3 2034   4.497   2.864   8.900  1.8392  2.8838  0.2599
  133MPD2     N 2035   4.706   2.561   9.156  0.0728 -0.3162  0.2167
  133MPD2    H5 2036   4.629   2.497   9.137 -1.2194  1.8848 -1.9223
  133MPD2    N1 2037   0.157   3.021   9.074  0.4829  0.4927 -0.5596
  133MPD2    H7 2038   0.134   3.110   9.029  0.6726 -0.1047 -1.8474
  134TCq2    C1 2039   0.275   3.015   9.153 -0.5168  0.0284  0.5049
  134TCq2    O2 2040   0.323   2.912   9.200 -0.5409  0.1142  0.5518
  134TCq2    C2 2041   0.324   3.145   9.206 -0.3602  0.3602 -1.7167
  134TCq2    C3 2042   0.269   3.262   9.169 -0.8115 -0.8892 -0.4341
  134TCq2    C4 2043   0.302   3.375   9.232 -0.4185 -0.1087  0.3118
  134TCq2    C5 2044   0.384   3.373   9.338 -0.2342 -0.3983  0.2236
  134TCq2    C6 2045   0.448   3.257   9.370  0.1835  0.4744 -0.6801
  134TCq2    C7 2046   0.422   3.135   9.303  0.3197 -0.3344  0.3639
  134TCq2    C8 2047   0.562   3.259   9.468 -0.9121  0.0994  0.7764
  134TCq2    O4 2048   0.612   3.154   9.500 -0.8108  0.2098 -0.9015
  134TCq2    C9 2049   0.241   3.495   9.184  0.0795  0.7630  0.2345
  134TCq2    O5 2050   0.274   3.607   9.230 -0.4857 -0.4474  0.1085
  134TCq2    O6 2051   0.142   3.468   9.111 -0.5856 -0.2448 -0.1006
  134TCq2    H2 2052   0.207   3.256   9.081 -0.9918  2.4798 -0.5041
  134TCq2    H3 2053   0.411   3.468   9.382 -2.1631 -0.0556  0.6903
  134TCq2    H4 2054   0.462   3.042   9.342 -1.1188 -2.1265 -2.4627
  135MPD2     C 2055   2.960   4.008   8.991 -0.6283  0.5616  0.2323
  135MPD2    C1 2056   2.883   3.896   9.003 -0.5350  0.4641  0.1030
  135MPD2    C2 2057   2.950   3.775   9.018 -0.2959  0.2389  0.1979
  135MPD2    C3 2058   3.086   3.770   9.030 -0.0434  0.5243 -0.4470
  135MPD2    C4 2059   3.158   3.886   9.032 -0.0902  0.0389  0.2862
  135MPD2    C5 2060   3.096   4.002   9.013 -0.0998 -0.0402  0.0706
  135MPD2     H 2061   2.887   3.686   9.024 -0.6541  0.3236 -2.2962
  135MPD2    H1 2062   3.265   3.888   9.046 -0.0059  1.8180 -0.6091
  135MPD2    H2 2063   2.922   4.109   8.989 -2.3555 -0.1249 -1.6770
  135MPD2    H3 2064   3.144   4.099   9.016 -0.3402  0.0312  1.5995
  135MPD2     N 2065   3.155   3.651   9.036 -0.7043 -0.0298  0.6726
  135MPD2    H5 2066   3.254   3.656   9.057 -0.7608 -1.2478  1.2448
  135MPD2    N1 2067   2.744   3.900   9.003  0.9134 -0.2061 -0.7084
  135MPD2    H7 2068   2.705   3.812   9.034  1.8902 -0.3799  0.0031
  136TCq2    C1 2069   2.663   4.003   8.960 -0.2032 -0.2674  0.4433
  136TCq2    O2 2070   2.694   4.114   8.920 -0.4973  0.4827 -0.2437
  136TCq2    C2 2071   2.519   3.990   8.999 -0.4618  0.2151  0.4642
  136TCq2    C3 2072   2.430   4.076   8.941 -0.0616 -0.3439 -0.9336
  136TCq2    C4 2073   2.315   4.087   8.996  0.9703 -0.9250  0.5687
  136TCq2    C5 2074   2.278   4.022   9.109  0.4100 -0.4087 -0.2085
  136TCq2    C6 2075   2.373   3.943   9.172  0.6253  0.3086 -0.4307
  136TCq2    C7 2076   2.498   3.932   9.123  0.0948 -0.3636 -0.2820
  136TCq2    C8 2077   2.349   3.904   9.308 -0.5720 -0.2159 -0.4208
  136TCq2    O4 2078   2.245   3.848   9.335  0.4548 -0.1050  0.1283
  136TCq2    C9 2079   2.200   4.164   8.928 -0.2344 -0.5206  0.7795
  136TCq2    O5 2080   2.091   4.177   8.991 -0.4232  0.3144 -0.4226
  136TCq2    O6 2081   2.214   4.179   8.806  0.1709 -0.7976 -0.0316
  136TCq2    H2 2082   2.455   4.132   8.851 -3.3130  0.4726 -1.3383
  136TCq2    H3 2083   2.181   4.043   9.153  2.0058  2.2669  2.0356
  136TCq2    H4 2084   2.575   3.879   9.176 -0.5846 -1.6674 -0.6054
  137MPD2     C 2085   2.420   2.379   9.217  0.4200 -0.6089 -1.7014
  137MPD2    C1 2086   2.446   2.516   9.230 -0.3555  0.0346  0.0784
  137MPD2    C2 2087   2.460   2.563   9.360  0.3335  0.1668  0.2971
  137MPD2    C3 2088   2.451   2.481   9.474  0.0055 -0.1790  0.8593
  137MPD2    C4 2089   2.427   2.349   9.450 -0.4368  0.2104 -0.1181
  137MPD2    C5 2090   2.415   2.294   9.327 -0.0084 -0.7755 -0.2380
  137MPD2     H 2091   2.460   2.671   9.370 -0.9965 -0.0150  2.3422
  137MPD2    H1 2092   2.408   2.289   9.538  1.2643  0.5389  0.4676
  137MPD2    H2 2093   2.386   2.345   9.120 -1.9391  0.6326 -1.3058
  137MPD2    H3 2094   2.380   2.192   9.315  0.9994 -1.2607  0.9864
  137MPD2     N 2095   2.441   2.540   9.607 -0.2764 -0.6321  0.8738
  137MPD2    H5 2096   2.426   2.477   9.685 -0.5622 -0.9059  0.5981
  137MPD2    N1 2097   2.453   2.598   9.111  0.0679  0.5305  0.1270
  137MPD2    H7 2098   2.453   2.547   9.023  1.5551  0.5742  0.0981
  138TCq2    C1 2099   2.455   2.740   9.105 -0.3885 -0.5734  0.9115
  138TCq2    O2 2100   2.445   2.829   9.192 -0.4262 -0.3477 -0.1494
  138TCq2    C2 2101   2.466   2.788   8.968 -0.7396 -0.1742  0.1969
  138TCq2    C3 2102   2.528   2.711   8.873 -0.6419 -0.5064 -0.4749
  138TCq2    C4 2103   2.550   2.770   8.753  0.2063 -0.0611  1.0479
  138TCq2    C5 2104   2.497   2.892   8.724  0.0433  0.1741  0.4407
  138TCq2    C6 2105   2.434   2.962   8.818 -0.2608 -0.2313  0.9040
  138TCq2    C7 2106   2.414   2.914   8.944 -0.4304 -0.6482  0.5449
  138TCq2    C8 2107   2.335   3.053   8.764  0.1850  0.0038 -0.1017
  138TCq2    O4 2108   2.368   3.111   8.659 -0.7587  0.5372  0.0369
  138TCq2    C9 2109   2.611   2.702   8.646  0.7633  0.0329 -0.0982
  138TCq2    O5 2110   2.663   2.591   8.675  0.3647  0.1192  0.3636
  138TCq2    O6 2111   2.603   2.753   8.529 -0.5148  0.5837 -0.3130
  138TCq2    H2 2112   2.571   2.615   8.899 -1.1291 -1.3715 -2.8000
  138TCq2    H3 2113   2.514   2.934   8.626 -2.0841 -0.4224 -0.1874
  138TCq2    H4 2114   2.362   2.969   9.022 -1.7644 -1.4477  0.2274
  139TMC2    C1 2115   3.131   1.208  13.687 -0.1852  0.3751 -0.3436
  139TMC2    C2 2116   3.227   1.209  13.781  0.8186  0.4111 -0.2247
  139TMC2    C3 2117   3.287   1.334  13.811 -0.1468 -0.0485  1.0346
  139TMC2    C4 2118   3.077   1.322  13.636 -0.2452 -0.5029 -0.4703
  139TMC2    C5 2119   3.140   1.440  13.663 -0.4223  0.4822  0.3251
  139TMC2    C6 2120   3.253   1.446  13.746 -0.1685 -1.0411 -0.8235
  139TMC2     C 2121   3.066   1.081  13.662  0.4272  0.4607  0.0824
  139TMC2     O 2122   3.071   1.000  13.756  0.6027 -0.1421 -0.1197
  139TMC2     H 2123   3.273   1.114  13.808 -1.8803 -0.7400  0.2906
  139TMC2    H1 2124   2.983   1.314  13.582  0.9099 -0.4544 -2.4945
  139TMC2    H2 2125   3.321   1.531  13.749 -0.8231 -0.5136 -0.8956
  139TMC2    C7 2126   3.074   1.559  13.623  0.0783  0.0318  0.1980
  139TMC2    C8 2127   3.419   1.314  13.852  0.5953  0.2854  0.3427
  139TMC2    O1 2128   3.001   1.553  13.523  0.4092  0.4979  0.0389
  139TMC2    O2 2129   3.499   1.283  13.766 -0.1610 -0.3664  0.1159
  139TMC2    O5 2130   3.387   1.239  13.961 -0.2889 -0.2000  0.2315
  139TMC2    H5 2131   3.310   1.270  14.015 -0.6901  0.3300 -0.6316
  140MPD2     C 2132   2.826   0.985  13.397  0.4517  0.3151 -0.1607
  140MPD2    C1 2133   2.906   0.969  13.511 -0.2985 -0.1580 -0.8155
  140MPD2    C2 2134   2.923   0.840  13.551 -0.4520 -0.0805 -0.4859
  140MPD2    C3 2135   2.873   0.735  13.480  0.1287  0.7261  0.1166
  140MPD2    C4 2136   2.791   0.754  13.380 -0.2494 -0.4136  0.2194
  140MPD2    C5 2137   2.761   0.879  13.335  0.5038 -0.6783  0.1806
  140MPD2     H 2138   2.994   0.810  13.627  1.2542  0.6327 -1.7817
  140MPD2    H1 2139   2.743   0.671  13.329  1.1816 -0.5440 -0.9202
  140MPD2    H2 2140   2.800   1.080  13.350  1.7998  0.5535 -0.4196
  140MPD2    H3 2141   2.704   0.903  13.246  1.9092  2.3465  0.0966
  140MPD2     N 2142   2.901   0.606  13.541  0.0063  0.1925 -0.3266
  140MPD2    H5 2143   2.944   0.603  13.633  2.6936 -0.0527 -1.5802
  140MPD2    N1 2144   2.977   1.083  13.558 -0.2415  0.9230 -0.1612
  140MPD2    H7 2145   2.940   1.165  13.510  0.3373  1.4214  0.2523
  141TCq2    C1 2146   3.893   2.168  14.328 -0.3758  0.3795 -0.0156
  141TCq2    O2 2147   3.923   2.252  14.244 -0.0914  0.2166  0.0769
  141TCq2    C2 2148   3.877   2.213  14.468 -0.7753  0.4463  0.1032
  141TCq2    C3 2149   3.821   2.136  14.564  0.2683 -0.4498  0.0731
  141TCq2    C4 2150   3.772   2.186  14.684 -0.0861  0.2736  0.9324
  141TCq2    C5 2151   3.772   2.320  14.702  0.6053 -0.2302  0.2564
  141TCq2    C6 2152   3.824   2.399  14.603 -0.2257 -0.0085  0.0433
  141TCq2    C7 2153   3.864   2.348  14.482 -0.1817 -0.2752 -0.2901
  141TCq2    C8 2154   3.818   2.540  14.618  0.2178 -0.6810  0.8574
  141TCq2    O4 2155   3.741   2.581  14.699 -0.2149  0.3155  0.0859
  141TCq2    C9 2156   3.749   2.095  14.798 -0.3733 -0.2269  0.1945
  141TCq2    O5 2157   3.746   1.974  14.769 -0.2452  0.9385 -0.0275
  141TCq2    O6 2158   3.689   2.151  14.897  0.5312 -0.3463  0.0223
  141TCq2    H2 2159   3.814   2.030  14.543 -0.3385 -0.0942 -1.5665
  141TCq2    H3 2160   3.733   2.359  14.796  2.2416  1.1441  0.3657
  141TCq2    H4 2161   3.888   2.411  14.397  0.0093  1.3863  0.9981
  142MPD2     C 2162   1.232   0.626  10.559  0.5143 -0.3965  0.1935
  142MPD2    C1 2163   1.233   0.606  10.423 -0.5651 -1.0775  0.5489
  142MPD2    C2 2164   1.289   0.715  10.344 -0.3076 -0.1988 -0.3698
  142MPD2    C3 2165   1.353   0.826  10.394  0.2081  0.6970 -0.3448
  142MPD2    C4 2166   1.353   0.842  10.531  0.5318  0.0496  0.4488
  142MPD2    C5 2167   1.286   0.746  10.604  0.6337 -0.1977 -0.1981
  142MPD2     H 2168   1.293   0.702  10.237  0.6834  1.4909 -0.5283
  142MPD2    H1 2169   1.396   0.926  10.584  0.9028  0.6468 -0.7958
  142MPD2    H2 2170   1.167   0.568  10.624 -0.2253  0.7841  0.4930
  142MPD2    H3 2171   1.277   0.746  10.712  0.3855  2.3499 -0.2247
  142MPD2     N 2172   1.406   0.926  10.312 -0.7475  0.2835 -0.2910
  142MPD2    H5 2173   1.429   1.008  10.366 -0.3368 -1.6339  2.4324
  142MPD2    N1 2174   1.167   0.498  10.364 -0.3334  0.2029 -0.3330
  142MPD2    H7 2175   1.148   0.421  10.428  1.1325  2.1429  2.4368
  143TCq2    C1 2176   1.443   0.922  10.185  0.6717 -0.1601 -0.4257
  143TCq2    O2 2177   1.405   0.852  10.096  0.1541  0.2226  0.3750
  143TCq2    C2 2178   1.537   1.035  10.166  0.3218 -0.0797 -0.5210
  143TCq2    C3 2179   1.617   1.082  10.269 -0.4462  0.2579 -1.1014
  143TCq2    C4 2180   1.727   1.150  10.227  0.1455 -0.2772 -0.0813
  143TCq2    C5 2181   1.740   1.188  10.096  0.3030  0.2562 -0.7200
  143TCq2    C6 2182   1.646   1.153  10.003 -0.0453 -0.0399 -0.1937
  143TCq2    C7 2183   1.548   1.067  10.036 -0.1984 -0.5025 -0.2640
  143TCq2    C8 2184   1.653   1.239   9.884 -0.6076 -0.6498 -0.2619
  143TCq2    O4 2185   1.759   1.299   9.863 -0.0230 -0.1336  0.2204
  143TCq2    C9 2186   1.822   1.193  10.317  0.4828 -0.3771  0.2283
  143TCq2    O5 2187   1.792   1.192  10.441  0.7981 -0.4545  0.2729
  143TCq2    O6 2188   1.938   1.188  10.261 -0.1788  0.1987  0.7365
  143TCq2    H2 2189   1.609   1.054  10.373 -0.1005 -0.0201 -1.1491
  143TCq2    H3 2190   1.827   1.247  10.069  1.3264 -0.1917  1.5986
  143TCq2    H4 2191   1.475   1.036   9.962  0.1977 -0.9089 -0.4780
  144MPD2     C 2192   4.233   0.075   0.205 -0.1626 -0.4029 -1.0262
  144MPD2    C1 2193   4.278   4.689   0.131  0.3481  0.7540 -0.6298
  144MPD2    C2 2194   4.413   4.664   0.140 -0.0636 -0.8800  0.3223
  144MPD2    C3 2195   4.491   0.023   0.203 -0.4624 -0.3135  0.9915
  144MPD2    C4 2196   4.446   0.129   0.267 -0.2950  0.5119 -0.1709
  144MPD2    C5 2197   4.319   0.140   0.284 -0.4210  0.6724  0.2969
  144MPD2     H 2198   4.448   4.579   0.084  0.6472  0.5940 -1.4592
  144MPD2    H1 2199   4.513   0.201   0.313  1.2216 -1.1189  0.1592
  144MPD2    H2 2200   4.134   0.118   0.198 -1.3487 -2.6866  1.5236
  144MPD2    H3 2201   4.282   0.231   0.330 -0.3364  0.1448  1.4220
  144MPD2     N 2202   4.627   0.010   0.202 -0.0026  0.0245 -0.2993
  144MPD2    H5 2203   4.677   0.075   0.262 -0.5636 -0.8808  1.1544
  144MPD2    N1 2204   4.199   4.609   0.042  0.4625 -0.1203 -0.3701
  144MPD2    H7 2205   4.250   4.535  17.689 -0.7251 -1.7715  0.9359
  145TCq2    C1 2206   4.704   4.632   0.149 -0.4780 -0.1044  0.4129
  145TCq2    O2 2207   4.660   4.525   0.104  0.1917 -0.0250 -0.2959
  145TCq2    C2 2208   0.126   4.642   0.163  0.4753 -0.7348 -0.5329
  145TCq2    C3 2209   0.208   4.532   0.146 -0.0642  0.6287 -0.0848
  145TCq2    C4 2210   0.318   4.522   0.229  0.1585 -0.2776  0.1424
  145TCq2    C5 2211   0.360   4.617   0.315 -0.7140 -0.5376  0.5731
  145TCq2    C6 2212   0.280   0.012   0.324  0.6848  0.4112  0.3469
  145TCq2    C7 2213   0.172   0.027   0.242 -0.1789  0.1661  0.4551
  145TCq2    C8 2214   0.342   0.125   0.384 -0.1399 -0.3695 -0.3558
  145TCq2    O4 2215   0.464   0.127   0.381  0.0598 -0.3805 -0.1565
  145TCq2    C9 2216   0.388   4.400   0.222  0.0219 -0.0074 -0.5829
  145TCq2    O5 2217   0.497   4.388   0.274 -0.0964  0.0149  0.1518
  145TCq2    O6 2218   0.352   4.320   0.130  0.7663 -0.4221  0.0196
  145TCq2    H2 2219   0.182   4.449   0.081 -1.0492  1.6987 -1.0540
  145TCq2    H3 2220   0.445   4.589   0.376 -0.7530 -2.9905 -0.4891
  145TCq2    H4 2221   0.121   0.122   0.231 -1.2689 -0.2163  2.1712
  146TMC2    C1 2222   0.822   3.526  11.961 -0.4343 -0.5108  0.1663
  146TMC2    C2 2223   0.748   3.550  11.846 -0.0303 -0.4853 -0.6645
  146TMC2    C3 2224   0.773   3.468  11.740  0.5896 -0.5384 -0.0129
  146TMC2    C4 2225   0.921   3.429  11.965 -0.3846 -0.5475  0.1047
  146TMC2    C5 2226   0.940   3.358  11.853  0.3035 -0.1150 -0.6430
  146TMC2    C6 2227   0.872   3.377  11.737  0.0759  0.4815 -0.2833
  146TMC2     C 2228   0.796   3.605  12.079  0.6000  0.1754  0.4865
  146TMC2     O 2229   0.746   3.717  12.070 -0.4712  0.2160 -0.5604
  146TMC2     H 2230   0.670   3.625  11.847  1.1415  0.7131  1.5155
  146TMC2    H1 2231   1.001   3.428  12.038  0.8828 -0.4202 -1.2844
  146TMC2    H2 2232   0.900   3.310  11.656 -2.0183 -0.2198 -0.4285
  146TMC2    C7 2233   1.076   3.311  11.833 -0.3035  0.1152 -0.0345
  146TMC2    C8 2234   0.692   3.476  11.618  0.1342 -0.0576  0.1106
  146TMC2    O1 2235   1.130   3.345  11.733  0.1710  0.2078 -0.7803
  146TMC2    O2 2236   0.611   3.565  11.598  0.5718 -0.9370  0.2050
  146TMC2    O5 2237   0.686   3.350  11.566  0.2507 -0.0038  0.2141
  146TMC2    H5 2238   0.720   3.277  11.621  0.9208  0.1699  0.0347
  147MPD2     C 2239   1.471   3.015  11.983  0.1202 -0.9159 -0.0982
  147MPD2    C1 2240   1.370   3.007  12.079 -0.7882 -0.7846  0.7059
  147MPD2    C2 2241   1.255   3.085  12.058 -0.3388  0.4766  0.3057
  147MPD2    C3 2242   1.242   3.171  11.952 -0.3113 -0.1090 -0.2515
  147MPD2    C4 2243   1.343   3.182  11.863  0.2172  0.4435 -0.1720
  147MPD2    C5 2244   1.457   3.110  11.883  0.2870 -0.0015  0.2793
  147MPD2     H 2245   1.180   3.092  12.136  0.1926  3.6593  0.5233
  147MPD2    H1 2246   1.354   3.254  11.783  0.6148 -1.8790 -2.1954
  147MPD2    H2 2247   1.568   2.966  11.987  1.5912  1.8719 -1.3058
  147MPD2    H3 2248   1.533   3.117  11.805 -1.5268  0.0702 -1.4742
  147MPD2     N 2249   1.126   3.245  11.946  0.1652  0.1117 -0.0998
  147MPD2    H5 2250   1.067   3.241  12.029  0.3024  1.9330  0.0737
  147MPD2    N1 2251   1.402   2.925  12.185 -0.3172  0.2791 -0.0874
  147MPD2    H7 2252   1.497   2.889  12.193 -0.6892 -0.5535  0.4696
  148MPD2     C 2253   1.530   1.319  10.721 -1.1692 -0.4630 -0.3504
  148MPD2    C1 2254   1.458   1.429  10.660 -0.0135  0.4126  0.3369
  148MPD2    C2 2255   1.313   1.421  10.677 -0.0443  0.2625  0.3339
  148MPD2    C3 2256   1.257   1.332  10.763 -0.3309  0.8079  0.1446
  148MPD2    C4 2257   1.336   1.227  10.810 -0.0452 -0.2075 -0.1867
  148MPD2    C5 2258   1.469   1.219  10.792  0.0255  0.0563  0.3964
  148MPD2     H 2259   1.244   1.487  10.626  2.3267  2.1937 -0.3893
  148MPD2    H1 2260   1.298   1.142  10.866 -1.0559  0.4687  0.1554
  148MPD2    H2 2261   1.638   1.305  10.726 -1.1615  0.1279  1.3198
  148MPD2    H3 2262   1.533   1.146  10.839  1.1973  1.9793  1.7720
  148MPD2     N 2263   1.116   1.314  10.769 -0.0750 -0.2201 -0.3470
  148MPD2    H5 2264   1.079   1.226  10.805  0.8763 -0.2181  0.5888
  148MPD2    N1 2265   1.511   1.540  10.584  0.1096 -0.7963 -0.0310
  148MPD2    H7 2266   1.443   1.606  10.548 -1.2905 -2.6742 -0.8609
  149TCq2    C1 2267   1.642   1.579  10.597  0.5512  0.2323 -0.2227
  149TCq2    O2 2268   1.733   1.514  10.645  0.2628 -0.2714 -0.8397
  149TCq2    C2 2269   1.685   1.702  10.529 -1.0538 -0.0863  0.6606
  149TCq2    C3 2270   1.822   1.722  10.526  0.3029  0.6025  0.0368
  149TCq2    C4 2271   1.869   1.837  10.466  0.5039 -0.2870  0.7839
  149TCq2    C5 2272   1.791   1.915  10.385  0.0816  0.0967 -0.2492
  149TCq2    C6 2273   1.654   1.886  10.383 -0.1480  0.0001  0.2385
  149TCq2    C7 2274   1.599   1.780  10.452  0.1225 -0.1369  0.0590
  149TCq2    C8 2275   1.577   1.944  10.275 -0.1082  0.9195 -0.2736
  149TCq2    O4 2276   1.632   2.033  10.208  0.6450 -0.0114 -0.3763
  149TCq2    C9 2277   2.009   1.840  10.446 -0.3515 -0.1152 -0.3210
  149TCq2    O5 2278   2.066   1.742  10.496 -0.8925 -0.0579  0.3109
  149TCq2    O6 2279   2.056   1.905  10.348 -0.3513  0.4813 -0.2205
  149TCq2    H2 2280   1.895   1.662  10.578 -1.9947 -1.8412  0.4527
  149TCq2    H3 2281   1.836   1.990  10.321  2.3318  0.9781  2.3797
  149TCq2    H4 2282   1.492   1.779  10.471  0.1798 -0.2448  0.3828
  150MPD2     C 2283   2.739   1.265  12.470  0.3085 -0.0639  0.0106
  150MPD2    C1 2284   2.862   1.272  12.401 -0.3894 -0.6681  1.0300
  150MPD2    C2 2285   2.955   1.370  12.431  0.4447 -0.3931 -0.0115
  150MPD2    C3 2286   2.926   1.464  12.524  0.2971  0.0529 -0.1143
  150MPD2    C4 2287   2.809   1.458  12.595  0.5571  0.2234  0.2205
  150MPD2    C5 2288   2.716   1.359  12.568 -0.4870  0.1103  0.2229
  150MPD2     H 2289   3.048   1.381  12.377 -0.9369 -1.3980 -2.5370
  150MPD2    H1 2290   2.790   1.526  12.677  0.8461 -0.4931  0.8849
  150MPD2    H2 2291   2.676   1.177  12.467  0.2869 -0.0797  0.8826
  150MPD2    H3 2292   2.631   1.364  12.635 -0.0163 -0.7605  0.8849
  150MPD2     N 2293   3.029   1.555  12.550  0.5359 -0.0323  0.1086
  150MPD2    H5 2294   3.106   1.559  12.483  0.5184  0.7440  0.1261
  150MPD2    N1 2295   2.873   1.192  12.290 -0.3079 -0.1329 -0.1921
  150MPD2    H7 2296   2.799   1.123  12.276  0.3024 -0.7786 -0.1897
  151TCq2    C1 2297   3.028   1.644  12.655  0.2578 -0.4506  0.5315
  151TCq2    O2 2298   2.950   1.659  12.745  0.2095 -0.6663 -0.6803
  151TCq2    C2 2299   3.138   1.737  12.665 -0.6053 -0.4441  0.0617
  151TCq2    C3 2300   3.110   1.867  12.695  0.2078  0.2320 -0.4377
  151TCq2    C4 2301   3.201   1.958  12.659  0.2692  0.1565 -0.2287
  151TCq2    C5 2302   3.320   1.927  12.596  0.5132  0.9879  0.2025
  151TCq2    C6 2303   3.353   1.793  12.584 -0.1800  0.3544 -0.2397
  151TCq2    C7 2304   3.254   1.699  12.606  0.8368  0.2133 -0.0457
  151TCq2    C8 2305   3.478   1.765  12.505 -0.8600 -0.1285 -0.2997
  151TCq2    O4 2306   3.497   1.857  12.422 -0.2057  0.0787  0.4379
  151TCq2    C9 2307   3.173   2.098  12.681  0.1617 -0.4809  0.1261
  151TCq2    O5 2308   3.246   2.186  12.627 -0.2504 -0.2457  0.1182
  151TCq2    O6 2309   3.081   2.122  12.762  0.1260 -0.7747  0.7093
  151TCq2    H2 2310   3.017   1.898  12.741 -0.1857 -0.2623 -0.9019
  151TCq2    H3 2311   3.384   2.010  12.568  0.0639  1.3318  0.1839
  151TCq2    H4 2312   3.280   1.595  12.592  2.0154  0.7674 -2.0375
  152MPD2     C 2313   2.888   0.470  12.641 -0.0780  0.4767  0.3574
  152MPD2    C1 2314   2.930   0.571  12.555 -0.7607 -0.4136  0.0390
  152MPD2    C2 2315   2.844   0.614  12.463 -0.0208  0.4716  0.1398
  152MPD2    C3 2316   2.710   0.567  12.468  0.0349 -0.2509  0.2089
  152MPD2    C4 2317   2.664   0.493  12.574 -0.3075 -0.2535 -0.0980
  152MPD2    C5 2318   2.757   0.428  12.659  0.0183  0.3717 -0.4289
  152MPD2     H 2319   2.877   0.665  12.373  1.7394  1.2558  1.2313
  152MPD2    H1 2320   2.560   0.469  12.591 -0.5009 -0.7457 -1.9821
  152MPD2    H2 2321   2.958   0.419  12.707  1.3306  3.3786  1.0819
  152MPD2    H3 2322   2.736   0.344  12.724 -0.1593  0.0480 -0.9056
  152MPD2     N 2323   2.628   0.630  12.367 -0.0609  0.1133 -0.0379
  152MPD2    H5 2324   2.675   0.687  12.297  1.8406 -2.1801 -0.6556
  152MPD2    N1 2325   3.065   0.603  12.562  0.1158  0.4165 -0.8130
  152MPD2    H7 2326   3.121   0.563  12.637  1.5099  0.1074 -2.0200
  153TCq2    C1 2327   3.134   0.678  12.468  0.0453  0.0619  0.3076
  153TCq2    O2 2328   3.088   0.712  12.360  0.8882  0.6082  0.1466
  153TCq2    C2 2329   3.264   0.719  12.507 -0.1232  0.6520  0.0709
  153TCq2    C3 2330   3.306   0.654  12.619 -0.1055  0.1471 -0.5192
  153TCq2    C4 2331   3.384   0.729  12.703  0.0156  0.4619 -0.4508
  153TCq2    C5 2332   3.404   0.866  12.689 -1.4465 -0.5189  0.3514
  153TCq2    C6 2333   3.340   0.926  12.586  0.0905 -0.5506  0.3080
  153TCq2    C7 2334   3.281   0.854  12.489 -0.1006  0.4395  0.8411
  153TCq2    C8 2335   3.263   1.039  12.628  0.3112 -0.1857 -0.6008
  153TCq2    O4 2336   3.146   1.038  12.595  0.2551  0.1681 -0.4699
  153TCq2    C9 2337   3.434   0.664  12.817  0.8200  0.5469  0.0148
  153TCq2    O5 2338   3.461   0.739  12.920 -0.1035  0.6014  0.1251
  153TCq2    O6 2339   3.404   0.542  12.831 -0.3121 -0.2405 -0.2484
  153TCq2    H2 2340   3.296   0.547  12.629  2.2286  0.0458  0.5221
  153TCq2    H3 2341   3.456   0.919  12.769 -0.8737 -0.6486  0.0622
  153TCq2    H4 2342   3.223   0.906  12.414 -0.4998 -0.2608  0.6659
  154MPD2     C 2343   3.724   2.168   0.200 -0.2803  1.0941  0.3799
  154MPD2    C1 2344   3.748   2.048   0.269 -0.0141  0.4815 -0.5018
  154MPD2    C2 2345   3.730   2.053   0.410 -0.4982  0.1682  0.4496
  154MPD2    C3 2346   3.695   2.167   0.473 -0.1941  0.5007  0.4688
  154MPD2    C4 2347   3.666   2.280   0.397 -0.1806  0.2584 -1.0527
  154MPD2    C5 2348   3.678   2.282   0.261 -0.2040  0.5165 -0.1744
  154MPD2     H 2349   3.756   1.960   0.459 -2.1508  0.5507  2.0382
  154MPD2    H1 2350   3.631   2.373   0.441  1.2078  0.2341  0.1136
  154MPD2    H2 2351   3.732   2.174   0.092 -1.4130 -1.0533  0.1783
  154MPD2    H3 2352   3.670   2.378   0.211 -1.2252  0.9534  0.8175
  154MPD2     N 2353   3.699   2.156   0.617  0.2068  0.7840  0.3471
  154MPD2    H5 2354   3.726   2.064   0.651  1.6274  0.4771 -1.5964
  154MPD2    N1 2355   3.774   1.928   0.194  0.2954 -0.7824 -0.7947
  154MPD2    H7 2356   3.769   1.933   0.093 -1.1347 -1.9865 -0.7807
  155TCq2    C1 2357   3.843   1.818   0.236  0.2365  0.5771 -0.4116
  155TCq2    O2 2358   3.854   1.777   0.349 -0.3362 -0.3900  0.1059
  155TCq2    C2 2359   3.873   1.732   0.122  0.0733  0.0649 -0.0333
  155TCq2    C3 2360   3.836   1.769  17.690 -0.5432  0.4277 -0.3730
  155TCq2    C4 2361   3.850   1.674  17.597  0.0538 -0.6641  0.3565
  155TCq2    C5 2362   3.888   1.540  17.627  0.1434 -0.2038 -0.7812
  155TCq2    C6 2363   3.933   1.516   0.061 -0.0268  0.1614 -0.3069
  155TCq2    C7 2364   3.928   1.612   0.157  0.6666 -0.6296 -0.1460
  155TCq2    C8 2365   4.006   1.391   0.094 -0.2919  0.0789 -0.5506
  155TCq2    O4 2366   3.962   1.285   0.049 -0.3611 -0.2659 -0.6082
  155TCq2    C9 2367   3.802   1.701  17.469  0.0769  0.0499 -0.4022
  155TCq2    O5 2368   3.789   1.822  17.438 -0.2475  0.1417 -0.2335
  155TCq2    O6 2369   3.767   1.614  17.393  0.4669 -0.2259  0.3426
  155TCq2    H2 2370   3.783   1.858  17.656 -0.7651 -0.4932 -2.4431
  155TCq2    H3 2371   3.898   1.470  17.545  3.3580 -0.8247  0.1405
  155TCq2    H4 2372   3.965   1.593   0.257 -0.2009 -0.1616  0.2738
  156MPD2     C 2373   3.358   3.037  11.392  0.0405 -0.6640 -0.1159
  156MPD2    C1 2374   3.224   3.047  11.374  0.3671 -0.1491  0.7481
  156MPD2    C2 2375   3.147   3.106  11.471  0.2680 -0.5628  0.2718
  156MPD2    C3 2376   3.215   3.175  11.571  0.0364  0.4162  0.1079
  156MPD2    C4 2377   3.352   3.180  11.581 -0.5114  0.1409  0.4291
  156MPD2    C5 2378   3.426   3.101  11.499  0.6291 -0.2572  0.5270
  156MPD2     H 2379   3.041   3.111  11.448  0.8547 -1.4366 -2.6559
  156MPD2    H1 2380   3.407   3.253  11.640  0.0314 -0.2564  0.4187
  156MPD2    H2 2381   3.425   2.990  11.320  2.1011  2.2179 -0.0935
  156MPD2    H3 2382   3.533   3.101  11.515  0.8080  2.7185 -0.5995
  156MPD2     N 2383   3.136   3.254  11.659  0.1616 -0.1663 -0.1290
  156MPD2    H5 2384   3.039   3.257  11.630  0.2057  0.2098 -0.2356
  156MPD2    N1 2385   3.172   2.982  11.262 -0.0563 -1.0889  0.3923
  156MPD2    H7 2386   3.237   2.918  11.217  2.4230  3.7773 -2.8256
  157TCq2    C1 2387   3.040   2.994  11.218  0.0882 -0.0124 -0.3688
  157TCq2    O2 2388   2.956   3.076  11.253  0.4396 -0.0621 -0.1468
  157TCq2    C2 2389   3.027   2.917  11.094 -0.3890  0.1222 -0.7971
  157TCq2    C3 2390   3.097   2.803  11.075  0.7997 -0.2838  0.4804
  157TCq2    C4 2391   3.082   2.725  10.966 -0.2659  0.0618  0.6868
  157TCq2    C5 2392   3.001   2.774  10.869 -0.0721 -0.2573  0.1424
  157TCq2    C6 2393   2.943   2.897  10.881 -0.8216 -1.3162  0.5725
  157TCq2    C7 2394   2.954   2.970  10.993  0.0887  0.6815  0.0444
  157TCq2    C8 2395   2.892   2.951  10.755  0.1554  0.0071 -1.0511
  157TCq2    O4 2396   2.865   2.875  10.667 -0.0044  0.5651  0.4298
  157TCq2    C9 2397   3.155   2.600  10.947 -0.7124  0.4326  0.0443
  157TCq2    O5 2398   3.114   2.513  10.865 -0.3262  0.6151 -0.2338
  157TCq2    O6 2399   3.239   2.576  11.040  1.0521 -0.3557  0.1418
  157TCq2    H2 2400   3.165   2.776  11.156  1.2173 -0.1703  0.1702
  157TCq2    H3 2401   2.986   2.730  10.771 -1.3566 -0.1303  0.2829
  157TCq2    H4 2402   2.893   3.059  10.999  0.0927  0.6731  0.1943
  158TMC2    C1 2403   3.679   2.780  13.245  0.7307  0.5153 -0.2712
  158TMC2    C2 2404   3.723   2.653  13.227  0.6469  0.3057  0.0536
  158TMC2    C3 2405   3.663   2.576  13.132  0.0980 -0.2677 -0.0420
  158TMC2    C4 2406   3.570   2.826  13.173  0.6107  0.7664 -0.2427
  158TMC2    C5 2407   3.522   2.739  13.075 -0.6960  0.0645 -0.3890
  158TMC2    C6 2408   3.569   2.616  13.045 -0.1810  0.2723 -0.4274
  158TMC2     C 2409   3.700   2.839  13.381 -0.2888 -0.7818 -0.1324
  158TMC2     O 2410   3.819   2.867  13.412 -0.2693 -0.2338 -0.1276
  158TMC2     H 2411   3.797   2.607  13.292  0.0792  0.6075  0.9123
  158TMC2    H1 2412   3.526   2.924  13.189  1.0351  1.0587 -0.8666
  158TMC2    H2 2413   3.538   2.556  12.960 -1.5231 -0.9030  0.9003
  158TMC2    C7 2414   3.379   2.763  13.036  0.3357  0.6018  0.0050
  158TMC2    C8 2415   3.717   2.439  13.141 -0.3776  0.2149 -0.1946
  158TMC2    O1 2416   3.351   2.878  13.010 -0.0961  0.0685  0.4717
  158TMC2    O2 2417   3.836   2.410  13.167 -0.8571  0.0336  0.2211
  158TMC2    O5 2418   3.637   2.361  13.072 -0.7261 -0.2058 -0.6048
  158TMC2    H5 2419   3.545   2.392  13.087 -0.9928 -1.2760 -0.1187
  159MPD2     C 2420   3.643   2.729  13.878  0.2462  1.0615  0.1565
  159MPD2    C1 2421   3.519   2.711  13.819 -0.9309  0.1313  0.2833
  159MPD2    C2 2422   3.505   2.736  13.679 -0.2345  0.0096 -0.0877
  159MPD2    C3 2423   3.608   2.791  13.608  0.2014  0.4501  0.8809
  159MPD2    C4 2424   3.718   2.829  13.678  0.5750 -0.0007 -0.6898
  159MPD2    C5 2425   3.737   2.795  13.810 -0.2644 -0.3992 -0.8775
  159MPD2     H 2426   3.416   2.707  13.625 -1.0661 -1.1288  1.8718
  159MPD2    H1 2427   3.801   2.885  13.636  1.0492  1.2655  1.9052
  159MPD2    H2 2428   3.676   2.705  13.979 -0.0700  1.0526  0.2558
  159MPD2    H3 2429   3.832   2.819  13.858 -0.8024  2.4203 -1.2474
  159MPD2     N 2430   3.600   2.798  13.460  1.2085 -0.2896 -0.4485
  159MPD2    H5 2431   3.524   2.746  13.418  0.1454  0.7320  0.2034
  159MPD2    N1 2432   3.428   2.632  13.902  0.3373  0.2318 -0.4061
  159MPD2    H7 2433   3.461   2.593  13.989  0.8828  3.1345  0.7017
  160TMC2    C1 2434   3.349   0.241   0.296  0.0738 -0.2196  0.6127
  160TMC2    C2 2435   3.379   0.128   0.221  0.7856  0.1324  0.3031
  160TMC2    C3 2436   3.471   0.141   0.127 -0.0782 -0.0369 -0.0836
  160TMC2    C4 2437   3.416   0.358   0.283 -0.1088  0.3127  0.1460
  160TMC2    C5 2438   3.525   0.361   0.200 -0.3441  0.2210 -0.0449
  160TMC2    C6 2439   3.540   0.258   0.114  0.6099 -0.3233  0.0767
  160TMC2     C 2440   3.259   0.217   0.412 -0.0089  0.2336 -0.2327
  160TMC2     O 2441   3.239   0.102   0.458 -0.3489  0.2367  0.2277
  160TMC2     H 2442   3.345   0.033   0.260  0.4738  0.2182  0.2398
  160TMC2    H1 2443   3.388   0.444   0.344 -0.5941  1.0541 -1.1275
  160TMC2    H2 2444   3.627   0.253   0.049  0.9775 -0.9056  0.6119
  160TMC2    C7 2445   3.596   0.484   0.171 -0.4088  0.3307 -0.1964
  160TMC2    C8 2446   3.537   0.018   0.094  0.0802 -0.0394 -0.1265
  160TMC2    O1 2447   3.661   0.482   0.069 -0.1238  0.2734  0.4890
  160TMC2    O2 2448   3.571   4.662   0.182 -0.4891 -0.0738  0.6520
  160TMC2    O5 2449   3.587   0.039  17.668  0.0525 -0.2891 -0.1052
  160TMC2    H5 2450   3.530   0.093  17.609  1.5214  1.3009 -0.0777
  161MPD2     C 2451   3.098   0.282   0.665 -1.3874 -0.0543 -0.7000
  161MPD2    C1 2452   3.111   0.368   0.553  0.6365  0.6929  0.0850
  161MPD2    C2 2453   3.050   0.494   0.551 -0.0903 -0.1452  0.4939
  161MPD2    C3 2454   2.959   0.520   0.652 -0.0533 -0.1730 -0.1969
  161MPD2    C4 2455   2.942   0.436   0.756  0.2724 -0.1142 -0.5033
  161MPD2    C5 2456   3.008   0.314   0.761  1.0043  0.0277  0.1804
  161MPD2     H 2457   3.061   0.551   0.460 -0.7326 -1.4484 -0.4020
  161MPD2    H1 2458   2.879   0.468   0.838 -0.0836 -3.1182  0.4121
  161MPD2    H2 2459   3.148   0.186   0.664 -1.4396 -0.1075  1.1893
  161MPD2    H3 2460   2.991   0.241   0.840  2.8974  2.3158  2.6946
  161MPD2     N 2461   2.888   0.642   0.670  0.4654 -1.1147 -0.9101
  161MPD2    H5 2462   2.826   0.640   0.750 -0.6993 -0.2050 -1.7834
  161MPD2    N1 2463   3.184   0.334   0.440  0.2871  0.0273  0.0285
  161MPD2    H7 2464   3.186   0.392   0.357 -1.7976  4.3599  2.9773
  162TMC2    C1 2465   0.765   2.763   0.683 -0.4317 -0.3070  0.6389
  162TMC2    C2 2466   0.678   2.862   0.718 -0.1109 -0.2851  0.5488
  162TMC2    C3 2467   0.744   2.972   0.763 -0.2553 -0.4045 -0.6426
  162TMC2    C4 2468   0.902   2.762   0.708  0.2121 -0.4849 -0.4847
  162TMC2    C5 2469   0.969   2.874   0.744 -0.0484  0.9581 -1.0096
  162TMC2    C6 2470   0.890   2.976   0.780  0.3467  0.4342  0.2248
  162TMC2     C 2471   0.723   2.635   0.622 -0.3398 -0.1257  0.3679
  162TMC2     O 2472   0.793   2.537   0.641 -0.4785 -0.7792  0.2308
  162TMC2     H 2473   0.570   2.850   0.716 -0.1482  0.1926 -0.3781
  162TMC2    H1 2474   0.959   2.684   0.659  1.4821  0.2589 -0.2096
  162TMC2    H2 2475   0.937   3.055   0.837 -2.7805  3.3641 -1.2882
  162TMC2    C7 2476   1.088   2.875   0.819  0.3428 -1.2259  0.3018
  162TMC2    C8 2477   0.667   3.085   0.811  0.3511 -0.2224 -0.4718
  162TMC2    O1 2478   1.156   2.982   0.817 -0.4473 -0.6674  0.3692
  162TMC2    O2 2479   0.730   3.179   0.856  0.4719  0.2867  0.8922
  162TMC2    O5 2480   0.550   3.096   0.744  0.1115  0.0724 -0.6357
  162TMC2    H5 2481   0.524   3.014   0.698 -0.5419  1.7107 -3.1651
  163MPD2     C 2482   0.428   2.354   0.298  0.2686 -0.2308 -0.1376
  163MPD2    C1 2483   0.556   2.339   0.357 -0.1421 -1.0352 -0.4024
  163MPD2    C2 2484   0.616   2.431   0.436  0.6083  0.5371  0.1398
  163MPD2    C3 2485   0.547   2.541   0.477  0.5122  0.1131  0.4282
  163MPD2    C4 2486   0.418   2.553   0.431 -0.2005 -0.0249  0.0969
  163MPD2    C5 2487   0.356   2.459   0.336  0.8224 -0.4828 -0.4814
  163MPD2     H 2488   0.717   2.423   0.473 -0.0919  0.9526  2.1668
  163MPD2    H1 2489   0.361   2.641   0.457 -1.7806 -0.6468 -1.2237
  163MPD2    H2 2490   0.384   2.284   0.229 -0.7783 -0.3170  0.6193
  163MPD2    H3 2491   0.253   2.481   0.313  1.0824 -1.0970 -2.2378
  163MPD2     N 2492   0.595   2.648   0.562  0.2162 -0.1227 -0.2419
  163MPD2    H5 2493   0.534   2.728   0.575 -1.6064 -1.3942 -0.9587
  163MPD2    N1 2494   0.624   2.222   0.320 -0.4839 -0.6653  0.1354
  163MPD2    H7 2495   0.591   2.174   0.237  0.7903 -0.8830 -0.2484
  164TCq2    C1 2496   1.505   1.703  10.901  0.1864 -0.4774 -0.3338
  164TCq2    O2 2497   1.384   1.694  10.913 -0.1233  0.2426 -0.2680
  164TCq2    C2 2498   1.554   1.819  10.828  0.0217 -0.9938 -0.1134
  164TCq2    C3 2499   1.677   1.867  10.866 -0.4674 -0.8345 -0.6850
  164TCq2    C4 2500   1.708   2.005  10.851  0.0339 -0.6300  0.6694
  164TCq2    C5 2501   1.615   2.089  10.789  0.2426 -0.5673  0.3339
  164TCq2    C6 2502   1.497   2.038  10.753  0.1914 -0.0739 -0.0505
  164TCq2    C7 2503   1.463   1.907  10.776 -0.0433  0.4692  0.2525
  164TCq2    C8 2504   1.380   2.122  10.748  0.5666  0.6611 -0.5167
  164TCq2    O4 2505   1.271   2.071  10.733 -0.1310  0.0657  0.0009
  164TCq2    C9 2506   1.835   2.050  10.898 -0.8511 -0.1182  0.0023
  164TCq2    O5 2507   1.848   2.177  10.882 -0.4276  0.6767 -0.0071
  164TCq2    O6 2508   1.911   1.969  10.955 -0.1069 -0.9794  0.3157
  164TCq2    H2 2509   1.752   1.806  10.915  0.9399  0.9543 -0.6084
  164TCq2    H3 2510   1.629   2.196  10.774  2.1617 -0.6475  1.6285
  164TCq2    H4 2511   1.365   1.860  10.766 -0.1225  0.4796  1.0012
  165MPD2     C 2512   2.315   4.572   0.875  0.2561 -0.0673  0.9305
  165MPD2    C1 2513   2.208   4.654   0.845 -0.2242 -0.7078 -0.3915
  165MPD2    C2 2514   2.216   0.066   0.867  0.0433  0.2850 -0.4547
  165MPD2    C3 2515   2.316   0.113   0.950  0.2978  0.8933  0.4022
  165MPD2    C4 2516   2.422   0.037   0.980  0.8515  0.2243 -0.1767
  165MPD2    C5 2517   2.421   4.628   0.950 -0.1171 -0.2295  0.2672
  165MPD2     H 2518   2.138   0.136   0.839  1.5734  0.6698 -3.6456
  165MPD2    H1 2519   2.496   0.082   1.044  0.3424  0.5298  0.2034
  165MPD2    H2 2520   2.320   4.465   0.861 -0.4562  0.1569 -1.0555
  165MPD2    H3 2521   2.500   4.563   0.987 -0.4966 -0.4377  0.7120
  165MPD2     N 2522   2.335   0.246   0.986 -0.3603  0.7391  0.1151
  165MPD2    H5 2523   2.408   0.262   1.054  0.6938 -2.0607 -0.3679
  165MPD2    N1 2524   2.106   4.591   0.771 -0.0894  0.8783 -0.4187
  165MPD2    H7 2525   2.124   4.498   0.736 -1.9978  0.0034  0.9542
  166TCq2    C1 2526   2.247   0.347   0.961  0.0995  0.1659  0.2403
  166TCq2    O2 2527   2.126   0.327   0.945  0.5179  0.5233 -0.1261
  166TCq2    C2 2528   2.297   0.472   1.013  0.9494 -0.1801 -0.4426
  166TCq2    C3 2529   2.213   0.550   1.085 -0.6022 -0.0438  0.0437
  166TCq2    C4 2530   2.261   0.666   1.138  0.1864  0.0022  0.2711
  166TCq2    C5 2531   2.392   0.705   1.126  0.2575  0.8900 -0.0872
  166TCq2    C6 2532   2.471   0.612   1.063  0.4723  0.2632 -0.4671
  166TCq2    C7 2533   2.431   0.497   1.005  0.2538 -0.4324 -0.5519
  166TCq2    C8 2534   2.609   0.646   1.037 -0.0074 -0.0146  1.4516
  166TCq2    O4 2535   2.678   0.548   1.014  0.0838 -0.3243 -0.2961
  166TCq2    C9 2536   2.163   0.744   1.211  0.0188 -0.3470  0.8325
  166TCq2    O5 2537   2.211   0.850   1.256 -0.5661  0.2403  0.7022
  166TCq2    O6 2538   2.053   0.699   1.243 -0.0366 -0.1819 -0.0462
  166TCq2    H2 2539   2.108   0.526   1.096 -0.8601  1.1718  0.2927
  166TCq2    H3 2540   2.425   0.798   1.170  1.3033 -0.1012  1.2375
  166TCq2    H4 2541   2.499   0.432   0.951  1.4525 -2.0070  2.8694
  167TMC2    C1 2542   0.503   1.984  12.720  0.4088  0.3427  1.1235
  167TMC2    C2 2543   0.476   2.025  12.850 -0.2396  0.4602  0.1592
  167TMC2    C3 2544   0.381   1.959  12.917  0.2559  0.3681  1.1169
  167TMC2    C4 2545   0.445   1.875  12.662 -0.0586 -0.4061 -0.0109
  167TMC2    C5 2546   0.353   1.813  12.736  0.0467  0.2391 -0.2499
  167TMC2    C6 2547   0.326   1.844  12.867 -0.0044  0.1583  0.1619
  167TMC2     C 2548   0.585   2.076  12.644 -0.0541  0.4424 -0.0002
  167TMC2     O 2549   0.592   2.191  12.683 -0.2937 -0.1800 -0.1647
  167TMC2     H 2550   0.524   2.115  12.886 -2.0248  1.9372 -1.1613
  167TMC2    H1 2551   0.453   1.858  12.555  0.8312  0.5586 -0.0950
  167TMC2    H2 2552   0.264   1.781  12.929 -1.1248  2.2224  1.1347
  167TMC2    C7 2553   0.285   1.698  12.686  0.4610 -1.2124  0.0257
  167TMC2    C8 2554   0.364   2.004  13.056  0.0422 -0.1958  0.2670
  167TMC2    O1 2555   0.184   1.662  12.745  0.1374  0.0612  0.1662
  167TMC2    O2 2556   0.449   2.049  13.130  0.3104 -0.2638 -0.2686
  167TMC2    O5 2557   0.236   1.970  13.090  0.7234 -0.3701 -0.1358
  167TMC2    H5 2558   0.187   1.947  13.009 -0.7429  0.2924  0.5671
  168MPD2     C 2559   0.738   2.225  12.429 -1.1039  0.1587  0.2011
  168MPD2    C1 2560   0.692   2.089  12.422  0.4088 -0.0667 -0.4206
  168MPD2    C2 2561   0.730   2.018  12.308 -0.1380 -0.7436 -0.8268
  168MPD2    C3 2562   0.808   2.073  12.206 -0.7159 -0.5076  0.3477
  168MPD2    C4 2563   0.831   2.212  12.208  0.6781  0.1387  0.1884
  168MPD2    C5 2564   0.800   2.281  12.321 -0.1546  0.7570 -0.3683
  168MPD2     H 2565   0.706   1.913  12.318 -0.1921 -0.6910 -0.4160
  168MPD2    H1 2566   0.872   2.266  12.123  0.2852 -0.3264 -0.2982
  168MPD2    H2 2567   0.717   2.290  12.514  1.8023  0.7244  0.4867
  168MPD2    H3 2568   0.820   2.387  12.332  0.5514  0.8669 -2.7015
  168MPD2     N 2569   0.837   2.003  12.091  0.4564 -0.2708  0.6796
  168MPD2    H5 2570   0.893   2.049  12.020 -2.0367  1.7761  0.0290
  168MPD2    N1 2571   0.630   2.019  12.529  1.2454  0.3305  0.9507
  168MPD2    H7 2572   0.618   1.920  12.510 -2.3605  0.6904  1.2094
  169MPD1     C 2573   3.712   0.962   9.493 -0.1041  0.0343 -0.0877
  169MPD1    C1 2574   3.792   1.049   9.437 -0.1239  0.6294  0.1992
  169MPD1    C2 2575   3.731   1.172   9.418  0.0274  0.4993  0.0748
  169MPD1    C3 2576   3.596   1.199   9.436  0.0320 -0.6045  0.1012
  169MPD1    C4 2577   3.517   1.102   9.493  0.3887 -0.4635 -0.2965
  169MPD1    C5 2578   3.576   0.983   9.524 -0.0497 -0.6012  0.2035
  169MPD1     H 2579   3.787   1.252   9.371 -1.1760  0.4736 -1.3880
  169MPD1    H1 2580   3.414   1.116   9.524  0.1106  1.9680 -2.3097
  169MPD1    H2 2581   3.743   0.863   9.522 -1.5565 -0.8318 -1.5098
  169MPD1    H3 2582   3.508   0.911   9.568 -0.7631  0.1904  0.3718
  169MPD1     N 2583   3.543   1.321   9.396 -0.0088 -0.1744  0.2923
  169MPD1    H5 2584   3.609   1.375   9.339 -0.5415  0.6847  0.4815
  169MPD1    N1 2585   3.930   1.021   9.433  0.0020  0.0147 -0.0490
  169MPD1    H6 2586   3.958   0.923   9.425  0.8072  0.0691  2.0638
  169MPD1    H7 2587   3.977   1.082   9.366 -2.4875 -1.2807 -2.9846
  170MPD1     C 2588   2.026   3.714  12.638  0.3955  0.7893  0.3150
  170MPD1    C1 2589   2.027   3.853  12.633 -0.0019 -0.2856  0.8442
  170MPD1    C2 2590   2.060   3.919  12.752 -0.5157  0.0775  0.3982
  170MPD1    C3 2591   2.094   3.850  12.867  0.8880 -0.1677  0.1938
  170MPD1    C4 2592   2.098   3.711  12.866  0.2791 -0.7868  0.0222
  170MPD1    C5 2593   2.052   3.639  12.754  0.0803  0.0201  0.0975
  170MPD1     H 2594   2.073   4.027  12.749  1.0672 -0.1283 -0.1093
  170MPD1    H1 2595   2.113   3.659  12.960 -0.0212 -0.1171  0.4422
  170MPD1    H2 2596   1.984   3.657  12.556  1.1029 -1.1656  1.2968
  170MPD1    H3 2597   2.044   3.531  12.755  3.1790 -0.1823  3.6346
  170MPD1     N 2598   2.120   3.925  12.984 -0.4692  0.8471  0.1560
  170MPD1    H5 2599   2.083   4.019  12.982  0.3104  1.1815  2.0428
  170MPD1    N1 2600   2.043   3.917  12.507 -0.1354 -0.4725 -0.1878
  170MPD1    H6 2601   1.992   3.875  12.429  0.0112  0.2786 -0.6986
  170MPD1    H7 2602   2.024   4.017  12.494 -0.1886 -0.6424 -1.4493
  171MPD1     C 2603   0.771   1.027  15.442 -0.1372  0.2655  0.1086
  171MPD1    C1 2604   0.755   0.921  15.360  0.0901  0.3653 -0.7794
  171MPD1    C2 2605   0.753   0.791  15.413 -0.1868  0.3343 -1.1091
  171MPD1    C3 2606   0.782   0.774  15.547 -0.5911 -0.5123  0.3233
  171MPD1    C4 2607   0.820   0.883  15.624  0.2441 -0.1700 -0.2884
  171MPD1    C5 2608   0.808   1.008  15.572  0.2911  0.5386 -0.2548
  171MPD1     H 2609   0.738   0.707  15.346  0.9754 -1.6055  1.0556
  171MPD1    H1 2610   0.848   0.873  15.728  0.1915 -1.8258 -0.4199
  171MPD1    H2 2611   0.768   1.125  15.396 -1.1206  1.0031  1.7723
  171MPD1    H3 2612   0.837   1.093  15.632 -0.7589  0.6704  0.0823
  171MPD1     N 2613   0.780   0.647  15.615 -0.1333  0.3284  0.4863
  171MPD1    H5 2614   0.804   0.652  15.714  1.0111 -2.3313  0.3547
  171MPD1    N1 2615   0.711   0.939  15.228 -0.6573  0.2175 -0.0920
  171MPD1    H6 2616   0.743   0.857  15.175  1.0428  1.4840 -1.0366
  171MPD1    H7 2617   0.743   1.028  15.189  0.3830 -0.4823 -0.8591
  172MPD1     C 2618   4.520   4.445  17.460 -0.1602 -0.1025 -0.0920
  172MPD1    C1 2619   4.395   4.472  17.413  0.4244 -0.1953  0.0737
  172MPD1    C2 2620   4.338   4.594  17.443  0.3552  0.3655  0.0105
  172MPD1    C3 2621   4.418   4.691  17.503 -0.4397 -0.4158 -0.2168
  172MPD1    C4 2622   4.551   4.670  17.529 -0.5170 -0.4609 -0.1321
  172MPD1    C5 2623   4.605   4.547  17.504  0.0169 -0.2882 -0.3298
  172MPD1     H 2624   4.237   4.625  17.417 -0.1274  0.1000  1.5675
  172MPD1    H1 2625   4.608   0.035  17.558  2.0753 -2.8668  2.0344
  172MPD1    H2 2626   4.562   4.346  17.448  0.5292  0.2623 -0.7196
  172MPD1    H3 2627   4.709   4.521  17.523  0.5459  0.6491 -1.9819
  172MPD1     N 2628   4.372   0.106  17.527 -0.4249 -0.2954  0.5580
  172MPD1    H5 2629   4.436   0.175  17.564 -0.7416 -0.0479  0.6443
  172MPD1    N1 2630   4.324   4.370  17.362 -0.0527 -0.8444 -0.1349
  172MPD1    H6 2631   4.247   4.408  17.308  0.0402  0.3420  0.5551
  172MPD1    H7 2632   4.372   4.296  17.311  1.0022 -0.0326 -0.3367
  173MPD1     C 2633   1.511   0.263  14.192 -0.1315  0.0349  0.4456
  173MPD1    C1 2634   1.395   0.307  14.257  0.4958 -0.0908 -0.3861
  173MPD1    C2 2635   1.295   0.213  14.263  0.0527  0.1302  0.7470
  173MPD1    C3 2636   1.303   0.094  14.191 -0.2180  0.0870 -0.2178
  173MPD1    C4 2637   1.420   0.061  14.132  0.1519 -0.9125  0.0839
  173MPD1    C5 2638   1.528   0.137  14.143  0.4158  0.0405  0.0220
  173MPD1     H 2639   1.200   0.230  14.312 -0.1190 -1.8248  1.0973
  173MPD1    H1 2640   1.428   4.694  14.071 -0.7206 -0.7812 -0.2181
  173MPD1    H2 2641   1.596   0.330  14.189  1.6866 -2.3783 -1.2015
  173MPD1    H3 2642   1.619   0.109  14.091 -0.7267 -0.7736 -1.5676
  173MPD1     N 2643   1.193   0.005  14.194 -0.0034 -0.2728 -0.0879
  173MPD1    H5 2644   1.114   0.028  14.253 -0.4617  1.8028 -1.4938
  173MPD1    N1 2645   1.392   0.436  14.319 -0.0175  0.3688  0.6090
  173MPD1    H6 2646   1.294   0.462  14.321 -0.0674  0.1239  1.1556
  173MPD1    H7 2647   1.444   0.510  14.271  0.2867  0.5803  1.2658
  174MPD1     C 2648   1.617   4.020  13.957  0.6109  0.7473  0.3794
  174MPD1    C1 2649   1.581   4.005  14.087  0.7125  0.0117 -0.2624
  174MPD1    C2 2650   1.451   4.027  14.119  0.2402  0.3938  0.0717
  174MPD1    C3 2651   1.375   4.092  14.031  0.3340 -0.0076  0.7168
  174MPD1    C4 2652   1.406   4.119  13.902  0.1780 -0.1578 -0.1041
  174MPD1    C5 2653   1.535   4.081  13.867  0.6221  0.1852 -0.4521
  174MPD1     H 2654   1.422   3.991  14.217 -0.9044 -0.7847 -0.7063
  174MPD1    H1 2655   1.340   4.181  13.843 -0.2600  0.9493  1.5497
  174MPD1    H2 2656   1.711   3.984  13.917  0.1326 -1.4053  1.2060
  174MPD1    H3 2657   1.568   4.084  13.763 -0.4876 -1.1321 -0.8371
  174MPD1     N 2658   1.249   4.138  14.072 -0.7876 -0.4695  0.2649
  174MPD1    H5 2659   1.196   4.190  14.003 -0.2868  2.6325  2.2277
  174MPD1    N1 2660   1.670   3.931  14.167  0.4460 -0.3684 -0.1064
  174MPD1    H6 2661   1.654   3.940  14.267  0.1328 -0.3728 -0.1564
  174MPD1    H7 2662   1.766   3.960  14.147  0.7080 -2.1134 -1.3635
  175MPD1     C 2663   4.241   0.425  15.011 -0.2804  0.6563 -0.1697
  175MPD1    C1 2664   4.102   0.439  15.038  0.2966 -0.7088 -0.2388
  175MPD1    C2 2665   4.055   0.539  15.122 -0.7289  0.0644 -0.0470
  175MPD1    C3 2666   4.149   0.610  15.196 -0.5769 -0.1830  0.5052
  175MPD1    C4 2667   4.282   0.580  15.187  0.0248 -0.2562  0.1699
  175MPD1    C5 2668   4.322   0.492  15.090 -0.0868  0.1907  0.2464
  175MPD1     H 2669   3.951   0.568  15.121 -0.3665  1.4686  1.7582
  175MPD1    H1 2670   4.355   0.643  15.235 -0.7422 -0.0546  1.0748
  175MPD1    H2 2671   4.298   0.348  14.961 -0.3038 -0.6651  1.8240
  175MPD1    H3 2672   4.424   0.456  15.095 -0.5583 -1.1221  0.4042
  175MPD1     N 2673   4.108   0.700  15.299  0.4421 -0.1608  0.3496
  175MPD1    H5 2674   4.185   0.750  15.342 -0.5308  0.1980  1.6553
  175MPD1    N1 2675   4.015   0.372  14.945  0.5266 -0.0950  0.2308
  175MPD1    H6 2676   3.919   0.380  14.978  0.2997 -1.1430 -0.1607
  175MPD1    H7 2677   4.040   0.273  14.950 -1.0848 -0.4078  2.3095
  176MPD1     C 2678   0.611   2.462  16.099 -0.8028 -0.9601 -0.2963
  176MPD1    C1 2679   0.739   2.490  16.102 -0.0830  0.6784  0.0941
  176MPD1    C2 2680   0.804   2.496  16.227  0.8302  0.4274  0.3937
  176MPD1    C3 2681   0.734   2.461  16.345 -0.1604 -0.5220 -0.3733
  176MPD1    C4 2682   0.598   2.430  16.333 -0.4198 -0.6210 -0.1283
  176MPD1    C5 2683   0.538   2.436  16.216 -0.3469  0.0085 -0.0271
  176MPD1     H 2684   0.911   2.508  16.238  0.8626  0.6236 -0.1584
  176MPD1    H1 2685   0.539   2.394  16.416 -1.0163 -0.0873 -0.3269
  176MPD1    H2 2686   0.558   2.456  16.005 -1.1735  1.7715 -0.2455
  176MPD1    H3 2687   0.432   2.412  16.207  0.2504 -2.4389 -0.7264
  176MPD1     N 2688   0.807   2.458  16.460  0.3143  0.0244  0.5367
  176MPD1    H5 2689   0.900   2.499  16.454  0.3725 -0.0840  0.6935
  176MPD1    N1 2690   0.816   2.516  15.985  0.1363  0.0483  0.0846
  176MPD1    H6 2691   0.916   2.525  15.998  0.0161 -0.1270  1.1981
  176MPD1    H7 2692   0.795   2.449  15.912  1.7414  1.3648 -1.5536
  177MPD1     C 2693   3.902   2.641   9.380 -0.1862  0.4104 -0.3806
  177MPD1    C1 2694   3.838   2.755   9.346 -0.0394  0.4994 -0.0976
  177MPD1    C2 2695   3.704   2.760   9.353 -0.0236 -0.0837  0.3065
  177MPD1    C3 2696   3.627   2.653   9.394  0.5413  0.2551  0.2608
  177MPD1    C4 2697   3.690   2.537   9.419 -0.4946 -0.1376  0.1722
  177MPD1    C5 2698   3.828   2.531   9.406 -0.1737 -0.0454 -0.2186
  177MPD1     H 2699   3.651   2.854   9.342  0.2017 -0.0591 -0.5986
  177MPD1    H1 2700   3.635   2.449   9.452  0.2701 -1.2137 -1.4208
  177MPD1    H2 2701   4.010   2.638   9.378 -0.1869  0.0179  0.2735
  177MPD1    H3 2702   3.872   2.434   9.424  0.9105  0.6343  0.7746
  177MPD1     N 2703   3.488   2.663   9.409 -0.4087 -0.3522 -0.1019
  177MPD1    H5 2704   3.454   2.758   9.423 -2.2129 -0.6347 -2.5453
  177MPD1    N1 2705   3.920   2.873   9.337 -0.0214  0.5572 -0.7295
  177MPD1    H6 2706   4.014   2.863   9.298 -0.5264  0.0140 -1.8170
  177MPD1    H7 2707   3.872   2.945   9.284 -0.3243  0.0037 -1.2007
  178MPD1     C 2708   1.679   3.050   0.243  0.0063  0.0026 -0.4002
  178MPD1    C1 2709   1.604   2.961   0.169  0.1870  0.4616 -0.6540
  178MPD1    C2 2710   1.626   2.958   0.037  0.5504 -0.2634 -0.4428
  178MPD1    C3 2711   1.679   3.075  17.669  0.7281 -0.4007 -0.5575
  178MPD1    C4 2712   1.732   3.177   0.054  0.8822  0.0841  0.2022
  178MPD1    C5 2713   1.744   3.153   0.190  0.8137 -0.3060  0.5889
  178MPD1     H 2714   1.587   2.880  17.667  1.4340 -1.4091  0.4048
  178MPD1    H1 2715   1.776   3.269   0.016  1.5078 -0.2921  0.0133
  178MPD1    H2 2716   1.697   3.034   0.349  0.7464 -2.3812 -0.8720
  178MPD1    H3 2717   1.788   3.227   0.255 -1.2943  0.4922  1.0929
  178MPD1     N 2718   1.675   3.080  17.530 -0.1280  0.1412 -0.1975
  178MPD1    H5 2719   1.727   3.154  17.483 -2.2621  1.3241 -0.7356
  178MPD1    N1 2720   1.550   2.852   0.237 -0.2755 -0.7838 -0.4157
  178MPD1    H6 2721   1.522   2.874   0.332  0.3611 -0.9025 -0.2006
  178MPD1    H7 2722   1.465   2.838   0.184 -1.6811 -2.1141  2.1793
  179MPD1     C 2723   1.633   0.909  15.145 -0.0440 -0.1269  0.3939
  179MPD1    C1 2724   1.726   0.923  15.241  0.2790 -0.1820  0.6503
  179MPD1    C2 2725   1.702   1.005  15.351 -0.3116 -0.1561 -0.6474
  179MPD1    C3 2726   1.576   1.056  15.361 -0.6955  1.0052  0.1622
  179MPD1    C4 2727   1.487   1.042  15.261 -0.0043 -0.1820  0.5969
  179MPD1    C5 2728   1.514   0.972  15.149  0.3504 -0.3445 -0.3257
  179MPD1     H 2729   1.777   1.014  15.429 -0.8351 -5.1668  0.4811
  179MPD1    H1 2730   1.394   1.098  15.263 -1.1921 -2.1810  1.4745
  179MPD1    H2 2731   1.652   0.849  15.057 -1.2815  0.1270 -0.0511
  179MPD1    H3 2732   1.443   0.962  15.067 -0.3207 -0.5270  0.2700
  179MPD1     N 2733   1.541   1.140  15.472 -0.2623 -0.1304  0.6363
  179MPD1    H5 2734   1.445   1.175  15.468  0.0808  1.0233  2.6617
  179MPD1    N1 2735   1.856   0.868  15.212  0.1977 -0.2915 -0.0393
  179MPD1    H6 2736   1.860   0.783  15.157 -0.4848 -0.2944 -0.0952
  179MPD1    H7 2737   1.910   0.852  15.296  0.6799  1.4791 -0.0191
  180MPD1     C 2738   0.975   2.817  15.314 -0.2179  0.1269 -0.2613
  180MPD1    C1 2739   1.074   2.865  15.236 -0.1483 -0.0406  0.1847
  180MPD1    C2 2740   1.063   2.842  15.098  1.0547  0.5227  0.5385
  180MPD1    C3 2741   0.960   2.770  15.045  0.4157 -0.4149  0.0300
  180MPD1    C4 2742   0.856   2.721  15.121  0.1754  0.2414  0.0315
  180MPD1    C5 2743   0.863   2.749  15.256  0.0164  0.4795  0.1029
  180MPD1     H 2744   1.154   2.862  15.041  0.5925 -1.8102 -1.0288
  180MPD1    H1 2745   0.779   2.661  15.074  0.7562 -0.6421  0.2109
  180MPD1    H2 2746   0.993   2.809  15.421 -2.2568  2.7946  0.2698
  180MPD1    H3 2747   0.790   2.718  15.330  0.3554  0.6978  0.5318
  180MPD1     N 2748   0.966   2.758  14.904  0.4145 -0.1017  0.1686
  180MPD1    H5 2749   1.040   2.806  14.854 -1.9653  3.4780  0.0849
  180MPD1    N1 2750   1.192   2.906  15.298 -0.1281  0.1960 -0.1626
  180MPD1    H6 2751   1.242   2.962  15.229 -1.5031 -0.0860 -1.4021
  180MPD1    H7 2752   1.195   2.948  15.390  0.9811  0.2892 -0.2410
  181MPD1     C 2753   2.687   4.145  10.235 -0.6042  0.3910 -0.7807
  181MPD1    C1 2754   2.748   4.162  10.108  0.0989  0.3605 -0.4416
  181MPD1    C2 2755   2.830   4.272  10.096  0.2681  0.1756 -0.5230
  181MPD1    C3 2756   2.865   4.352  10.203  0.4466 -0.8404 -0.1155
  181MPD1    C4 2757   2.812   4.322  10.326 -0.2894  0.2001  0.3269
  181MPD1    C5 2758   2.710   4.233  10.339  0.1143 -0.1292 -0.2835
  181MPD1     H 2759   2.860   4.300   9.996  1.3272 -0.6211 -0.4347
  181MPD1    H1 2760   2.838   4.385  10.410 -2.0185  0.7560  0.4491
  181MPD1    H2 2761   2.606   4.077  10.259  0.9575 -2.6659 -4.1832
  181MPD1    H3 2762   2.660   4.230  10.436  0.4016 -2.7834 -0.2160
  181MPD1     N 2763   2.936   4.474  10.182  0.0506 -0.6871  0.2828
  181MPD1    H5 2764   2.934   4.533  10.264 -0.5264 -0.4306  0.0793
  181MPD1    N1 2765   2.697   4.112   9.985  0.0506  0.0236 -0.6972
  181MPD1    H6 2766   2.769   4.106   9.913  1.0152  0.2595  0.2605
  181MPD1    H7 2767   2.668   4.017  10.009 -0.7539  0.5858  0.5751
  182MPD1     C 2768   0.442   3.929   0.485  0.3985 -0.7663  0.6119
  182MPD1    C1 2769   0.386   3.854   0.588  0.5416 -0.2443 -1.8300
  182MPD1    C2 2770   0.266   3.905   0.635 -0.2757 -0.2144 -0.2536
  182MPD1    C3 2771   0.212   4.030   0.600 -0.1896  0.1033  0.1518
  182MPD1    C4 2772   0.282   4.103   0.514 -0.1426 -0.4854 -0.1111
  182MPD1    C5 2773   0.400   4.056   0.458  0.1366  0.1394  0.2485
  182MPD1     H 2774   0.209   3.840   0.700 -0.9221  2.3125  1.6895
  182MPD1    H1 2775   0.251   4.202   0.481  2.2636  0.3151  0.0065
  182MPD1    H2 2776   0.524   3.895   0.424 -0.8720 -1.2681 -0.8154
  182MPD1    H3 2777   0.444   4.106   0.373  2.9407 -1.7453  0.6142
  182MPD1     N 2778   0.078   4.072   0.635 -0.1012 -0.1272 -0.0276
  182MPD1    H5 2779   0.055   4.170   0.621  1.0061 -0.0485 -1.3498
  182MPD1    N1 2780   0.411   3.717   0.614  0.5039  0.3915 -0.0479
  182MPD1    H6 2781   0.509   3.688   0.615  0.6615  0.9386  1.0835
  182MPD1    H7 2782   0.367   3.675   0.695  0.1817  0.9778  0.0797
  183MPD1     C 2783   4.618   4.497   8.607 -0.1257 -0.4011  0.5384
  183MPD1    C1 2784   4.603   4.440   8.733  0.2939 -0.2393  0.0848
  183MPD1    C2 2785   4.556   4.526   8.827 -0.3590 -0.9342 -0.2444
  183MPD1    C3 2786   4.504   4.651   8.792 -0.5148 -0.5211  0.1486
  183MPD1    C4 2787   4.495   4.688   8.664 -0.1551  0.8826  0.2541
  183MPD1    C5 2788   4.557   4.613   8.568 -0.2192 -0.3656 -0.1446
  183MPD1     H 2789   4.556   4.504   8.933  2.3267 -1.4976 -0.3614
  183MPD1    H1 2790   4.441   0.054   8.634 -1.2147 -0.4322 -1.7029
  183MPD1    H2 2791   4.673   4.439   8.533 -1.7607 -0.8708 -0.2973
  183MPD1    H3 2792   4.579   4.657   8.472 -0.2364  1.6397  0.7669
  183MPD1     N 2793   4.455   0.002   8.904  0.2291 -0.0360 -0.2259
  183MPD1    H5 2794   4.434   4.684   8.994  1.0038  0.1100  0.0168
  183MPD1    N1 2795   4.671   4.325   8.770  0.1781 -0.0078  0.2832
  183MPD1    H6 2796   4.682   4.268   8.687  0.5466 -1.2205  1.1658
  183MPD1    H7 2797   4.631   4.271   8.847 -1.4207 -1.0687 -1.2948
  184MPD1     C 2798   3.482   1.291  10.373  0.4792  0.5472 -0.5808
  184MPD1    C1 2799   3.549   1.336  10.264  0.3934  0.1579 -0.5019
  184MPD1    C2 2800   3.494   1.439  10.187 -0.1641  0.6203 -0.2132
  184MPD1    C3 2801   3.374   1.496  10.217 -0.0476 -0.3638  0.0705
  184MPD1    C4 2802   3.311   1.443  10.327 -1.1730 -1.0174  0.4631
  184MPD1    C5 2803   3.355   1.337  10.401  0.9118  0.1146 -0.0648
  184MPD1     H 2804   3.555   1.470  10.103  0.0445  2.6591  0.6836
  184MPD1    H1 2805   3.211   1.476  10.354 -1.0727  0.7418 -1.2739
  184MPD1    H2 2806   3.521   1.219  10.444  1.0535  0.0281 -1.4119
  184MPD1    H3 2807   3.295   1.283  10.474 -0.2416  3.9826  1.9170
  184MPD1     N 2808   3.321   1.614  10.154 -0.3295  0.1094  0.2694
  184MPD1    H5 2809   3.223   1.635  10.168 -0.2480  0.8608 -0.2872
  184MPD1    N1 2810   3.683   1.302  10.245  0.2096 -0.3393  0.2236
  184MPD1    H6 2811   3.705   1.205  10.265  3.0483  0.0237 -1.0631
  184MPD1    H7 2812   3.710   1.318  10.148 -2.5340  1.0588 -0.2913
  185MPD1     C 2813   2.478   1.951   9.826 -0.2893 -0.1306 -0.1657
  185MPD1    C1 2814   2.539   1.874   9.926  0.1055 -0.0868 -0.4833
  185MPD1    C2 2815   2.678   1.885   9.948  0.3493  0.1401  0.0577
  185MPD1    C3 2816   2.760   1.958   9.864 -0.8453 -0.0582 -0.2531
  185MPD1    C4 2817   2.694   2.023   9.760 -0.0463 -0.1474  0.0265
  185MPD1    C5 2818   2.556   2.016   9.740  0.0803 -0.3249  0.1934
  185MPD1     H 2819   2.719   1.812  10.017 -0.0195  0.7555  0.9278
  185MPD1    H1 2820   2.750   2.080   9.688 -3.2919  0.1216 -2.3014
  185MPD1    H2 2821   2.371   1.947   9.806 -0.6604 -2.6469  2.3521
  185MPD1    H3 2822   2.510   2.068   9.656 -0.2076  1.2016  1.2900
  185MPD1     N 2823   2.902   1.956   9.870  0.2772 -0.7146  0.1591
  185MPD1    H5 2824   2.948   2.010   9.797  1.3094  2.5565  3.2306
  185MPD1    N1 2825   2.462   1.818  10.032  0.1195  0.3623  0.3195
  185MPD1    H6 2826   2.507   1.731  10.060 -1.3780  0.0425  1.6850
  185MPD1    H7 2827   2.366   1.803  10.004  0.0808  1.7760 -0.3387
  186MPD1     C 2828   2.190   1.113  15.660 -0.7401 -0.3412 -0.6402
  186MPD1    C1 2829   2.236   1.121  15.781  0.1734 -0.4797  0.1115
  186MPD1    C2 2830   2.171   1.203  15.870 -0.0551 -0.1276  0.5586
  186MPD1    C3 2831   2.065   1.284  15.831  0.0910  0.5024  0.0822
  186MPD1    C4 2832   2.026   1.284  15.697  0.5549  0.6487 -0.2410
  186MPD1    C5 2833   2.086   1.188  15.612 -0.6722 -0.1697 -0.2989
  186MPD1     H 2834   2.207   1.202  15.972  0.2817  1.0095  0.4530
  186MPD1    H1 2835   1.963   1.357  15.647  0.5064  0.4140 -0.5257
  186MPD1    H2 2836   2.246   1.047  15.596  0.8821 -0.6048  1.0481
  186MPD1    H3 2837   2.076   1.188  15.504 -3.4013  0.0482 -0.0256
  186MPD1     N 2838   2.004   1.386  15.907  0.5098 -0.0791  0.2105
  186MPD1    H5 2839   1.942   1.453  15.863  1.1179 -0.8062 -1.7593
  186MPD1    N1 2840   2.336   1.028  15.829 -0.5579 -0.4293  0.1388
  186MPD1    H6 2841   2.411   1.069  15.885  1.0753 -2.7154 -0.3513
  186MPD1    H7 2842   2.383   0.976  15.755  1.2825  1.0431  0.2846
  187MPD1     C 2843   1.336   3.282  17.306 -0.5024  1.0372 -0.1895
  187MPD1    C1 2844   1.211   3.222  17.311 -0.2117 -0.4848  0.5763
  187MPD1    C2 2845   1.104   3.291  17.257 -0.3919 -0.6529 -0.1426
  187MPD1    C3 2846   1.116   3.421  17.220 -0.1432 -0.2224 -0.0708
  187MPD1    C4 2847   1.237   3.480  17.218 -0.0848 -0.7846 -0.5954
  187MPD1    C5 2848   1.345   3.411  17.260  0.4146 -0.6663  0.2562
  187MPD1     H 2849   1.004   3.250  17.256 -0.2845 -0.9694  3.3199
  187MPD1    H1 2850   1.245   3.587  17.205 -1.7639 -0.9168 -2.7338
  187MPD1    H2 2851   1.429   3.247  17.350 -1.0596  0.7882  0.7900
  187MPD1    H3 2852   1.439   3.464  17.261 -0.2408  0.3895  3.6452
  187MPD1     N 2853   1.009   3.489  17.165  0.0995  0.5641 -0.1134
  187MPD1    H5 2854   1.027   3.577  17.117 -2.5375  0.9749 -0.3176
  187MPD1    N1 2855   1.191   3.090  17.362 -0.3540  0.2533  0.7435
  187MPD1    H6 2856   1.269   3.054  17.416 -1.5160 -1.4335  1.3133
  187MPD1    H7 2857   1.094   3.075  17.392 -0.5263 -1.2989 -0.5862
  188MPD1     C 2858   0.940   3.827  10.257 -0.0128 -0.6966  0.3014
  188MPD1    C1 2859   0.856   3.859  10.144  0.7639  0.5811  0.0152
  188MPD1    C2 2860   0.805   3.747  10.074 -0.7407  0.0351  0.0561
  188MPD1    C3 2861   0.843   3.616  10.109  0.6509  0.5000  0.3968
  188MPD1    C4 2862   0.937   3.597  10.203  0.3466  0.2485 -0.0072
  188MPD1    C5 2863   0.978   3.693  10.287 -0.3628 -0.7385 -0.1887
  188MPD1     H 2864   0.740   3.759   9.988 -1.5073  2.9063  1.0249
  188MPD1    H1 2865   0.974   3.500  10.235 -0.0359  0.9919  2.6749
  188MPD1    H2 2866   0.967   3.901  10.331 -2.2427  1.5979 -1.1659
  188MPD1    H3 2867   1.051   3.679  10.366  0.7491 -1.1645 -1.2886
  188MPD1     N 2868   0.797   3.498  10.046 -0.3631  0.5366 -0.3855
  188MPD1    H5 2869   0.832   3.405  10.069 -2.8837 -0.5150 -0.7688
  188MPD1    N1 2870   0.801   3.985  10.123  0.0421 -0.3277 -0.5724
  188MPD1    H6 2871   0.769   4.005  10.029 -4.3602  2.2503  1.4598
  188MPD1    H7 2872   0.864   4.055  10.162  0.9303 -0.6428 -1.4283
  189MPD1     C 2873   2.850   3.944  17.417 -0.0327  0.3852  0.1295
  189MPD1    C1 2874   2.840   4.047  17.508 -0.6950 -0.7027  0.3677
  189MPD1    C2 2875   2.717   4.064  17.575 -0.1237 -0.1669 -0.1823
  189MPD1    C3 2876   2.600   3.997  17.538  1.0942 -0.2980 -0.4567
  189MPD1    C4 2877   2.609   3.899  17.438  0.6934 -0.2267 -0.8691
  189MPD1    C5 2878   2.733   3.881  17.383 -0.2653 -0.0964  0.2827
  189MPD1     H 2879   2.727   4.137  17.654  1.4369 -0.4943 -0.0892
  189MPD1    H1 2880   2.527   3.837  17.404 -0.4200  1.7799 -1.8791
  189MPD1    H2 2881   2.947   3.924  17.371 -0.4639  1.7360 -1.3557
  189MPD1    H3 2882   2.746   3.806  17.305 -0.6796 -0.6345  0.7306
  189MPD1     N 2883   2.481   4.031  17.613  0.1027 -0.1284 -0.6821
  189MPD1    H5 2884   2.476   4.114  17.671  0.1699 -0.8735  0.3878
  189MPD1    N1 2885   2.962   4.105  17.548 -0.1238 -0.2929  0.5789
  189MPD1    H6 2886   3.032   4.105  17.475  0.4270 -0.7969  1.1069
  189MPD1    H7 2887   2.947   4.196  17.592 -0.6544  0.8674 -1.9739
  190MPD1     C 2888   1.109   2.400  14.612 -0.2656  0.4352  0.4083
  190MPD1    C1 2889   1.237   2.410  14.570  0.0057  0.2668  0.4609
  190MPD1    C2 2890   1.325   2.478  14.652  0.2659  0.7196 -0.3835
  190MPD1    C3 2891   1.293   2.512  14.788  0.0906 -0.1012  0.2278
  190MPD1    C4 2892   1.163   2.482  14.826 -0.2834 -0.3425  0.4805
  190MPD1    C5 2893   1.073   2.427  14.743 -0.0696 -0.7031 -0.1541
  190MPD1     H 2894   1.420   2.504  14.608  0.5336 -0.6719 -0.6317
  190MPD1    H1 2895   1.136   2.490  14.931 -2.0409  0.1399 -0.0193
  190MPD1    H2 2896   1.031   2.357  14.552  0.5985 -1.1348  0.4119
  190MPD1    H3 2897   0.977   2.409  14.789  0.3698 -0.2247  0.9655
  190MPD1     N 2898   1.399   2.547  14.871 -0.1011 -0.1178 -0.0255
  190MPD1    H5 2899   1.485   2.579  14.827  0.4883 -2.1326 -0.3513
  190MPD1    N1 2900   1.274   2.395  14.434 -0.0169 -0.0750 -0.2193
  190MPD1    H6 2901   1.215   2.327  14.386  0.4679  1.0179 -2.3213
  190MPD1    H7 2902   1.370   2.364  14.427 -0.0854 -0.9764  2.5840
  191MPD1     C 2903   0.287   4.394  12.997 -0.0350  0.9599  0.1639
  191MPD1    C1 2904   0.294   4.531  13.029  0.0026 -0.3702 -0.0342
  191MPD1    C2 2905   0.400   4.598  12.970 -0.0287  0.0078  0.6836
  191MPD1    C3 2906   0.509   4.538  12.919  0.3423  0.2499  0.7242
  191MPD1    C4 2907   0.514   4.399  12.919 -0.0379 -0.1189 -0.1533
  191MPD1    C5 2908   0.397   4.332  12.950  0.1705 -0.4511 -0.2710
  191MPD1     H 2909   0.409   4.705  12.985  2.1604  0.3113 -2.8071
  191MPD1    H1 2910   0.583   4.331  12.869  1.2670 -0.0374  1.5504
  191MPD1    H2 2911   0.197   4.350  13.041 -0.3339 -2.1452 -3.5729
  191MPD1    H3 2912   0.389   4.224  12.938  3.1263 -0.8259  1.0949
  191MPD1     N 2913   0.608   4.621  12.865  0.1931  0.2331  0.2684
  191MPD1    H5 2914   0.589   4.720  12.853 -1.1643 -0.0090  0.5021
  191MPD1    N1 2915   0.178   4.596  13.079 -0.7847 -0.5586 -0.1109
  191MPD1    H6 2916   0.210   4.686  13.115 -0.8283  0.1686 -1.8901
  191MPD1    H7 2917   0.143   4.542  13.157  2.7250 -1.6488  0.7009
  192MPD1     C 2918   0.889   0.826  12.890  0.9050 -0.1109 -0.1515
  192MPD1    C1 2919   0.873   0.728  12.983 -0.0104  0.2118 -0.0882
  192MPD1    C2 2920   0.860   0.600  12.942  0.0129  0.0957 -0.2496
  192MPD1    C3 2921   0.869   0.561  12.812 -0.7886 -0.4127 -0.5124
  192MPD1    C4 2922   0.894   0.653  12.722 -0.9997 -0.0767  0.3307
  192MPD1    C5 2923   0.899   0.789  12.757 -0.1088  0.1528  0.4633
  192MPD1     H 2924   0.872   0.515  13.009  1.1865 -0.0889 -0.6906
  192MPD1    H1 2925   0.907   0.619  12.619 -2.2854  2.3416 -0.6181
  192MPD1    H2 2926   0.899   0.930  12.922 -0.2056 -0.1114  0.1855
  192MPD1    H3 2927   0.908   0.857  12.673 -1.1534  0.6956  0.7899
  192MPD1     N 2928   0.869   0.429  12.761  0.1367  0.5650  0.4830
  192MPD1    H5 2929   0.894   0.418  12.664 -0.4559  1.5318  0.2240
  192MPD1    N1 2930   0.876   0.769  13.117 -0.3086 -0.4444 -1.2834
  192MPD1    H6 2931   0.919   0.861  13.121  0.6502 -0.9408 -0.0170
  192MPD1    H7 2932   0.930   0.703  13.172  0.9739  0.8118 -1.0624
  193MPD1     C 2933   0.209   0.299  16.069  0.4651  0.0906 -0.2509
  193MPD1    C1 2934   0.337   0.244  16.067  0.8350 -0.6741 -1.0133
  193MPD1    C2 2935   0.420   0.261  16.177 -0.0450 -0.0883 -0.4454
  193MPD1    C3 2936   0.377   0.343  16.277  0.7170 -0.4562 -0.1463
  193MPD1    C4 2937   0.255   0.402  16.282  0.3164 -0.2644  0.7041
  193MPD1    C5 2938   0.167   0.366  16.183 -0.4151  0.2767 -0.5858
  193MPD1     H 2939   0.513   0.205  16.179  0.7123  1.1305 -2.2026
  193MPD1    H1 2940   0.209   0.454  16.365 -0.4377 -0.6455  0.5245
  193MPD1    H2 2941   0.136   0.287  15.990 -0.0637  0.9206  0.1095
  193MPD1    H3 2942   0.071   0.416  16.178  0.0991  1.3634  0.3138
  193MPD1     N 2943   0.451   0.376  16.387 -0.7284  0.7155  0.2788
  193MPD1    H5 2944   0.407   0.444  16.447  1.1008  3.1927 -1.1908
  193MPD1    N1 2945   0.371   0.152  15.965  0.3310  0.7807  0.1104
  193MPD1    H6 2946   0.314   0.157  15.881  2.9682  1.8440 -1.6106
  193MPD1    H7 2947   0.470   0.139  15.942 -0.6122 -2.3218 -2.2247
  194MPD1     C 2948   3.037   2.665  16.482  0.3154 -0.5214 -0.3435
  194MPD1    C1 2949   2.924   2.649  16.557  0.2889  0.5895  0.2943
  194MPD1    C2 2950   2.917   2.533  16.624 -0.4152  0.6149  0.4970
  194MPD1    C3 2951   3.020   2.434  16.624  0.9226  1.0461  0.4045
  194MPD1    C4 2952   3.133   2.449  16.546  0.0600  0.1857 -0.2166
  194MPD1    C5 2953   3.136   2.567  16.474  0.4237 -0.3382  0.9829
  194MPD1     H 2954   2.822   2.515  16.673  0.7669 -3.7504  1.2044
  194MPD1    H1 2955   3.209   2.374  16.527 -0.1018  0.2775 -1.2143
  194MPD1    H2 2956   3.039   2.748  16.412 -1.2493  0.1895  0.4591
  194MPD1    H3 2957   3.222   2.585  16.411  1.0591 -1.4172  1.5355
  194MPD1     N 2958   2.991   2.303  16.676 -0.4987 -0.1197 -0.1206
  194MPD1    H5 2959   3.057   2.228  16.657  1.1697  0.8581  1.8653
  194MPD1    N1 2960   2.818   2.737  16.537 -0.5301 -0.2929  0.0866
  194MPD1    H6 2961   2.744   2.738  16.607 -1.8301 -0.3565 -1.2920
  194MPD1    H7 2962   2.837   2.836  16.523  0.6392 -0.0373  3.4610
  195MPD1     C 2963   1.122   3.297   0.070  0.1855  0.2963 -0.5269
  195MPD1    C1 2964   1.165   3.167   0.060 -0.1597  0.2976  0.8965
  195MPD1    C2 2965   1.064   3.076   0.096  0.2966  0.0093 -0.8121
  195MPD1    C3 2966   0.928   3.104   0.100  0.1696 -0.8626  0.4445
  195MPD1    C4 2967   0.893   3.240   0.099  0.2149  0.3739 -0.3017
  195MPD1    C5 2968   0.991   3.332   0.081  0.7466  0.2982 -0.7868
  195MPD1     H 2969   1.099   2.974   0.104  1.5606  0.5720  0.8974
  195MPD1    H1 2970   0.790   3.272   0.088 -0.2239 -1.1206 -0.6080
  195MPD1    H2 2971   1.194   3.377   0.060  1.3371 -0.9032 -1.8419
  195MPD1    H3 2972   0.973   3.439   0.078  0.7745  0.3137 -0.4196
  195MPD1     N 2973   0.828   3.005   0.121 -0.2284  0.3880 -0.4260
  195MPD1    H5 2974   0.734   3.044   0.119 -0.1611  0.6382  2.0296
  195MPD1    N1 2975   1.298   3.130   0.051 -0.3420 -0.2233 -0.4592
  195MPD1    H6 2976   1.337   3.197  17.678 -0.8767 -0.1241 -0.6780
  195MPD1    H7 2977   1.302   3.035   0.016  2.1914 -0.2399 -0.1290
  196MPD1     C 2978   0.208   3.392   0.741 -0.0316 -0.2496 -0.2586
  196MPD1    C1 2979   0.136   3.504   0.765 -0.8413  0.4609  0.0563
  196MPD1    C2 2980   0.187   3.598   0.858 -0.0811 -0.0304 -0.2018
  196MPD1    C3 2981   0.308   3.580   0.917  0.7860 -0.1214 -0.3988
  196MPD1    C4 2982   0.371   3.462   0.888 -0.1172 -0.3846  0.0324
  196MPD1    C5 2983   0.324   3.363   0.811  0.3030  0.7156 -0.1673
  196MPD1     H 2984   0.129   3.689   0.872 -2.5650 -1.2506 -2.5789
  196MPD1    H1 2985   0.463   3.439   0.939 -0.0033  0.9766  0.4462
  196MPD1    H2 2986   0.190   3.321   0.662  0.8489 -1.8940  1.0167
  196MPD1    H3 2987   0.381   3.272   0.799 -0.2973  0.5388 -1.7243
  196MPD1     N 2988   0.383   3.671   0.990 -0.2799 -0.5649 -0.0348
  196MPD1    H5 2989   0.480   3.652   1.016  1.2405  2.5098 -3.4670
  196MPD1    N1 2990   0.040   3.541   0.671 -0.8169 -0.4775 -0.5221
  196MPD1    H6 2991   4.686   3.600   0.702  1.5792  1.2668  2.1182
  196MPD1    H7 2992   4.712   3.462   0.632 -4.3876  0.7772  1.5879
  197MPD1     C 2993   3.407   0.551  17.115 -0.5879 -0.1503  0.2188
  197MPD1    C1 2994   3.528   0.554  17.188 -0.5134 -1.1525 -0.5222
  197MPD1    C2 2995   3.634   0.629  17.139 -0.1739  0.0100  0.0495
  197MPD1    C3 2996   3.617   0.712  17.028 -0.4515 -0.2484  0.1058
  197MPD1    C4 2997   3.487   0.726  16.978 -0.8053  0.2777 -0.2556
  197MPD1    C5 2998   3.387   0.639  17.013 -0.0232 -0.0694  0.0917
  197MPD1     H 2999   3.728   0.615  17.191 -0.3318  1.8812  0.8571
  197MPD1    H1 3000   3.462   0.797  16.901 -4.5004  0.4819  1.1252
  197MPD1    H2 3001   3.324   0.484  17.134  0.5725 -0.4847  4.0977
  197MPD1    H3 3002   3.288   0.629  16.971  1.4473  2.3622 -3.9662
  197MPD1     N 3003   3.714   0.791  16.976  0.5217 -0.1512 -0.7935
  197MPD1    H5 3004   3.704   0.840  16.887  0.5084  0.0009 -0.7087
  197MPD1    N1 3005   3.544   0.452  17.281 -0.5469  0.0525  0.0549
  197MPD1    H6 3006   3.620   0.473  17.345 -2.3709  1.4233  1.7808
  197MPD1    H7 3007   3.457   0.432  17.331  0.1554  1.1804  1.7087
  198MPD1     C 3008   0.522   3.958  15.331 -0.5570  0.5753 -0.1368
  198MPD1    C1 3009   0.488   4.026  15.443 -0.1136  0.0024  0.1352
  198MPD1    C2 3010   0.583   4.096  15.505 -0.0129  0.3272  0.6621
  198MPD1    C3 3011   0.716   4.077  15.478 -0.0373 -0.4313  0.2716
  198MPD1    C4 3012   0.750   3.990  15.380 -0.1385  0.4064  0.5048
  198MPD1    C5 3013   0.652   3.929  15.309  0.1565  0.4059  0.6538
  198MPD1     H 3014   0.555   4.169  15.580 -1.3906 -0.3600  0.8172
  198MPD1    H1 3015   0.855   3.965  15.373  0.0519  0.8665  1.7017
  198MPD1    H2 3016   0.445   3.912  15.271  0.1995 -1.4453  0.4390
  198MPD1    H3 3017   0.677   3.862  15.227  0.6998  0.3274  0.8815
  198MPD1     N 3018   0.808   4.146  15.563  0.7055 -0.3929 -0.6443
  198MPD1    H5 3019   0.773   4.191  15.647  1.2964  0.5324 -0.8933
  198MPD1    N1 3020   0.351   4.057  15.463 -0.2341  0.4718  0.0274
  198MPD1    H6 3021   0.288   3.982  15.433 -0.6223  1.2603 -1.1351
  198MPD1    H7 3022   0.322   4.074  15.559  0.2177  0.0584  0.2416
  199MPD1     C 3023   2.650   0.866  10.250  0.3149 -0.2588 -0.0588
  199MPD1    C1 3024   2.516   0.847  10.205 -0.5145  0.2037 -0.1372
  199MPD1    C2 3025   2.488   0.900  10.084 -0.1443  0.1627  0.0989
  199MPD1    C3 3026   2.572   0.989  10.025 -0.5519 -0.2147  0.0191
  199MPD1    C4 3027   2.705   1.006  10.071 -0.4387  0.1884 -0.3924
  199MPD1    C5 3028   2.739   0.939  10.182 -0.1387 -0.4786 -0.2538
  199MPD1     H 3029   2.388   0.882  10.046  0.0340  3.0374 -1.6834
  199MPD1    H1 3030   2.780   1.065  10.019 -0.3668  0.0066 -0.4973
  199MPD1    H2 3031   2.679   0.811  10.339  0.4747 -0.0201  0.0347
  199MPD1    H3 3032   2.845   0.946  10.203 -0.0243  0.0729 -1.0175
  199MPD1     N 3033   2.536   1.071   9.906 -0.5647 -0.2951 -0.5830
  199MPD1    H5 3034   2.615   1.131   9.883  0.8863 -1.1073  2.2420
  199MPD1    N1 3035   2.424   0.757  10.268  0.0193  0.6086 -0.0976
  199MPD1    H6 3036   2.420   0.756  10.370 -0.4996 -1.5723 -0.1423
  199MPD1    H7 3037   2.330   0.773  10.233  0.7482  0.1957 -2.2649
  200MPD1     C 3038   2.529   0.177  15.306 -0.3953  0.1393 -0.0809
  200MPD1    C1 3039   2.402   0.142  15.254 -0.2525 -1.5964  0.1498
  200MPD1    C2 3040   2.366   0.202  15.135 -0.3524 -0.4539 -0.3469
  200MPD1    C3 3041   2.460   0.267  15.054 -0.1388 -0.0898 -0.5334
  200MPD1    C4 3042   2.586   0.285  15.101  0.0835  0.5466 -0.0784
  200MPD1    C5 3043   2.614   0.249  15.224  0.3388  0.2046 -0.0266
  200MPD1     H 3044   2.268   0.180  15.096 -1.0984 -0.5212  1.5881
  200MPD1    H1 3045   2.660   0.325  15.033  0.5010 -0.8307 -0.4104
  200MPD1    H2 3046   2.556   0.139  15.404 -0.7668 -1.7616 -0.7176
  200MPD1    H3 3047   2.711   0.268  15.270  0.4120 -2.4062  0.8694
  200MPD1     N 3048   2.414   0.289  14.923  0.6808  0.1240  0.1313
  200MPD1    H5 3049   2.320   0.254  14.906  0.2050  0.6655  1.6555
  200MPD1    N1 3050   2.332   0.033  15.302 -0.6802 -0.1126 -0.1761
  200MPD1    H6 3051   2.355   0.008  15.399  1.5385  0.0088 -0.6668
  200MPD1    H7 3052   2.234   0.024  15.277 -0.0785  3.1953 -3.6556
  201MPD1     C 3053   4.307   4.380  13.127 -0.5567  0.5741 -0.0756
  201MPD1    C1 3054   4.282   4.252  13.075 -0.0459 -0.0560 -0.8851
  201MPD1    C2 3055   4.398   4.171  13.054  0.4546 -0.6568 -0.2073
  201MPD1    C3 3056   4.520   4.204  13.098  0.0903  0.5231 -1.0198
  201MPD1    C4 3057   4.542   4.322  13.158 -0.3784  0.2672  0.1166
  201MPD1    C5 3058   4.435   4.411  13.169 -0.5697 -0.4435  0.2399
  201MPD1     H 3059   4.387   4.081  12.993  1.3125 -1.7533  1.2644
  201MPD1    H1 3060   4.642   4.348  13.190 -0.7225  2.7234 -0.8491
  201MPD1    H2 3061   4.226   4.452  13.136 -0.7048  0.3052  0.7675
  201MPD1    H3 3062   4.453   4.510  13.210  2.7134 -0.0704 -2.0716
  201MPD1     N 3063   4.627   4.110  13.072 -0.4296  0.1142 -0.5051
  201MPD1    H5 3064   4.601   4.025  13.023 -2.1457 -0.1579  0.9053
  201MPD1    N1 3065   4.164   4.230  13.006  0.8313 -0.5307 -0.6985
  201MPD1    H6 3066   4.143   4.131  12.994  2.5973 -0.8787 -1.0056
  201MPD1    H7 3067   4.092   4.291  13.045  0.5387  0.5233 -2.8857
  202MPD1     C 3068   4.109   3.543   8.944 -0.1806  0.4750  0.6501
  202MPD1    C1 3069   4.037   3.626   9.030  0.3360  0.0362  0.0157
  202MPD1    C2 3070   4.114   3.716   9.108  0.3275 -0.1181 -0.2679
  202MPD1    C3 3071   4.244   3.681   9.136 -0.4878  0.8968  0.1119
  202MPD1    C4 3072   4.297   3.576   9.072 -0.9185 -0.8562 -0.3709
  202MPD1    C5 3073   4.237   3.509   8.968  0.0310  0.3422  1.5383
  202MPD1     H 3074   4.062   3.789   9.169  1.0075 -0.4320  0.6974
  202MPD1    H1 3075   4.388   3.527   9.104 -1.4460 -1.3286  0.3879
  202MPD1    H2 3076   4.060   3.493   8.862  0.9100 -0.5989  0.6524
  202MPD1    H3 3077   4.278   3.424   8.916  0.0360  0.5255  1.2394
  202MPD1     N 3078   4.309   3.726   9.253  0.6125 -0.4342  0.0349
  202MPD1    H5 3079   4.407   3.699   9.257  0.5762 -0.6478 -0.4750
  202MPD1    N1 3080   3.906   3.660   8.998  0.0208 -0.3916  0.3517
  202MPD1    H6 3081   3.852   3.576   8.980  1.0105 -0.5997 -1.5619
  202MPD1    H7 3082   3.849   3.705   9.070 -1.1220  0.7314 -1.2691
  203MPD1     C 3083   2.954   4.524  12.349  0.1780 -0.9454  0.5162
  203MPD1    C1 3084   2.992   4.478  12.470 -0.1770  0.8117 -0.7032
  203MPD1    C2 3085   3.115   4.429  12.493 -0.1203 -0.2766  0.1528
  203MPD1    C3 3086   3.207   4.427  12.392 -0.2820  0.0554 -0.0799
  203MPD1    C4 3087   3.175   4.486  12.265  0.3316 -0.1497  0.1821
  203MPD1    C5 3088   3.046   4.528  12.249 -0.4538  0.0481 -0.1669
  203MPD1     H 3089   3.133   4.385  12.591  1.4445  0.3030  0.1184
  203MPD1    H1 3090   3.235   4.488  12.175  1.1788  0.3073  0.7572
  203MPD1    H2 3091   2.852   4.544  12.319 -0.3404 -0.9374  2.2934
  203MPD1    H3 3092   3.015   4.569  12.153 -1.8401 -3.5457 -1.2364
  203MPD1     N 3093   3.337   4.373  12.423  0.2890  0.3520  0.1483
  203MPD1    H5 3094   3.352   4.338  12.517 -1.2118  1.3505  0.7657
  203MPD1    N1 3095   2.898   4.462  12.571  0.1523 -0.4895  1.1846
  203MPD1    H6 3096   2.950   4.454  12.658  2.4980 -0.3415 -0.2172
  203MPD1    H7 3097   2.830   4.538  12.578  2.8189  1.8286  1.8983
  204MPD1     C 3098   2.382   0.047  17.128 -0.2901  0.3096  0.1541
  204MPD1    C1 3099   2.457   0.097  17.026 -0.7435 -0.7735 -0.3671
  204MPD1    C2 3100   2.519   0.006  16.946  1.7662  0.0336  0.2249
  204MPD1    C3 3101   2.520   4.596  16.970 -0.4746  0.1790  0.2848
  204MPD1    C4 3102   2.437   4.544  17.069  0.7409 -0.1030  0.5146
  204MPD1    C5 3103   2.372   4.633  17.152  0.0169  0.4184 -0.0490
  204MPD1     H 3104   2.582   0.052  16.870  1.2414  0.0823 -0.1769
  204MPD1    H1 3105   2.396   4.445  17.057  1.0578 -0.1957  0.1889
  204MPD1    H2 3106   2.325   0.116  17.189  0.0028 -0.2564  1.0787
  204MPD1    H3 3107   2.307   4.592  17.228 -1.3497  1.2055 -0.8061
  204MPD1     N 3108   2.584   4.507  16.880 -0.0994 -0.0499  0.4594
  204MPD1    H5 3109   2.625   4.547  16.797 -1.9588  1.1805  0.1191
  204MPD1    N1 3110   2.450   0.230  16.978 -0.8011 -0.4343 -0.4366
  204MPD1    H6 3111   2.524   0.264  16.918 -0.7752  0.7591  0.2770
  204MPD1    H7 3112   2.446   0.299  17.052  2.2010 -0.0871 -0.6317
  205MPD1     C 3113   3.947   3.391  16.081  0.6957  0.0737  0.2880
  205MPD1    C1 3114   3.814   3.386  16.082  0.3318 -0.3892  0.2441
  205MPD1    C2 3115   3.750   3.404  16.203  0.1777  0.5160 -0.1480
  205MPD1    C3 3116   3.828   3.444  16.312 -0.4001  0.4669  0.0562
  205MPD1    C4 3117   3.967   3.455  16.299 -0.1730 -0.6624  0.1697
  205MPD1    C5 3118   4.026   3.424  16.186 -0.7413 -0.3342  0.3595
  205MPD1     H 3119   3.642   3.409  16.211  0.1218  0.3934 -0.8032
  205MPD1    H1 3120   4.015   3.477  16.393 -1.8339 -1.2826  1.1776
  205MPD1    H2 3121   3.995   3.357  15.990 -0.4430  0.0302 -0.3037
  205MPD1    H3 3122   4.134   3.421  16.173 -0.9649 -4.6218 -0.5984
  205MPD1     N 3123   3.779   3.482  16.437 -0.2607  0.0060  0.3232
  205MPD1    H5 3124   3.839   3.509  16.515  0.1363  1.3092 -0.4334
  205MPD1    N1 3125   3.745   3.376  15.960 -0.3201 -0.2747 -0.0607
  205MPD1    H6 3126   3.797   3.316  15.896  1.5793 -0.0014  1.2183
  205MPD1    H7 3127   3.645   3.358  15.961 -1.1858  4.5803  0.2730
  206MPD1     C 3128   3.334   1.762  16.940  0.1054  0.2066  0.0442
  206MPD1    C1 3129   3.374   1.891  16.902  0.9963 -0.5853  0.3018
  206MPD1    C2 3130   3.339   1.930  16.777 -0.0854 -0.1868  0.9658
  206MPD1    C3 3131   3.281   1.843  16.688 -0.8984  0.3182 -0.5323
  206MPD1    C4 3132   3.256   1.715  16.724  0.3840 -0.1939 -0.3692
  206MPD1    C5 3133   3.285   1.672  16.849  0.7195 -0.4554  0.4042
  206MPD1     H 3134   3.349   2.036  16.760 -0.4156 -0.1794  0.8196
  206MPD1    H1 3135   3.215   1.638  16.660 -0.1428  0.0441 -0.3183
  206MPD1    H2 3136   3.337   1.722  17.041  0.4531 -1.5543 -0.6551
  206MPD1    H3 3137   3.252   1.572  16.875 -0.0273 -0.1195  0.7553
  206MPD1     N 3138   3.244   1.874  16.555  0.1969 -0.7497 -0.1940
  206MPD1    H5 3139   3.218   1.793  16.500 -1.7710 -0.4527  0.3151
  206MPD1    N1 3140   3.439   1.975  16.991  0.3509  0.2371  0.0382
  206MPD1    H6 3141   3.502   2.040  16.945  0.2393 -0.0482 -0.5141
  206MPD1    H7 3142   3.485   1.916  17.060  2.7566  0.0897 -1.7219
  207MPD1     C 3143   0.491   0.213   9.747  0.1411 -0.1590  0.0139
  207MPD1    C1 3144   0.514   0.100   9.818 -0.1432  0.1982 -0.4644
  207MPD1    C2 3145   0.629   0.099   9.890  0.0689 -0.0115 -0.1757
  207MPD1    C3 3146   0.708   0.217   9.900 -0.0738  0.4068  0.0071
  207MPD1    C4 3147   0.680   0.335   9.829 -0.1497  0.1600 -0.8529
  207MPD1    C5 3148   0.568   0.328   9.754 -0.2210 -0.0396 -0.2625
  207MPD1     H 3149   0.659   0.013   9.949  1.6616  1.4238  1.1278
  207MPD1    H1 3150   0.743   0.422   9.848 -1.6410  1.4493 -1.8447
  207MPD1    H2 3151   0.398   0.213   9.690  0.1520 -0.2595 -0.0032
  207MPD1    H3 3152   0.533   0.411   9.695 -1.3326  1.3950  2.4316
  207MPD1     N 3153   0.821   0.226   9.984 -0.4755  0.2679  0.2217
  207MPD1    H5 3154   0.875   0.311   9.973  0.7229 -0.2529  2.1830
  207MPD1    N1 3155   0.441   4.704   9.790 -0.4278 -0.6744 -0.1357
  207MPD1    H6 3156   0.452   4.648   9.874  0.1028 -0.4727 -0.0709
  207MPD1    H7 3157   0.345   4.707   9.759 -0.4896 -0.1697  0.1028
  208MPD1     C 3158   3.333   4.467   0.133  0.3165 -0.0662 -0.3546
  208MPD1    C1 3159   3.321   4.394   0.251  0.7068 -0.1141 -0.1126
  208MPD1    C2 3160   3.378   4.271   0.253  0.5913  0.3739 -0.1305
  208MPD1    C3 3161   3.415   4.213   0.130  0.1943 -1.4302 -0.3299
  208MPD1    C4 3162   3.410   4.288   0.017  0.2928 -0.4468  0.2152
  208MPD1    C5 3163   3.370   4.419   0.015 -0.2252 -0.5205 -0.2110
  208MPD1     H 3164   3.381   4.213   0.345  0.8040  0.5903 -0.0005
  208MPD1    H1 3165   3.448   4.244  17.619  0.3479  1.2323 -0.5781
  208MPD1    H2 3166   3.302   4.571   0.134  0.2306 -0.0945 -0.1758
  208MPD1    H3 3167   3.360   4.477  17.617  0.1060 -0.1470 -0.0052
  208MPD1     N 3168   3.470   4.080   0.133  0.1519 -0.4874  0.6841
  208MPD1    H5 3169   3.471   4.040   0.227  0.7128  0.6657  1.1696
  208MPD1    N1 3170   3.272   4.453   0.368 -0.1631 -0.5042  0.3890
  208MPD1    H6 3171   3.192   4.510   0.341  0.8796  0.8906  0.2613
  208MPD1    H7 3172   3.233   4.378   0.425  0.8261 -0.2840  1.3666
  209MPD1     C 3173   1.505   4.025  11.671 -0.3123  0.1475  1.0383
  209MPD1    C1 3174   1.586   4.139  11.686 -1.0864 -0.3852  0.2498
  209MPD1    C2 3175   1.539   4.259  11.629  0.3916  0.0115  0.2807
  209MPD1    C3 3176   1.423   4.258  11.552  0.6857 -0.4019  0.4380
  209MPD1    C4 3177   1.348   4.145  11.535 -0.2424 -0.7254 -0.5620
  209MPD1    C5 3178   1.388   4.026  11.601 -0.1075  1.1847  0.0965
  209MPD1     H 3179   1.604   4.346  11.633 -0.6245  0.7719  0.3644
  209MPD1    H1 3180   1.258   4.148  11.475 -1.0597  2.0847  0.7655
  209MPD1    H2 3181   1.540   3.927  11.699 -1.6460 -0.7805 -0.5736
  209MPD1    H3 3182   1.331   3.934  11.595  1.3611  0.2094  1.2596
  209MPD1     N 3183   1.393   4.371  11.475  0.8459 -0.0327  0.8386
  209MPD1    H5 3184   1.443   4.457  11.496  1.2545 -0.3194  1.0343
  209MPD1    N1 3185   1.701   4.136  11.769  0.4886 -0.3073 -0.4975
  209MPD1    H6 3186   1.736   4.041  11.780 -1.8853 -1.2668 -1.4436
  209MPD1    H7 3187   1.780   4.190  11.734  0.2464  0.0770 -0.4441
  210MPD1     C 3188   1.185   0.634  11.377  0.0879  0.0567  0.1261
  210MPD1    C1 3189   1.198   0.542  11.485  0.5281 -0.4649  0.6754
  210MPD1    C2 3190   1.230   0.406  11.457 -0.0164  0.4551 -0.0217
  210MPD1    C3 3191   1.254   0.369  11.327 -0.4829 -0.7085 -0.5788
  210MPD1    C4 3192   1.240   0.467  11.227 -0.2122  0.1439  0.2930
  210MPD1    C5 3193   1.207   0.599  11.247 -0.3767  0.2121 -0.3041
  210MPD1     H 3194   1.239   0.339  11.542  0.9519  0.8119  0.1473
  210MPD1    H1 3195   1.259   0.441  11.123  1.3297 -0.1661  0.6487
  210MPD1    H2 3196   1.173   0.738  11.403 -1.3110  0.4544 -2.1700
  210MPD1    H3 3197   1.210   0.665  11.161  1.0051 -0.1089 -0.5015
  210MPD1     N 3198   1.303   0.242  11.289  0.3221  0.0353  0.3186
  210MPD1    H5 3199   1.324   0.239  11.190 -0.4022  1.3428  0.1225
  210MPD1    N1 3200   1.162   0.576  11.620 -0.7762  0.2250 -0.1299
  210MPD1    H6 3201   1.226   0.530  11.685 -0.6330 -0.3294 -0.6605
  210MPD1    H7 3202   1.158   0.676  11.640  0.6946 -0.0039  1.2904
  211MPD1     C 3203   3.703   4.510  16.286 -0.1998  0.2350  0.1835
  211MPD1    C1 3204   3.602   4.506  16.376  1.0853 -0.0041 -0.8106
  211MPD1    C2 3205   3.473   4.494  16.330  0.1873  0.6812 -0.2618
  211MPD1    C3 3206   3.428   4.499  16.196  0.0336 -0.0628  0.4866
  211MPD1    C4 3207   3.532   4.514  16.107  0.3508  0.2081  0.2871
  211MPD1    C5 3208   3.662   4.511  16.152 -0.0908 -0.2738  0.0781
  211MPD1     H 3209   3.392   4.475  16.399  1.1804  0.9469  0.9892
  211MPD1    H1 3210   3.514   4.523  16.000  0.9800 -3.3265 -0.1078
  211MPD1    H2 3211   3.806   4.519  16.319 -0.6808  2.2240  1.1082
  211MPD1    H3 3212   3.740   4.503  16.077 -0.1253  3.2999 -0.3628
  211MPD1     N 3213   3.294   4.480  16.159 -0.3998 -0.6113 -0.1037
  211MPD1    H5 3214   3.234   4.445  16.232  0.8681 -0.4601  1.0197
  211MPD1    N1 3215   3.630   4.478  16.507 -0.6603 -0.7385  0.0836
  211MPD1    H6 3216   3.719   4.520  16.530  0.1690  0.0138 -4.6544
  211MPD1    H7 3217   3.560   4.513  16.573  1.1254  2.9828 -0.0127
  212MPD1     C 3218   2.591   2.508  16.143  0.1746  0.0915 -0.4050
  212MPD1    C1 3219   2.657   2.545  16.261  1.2514  0.2019 -0.0065
  212MPD1    C2 3220   2.631   2.475  16.375  0.5586  0.0057  0.3916
  212MPD1    C3 3221   2.536   2.377  16.379 -0.1555  0.2946  0.3083
  212MPD1    C4 3222   2.470   2.343  16.266  0.1426 -0.1642  0.3308
  212MPD1    C5 3223   2.488   2.410  16.144  0.4479 -0.0601 -0.5196
  212MPD1     H 3224   2.676   2.505  16.469  1.4533 -0.5491  0.1367
  212MPD1    H1 3225   2.395   2.265  16.268  0.4051 -0.4819 -1.6953
  212MPD1    H2 3226   2.623   2.553  16.050  0.9082 -0.8497 -0.5989
  212MPD1    H3 3227   2.434   2.387  16.053  0.0096  1.4584 -0.6532
  212MPD1     N 3228   2.499   2.305  16.497 -0.0675  0.0708  0.1229
  212MPD1    H5 3229   2.439   2.224  16.482  0.4873  0.0179 -1.8213
  212MPD1    N1 3230   2.769   2.633  16.260  0.2430 -0.2561  0.2242
  212MPD1    H6 3231   2.757   2.725  16.216 -2.4970  0.2310  1.9677
  212MPD1    H7 3232   2.803   2.648  16.355 -0.2381 -0.2444  0.3952
  213MPD1     C 3233   1.260   3.133  15.518 -0.7410 -0.0078 -0.2653
  213MPD1    C1 3234   1.289   3.224  15.415  0.1473  0.1421  0.4816
  213MPD1    C2 3235   1.179   3.253  15.334 -0.5665  0.8829 -0.0259
  213MPD1    C3 3236   1.052   3.223  15.370  0.3448 -0.0797  0.2578
  213MPD1    C4 3237   1.030   3.147  15.477  0.5587  0.8477 -0.3402
  213MPD1    C5 3238   1.135   3.117  15.557 -0.9510 -0.5213 -1.1588
  213MPD1     H 3239   1.197   3.313  15.245 -0.5627 -2.1111 -2.0354
  213MPD1    H1 3240   0.931   3.127  15.515  1.3454 -0.5683  0.9471
  213MPD1    H2 3241   1.330   3.095  15.592  1.7354  0.3857 -2.3899
  213MPD1    H3 3242   1.131   3.053  15.645 -1.0844 -0.8762 -1.4241
  213MPD1     N 3243   0.953   3.281  15.285  0.3200  0.1801 -0.1939
  213MPD1    H5 3244   0.981   3.334  15.203 -2.4326  1.8440 -0.0501
  213MPD1    N1 3245   1.421   3.233  15.365  0.0871 -0.1121 -0.3130
  213MPD1    H6 3246   1.443   3.312  15.305  1.5664  0.0325  0.3959
  213MPD1    H7 3247   1.489   3.226  15.441 -0.0937  1.5378  0.0024
  214MPD1     C 3248   4.697   3.115  14.830  0.2354 -0.1154  0.3225
  214MPD1    C1 3249   4.721   3.113  14.960  0.5899  0.5673 -0.1732
  214MPD1    C2 3250   0.116   3.161  15.001  0.0229 -0.1628 -0.5880
  214MPD1    C3 3251   0.213   3.213  14.911  0.7175  0.7358 -0.0539
  214MPD1    C4 3252   0.185   3.222  14.777  0.3511  0.4651 -0.3811
  214MPD1    C5 3253   0.061   3.180  14.744  0.5227  0.4337 -0.2598
  214MPD1     H 3254   0.128   3.171  15.108 -0.1095  4.0858 -0.9743
  214MPD1    H1 3255   0.258   3.255  14.704 -0.3950 -1.6702 -2.1055
  214MPD1    H2 3256   4.601   3.075  14.801 -0.4094  0.0620  2.2059
  214MPD1    H3 3257   0.019   3.192  14.645  2.2096  2.0235 -0.7825
  214MPD1     N 3258   0.344   3.260  14.953  0.0613 -0.3147 -0.2399
  214MPD1    H5 3259   0.402   3.306  14.883 -0.1232 -0.3183 -0.3940
  214MPD1    N1 3260   4.633   3.040  15.047  0.0840  0.4758  0.0741
  214MPD1    H6 3261   4.641   3.069  15.144 -0.5777 -1.7267  0.7969
  214MPD1    H7 3262   4.535   3.052  15.023 -0.1975  0.5004  1.2480
  215MPD1     C 3263   0.622   3.824  10.550 -0.2578 -0.8662 -1.0223
  215MPD1    C1 3264   0.607   3.851  10.685  0.6031 -0.5262 -0.1479
  215MPD1    C2 3265   0.680   3.955  10.736 -0.2688  0.0509  0.3494
  215MPD1    C3 3266   0.730   4.058  10.659  0.7782  0.3680 -0.3456
  215MPD1    C4 3267   0.713   4.051  10.523  0.6576  0.4159  0.2600
  215MPD1    C5 3268   0.676   3.927  10.475  0.9106  0.2173  0.0369
  215MPD1     H 3269   0.687   3.969  10.843  3.5012 -1.5227  0.3232
  215MPD1    H1 3270   0.739   4.125  10.448  4.0148  1.5876  2.5583
  215MPD1    H2 3271   0.585   3.732  10.506  0.0310 -1.1244 -0.7269
  215MPD1    H3 3272   0.679   3.912  10.367  0.3374  0.2204  0.0253
  215MPD1     N 3273   0.791   4.169  10.723  0.5566  0.2169  0.6773
  215MPD1    H5 3274   0.788   4.172  10.824  3.2328 -1.6102  0.8089
  215MPD1    N1 3275   0.571   3.749  10.777  0.2807  0.6819  0.6827
  215MPD1    H6 3276   0.525   3.786  10.860  0.3910  1.0339  0.5887
  215MPD1    H7 3277   0.503   3.691  10.727  0.1510  1.4636 -0.0609
  216MPD1     C 3278   2.427   2.827  17.240  0.0595 -0.4492  0.1574
  216MPD1    C1 3279   2.506   2.715  17.207 -0.6022 -0.4345  0.1911
  216MPD1    C2 3280   2.554   2.642  17.315 -0.4452 -0.2074  0.1202
  216MPD1    C3 3281   2.528   2.674  17.445  0.3900 -0.1203 -0.0105
  216MPD1    C4 3282   2.456   2.784  17.475  0.2689 -0.0389 -0.0964
  216MPD1    C5 3283   2.412   2.861  17.375 -0.2527  0.6660 -0.3172
  216MPD1     H 3284   2.607   2.550  17.293  1.7221  0.5709  1.9756
  216MPD1    H1 3285   2.431   2.813  17.576 -1.6668  0.4092 -0.7170
  216MPD1    H2 3286   2.371   2.882  17.165  0.7760 -3.0497 -2.2957
  216MPD1    H3 3287   2.350   2.944  17.405 -0.5776  0.7849 -1.3103
  216MPD1     N 3288   2.576   2.588  17.550  0.2937 -0.0293 -0.1593
  216MPD1    H5 3289   2.629   2.506  17.521  0.8647 -0.1557  1.2280
  216MPD1    N1 3290   2.493   2.669  17.078  0.6653 -0.5253 -0.0770
  216MPD1    H6 3291   2.568   2.606  17.052  0.9833  0.2644 -1.0681
  216MPD1    H7 3292   2.496   2.746  17.012  0.1047 -0.5137 -0.0917
  217MPD1     C 3293   3.226   2.560   8.991  0.2413  0.4220  0.2884
  217MPD1    C1 3294   3.128   2.636   8.921  0.9635 -0.4224 -0.1998
  217MPD1    C2 3295   3.157   2.772   8.888 -0.4302  0.5092  0.6513
  217MPD1    C3 3296   3.267   2.830   8.945 -0.4480 -0.0130 -0.1331
  217MPD1    C4 3297   3.361   2.753   9.011  0.0616  0.3676 -0.7817
  217MPD1    C5 3298   3.337   2.622   9.042  0.4596 -0.6095  0.0793
  217MPD1     H 3299   3.086   2.827   8.827 -0.5881  0.1783  0.5352
  217MPD1    H1 3300   3.454   2.790   9.051  0.4601 -1.6456  0.1853
  217MPD1    H2 3301   3.202   2.456   9.010 -1.1254  1.1966  2.7995
  217MPD1    H3 3302   3.414   2.565   9.095 -1.0152 -1.2713  1.5183
  217MPD1     N 3303   3.298   2.973   8.935  0.0869  0.8070 -0.1540
  217MPD1    H5 3304   3.383   2.996   8.986  0.6538 -1.0065 -0.2678
  217MPD1    N1 3305   3.014   2.578   8.867 -0.5947  0.4054  0.1532
  217MPD1    H6 3306   2.940   2.647   8.859 -1.0433  0.2109  2.4447
  217MPD1    H7 3307   2.971   2.520   8.939 -3.6188  2.0712 -0.3413
  218MPD1     C 3308   0.566   0.514  12.624 -0.2809  0.1479 -0.1569
  218MPD1    C1 3309   0.630   0.489  12.508  0.3235  0.0175 -0.7460
  218MPD1    C2 3310   0.637   0.361  12.454 -0.2796  0.0470 -0.6455
  218MPD1    C3 3311   0.568   0.258  12.519  0.0955 -0.1603 -0.5747
  218MPD1    C4 3312   0.490   0.290  12.630 -0.1689  0.2717 -0.0778
  218MPD1    C5 3313   0.499   0.411  12.685 -0.1187  0.8486 -0.7072
  218MPD1     H 3314   0.684   0.323  12.364  4.0288  1.7304  0.8717
  218MPD1    H1 3315   0.417   0.221  12.672  0.6134 -0.8495 -0.5676
  218MPD1    H2 3316   0.560   0.611  12.672 -0.4879  0.9457 -1.7768
  218MPD1    H3 3317   0.448   0.439  12.777 -1.9315 -0.7847 -1.2019
  218MPD1     N 3318   0.575   0.127  12.472  0.2195  0.5465 -0.3396
  218MPD1    H5 3319   0.639   0.108  12.395  1.5870  1.1211  0.6698
  218MPD1    N1 3320   0.707   0.585  12.445  0.7803 -0.0960  0.1401
  218MPD1    H6 3321   0.737   0.560  12.351 -1.0280  1.9662 -0.9821
  218MPD1    H7 3322   0.704   0.685  12.466 -0.0991 -0.2167  0.5571
  219MPD1     C 3323   0.145   4.441  11.752  0.1949 -0.3166  0.0280
  219MPD1    C1 3324   0.256   4.518  11.744  0.3052  0.3178 -0.2453
  219MPD1    C2 3325   0.334   4.519  11.854  0.3713  0.0688  0.0148
  219MPD1    C3 3326   0.310   4.432  11.964 -0.3148  0.4109 -0.9682
  219MPD1    C4 3327   0.207   4.344  11.954  0.1437  0.3980  0.9229
  219MPD1    C5 3328   0.125   4.344  11.849  0.4885  0.0564 -0.6807
  219MPD1     H 3329   0.409   4.596  11.870  0.5862  0.0434 -0.8670
  219MPD1    H1 3330   0.202   4.271  12.034  2.1654 -0.4708  0.2622
  219MPD1    H2 3331   0.063   4.443  11.681  0.3945  0.5468 -0.1727
  219MPD1    H3 3332   0.034   4.286  11.842 -0.7939  1.6699  2.7244
  219MPD1     N 3333   0.383   4.428  12.084 -0.3873  1.1117 -0.4218
  219MPD1    H5 3334   0.372   4.352  12.151  0.0677  0.3065 -1.2608
  219MPD1    N1 3335   0.252   4.626  11.653  0.1791 -0.1177  0.0276
  219MPD1    H6 3336   0.195   4.595  11.575 -0.1861 -0.9563  0.6329
  219MPD1    H7 3337   0.342   4.661  11.621  0.1600 -0.5977 -0.5604
  220MPD1     C 3338   0.125   1.171   9.941  0.4566  0.2857 -0.4420
  220MPD1    C1 3339   0.214   1.143  10.042 -0.0951 -0.5104 -0.9060
  220MPD1    C2 3340   0.260   1.010  10.059  0.2637 -0.5860  0.0830
  220MPD1    C3 3341   0.207   0.899   9.991 -0.4800  0.2729  0.3798
  220MPD1    C4 3342   0.127   0.934   9.882  0.4831 -0.4752 -0.0351
  220MPD1    C5 3343   0.080   1.064   9.861 -0.3762  0.3794 -0.5817
  220MPD1     H 3344   0.348   0.987  10.119 -0.2533  0.1768  1.1467
  220MPD1    H1 3345   0.080   0.859   9.817  2.3594 -2.3679  0.7961
  220MPD1    H2 3346   0.089   1.271   9.922 -0.2539  0.6922  3.1186
  220MPD1    H3 3347   0.017   1.093   9.778  0.2738 -1.6200 -1.7830
  220MPD1     N 3348   0.257   0.770  10.022 -0.3317  0.3997  0.2739
  220MPD1    H5 3349   0.315   0.766  10.105 -0.3698  0.9094  0.3294
  220MPD1    N1 3350   0.282   1.246  10.109 -0.3151  0.2568  0.3606
  220MPD1    H6 3351   0.246   1.341  10.115 -0.6719  0.1268  0.3185
  220MPD1    H7 3352   0.323   1.216  10.198 -1.1357  1.6163  1.1999
  221MPD1     C 3353   3.593   3.125  16.527  0.5559  1.1389  0.4721
  221MPD1    C1 3354   3.475   3.072  16.569  0.0779 -0.2212  0.0256
  221MPD1    C2 3355   3.373   3.054  16.482 -0.2584  0.4374 -0.6871
  221MPD1    C3 3356   3.391   3.068  16.346  0.2630  0.1223  0.4525
  221MPD1    C4 3357   3.518   3.091  16.299 -0.0663 -0.9230 -0.4972
  221MPD1    C5 3358   3.615   3.123  16.390  0.1406  0.5986 -0.3509
  221MPD1     H 3359   3.271   3.045  16.518 -0.2158  0.5869 -0.5288
  221MPD1    H1 3360   3.539   3.113  16.195  3.5347 -0.3858  0.3303
  221MPD1    H2 3361   3.685   3.135  16.583  1.7251 -1.4756 -0.9964
  221MPD1    H3 3362   3.716   3.141  16.355  1.2091 -0.8830  1.9866
  221MPD1     N 3363   3.284   3.069  16.255 -0.1039  0.0637 -0.3199
  221MPD1    H5 3364   3.305   3.101  16.161 -5.3402  0.0911 -1.4994
  221MPD1    N1 3365   3.447   3.057  16.705 -0.7023  0.9173 -0.2379
  221MPD1    H6 3366   3.528   3.035  16.763  0.1464 -0.0216 -1.7762
  221MPD1    H7 3367   3.383   2.980  16.722  0.4449 -0.1319 -0.6448
  222MPD1     C 3368   2.289   1.327  17.177 -0.0975 -0.3826  1.0717
  222MPD1    C1 3369   2.406   1.372  17.228 -0.3480 -0.2209  0.5915
  222MPD1    C2 3370   2.423   1.508  17.227  0.3267  0.4772  0.8769
  222MPD1    C3 3371   2.319   1.598  17.193 -0.0193  0.0038  0.3624
  222MPD1    C4 3372   2.199   1.552  17.148 -0.4470 -0.0989  0.4048
  222MPD1    C5 3373   2.192   1.417  17.137  0.2136 -0.0258 -0.0507
  222MPD1     H 3374   2.523   1.543  17.250  0.5164  1.1107 -0.9103
  222MPD1    H1 3375   2.111   1.609  17.121 -0.5186 -0.1882  0.4520
  222MPD1    H2 3376   2.264   1.223  17.162  0.7173 -0.2296 -1.2741
  222MPD1    H3 3377   2.102   1.379  17.091 -0.7937  0.1557  1.7506
  222MPD1     N 3378   2.326   1.738  17.210 -0.0547  0.3848  0.2660
  222MPD1    H5 3379   2.240   1.787  17.189  0.9632  1.3201 -1.6901
  222MPD1    N1 3380   2.516   1.284  17.231  0.6842 -0.3136  0.2438
  222MPD1    H6 3381   2.550   1.296  17.326  0.2862  0.9128  0.2393
  222MPD1    H7 3382   2.485   1.188  17.240  0.7259 -0.1298  2.4054
  223MPD1     C 3383   2.016   2.508   0.042 -0.7573  0.3119 -0.1155
  223MPD1    C1 3384   2.142   2.551   0.015 -0.5080 -0.2895 -0.5318
  223MPD1    C2 3385   2.207   2.469  17.622  0.7971  0.0932  0.2754
  223MPD1    C3 3386   2.153   2.352  17.560  0.9450  0.9183 -0.2700
  223MPD1    C4 3387   2.023   2.319  17.586 -0.5229 -1.0978  0.0501
  223MPD1    C5 3388   1.958   2.402  17.674 -0.4477 -0.5151  0.0932
  223MPD1     H 3389   2.312   2.490  17.606  1.2322 -2.0065  0.3712
  223MPD1    H1 3390   1.964   2.236  17.547 -1.2517 -0.3914 -0.3462
  223MPD1    H2 3391   1.949   2.561   0.108 -0.9310  0.6552 -0.5677
  223MPD1    H3 3392   1.850   2.391  17.682 -0.3773  0.3732  2.3209
  223MPD1     N 3393   2.234   2.291  17.460  0.4470 -0.2978 -0.0511
  223MPD1    H5 3394   2.313   2.346  17.428 -1.8661 -0.1305 -5.4905
  223MPD1    N1 3395   2.192   2.652   0.099  0.4342 -0.2896  0.5584
  223MPD1    H6 3396   2.281   2.686   0.065 -0.4906  1.2763 -0.3157
  223MPD1    H7 3397   2.135   2.736   0.110  0.8081 -0.3178  2.6069
  224MPD1     C 3398   4.128   4.717   8.694  0.1354  0.2969  0.0420
  224MPD1    C1 3399   4.060   0.087   8.769 -0.0574  1.1513  0.4107
  224MPD1    C2 3400   4.015   0.050   8.896 -0.1152  0.7573 -0.0291
  224MPD1    C3 3401   4.034   4.648   8.953 -0.3051  0.0099 -0.7907
  224MPD1    C4 3402   4.100   4.556   8.878 -0.6603 -0.1077  0.2476
  224MPD1    C5 3403   4.147   4.594   8.755 -1.1182 -0.8985 -0.0302
  224MPD1     H 3404   3.967   0.125   8.957 -0.1340  1.6946 -1.2116
  224MPD1    H1 3405   4.104   4.451   8.903 -0.0671 -0.1552 -0.0644
  224MPD1    H2 3406   4.168   4.719   8.593  2.9355 -0.7509  1.1270
  224MPD1    H3 3407   4.194   4.513   8.700  1.0749  1.3224 -1.3903
  224MPD1     N 3408   3.997   4.616   9.086 -0.4434  0.0387 -0.5196
  224MPD1    H5 3409   4.033   4.527   9.119  1.3301  1.2114  0.7423
  224MPD1    N1 3410   4.038   0.214   8.711  0.5762 -0.3134  0.3654
  224MPD1    H6 3411   4.023   0.283   8.784 -0.4288  1.5605 -1.5877
  224MPD1    H7 3412   4.125   0.245   8.668 -0.7338  1.0266 -1.3075
  225MPD1     C 3413   0.423   0.876  13.064 -0.1947 -0.0283  0.0604
  225MPD1    C1 3414   0.318   0.786  13.072 -0.3916  0.5152 -0.3357
  225MPD1    C2 3415   0.265   0.730  12.960  0.0821 -0.7162  0.6915
  225MPD1    C3 3416   0.321   0.760  12.832 -0.2665  0.2058  0.1637
  225MPD1    C4 3417   0.432   0.856  12.827  0.7130 -0.3113  0.2335
  225MPD1    C5 3418   0.479   0.903  12.942 -0.0618  0.1873 -0.2632
  225MPD1     H 3419   0.169   0.682  12.970 -1.4336  2.1954  0.1403
  225MPD1    H1 3420   0.471   0.896  12.734 -0.8317  1.4924  0.3757
  225MPD1    H2 3421   0.459   0.922  13.155  1.1338 -0.1277 -0.4247
  225MPD1    H3 3422   0.566   0.967  12.943  0.7325 -0.9047 -0.2430
  225MPD1     N 3423   0.272   0.700  12.709 -0.2501  0.2701  0.2690
  225MPD1    H5 3424   0.310   0.729  12.620  0.8575 -2.1310 -0.0623
  225MPD1    N1 3425   0.278   0.742  13.202  0.4417 -0.5556  0.1195
  225MPD1    H6 3426   0.323   0.789  13.281  2.1690  0.4653 -1.4727
  225MPD1    H7 3427   0.178   0.758  13.205  0.3215 -0.7890 -2.7198
  226MPD1     C 3428   2.792   1.387   8.984 -0.4111  0.0756  0.3129
  226MPD1    C1 3429   2.788   1.289   9.075  0.5685 -0.3773  0.1951
  226MPD1    C2 3430   2.901   1.226   9.116  0.1445 -0.0932 -0.2957
  226MPD1    C3 3431   3.027   1.268   9.086 -0.6661 -0.4968  0.3548
  226MPD1    C4 3432   3.038   1.385   9.013  0.6883  0.1795  0.3224
  226MPD1    C5 3433   2.924   1.433   8.954  0.8733  0.2721  0.0729
  226MPD1     H 3434   2.890   1.137   9.177  1.3540  0.0094  0.0679
  226MPD1    H1 3435   3.127   1.426   8.967  0.9147 -0.6942 -0.0322
  226MPD1    H2 3436   2.710   1.426   8.926 -0.4268 -0.4748 -0.0316
  226MPD1    H3 3437   2.935   1.528   8.902  0.5360  0.2400 -0.0542
  226MPD1     N 3438   3.138   1.184   9.117 -0.1916  0.0048  0.6606
  226MPD1    H5 3439   3.116   1.101   9.171  1.6229 -1.1371 -0.3804
  226MPD1    N1 3440   2.668   1.225   9.110  0.4108 -0.9274  0.2117
  226MPD1    H6 3441   2.588   1.287   9.107  0.7693 -0.4614  0.3961
  226MPD1    H7 3442   2.670   1.177   9.200 -1.2362 -0.9066  0.2482
  227MPD1     C 3443   2.936   0.511   9.510  0.2016  0.3343  0.0659
  227MPD1    C1 3444   2.906   0.646   9.526  0.1658  0.6544  0.2288
  227MPD1    C2 3445   3.001   0.741   9.485  0.7039 -0.0884 -0.2597
  227MPD1    C3 3446   3.115   0.698   9.424 -0.4444 -0.4133  0.4300
  227MPD1    C4 3447   3.131   0.561   9.381  0.6550  0.7144 -0.1638
  227MPD1    C5 3448   3.045   0.475   9.435 -0.2673 -0.1435 -0.3194
  227MPD1     H 3449   2.996   0.846   9.509 -3.2953 -0.3762  0.1609
  227MPD1    H1 3450   3.214   0.532   9.318 -1.3753 -1.1175 -2.0029
  227MPD1    H2 3451   2.876   0.425   9.539 -1.0413  1.3937  0.6245
  227MPD1    H3 3452   3.079   0.373   9.416  0.8023  0.4429 -1.5808
  227MPD1     N 3453   3.198   0.799   9.376 -0.1796  0.4555  0.2692
  227MPD1    H5 3454   3.179   0.896   9.399 -1.5151 -0.5967  3.5997
  227MPD1    N1 3455   2.807   0.690   9.612  0.3363  1.2117  0.0520
  227MPD1    H6 3456   2.729   0.625   9.609 -0.2983  2.0556 -1.5221
  227MPD1    H7 3457   2.765   0.776   9.579  1.1391  2.0584  1.2313
  228MPD1     C 3458   2.193   2.772  12.464  0.2706 -0.2813  0.6798
  228MPD1    C1 3459   2.129   2.814  12.349  0.1538 -0.2973 -0.0328
  228MPD1    C2 3460   1.991   2.822  12.346 -0.9445  0.1059 -0.4696
  228MPD1    C3 3461   1.917   2.756  12.447 -0.0962  0.2531 -0.4889
  228MPD1    C4 3462   1.982   2.695  12.554  0.2922 -0.5251  0.7638
  228MPD1    C5 3463   2.123   2.701  12.559  0.8283  0.1768  0.9861
  228MPD1     H 3464   1.949   2.852  12.251 -1.4472 -0.7892 -0.5275
  228MPD1    H1 3465   1.930   2.638  12.630  1.5050 -0.6180  1.5178
  228MPD1    H2 3466   2.300   2.781  12.481  0.4804  0.2507 -0.9029
  228MPD1    H3 3467   2.177   2.666  12.647 -0.1681 -1.3462  0.9999
  228MPD1     N 3468   1.775   2.747  12.428 -0.0219 -0.3981 -0.2096
  228MPD1    H5 3469   1.736   2.808  12.357 -0.7631  0.9159  1.3270
  228MPD1    N1 3470   2.196   2.874  12.248 -0.2260 -0.3487 -0.0957
  228MPD1    H6 3471   2.276   2.815  12.230 -0.8049 -1.7037  1.8086
  228MPD1    H7 3472   2.141   2.872  12.162  2.0529 -0.5602 -1.5494
  229MPD1     C 3473   2.213   1.217  13.465 -0.7169 -0.4103 -0.0901
  229MPD1    C1 3474   2.194   1.098  13.536 -0.0425 -0.5599  0.0509
  229MPD1    C2 3475   2.139   1.107  13.658 -0.2436 -0.2207 -0.0867
  229MPD1    C3 3476   2.094   1.226  13.713 -0.2463 -0.2175  0.0482
  229MPD1    C4 3477   2.096   1.339  13.634 -0.6223 -0.6474 -0.0281
  229MPD1    C5 3478   2.164   1.333  13.514  0.1448 -0.6050  0.0264
  229MPD1     H 3479   2.129   1.018  13.719 -1.6520  0.5540  0.8048
  229MPD1    H1 3480   2.040   1.428  13.659  0.1863 -0.3233  0.6168
  229MPD1    H2 3481   2.263   1.219  13.369 -0.9559 -0.2816 -0.2116
  229MPD1    H3 3482   2.171   1.418  13.448 -1.3182 -1.7096 -1.5481
  229MPD1     N 3483   2.045   1.217  13.844 -0.0268  0.2062  0.2214
  229MPD1    H5 3484   2.033   1.127  13.889  1.2953  0.4106  0.9827
  229MPD1    N1 3485   2.259   0.982  13.492 -0.1290 -0.2100  0.3600
  229MPD1    H6 3486   2.220   0.891  13.514 -2.8148  0.7947 -0.2169
  229MPD1    H7 3487   2.282   0.976  13.393  0.2800 -1.7875  0.5616
  230MPD1     C 3488   1.810   1.624  14.829  0.4794 -0.6879 -0.3914
  230MPD1    C1 3489   1.887   1.510  14.833  0.6416 -0.8891 -0.9778
  230MPD1    C2 3490   1.909   1.441  14.721 -0.5808  0.5979 -0.1011
  230MPD1    C3 3491   1.874   1.493  14.598  0.2258  0.6300  0.1220
  230MPD1    C4 3492   1.822   1.626  14.593  0.0177 -0.4458  0.6861
  230MPD1    C5 3493   1.782   1.680  14.710  0.5639  0.3529 -0.5262
  230MPD1     H 3494   1.961   1.346  14.720 -1.8615 -0.0739 -2.0689
  230MPD1    H1 3495   1.799   1.665  14.494  1.7339  0.8282  0.7818
  230MPD1    H2 3496   1.763   1.673  14.914  0.3706  0.4362 -1.0913
  230MPD1    H3 3497   1.728   1.773  14.713  0.6666  0.4291 -1.1195
  230MPD1     N 3498   1.897   1.410  14.486  0.1543 -0.2296  0.3455
  230MPD1    H5 3499   1.915   1.313  14.512 -2.1638 -0.7306  0.1474
  230MPD1    N1 3500   1.907   1.446  14.955  0.2924  0.0185 -0.0459
  230MPD1    H6 3501   1.985   1.380  14.958  0.1906  0.0251  2.7749
  230MPD1    H7 3502   1.922   1.510  15.033  2.6456 -2.3612  1.4534
  231MPD1     C 3503   4.503   3.357  15.160  0.1853  0.6858 -0.4793
  231MPD1    C1 3504   4.492   3.381  15.025 -0.0091  0.3206  0.3415
  231MPD1    C2 3505   4.599   3.444  14.969 -0.5340 -0.6038 -0.4469
  231MPD1    C3 3506   4.716   3.477  15.030  0.1267  0.2421  0.3691
  231MPD1    C4 3507   0.014   3.432  15.158 -0.2937 -0.0017 -0.1804
  231MPD1    C5 3508   4.624   3.377  15.218 -0.5859  0.8315 -0.6108
  231MPD1     H 3509   4.583   3.455  14.863  0.7561  0.3152 -0.5522
  231MPD1    H1 3510   0.100   3.444  15.222 -1.0961 -1.3665  1.1712
  231MPD1    H2 3511   4.427   3.321  15.229 -0.6496 -1.4721 -2.5073
  231MPD1    H3 3512   4.638   3.365  15.325 -2.7924 -0.1758 -0.4451
  231MPD1     N 3513   0.087   3.548  14.957  0.0528  0.2260  0.2711
  231MPD1    H5 3514   0.074   3.568  14.859 -0.7876  0.3914  0.4165
  231MPD1    N1 3515   4.368   3.379  14.961 -0.1783  0.5221 -0.3175
  231MPD1    H6 3516   4.386   3.370  14.861 -0.6614 -3.8136 -0.0195
  231MPD1    H7 3517   4.310   3.299  14.988 -0.2467  0.3718 -0.9078
  232MPD1     C 3518   1.661   1.920   0.398 -0.3766 -0.3639  0.8631
  232MPD1    C1 3519   1.543   1.947   0.332  0.5451  0.1090  0.6361
  232MPD1    C2 3520   1.458   1.840   0.298 -0.1599  0.3845  0.5309
  232MPD1    C3 3521   1.519   1.712   0.288  0.0800 -0.2957  0.0544
  232MPD1    C4 3522   1.641   1.686   0.343  0.0298  0.7743  0.4119
  232MPD1    C5 3523   1.707   1.789   0.404  0.1083  0.2300  0.0344
  232MPD1     H 3524   1.358   1.862   0.261 -0.2809  2.7314  2.1866
  232MPD1    H1 3525   1.688   1.588   0.345 -2.3667 -0.4239 -1.3006
  232MPD1    H2 3526   1.723   1.993   0.449 -0.9956  1.6396 -1.2717
  232MPD1    H3 3527   1.801   1.774   0.454 -0.5795 -1.8705  0.6865
  232MPD1     N 3528   1.439   1.608   0.229 -0.2370 -0.0171 -0.1953
  232MPD1    H5 3529   1.342   1.635   0.217 -0.3958  0.3606  1.9732
  232MPD1    N1 3530   1.485   2.078   0.331  0.4778  0.2086 -0.6885
  232MPD1    H6 3531   1.423   2.091   0.251 -0.8042  0.1645  0.3029
  232MPD1    H7 3532   1.556   2.151   0.319  0.3129  0.4519 -0.1445
  233MPD1     C 3533   0.624   0.277   1.820 -0.2675 -0.2065 -0.4808
  233MPD1    C1 3534   0.485   0.269   1.837 -0.0154 -0.0220 -0.3520
  233MPD1    C2 3535   0.423   0.159   1.783  0.0130 -0.3326  0.4654
  233MPD1    C3 3536   0.484   0.074   1.690 -0.7693 -0.5576  0.2396
  233MPD1    C4 3537   0.620   0.093   1.663  0.6868  0.3870 -0.1972
  233MPD1    C5 3538   0.689   0.192   1.730  0.5436 -0.3775  0.5122
  233MPD1     H 3539   0.320   0.143   1.810  0.4402 -0.7144  1.8476
  233MPD1    H1 3540   0.670   0.033   1.588 -2.8065 -1.4747 -1.0020
  233MPD1    H2 3541   0.677   0.357   1.869  0.2289 -0.2038 -1.0274
  233MPD1    H3 3542   0.796   0.207   1.721  0.6308 -1.7888 -0.7452
  233MPD1     N 3543   0.416   4.693   1.626  0.6638 -0.5035  0.1636
  233MPD1    H5 3544   0.474   4.638   1.564 -0.1122 -0.5073 -0.5590
  233MPD1    N1 3545   0.423   0.342   1.939  0.1609  0.0164 -0.1228
  233MPD1    H6 3546   0.328   0.367   1.913 -0.6049 -1.5791  1.1340
  233MPD1    H7 3547   0.478   0.427   1.950 -2.3125  1.2909  2.4059
  234MPD1     C 3548   3.917   3.039  10.157  0.0203  0.3784  0.0517
  234MPD1    C1 3549   3.877   3.168  10.170 -0.1077  0.6531  0.5119
  234MPD1    C2 3550   3.902   3.258  10.072  0.4832 -0.2265  0.0577
  234MPD1    C3 3551   3.960   3.221   9.957 -0.4686  0.2984 -0.3588
  234MPD1    C4 3552   3.999   3.091   9.946 -0.5394 -0.4590  0.4895
  234MPD1    C5 3553   3.965   2.999  10.036  0.0591 -0.0380  0.4770
  234MPD1     H 3554   3.881   3.364  10.083 -0.4249 -0.4532  0.4357
  234MPD1    H1 3555   4.048   3.057   9.856 -1.2103 -0.4943  0.1313
  234MPD1    H2 3556   3.900   2.961  10.231 -1.0996 -1.1884 -1.8338
  234MPD1    H3 3557   3.996   2.895  10.029 -3.4162 -1.2463  2.9908
  234MPD1     N 3558   3.996   3.326   9.870  0.9032  0.3932 -0.0157
  234MPD1    H5 3559   3.957   3.414   9.899 -2.9143 -1.4818  0.5530
  234MPD1    N1 3560   3.802   3.210  10.288 -0.4388  0.1067 -0.0908
  234MPD1    H6 3561   3.823   3.148  10.366 -0.8432 -0.5725 -0.5222
  234MPD1    H7 3562   3.826   3.307  10.306  1.6724 -0.3343 -0.5619
  235MPD1     C 3563   0.893   0.456   9.590 -0.3804 -0.2864  0.0337
  235MPD1    C1 3564   0.979   0.530   9.668 -0.0092 -0.2406  0.2337
  235MPD1    C2 3565   0.974   0.667   9.647  0.3165 -0.9772  0.8749
  235MPD1    C3 3566   0.901   0.737   9.551  0.4451 -0.0139 -0.2499
  235MPD1    C4 3567   0.824   0.661   9.474 -0.8296 -0.6246 -0.0662
  235MPD1    C5 3568   0.830   0.527   9.491  0.4922 -0.5005  0.1073
  235MPD1     H 3569   1.051   0.727   9.694  0.0455  0.2390 -0.2406
  235MPD1    H1 3570   0.774   0.691   9.382 -2.6229  0.2734  1.2056
  235MPD1    H2 3571   0.859   0.354   9.599 -3.5719  0.9803  2.3031
  235MPD1    H3 3572   0.755   0.470   9.439 -0.0042  0.1100  0.1519
  235MPD1     N 3573   0.914   0.883   9.536  0.7586 -0.1611 -0.3638
  235MPD1    H5 3574   0.969   0.927   9.608 -0.6370 -0.4206  0.8655
  235MPD1    N1 3575   1.041   0.476   9.777  0.4520  0.2039  0.1488
  235MPD1    H6 3576   1.129   0.524   9.795  0.4597 -0.0746  0.8630
  235MPD1    H7 3577   1.062   0.379   9.757  0.3075  0.3984 -0.9578
  236MPD1     C 3578   0.311   1.626  10.209 -0.7971  0.0669  0.4000
  236MPD1    C1 3579   0.262   1.537  10.303  0.2195  0.0729  0.1590
  236MPD1    C2 3580   0.352   1.469  10.387  1.0091 -0.0473  0.1817
  236MPD1    C3 3581   0.485   1.511  10.392 -0.1096 -0.3228  0.0824
  236MPD1    C4 3582   0.523   1.621  10.315 -0.1568  0.1189 -0.1344
  236MPD1    C5 3583   0.441   1.674  10.217 -0.3776  0.1057 -0.2050
  236MPD1     H 3584   0.315   1.383  10.443  2.2132 -1.2985 -0.9445
  236MPD1    H1 3585   0.625   1.659  10.324 -0.6387  1.4807 -0.3943
  236MPD1    H2 3586   0.250   1.666  10.129 -1.0389 -0.6142  0.2431
  236MPD1    H3 3587   0.484   1.743  10.146 -0.6227 -1.3609 -1.7848
  236MPD1     N 3588   0.577   1.465  10.481 -0.0751 -0.2955 -0.6052
  236MPD1    H5 3589   0.664   1.514  10.493  1.5290 -3.2024 -0.2799
  236MPD1    N1 3590   0.128   1.494  10.284  1.2474  0.4238 -0.3954
  236MPD1    H6 3591   0.062   1.568  10.262  1.4437  0.8288  0.3724
  236MPD1    H7 3592   0.094   1.458  10.373 -0.1348  1.0327 -0.6726
  237MPD1     C 3593   0.481   4.349  15.984  0.3597 -0.6940 -0.2707
  237MPD1    C1 3594   0.421   4.238  15.930  0.0001  0.1019 -0.0206
  237MPD1    C2 3595   0.357   4.258  15.809 -0.1379 -0.7797  0.1508
  237MPD1    C3 3596   0.337   4.383  15.750 -0.1171 -0.2610 -0.0042
  237MPD1    C4 3597   0.407   4.489  15.802  0.1595 -0.0896 -0.0072
  237MPD1    C5 3598   0.468   4.468  15.925  0.0179 -0.2748 -0.7978
  237MPD1     H 3599   0.310   4.172  15.763 -0.8614  1.2583 -2.9783
  237MPD1    H1 3600   0.405   4.589  15.760 -2.3207  0.2945  1.0406
  237MPD1    H2 3601   0.534   4.339  16.078 -0.1379  2.1233  0.2793
  237MPD1    H3 3602   0.505   4.561  15.966 -0.6709 -0.0018 -0.8049
  237MPD1     N 3603   0.268   4.408  15.628 -0.0362 -0.2278  0.3445
  237MPD1    H5 3604   0.278   4.501  15.589 -1.4298 -0.8998 -1.6411
  237MPD1    N1 3605   0.407   4.124  16.014 -0.0682  1.2980  0.8772
  237MPD1    H6 3606   0.488   4.118  16.076 -0.2884  2.6937  1.3110
  237MPD1    H7 3607   0.394   4.037  15.964  0.0309  1.1212  1.1599
  238MPD1     C 3608   2.216   2.875  14.836 -0.8513  0.5973  0.3857
  238MPD1    C1 3609   2.105   2.806  14.887 -0.1813 -0.4451  0.3935
  238MPD1    C2 3610   1.991   2.872  14.918 -1.2244 -0.2469  0.6752
  238MPD1    C3 3611   1.966   2.995  14.869 -0.1830 -0.6004  0.2675
  238MPD1    C4 3612   2.068   3.060  14.807  0.4425 -0.8631  0.1208
  238MPD1    C5 3613   2.191   3.006  14.793 -0.0865 -0.2370  0.2109
  238MPD1     H 3614   1.907   2.816  14.957 -1.5092 -1.4757 -1.7017
  238MPD1    H1 3615   2.052   3.164  14.780 -0.8979 -1.6643 -2.1934
  238MPD1    H2 3616   2.307   2.820  14.814 -1.7567  0.0576 -1.9640
  238MPD1    H3 3617   2.273   3.067  14.758 -1.3627  2.0051  1.1551
  238MPD1     N 3618   1.839   3.064  14.878  0.2654  0.0613 -0.5490
  238MPD1    H5 3619   1.840   3.158  14.842 -0.0734  1.1617  2.3465
  238MPD1    N1 3620   2.128   2.674  14.935 -0.3462 -0.0755  0.1611
  238MPD1    H6 3621   2.040   2.624  14.945  0.8114 -2.3524 -1.2117
  238MPD1    H7 3622   2.188   2.616  14.876  1.0873 -0.9379  2.4575
  239MPD1     C 3623   1.816   3.616  14.903  0.6591  0.0176  0.3327
  239MPD1    C1 3624   1.953   3.641  14.872 -0.8609  0.2060 -0.3245
  239MPD1    C2 3625   1.978   3.730  14.771 -0.1682 -0.3863  0.2430
  239MPD1    C3 3626   1.881   3.808  14.712 -0.3066  0.3085 -0.5728
  239MPD1    C4 3627   1.752   3.786  14.743  0.5292 -0.1024 -0.6806
  239MPD1    C5 3628   1.720   3.690  14.841 -0.0729 -0.8772  0.4065
  239MPD1     H 3629   2.082   3.742  14.742 -0.5240  0.9817 -0.4885
  239MPD1    H1 3630   1.674   3.837  14.687  1.9336  1.3594 -1.2879
  239MPD1    H2 3631   1.782   3.543  14.975 -1.2334  1.0780  0.5143
  239MPD1    H3 3632   1.615   3.672  14.863 -0.1654  1.1942  1.6333
  239MPD1     N 3633   1.908   3.906  14.609  0.3518 -0.1226  0.0192
  239MPD1    H5 3634   1.828   3.959  14.575  1.6331  0.8153 -1.5367
  239MPD1    N1 3635   2.052   3.550  14.922 -0.6567  0.2105  0.0358
  239MPD1    H6 3636   2.143   3.595  14.922  0.4748 -2.0900  1.6929
  239MPD1    H7 3637   2.039   3.519  15.018  0.0546  0.1854  0.1186
  240MPD1     C 3638   1.513   4.490  14.325 -0.1675  0.2500  0.6179
  240MPD1    C1 3639   1.429   4.497  14.432  0.3126  0.1167  0.2512
  240MPD1    C2 3640   1.387   4.373  14.492  0.6342  0.5904 -0.5202
  240MPD1    C3 3641   1.445   4.255  14.455 -0.7855  0.6845 -0.2346
  240MPD1    C4 3642   1.535   4.250  14.347 -0.4466 -0.8459 -1.3531
  240MPD1    C5 3643   1.563   4.368  14.286  0.8946 -0.1070 -0.6240
  240MPD1     H 3644   1.311   4.368  14.569  2.0628  2.1913  1.0279
  240MPD1    H1 3645   1.586   4.161  14.312 -0.6022 -1.6141  0.4120
  240MPD1    H2 3646   1.547   4.576  14.268  0.4215 -0.0872  0.4687
  240MPD1    H3 3647   1.632   4.361  14.203  2.6371 -0.8180  0.9099
  240MPD1     N 3648   1.396   4.144  14.522 -0.4468  0.2468  0.7379
  240MPD1    H5 3649   1.307   4.145  14.571 -1.3353  0.4221 -0.8738
  240MPD1    N1 3650   1.376   4.620  14.468  0.4106 -0.0499 -0.4543
  240MPD1    H6 3651   1.435   4.702  14.455 -3.9256  3.1590  0.3168
  240MPD1    H7 3652   1.343   4.621  14.564 -1.3477  0.4385 -1.0688
  241MPD1     C 3653   1.268   4.023  15.312  0.5220  0.3541  0.0756
  241MPD1    C1 3654   1.236   3.892  15.279 -0.0762  0.3928  0.2948
  241MPD1    C2 3655   1.266   3.845  15.159 -0.6621  1.0123 -0.6174
  241MPD1    C3 3656   1.341   3.925  15.067 -0.2345  0.1566 -0.1058
  241MPD1    C4 3657   1.389   4.046  15.105 -0.0498 -0.1510 -0.3105
  241MPD1    C5 3658   1.335   4.099  15.221  0.4265  0.2274 -0.2205
  241MPD1     H 3659   1.237   3.743  15.137 -1.4211  0.6908  1.8725
  241MPD1    H1 3660   1.444   4.096  15.027 -0.9493 -0.4272 -1.1251
  241MPD1    H2 3661   1.249   4.069  15.408  1.5153 -0.9823  0.9114
  241MPD1    H3 3662   1.364   4.201  15.245 -0.6199  0.4907 -0.1004
  241MPD1     N 3663   1.371   3.880  14.934 -0.1281  0.0465  0.1457
  241MPD1    H5 3664   1.438   3.939  14.886 -0.4163  0.7651  0.6242
  241MPD1    N1 3665   1.163   3.824  15.373  0.0169 -1.0087  0.2025
  241MPD1    H6 3666   1.178   3.877  15.459  0.9661 -2.1047  0.7048
  241MPD1    H7 3667   1.212   3.737  15.388  0.8197 -0.7634 -0.9865
  242MPD1     C 3668   1.662   2.334  15.418  0.0636  0.2081 -0.0958
  242MPD1    C1 3669   1.535   2.357  15.372 -0.1009 -0.4321  0.5652
  242MPD1    C2 3670   1.501   2.294  15.248 -0.0791 -1.1806 -0.8010
  242MPD1    C3 3671   1.588   2.234  15.168 -0.4932  0.9108  1.0882
  242MPD1    C4 3672   1.718   2.210  15.218 -0.0351 -0.3413  0.0050
  242MPD1    C5 3673   1.748   2.260  15.339  0.5388  0.2924 -0.5361
  242MPD1     H 3674   1.394   2.305  15.234 -0.4815 -2.9802  0.8610
  242MPD1    H1 3675   1.797   2.164  15.160 -0.7701 -0.9229 -0.5321
  242MPD1    H2 3676   1.684   2.374  15.516  1.1458  1.0516 -0.6938
  242MPD1    H3 3677   1.849   2.238  15.371  0.1886  0.6559  0.7969
  242MPD1     N 3678   1.560   2.186  15.035  0.3211  0.4499  0.3098
  242MPD1    H5 3679   1.635   2.145  14.981  0.3717  0.3429  0.4600
  242MPD1    N1 3680   1.436   2.417  15.451 -0.2633 -0.1748 -0.4326
  242MPD1    H6 3681   1.367   2.469  15.396 -0.4951  0.1693  0.1811
  242MPD1    H7 3682   1.470   2.485  15.519 -0.9960  0.5414 -0.7702
  243MPD1     C 3683   2.038   0.414  17.409  0.6489 -0.9981  0.8166
  243MPD1    C1 3684   2.140   0.420  17.322 -0.1016 -0.2921 -0.1753
  243MPD1    C2 3685   2.135   0.338  17.209 -0.1270  0.3904  0.4944
  243MPD1    C3 3686   2.044   0.234  17.209  0.2657  0.0828 -0.6339
  243MPD1    C4 3687   1.940   0.230  17.307 -0.5132  0.4198  0.4764
  243MPD1    C5 3688   1.928   0.331  17.400  0.5821  0.7264 -0.0118
  243MPD1     H 3689   2.212   0.353  17.133 -1.3551 -1.1643 -1.0489
  243MPD1    H1 3690   1.889   0.135  17.321  0.6940 -0.2001  0.6380
  243MPD1    H2 3691   2.032   0.494  17.482  0.2898 -0.2443 -0.0399
  243MPD1    H3 3692   1.850   0.334  17.475  0.6429 -0.7367  0.1144
  243MPD1     N 3693   2.061   0.140  17.107 -1.0991 -0.0745 -0.0837
  243MPD1    H5 3694   2.129   0.168  17.037  0.0396  0.6857  1.3329
  243MPD1    N1 3695   2.219   0.539  17.326 -0.0258  0.1342 -0.1444
  243MPD1    H6 3696   2.229   0.573  17.421  0.3811 -2.0580  0.5921
  243MPD1    H7 3697   2.311   0.528  17.283  0.1150  1.1953 -0.1088
  244MPD1     C 3698   1.525   4.273  16.405 -0.3580  0.2673  0.4665
  244MPD1    C1 3699   1.579   4.396  16.364  0.0411  0.0200  0.6560
  244MPD1    C2 3700   1.688   4.435  16.435  0.0900  0.3634  0.2949
  244MPD1    C3 3701   1.732   4.375  16.552 -0.7101  0.3769  0.6605
  244MPD1    C4 3702   1.679   4.254  16.593  0.9236 -0.7697  0.2907
  244MPD1    C5 3703   1.579   4.209  16.513  0.1674 -1.0097 -0.1461
  244MPD1     H 3704   1.736   4.524  16.397 -0.3926 -0.5062 -2.3179
  244MPD1    H1 3705   1.711   4.202  16.683  1.3365 -0.2459  0.4489
  244MPD1    H2 3706   1.445   4.223  16.352 -0.5605 -1.5762  2.4679
  244MPD1    H3 3707   1.529   4.116  16.538  0.1897 -0.2699  2.5925
  244MPD1     N 3708   1.828   4.453  16.615  0.2568 -0.0952  0.2489
  244MPD1    H5 3709   1.853   4.541  16.572  1.0041 -1.0650 -1.3219
  244MPD1    N1 3710   1.549   4.456  16.235  1.1360  0.3129  0.5069
  244MPD1    H6 3711   1.559   4.557  16.225 -0.4111  0.6221  2.0506
  244MPD1    H7 3712   1.453   4.429  16.211  1.3098  0.0792  0.0650
  245MPD1     C 3713   4.648   0.970  13.083 -0.6970  0.0766 -0.3454
  245MPD1    C1 3714   0.009   1.078  13.063  0.0915  0.7659  0.0079
  245MPD1    C2 3715   4.678   1.199  13.109  0.4276 -0.0955 -0.1856
  245MPD1    C3 3716   4.548   1.221  13.151 -0.1444  0.0605  0.7316
  245MPD1    C4 3717   4.461   1.111  13.145 -0.0597  0.9207  0.4331
  245MPD1    C5 3718   4.514   0.988  13.115  0.0634 -0.2192 -0.1250
  245MPD1     H 3719   0.023   1.283  13.114 -0.9857  1.1347 -1.4970
  245MPD1    H1 3720   4.355   1.129  13.159 -0.1323  0.7949  0.0311
  245MPD1    H2 3721   4.681   0.869  13.064 -0.1152  0.6546 -2.4220
  245MPD1    H3 3722   4.447   0.902  13.116  0.1748 -0.2977  1.7139
  245MPD1     N 3723   4.520   1.351  13.200  0.6338  0.6165 -0.3934
  245MPD1    H5 3724   4.594   1.419  13.210  1.0267  0.0808  0.4056
  245MPD1    N1 3725   0.149   1.056  13.059 -0.8910  0.1822  0.0129
  245MPD1    H6 3726   0.195   1.137  13.018  0.4794 -0.3618  0.4513
  245MPD1    H7 3727   0.174   0.972  13.006  0.3843 -0.6218  1.8869
  246MPD1     C 3728   0.936   3.520   9.692  0.5057 -0.0655 -0.0593
  246MPD1    C1 3729   0.845   3.609   9.654 -0.2463  0.8165 -0.0442
  246MPD1    C2 3730   0.740   3.565   9.568 -0.0276  0.4642  0.2402
  246MPD1    C3 3731   0.716   3.426   9.553  0.1078  0.3947  0.0482
  246MPD1    C4 3732   0.823   3.343   9.579 -0.4205 -0.1143  0.5688
  246MPD1    C5 3733   0.939   3.388   9.649  0.2424 -0.0484  0.3782
  246MPD1     H 3734   0.670   3.640   9.533 -0.1713  0.2863  0.1489
  246MPD1    H1 3735   0.823   3.237   9.556 -2.7236  0.1762 -0.8520
  246MPD1    H2 3736   1.025   3.550   9.746 -1.4400 -0.0232  3.1314
  246MPD1    H3 3737   1.011   3.314   9.683 -1.4876 -2.0893 -0.3720
  246MPD1     N 3738   0.596   3.388   9.496  0.3758  0.4344  0.2212
  246MPD1    H5 3739   0.542   3.467   9.463 -0.2642  0.2096  0.7233
  246MPD1    N1 3740   0.855   3.748   9.683  0.4209 -0.1689 -0.3293
  246MPD1    H6 3741   0.939   3.764   9.737  0.3297 -1.8157  0.3199
  246MPD1    H7 3742   0.769   3.790   9.719  2.5890  4.2007 -0.3095
  247MPD1     C 3743   3.828   2.416  16.205  0.3800  0.2373  0.6180
  247MPD1    C1 3744   3.820   2.337  16.318 -0.2040 -0.7407 -0.4866
  247MPD1    C2 3745   3.858   2.202  16.319 -0.6465 -0.0812 -0.1209
  247MPD1    C3 3746   3.941   2.150  16.220 -0.0887 -0.3624  0.4316
  247MPD1    C4 3747   3.968   2.239  16.115  0.7089  0.1441  0.3880
  247MPD1    C5 3748   3.908   2.361  16.110  0.0036 -0.6988 -0.6617
  247MPD1     H 3749   3.840   2.138  16.406  2.4244  2.1232  2.1252
  247MPD1    H1 3750   4.021   2.202  16.028 -0.4504  0.3195 -0.3907
  247MPD1    H2 3751   3.802   2.521  16.202 -0.0522  0.1525  1.4416
  247MPD1    H3 3752   3.931   2.416  16.019  1.0704 -1.3744 -0.8007
  247MPD1     N 3753   3.997   2.019  16.213  0.1476  0.0017  0.1979
  247MPD1    H5 3754   4.067   2.002  16.141  0.7657  0.0797  0.7783
  247MPD1    N1 3755   3.745   2.383  16.432  0.2070  0.6796  0.1784
  247MPD1    H6 3756   3.785   2.343  16.516  0.3740 -0.6438 -0.5247
  247MPD1    H7 3757   3.757   2.484  16.436  1.8834  0.5614 -1.7930
  248MPD1     C 3758   4.409   1.127   0.278 -0.2036  0.1906 -0.0521
  248MPD1    C1 3759   4.426   1.259   0.300  0.4417 -0.2947 -0.0003
  248MPD1    C2 3760   4.332   1.353   0.253 -0.2775 -0.2849 -0.0991
  248MPD1    C3 3761   4.209   1.317   0.198  0.0155 -0.7841  0.3502
  248MPD1    C4 3762   4.206   1.185   0.165  0.2914 -0.8440 -0.1501
  248MPD1    C5 3763   4.302   1.093   0.205  0.0572  0.2023 -0.7662
  248MPD1     H 3764   4.360   1.457   0.266  1.2193 -0.3654 -2.5133
  248MPD1    H1 3765   4.133   1.149   0.093 -0.6219 -1.4127  1.0602
  248MPD1    H2 3766   4.487   1.060   0.313 -1.2763 -0.7600  0.4847
  248MPD1    H3 3767   4.289   0.989   0.177  2.1304  0.3904 -2.4349
  248MPD1     N 3768   4.118   1.420   0.157 -0.3424 -0.3718  0.4685
  248MPD1    H5 3769   4.142   1.516   0.181  0.1085 -0.4927  0.5034
  248MPD1    N1 3770   4.547   1.311   0.353  0.6064  0.0019 -0.3488
  248MPD1    H6 3771   4.531   1.397   0.405 -0.0524  0.5642 -1.4974
  248MPD1    H7 3772   4.590   1.243   0.416  0.4348  2.2839  2.2168
  249MPD1     C 3773   0.451   4.292   9.675 -0.3617  0.5612 -0.1147
  249MPD1    C1 3774   0.454   4.352   9.798  0.1766 -0.5611  0.9154
  249MPD1    C2 3775   0.572   4.412   9.831  0.3577  0.3392 -0.2841
  249MPD1    C3 3776   0.674   4.426   9.733 -0.0719  0.4470 -0.2582
  249MPD1    C4 3777   0.661   4.370   9.610 -0.2957  0.3989  0.0208
  249MPD1    C5 3778   0.550   4.301   9.586  0.0705 -0.2903  0.3688
  249MPD1     H 3779   0.596   4.448   9.931 -1.6804  0.8364  0.0157
  249MPD1    H1 3780   0.735   4.371   9.531 -0.3375 -3.0932 -0.0423
  249MPD1    H2 3781   0.362   4.237   9.646  0.8697 -1.5047  0.0900
  249MPD1    H3 3782   0.540   4.256   9.488  0.7404 -0.3824  0.3394
  249MPD1     N 3783   0.798   4.479   9.772  0.2760  0.1042  0.5889
  249MPD1    H5 3784   0.827   4.470   9.869 -0.6423 -2.1103  0.6462
  249MPD1    N1 3785   0.357   4.311   9.893  0.0419 -0.4872 -0.3626
  249MPD1    H6 3786   0.267   4.298   9.846 -0.5427 -0.3308  0.7064
  249MPD1    H7 3787   0.350   4.384   9.963  2.5897  0.5743 -1.2166
  250MPD2     C 3788   2.655   4.555  13.131 -0.4559  0.0326 -0.3650
  250MPD2    C1 3789   2.622   4.651  13.033 -0.3207  0.3172 -0.2061
  250MPD2    C2 3790   2.604   4.603  12.898  0.1731 -0.2458  0.4503
  250MPD2    C3 3791   2.609   4.467  12.865 -0.2031 -0.0293  0.2271
  250MPD2    C4 3792   2.663   4.376  12.960 -0.2071  0.0200  0.2090
  250MPD2    C5 3793   2.674   4.423  13.093 -0.5069  0.6595  0.2084
  250MPD2     H 3794   2.590   4.673  12.816  0.7753 -0.5992  0.0417
  250MPD2    H1 3795   2.689   4.272  12.947  0.1459  0.1353  0.0059
  250MPD2    H2 3796   2.662   4.580  13.236 -0.1926 -1.3514 -0.0600
  250MPD2    H3 3797   2.707   4.352  13.168 -0.8171 -0.7777 -1.0042
  250MPD2     N 3798   2.589   4.415  12.731  1.0343  0.4124 -0.0171
  250MPD2    H5 3799   2.607   4.316  12.718  0.3478 -0.0357  2.3497
  250MPD2    N1 3800   2.652   0.067  13.060 -0.1028 -0.0019  0.4458
  250MPD2    H7 3801   2.693   0.091  13.150  1.4846  0.7801 -0.4993
  251TMC3    C1 3802   2.697   0.287  13.020 -0.2017 -0.6078 -0.4084
  251TMC3    C2 3803   2.637   0.406  12.987 -0.0386 -0.1747 -0.1898
  251TMC3    C3 3804   2.702   0.517  13.017  0.6108  0.1099 -0.0706
  251TMC3    C4 3805   2.809   0.277  13.098  0.6890  0.2099 -0.3796
  251TMC3    C5 3806   2.876   0.397  13.116 -0.0605 -0.6005  0.2935
  251TMC3    C6 3807   2.821   0.520  13.090  0.6018  0.3369  0.3273
  251TMC3     C 3808   2.636   0.171  12.974  0.1919  0.2982  0.7131
  251TMC3     O 3809   2.569   0.178  12.872  0.2673  0.0668 -0.2922
  251TMC3     H 3810   2.555   0.403  12.916  0.2987  0.6873 -0.6153
  251TMC3    H1 3811   2.864   0.185  13.108 -0.7068 -0.7008 -1.0455
  251TMC3    H2 3812   2.880   0.611  13.090  0.2799  0.5433  0.8522
  251TMC3    C7 3813   3.003   0.398  13.175 -0.6446  0.0317  0.3808
  251TMC3    C8 3814   2.645   0.648  12.953 -0.0651 -0.5369  0.5892
  251TMC3    O1 3815   3.032   0.281  13.206 -0.5980 -0.0232  0.3552
  251TMC3    O2 3816   2.537   0.630  12.900  0.4964  0.3266  0.0906
  252TMC3    C1 3817   3.389   1.490   9.347 -0.3968 -0.2679 -0.5804
  252TMC3    C2 3818   3.471   1.584   9.393 -0.1166  0.0915 -0.3067
  252TMC3    C3 3819   3.445   1.712   9.360  1.1403 -0.4634 -0.2067
  252TMC3    C4 3820   3.272   1.523   9.296  0.6719 -0.3300 -0.2200
  252TMC3    C5 3821   3.248   1.663   9.274  0.2108 -0.8407  0.0847
  252TMC3    C6 3822   3.347   1.762   9.282  1.0246 -0.2118 -0.4589
  252TMC3     C 3823   3.410   1.355   9.390 -0.9289 -0.0350 -0.0613
  252TMC3     O 3824   3.311   1.290   9.416  0.4404 -0.2269  0.0383
  252TMC3     H 3825   3.563   1.560   9.445  1.2243 -0.0755 -2.7886
  252TMC3    H1 3826   3.203   1.450   9.255 -0.6407  0.6485  0.2770
  252TMC3    H2 3827   3.333   1.869   9.267 -2.6196 -0.2906  2.4958
  252TMC3    C7 3828   3.106   1.701   9.254 -0.0195  0.4845 -0.0644
  252TMC3    C8 3829   3.525   1.813   9.423 -0.1482  0.4413  0.1149
  252TMC3    O1 3830   3.093   1.808   9.190  0.3704 -0.3753 -0.0874
  252TMC3    O2 3831   3.556   1.912   9.362  0.4020 -0.0722  0.4039
  253MPD2     C 3832   4.330   4.685  14.873 -0.3694 -0.4940 -0.0176
  253MPD2    C1 3833   4.199   4.692  14.921  0.2684 -0.1461 -0.8757
  253MPD2    C2 3834   4.177   0.045  15.040  0.3100 -0.5509  0.0812
  253MPD2    C3 3835   4.279   0.111  15.104  0.2413  0.9014 -0.9834
  253MPD2    C4 3836   4.410   0.108  15.051  0.0386 -0.8233  0.6850
  253MPD2    C5 3837   4.428   0.034  14.936  0.1786  0.2624 -0.1659
  253MPD2     H 3838   4.077   0.035  15.081 -0.9294  1.9664 -2.2902
  253MPD2    H1 3839   4.492   0.155  15.105  0.0702 -0.0222 -0.0668
  253MPD2    H2 3840   4.361   4.623  14.790  1.7139  1.2249 -0.5176
  253MPD2    H3 3841   4.527   0.015  14.895  1.0518  2.6987  0.8198
  253MPD2     N 3842   4.258   0.184  15.226 -0.2969  0.2145 -0.2781
  253MPD2    H5 3843   4.333   0.224  15.281 -1.2393 -1.2176  2.0208
  253MPD2    N1 3844   4.085   4.619  14.868  0.1084 -0.4429 -0.4812
  253MPD2    H7 3845   4.002   4.620  14.927 -0.9327  2.7307 -1.9745
  254TMC3    C1 3846   4.129   0.278  15.395 -0.4104 -0.0115 -0.4697
  254TMC3    C2 3847   4.028   0.370  15.422  0.1504 -0.0831 -0.4831
  254TMC3    C3 3848   4.011   0.393  15.553  0.1664 -0.1623  0.0775
  254TMC3    C4 3849   4.228   0.233  15.485 -0.9039 -0.3631  0.4427
  254TMC3    C5 3850   4.224   0.293  15.612  0.0274 -0.1421  0.3716
  254TMC3    C6 3851   4.108   0.363  15.648 -0.1186 -0.2974  0.3776
  254TMC3     C 3852   4.127   0.211  15.265  0.1896 -0.3120  0.2588
  254TMC3     O 3853   4.018   0.186  15.222  0.3621 -0.0968  0.3051
  254TMC3     H 3854   3.947   0.384  15.351 -0.9773 -0.2558  0.7665
  254TMC3    H1 3855   4.301   0.157  15.458 -1.4007 -0.5161 -0.4631
  254TMC3    H2 3856   4.090   0.391  15.751 -0.5611  1.1859 -0.1123
  254TMC3    C7 3857   4.307   0.255  15.717  0.5809  0.5329 -0.5551
  254TMC3    C8 3858   3.873   0.376  15.602  0.2804 -0.0913 -0.6276
  254TMC3    O1 3859   4.293   0.306  15.831 -0.2783  0.5852 -0.2265
  254TMC3    O2 3860   3.870   0.311  15.702 -0.6725  0.0308 -0.2815
  255MPD2     C 3861   1.904   3.006  10.192  0.3588  0.4833 -0.4665
  255MPD2    C1 3862   2.011   3.079  10.160  0.6841  0.3218 -0.0975
  255MPD2    C2 3863   2.124   3.009  10.135 -0.0068  0.1445 -0.0146
  255MPD2    C3 3864   2.129   2.871  10.119  0.4745  0.1379  0.0030
  255MPD2    C4 3865   2.025   2.799  10.164  0.3177  0.0218 -0.1933
  255MPD2    C5 3866   1.913   2.867  10.193 -0.0109 -0.2089 -0.0218
  255MPD2     H 3867   2.217   3.064  10.124 -0.4792  0.6644 -1.3751
  255MPD2    H1 3868   2.019   2.691  10.172  0.6317  0.0788  0.7491
  255MPD2    H2 3869   1.817   3.066  10.217 -0.0023  0.2712 -1.2009
  255MPD2    H3 3870   1.823   2.813  10.218 -0.5243  1.4976  1.7775
  255MPD2     N 3871   2.246   2.809  10.076  0.3028  0.4785 -1.0137
  255MPD2    H5 3872   2.319   2.875  10.051  1.6670 -0.2364  1.0830
  255MPD2    N1 3873   2.003   3.219  10.157  0.5893  0.0257  0.1647
  255MPD2    H7 3874   1.910   3.248  10.184 -0.3690 -1.1706 -1.9582
  256TMC3    C1 3875   2.065   3.445  10.107  0.3689  0.5239  0.1690
  256TMC3    C2 3876   2.170   3.531  10.065  0.1717  0.4838  0.4554
  256TMC3    C3 3877   2.150   3.634   9.974 -0.4542 -0.1517  0.4646
  256TMC3    C4 3878   1.939   3.475  10.062  0.2795  0.8763 -0.0429
  256TMC3    C5 3879   1.930   3.576   9.967 -0.2160  0.3558  0.2569
  256TMC3    C6 3880   2.029   3.652   9.915 -0.8283 -0.3470  0.2024
  256TMC3     C 3881   2.101   3.308  10.127 -0.0509  0.8339 -0.9952
  256TMC3     O 3882   2.222   3.297  10.108  0.0396  0.3807  0.1091
  256TMC3     H 3883   2.269   3.524  10.108 -0.2553 -1.7645  1.0403
  256TMC3    H1 3884   1.863   3.398  10.066  0.7471  0.4672  0.9331
  256TMC3    H2 3885   2.015   3.725   9.835  2.3161  0.0103 -0.0010
  256TMC3    C7 3886   1.830   3.556   9.860 -0.3435  0.0672 -0.0116
  256TMC3    C8 3887   2.271   3.713   9.935  0.2841 -0.4061 -0.5816
  256TMC3    O1 3888   1.802   3.439   9.840  0.4221 -0.2720 -0.1637
  256TMC3    O2 3889   2.370   3.708  10.004 -0.3599  0.1619 -0.6145
  257MPD2     C 3890   1.865   0.008  13.174  0.4151 -0.7441 -0.1087
  257MPD2    C1 3891   1.942   4.662  13.080  0.3791 -0.1961 -0.3025
  257MPD2    C2 3892   1.957   4.527  13.088  0.3918  0.2073  0.1319
  257MPD2    C3 3893   1.913   4.452  13.199 -0.0907  0.7764 -0.1015
  257MPD2    C4 3894   1.840   4.521  13.296 -0.0964  1.0654  0.2325
  257MPD2    C5 3895   1.822   4.659  13.276  0.1557  0.7465  0.5964
  257MPD2     H 3896   2.005   4.470  13.010 -1.1541 -1.7285  0.5952
  257MPD2    H1 3897   1.805   4.474  13.387 -4.2693 -1.4372 -2.6650
  257MPD2    H2 3898   1.840   0.113  13.167 -2.2705 -1.3466  0.2071
  257MPD2    H3 3899   1.766   4.713  13.352 -0.3459 -0.0504  0.7892
  257MPD2     N 3900   1.949   4.313  13.214  0.0534  0.1157  0.3890
  257MPD2    H5 3901   2.003   4.279  13.135  0.3829  0.2603  0.5525
  257MPD2    N1 3902   1.987   0.011  12.966 -0.1470  0.1026 -0.0173
  257MPD2    H7 3903   1.952   0.106  12.960 -2.5881 -0.8191 -0.4720
  258TMC3    C1 3904   1.997   4.113  13.327  0.0026  0.0300 -0.6267
  258TMC3    C2 3905   2.039   4.055  13.206  0.3306  0.5391 -0.0981
  258TMC3    C3 3906   2.142   3.962  13.211  0.2443  0.1806 -0.6334
  258TMC3    C4 3907   2.039   4.055  13.451 -0.2431  0.0657 -0.0824
  258TMC3    C5 3908   2.132   3.961  13.447  0.2912 -0.6405  0.1749
  258TMC3    C6 3909   2.189   3.910  13.336 -0.6497 -0.3923 -0.2240
  258TMC3     C 3910   1.925   4.242  13.334  0.2099 -0.1042  0.7358
  258TMC3     O 3911   1.878   4.279  13.441  0.5218 -0.0922  0.5775
  258TMC3     H 3912   1.980   4.075  13.117 -0.8873  1.3465  0.9102
  258TMC3    H1 3913   2.026   4.108  13.545 -2.1234 -0.9395  0.2336
  258TMC3    H2 3914   2.276   3.846  13.343 -0.3929  0.1366  1.5481
  258TMC3    C7 3915   2.160   3.894  13.568  0.2969 -0.1662 -0.1635
  258TMC3    C8 3916   2.169   3.879  13.099 -0.2574 -0.0940  0.3648
  258TMC3    O1 3917   2.271   3.845  13.584 -0.0466 -0.5148 -0.0175
  258TMC3    O2 3918   2.231   3.777  13.119  0.0526  0.1586 -0.7967
  259MPD2     C 3919   4.545   1.984   0.778 -0.4826 -0.0135  0.0808
  259MPD2    C1 3920   4.682   1.969   0.813 -0.2864 -0.0130 -0.1441
  259MPD2    C2 3921   0.031   1.871   0.742  0.3787  0.3194  0.6788
  259MPD2    C3 3922   4.695   1.800   0.636  0.7299 -0.2806 -0.0145
  259MPD2    C4 3923   4.562   1.806   0.612  0.0864 -0.3799 -1.0310
  259MPD2    C5 3924   4.488   1.899   0.684 -0.3067  0.3528  0.4357
  259MPD2     H 3925   0.138   1.864   0.758  0.4768 -1.0403 -0.5918
  259MPD2    H1 3926   4.510   1.741   0.542  1.8576 -0.9757 -1.7952
  259MPD2    H2 3927   4.475   2.050   0.827  0.0729  0.6972 -0.0790
  259MPD2    H3 3928   4.380   1.905   0.676 -0.1903  1.8056  0.0329
  259MPD2     N 3929   0.058   1.701   0.582  0.0712 -0.6804  0.0889
  259MPD2    H5 3930   0.154   1.724   0.607  0.6169 -3.6827  0.7347
  259MPD2    N1 3931   4.716   2.030   0.934  0.1706 -0.2582 -0.3458
  259MPD2    H7 3932   4.643   2.075   0.989 -0.7211 -3.3112  0.9550
  260TMC3    C1 3933   0.142   1.539   0.437  0.3990  0.4003 -0.5533
  260TMC3    C2 3934   0.253   1.617   0.394  0.2935  0.0931  0.1961
  260TMC3    C3 3935   0.360   1.560   0.329 -0.2389 -0.2338 -0.6839
  260TMC3    C4 3936   0.139   1.407   0.405 -0.4080 -0.2851 -0.1187
  260TMC3    C5 3937   0.248   1.353   0.346  0.2222 -0.9315  0.1253
  260TMC3    C6 3938   0.358   1.427   0.315  0.4615  0.0869 -0.1836
  260TMC3     C 3939   0.026   1.599   0.502  0.3188  0.4282 -0.1255
  260TMC3     O 3940   4.640   1.549   0.479 -0.1003 -0.1091 -0.3732
  260TMC3     H 3941   0.249   1.725   0.401 -1.2793  0.0374  0.3201
  260TMC3    H1 3942   0.059   1.346   0.444  0.3773 -1.7873 -0.8693
  260TMC3    H2 3943   0.429   1.363   0.263 -0.8431  0.4936 -2.4953
  260TMC3    C7 3944   0.230   1.248   0.247 -0.1153 -0.0858  0.3097
  260TMC3    C8 3945   0.441   1.642   0.249  0.2188 -0.0513  0.4988
  260TMC3    O1 3946   0.310   1.156   0.231 -0.2500 -0.2774 -0.2096
  260TMC3    O2 3947   0.416   1.763   0.227  0.5199  0.1302  0.2045
  261MPD2     C 3948   2.400   4.414  11.819 -0.4248 -0.9688 -0.1360
  261MPD2    C1 3949   2.339   4.457  11.938  0.2324  0.5789  0.1211
  261MPD2    C2 3950   2.237   4.551  11.926  0.2327  0.6005 -0.4214
  261MPD2    C3 3951   2.203   4.606  11.806  0.2183 -1.0248 -0.3913
  261MPD2    C4 3952   2.273   4.560  11.695  0.2173  0.1281 -0.1577
  261MPD2    C5 3953   2.372   4.468  11.699 -0.0286  0.0651 -0.2686
  261MPD2     H 3954   2.197   4.602  12.013  2.2866  0.4184  0.6152
  261MPD2    H1 3955   2.239   4.593  11.598 -1.6843 -0.9938  0.1277
  261MPD2    H2 3956   2.471   4.331  11.822  0.3295 -0.4186 -2.5218
  261MPD2    H3 3957   2.413   4.438  11.604  0.5599 -1.4604  0.4554
  261MPD2     N 3958   2.118   0.004  11.808  0.2562 -0.1682 -0.2239
  261MPD2    H5 3959   2.066   0.036  11.888 -1.0233 -2.7398  0.0001
  261MPD2    N1 3960   2.396   4.409  12.060  0.2320  0.0883 -0.6281
  261MPD2    H7 3961   2.477   4.350  12.045  0.4243  0.3209 -0.4893
  262TMC3    C1 3962   2.061   0.221  11.713 -0.5361 -0.0171 -0.3421
  262TMC3    C2 3963   2.134   0.290  11.802  0.1619  0.0791 -0.0327
  262TMC3    C3 3964   2.146   0.428  11.782 -0.4753 -0.0970  0.3900
  262TMC3    C4 3965   2.017   0.272  11.599 -0.6878 -0.0865  0.6767
  262TMC3    C5 3966   2.056   0.394  11.568  0.7730  0.7653 -0.2950
  262TMC3    C6 3967   2.104   0.477  11.661  0.1111  0.1992  0.4867
  262TMC3     C 3968   2.110   0.085  11.699 -0.3570 -0.0980  0.3811
  262TMC3     O 3969   2.168   0.074  11.594 -0.4428  0.3305  0.5383
  262TMC3     H 3970   2.186   0.232  11.877 -1.0007  1.9521  2.2439
  262TMC3    H1 3971   1.993   0.207  11.515  0.8833  1.0840 -0.6872
  262TMC3    H2 3972   2.133   0.575  11.624  0.1006  0.2834  0.6968
  262TMC3    C7 3973   2.140   0.388  11.446  0.5859 -0.1955 -0.0199
  262TMC3    C8 3974   2.277   0.482  11.819  0.0554  0.1515  0.6205
  262TMC3    O1 3975   2.099   0.315  11.356 -0.0053 -0.4922 -0.1651
  262TMC3    O2 3976   2.333   0.554  11.737  0.1114  0.5143  0.4263
  263MPD2     C 3977   3.446   3.700  11.098 -0.7104 -0.0094 -0.1835
  263MPD2    C1 3978   3.544   3.785  11.154 -0.2630 -0.0866  0.3909
  263MPD2    C2 3979   3.574   3.901  11.085  0.1882 -0.6407  0.3572
  263MPD2    C3 3980   3.551   3.907  10.949 -0.3637 -0.0571  0.5391
  263MPD2    C4 3981   3.469   3.819  10.883 -0.2926 -0.0160  0.0002
  263MPD2    C5 3982   3.411   3.724  10.965  0.2986 -0.5260  0.3938
  263MPD2     H 3983   3.644   3.963  11.138  0.0856 -1.5874  1.6100
  263MPD2    H1 3984   3.439   3.819  10.778  1.0271  2.3506 -0.3619
  263MPD2    H2 3985   3.412   3.607  11.142  1.5114 -0.9047 -0.3530
  263MPD2    H3 3986   3.339   3.657  10.919 -0.2833  1.2543 -1.2514
  263MPD2     N 3987   3.607   4.016  10.885  0.4023 -0.6196  0.5671
  263MPD2    H5 3988   3.656   4.083  10.943 -1.0751 -1.0178  2.2871
  263MPD2    N1 3989   3.605   3.743  11.279  0.3940 -0.1142  0.1455
  263MPD2    H7 3990   3.577   3.652  11.314 -0.6970 -0.2783 -1.1758
  264TMC3    C1 3991   3.692   4.141  10.704 -0.5254 -0.6355 -0.4170
  264TMC3    C2 3992   3.684   4.261  10.757  0.5963 -1.1266 -0.6010
  264TMC3    C3 3993   3.782   4.349  10.727 -0.4050  0.4397  0.1920
  264TMC3    C4 3994   3.783   4.105  10.612 -0.3137  0.5354  0.4205
  264TMC3    C5 3995   3.874   4.200  10.578  0.3721  0.2289 -0.5960
  264TMC3    C6 3996   3.878   4.325  10.635  0.5170 -0.5747 -0.8029
  264TMC3     C 3997   3.599   4.039  10.748 -0.0703 -0.2494 -0.7532
  264TMC3     O 3998   3.555   3.971  10.660  1.0183  0.0921  0.5503
  264TMC3     H 3999   3.596   4.288  10.815  0.9022 -0.9883 -0.1992
  264TMC3    H1 4000   3.777   4.003  10.578  0.3590  0.9287 -0.8832
  264TMC3    H2 4001   3.951   4.396  10.598  1.0130 -0.8849 -0.4300
  264TMC3    C7 4002   3.981   4.181  10.479  0.0503 -0.2848  0.1873
  264TMC3    C8 4003   3.768   4.485  10.782  0.0512  1.0731  1.0531
  264TMC3    O1 4004   4.062   4.270  10.457  0.0840 -0.0526  0.1292
  264TMC3    O2 4005   3.829   4.577  10.727  0.1213  0.4160  0.0463
  265MPD2     C 4006   0.684   4.524  15.475  0.5170  0.3122  0.0655
  265MPD2    C1 4007   0.789   4.612  15.454 -0.3238  0.8787  0.7793
  265MPD2    C2 4008   0.886   4.575  15.365 -0.4043 -0.2049  0.1473
  265MPD2    C3 4009   0.880   4.457  15.295  0.1454  0.0928 -0.1816
  265MPD2    C4 4010   0.766   4.373  15.312 -0.1564 -0.1096 -0.4544
  265MPD2    C5 4011   0.678   4.408  15.404  0.0771  0.2394  0.2782
  265MPD2     H 4012   0.975   4.637  15.357 -0.7814  0.2147 -0.7472
  265MPD2    H1 4013   0.745   4.291  15.245  1.9882 -1.3578  0.3669
  265MPD2    H2 4014   0.601   4.545  15.542  0.9589  2.3432 -0.0064
  265MPD2    H3 4015   0.591   4.347  15.424 -0.4571  0.7849 -0.3677
  265MPD2     N 4016   0.974   4.400  15.205  0.8103  0.7552  0.0768
  265MPD2    H5 4017   0.954   4.317  15.150  0.1122 -0.5762  2.3313
  265MPD2    N1 4018   0.784   0.019  15.518 -0.7405  0.8439  0.5453
  265MPD2    H7 4019   0.863   0.078  15.493 -1.4698  2.1344  1.2722
  266TMC3    C1 4020   0.710   0.180  15.673 -0.0422 -0.8030  0.3699
  266TMC3    C2 4021   0.680   0.191  15.803 -0.2475  0.1774 -0.4258
  266TMC3    C3 4022   0.667   0.319  15.854  0.2935  0.5701  1.1476
  266TMC3    C4 4023   0.719   0.294  15.584  0.3132 -0.1106  0.1003
  266TMC3    C5 4024   0.717   0.416  15.646 -0.2929 -0.2259 -0.6933
  266TMC3    C6 4025   0.691   0.434  15.779  0.2693 -0.3916 -0.4210
  266TMC3     C 4026   0.690   0.060  15.613 -0.3482 -0.3860 -0.3447
  266TMC3     O 4027   0.588   0.013  15.658 -0.0631 -0.8684  0.3810
  266TMC3     H 4028   0.692   0.107  15.870 -1.5295  0.3363  0.0011
  266TMC3    H1 4029   0.708   0.270  15.479  2.1949 -0.8797  0.0840
  266TMC3    H2 4030   0.666   0.533  15.816 -1.3170 -1.1061  0.3832
  266TMC3    C7 4031   0.747   0.526  15.554 -0.3573 -0.3842  0.7588
  266TMC3    C8 4032   0.689   0.333  16.003  0.0098 -0.0167  0.3871
  266TMC3    O1 4033   0.719   0.512  15.438  0.3226  0.2730 -1.1069
  266TMC3    O2 4034   0.731   0.229  16.058  0.0469 -0.2473  0.3494
  267MPD2     C 4035   2.583   1.856   0.266  0.5734 -0.0444  0.4539
  267MPD2    C1 4036   2.639   1.980   0.265 -0.4351 -0.5031 -0.0837
  267MPD2    C2 4037   2.567   2.092   0.291  0.2687 -0.2174 -0.6931
  267MPD2    C3 4038   2.440   2.081   0.333 -1.1217  0.5863  0.7455
  267MPD2    C4 4039   2.386   1.958   0.342 -0.1745  0.1037  0.5438
  267MPD2    C5 4040   2.451   1.848   0.303 -0.0401 -0.6150 -0.3944
  267MPD2     H 4041   2.614   2.189   0.295 -0.2059 -0.0048 -0.1779
  267MPD2    H1 4042   2.289   1.928   0.379  0.1496 -0.0259  1.2972
  267MPD2    H2 4043   2.646   1.776   0.228  0.4389 -0.1118  0.3733
  267MPD2    H3 4044   2.396   1.755   0.299 -0.1565 -0.5008 -1.3986
  267MPD2     N 4045   2.360   2.191   0.359  0.0969  0.2016 -0.1624
  267MPD2    H5 4046   2.280   2.175   0.419  0.5532 -1.1641  0.0744
  267MPD2    N1 4047   2.778   1.990   0.229  0.1834 -0.3021  0.1327
  267MPD2    H7 4048   2.831   1.913   0.191  1.4302  0.9412 -0.6534
  268TMC3    C1 4049   2.994   2.068   0.176 -0.1914 -0.0133 -0.4944
  268TMC3    C2 4050   2.995   2.009   0.056  0.1923 -0.0192  0.0216
  268TMC3    C3 4051   3.105   1.942   0.018  1.0615  0.8028 -0.3969
  268TMC3    C4 4052   3.102   2.072   0.260 -0.1259  0.0866  0.0434
  268TMC3    C5 4053   3.216   2.005   0.220  0.1069 -0.7002 -0.2975
  268TMC3    C6 4054   3.214   1.931   0.106 -0.5265  0.5098  0.4829
  268TMC3     C 4055   2.858   2.100   0.235  0.4414 -0.3284 -0.3527
  268TMC3     O 4056   2.858   2.199   0.308 -0.6952  0.3781  0.5441
  268TMC3     H 4057   2.904   2.005  17.692  0.3586 -0.8962 -0.1770
  268TMC3    H1 4058   3.080   2.094   0.363  2.3108  1.7216  0.2183
  268TMC3    H2 4059   3.302   1.874   0.078 -1.6308 -0.3284 -1.2792
  268TMC3    C7 4060   3.282   1.927   0.338  0.1393  0.0541 -0.2174
  268TMC3    C8 4061   3.092   1.822  17.623  0.1672  0.1755 -0.1941
  268TMC3    O1 4062   3.309   1.810   0.309  0.2603  0.0175 -0.1037
  268TMC3    O2 4063   3.166   1.727  17.640  0.3109  0.3851 -0.6450
  269MPD2     C 4064   3.320   0.033  15.407 -0.5463 -0.3352  0.0869
  269MPD2    C1 4065   3.186   0.064  15.413  0.0569 -0.2075  0.1325
  269MPD2    C2 4066   3.147   0.199  15.398 -0.5259  0.4077 -0.4528
  269MPD2    C3 4067   3.240   0.288  15.362 -0.8118  0.1624 -0.8614
  269MPD2    C4 4068   3.371   0.260  15.356  0.1447 -0.4587 -0.8553
  269MPD2    C5 4069   3.408   0.132  15.381  0.3764  0.4054 -0.1990
  269MPD2     H 4070   3.043   0.231  15.403 -0.5818  0.1269  0.2974
  269MPD2    H1 4071   3.452   0.330  15.340  0.8550 -1.1895 -0.4538
  269MPD2    H2 4072   3.352   4.655  15.429  1.8195  0.8201  1.9246
  269MPD2    H3 4073   3.512   0.105  15.389 -0.0670 -0.8296  1.5850
  269MPD2     N 4074   3.190   0.419  15.346 -0.0727 -0.3190 -0.3217
  269MPD2    H5 4075   3.092   0.436  15.367 -0.5791 -2.9415 -0.6353
  269MPD2    N1 4076   3.093   4.682  15.429 -0.3580 -0.1906 -0.7240
  269MPD2    H7 4077   3.137   4.590  15.429 -0.5166 -0.2703  0.2002
  270TMC3    C1 4078   2.908   4.569  15.491 -0.3314  0.7778  0.0476
  270TMC3    C2 4079   2.786   4.538  15.437  0.3832  0.0960  0.1405
  270TMC3    C3 4080   2.757   4.410  15.401  0.5685 -0.6216 -0.8943
  270TMC3    C4 4081   3.004   4.476  15.517 -0.6408 -0.2871 -0.3324
  270TMC3    C5 4082   2.975   4.349  15.468 -0.3707 -0.5306  0.0846
  270TMC3    C6 4083   2.854   4.313  15.413  0.0194 -0.0028  0.0339
  270TMC3     C 4084   2.959   4.695  15.444 -0.0129  0.7909 -0.5827
  270TMC3     O 4085   2.887   0.069  15.442  0.5857  0.0384  0.0207
  270TMC3     H 4086   2.708   4.610  15.416  1.2565 -0.0029 -3.4569
  270TMC3    H1 4087   3.091   4.498  15.578 -0.2621  0.2754 -1.0728
  270TMC3    H2 4088   2.834   4.212  15.378 -1.4938  0.2239  0.2581
  270TMC3    C7 4089   3.089   4.260  15.447  0.5235  0.4514 -0.0923
  270TMC3    C8 4090   2.662   4.390  15.300 -0.0699  0.1232  0.7860
  270TMC3    O1 4091   3.201   4.310  15.442  0.1122 -0.3061 -0.3021
  270TMC3    O2 4092   2.548   4.425  15.314  0.3191  0.4467  0.1013
  271MPD2     C 4093   2.148   4.720  13.619  0.4113  0.1559  0.0107
  271MPD2    C1 4094   2.102   4.697  13.750 -0.4832 -0.2756  0.7015
  271MPD2    C2 4095   1.965   4.717  13.774 -0.2574  0.9092  0.6238
  271MPD2    C3 4096   1.886   0.064  13.682 -0.2975  0.4085 -0.2889
  271MPD2    C4 4097   1.948   0.113  13.566 -0.0100  0.1486 -0.3694
  271MPD2    C5 4098   2.068   0.059  13.529 -0.6310  0.0826  0.0377
  271MPD2     H 4099   1.924   4.679  13.866 -0.5632  0.3500  0.2595
  271MPD2    H1 4100   1.898   0.177  13.493 -0.9614 -2.1272 -1.7196
  271MPD2    H2 4101   2.248   4.693  13.587  1.0966  0.5472  1.8237
  271MPD2    H3 4102   2.102   0.084  13.429 -0.0607 -2.5056 -0.4168
  271MPD2     N 4103   1.751   0.102  13.703 -0.3421  0.3848  0.1781
  271MPD2    H5 4104   1.722   0.182  13.647 -1.5733 -0.8168 -0.8970
  271MPD2    N1 4105   2.177   4.649  13.861  0.0479 -0.1601  0.0190
  271MPD2    H7 4106   2.130   4.629  13.949 -1.0275 -0.0364 -0.5336
  272TMC3    C1 4107   2.375   4.565  13.956 -0.6804  0.0118 -0.5231
  272TMC3    C2 4108   2.488   4.491  13.929  0.2837 -0.2812  0.0391
  272TMC3    C3 4109   2.547   4.424  14.031  0.0761  0.6134 -0.6111
  272TMC3    C4 4110   2.323   4.579  14.082 -0.1769  0.6972  0.4600
  272TMC3    C5 4111   2.383   4.515  14.181 -0.1107  0.2324 -0.0977
  272TMC3    C6 4112   2.487   4.427  14.151  0.6222  0.2596 -0.2229
  272TMC3     C 4113   2.313   4.622  13.842  0.0356 -0.0542  1.4237
  272TMC3     O 4114   2.385   4.670  13.761  0.0090 -0.3744  0.1247
  272TMC3     H 4115   2.548   4.511  13.842 -0.1601  1.4553  0.1333
  272TMC3    H1 4116   2.241   4.647  14.099 -1.3826 -0.2443 -1.6199
  272TMC3    H2 4117   2.542   4.381  14.232  2.1791  1.0566 -0.8047
  272TMC3    C7 4118   2.310   4.500  14.301 -0.7848 -0.3148  0.3562
  272TMC3    C8 4119   2.670   4.357  13.994 -0.0590 -0.2846  0.5011
  272TMC3    O1 4120   2.189   4.497  14.306  0.1301  0.5263  0.1976
  272TMC3    O2 4121   2.686   4.341  13.873 -0.5910 -0.2111 -0.0682
  273MPD2     C 4122   4.375   2.809  11.607  0.3331  0.7236 -0.1945
  273MPD2    C1 4123   4.445   2.920  11.563 -0.1323 -0.2500  0.2684
  273MPD2    C2 4124   4.480   2.929  11.430  0.3629 -0.3548  0.2645
  273MPD2    C3 4125   4.440   2.831  11.340 -0.2756  0.0933 -0.5737
  273MPD2    C4 4126   4.370   2.723  11.386  0.2538 -0.4565  0.0320
  273MPD2    C5 4127   4.349   2.706  11.522  0.8685 -0.1715  0.0796
  273MPD2     H 4128   4.521   3.023  11.395 -1.1582  0.0256 -0.4883
  273MPD2    H1 4129   4.338   2.642  11.322 -2.1656 -1.5600  2.6422
  273MPD2    H2 4130   4.354   2.791  11.712  0.2092  1.8342 -0.0294
  273MPD2    H3 4131   4.301   2.620  11.567  0.4770  0.7272  1.4024
  273MPD2     N 4132   4.465   2.860  11.206 -0.3060 -0.0945 -0.0118
  273MPD2    H5 4133   4.520   2.943  11.190 -2.5074  1.3846  0.0540
  273MPD2    N1 4134   4.466   3.026  11.652  0.4042 -0.1284 -0.3524
  273MPD2    H7 4135   4.411   3.020  11.737  2.9074 -0.8541  1.1867
  274TMC3    C1 4136   4.376   2.920  10.995 -0.6242  0.7729 -0.2251
  274TMC3    C2 4137   4.301   2.892  10.881 -0.0920 -0.0432  0.2297
  274TMC3    C3 4138   4.244   2.993  10.801 -0.3846 -0.5050  0.5944
  274TMC3    C4 4139   4.390   3.052  11.029 -0.2231 -0.3188 -0.4823
  274TMC3    C5 4140   4.329   3.146  10.953  0.5060  0.6379  0.8070
  274TMC3    C6 4141   4.261   3.116  10.836  0.6364  0.2979  0.3860
  274TMC3     C 4142   4.398   2.816  11.097 -0.0437 -0.6332 -0.3287
  274TMC3     O 4143   4.333   2.714  11.077 -0.2384 -0.5737  0.0545
  274TMC3     H 4144   4.289   2.787  10.855  0.9003 -0.7246  2.4899
  274TMC3    H1 4145   4.434   3.085  11.122 -3.0330  0.8314  0.4213
  274TMC3    H2 4146   4.215   3.192  10.772  1.9000  0.3886 -0.4073
  274TMC3    C7 4147   4.279   3.255  11.027  0.6138 -1.0719 -0.2108
  274TMC3    C8 4148   4.110   2.981  10.754 -0.7025  0.4360 -0.0844
  274TMC3    O1 4149   4.161   3.259  11.044  0.1846  0.1668 -0.4485
  274TMC3    O2 4150   4.034   3.049  10.824 -0.3996  0.2772 -0.5430
  275MPD2     C 4151   3.647   1.078  14.328  0.6840 -0.0370  0.3201
  275MPD2    C1 4152   3.596   1.016  14.439 -0.5508 -0.2476  0.3250
  275MPD2    C2 4153   3.459   0.974  14.437  0.3091  0.0484 -0.5380
  275MPD2    C3 4154   3.385   0.979  14.324 -0.9605  0.1362 -0.0396
  275MPD2    C4 4155   3.441   1.037  14.212  0.3671 -0.0136 -0.1957
  275MPD2    C5 4156   3.571   1.088  14.221 -0.1254  0.6937  0.8948
  275MPD2     H 4157   3.421   0.941  14.532 -0.7959  1.5294 -0.4721
  275MPD2    H1 4158   3.393   1.048  14.115  0.9898  2.5942 -0.2120
  275MPD2    H2 4159   3.749   1.108  14.308  0.6567  0.6690  1.2477
  275MPD2    H3 4160   3.604   1.145  14.134  1.2056  0.8572  1.5151
  275MPD2     N 4161   3.251   0.942  14.307 -0.0223 -0.1266  0.3218
  275MPD2    H5 4162   3.206   0.958  14.218  1.5423  0.6915 -0.3223
  275MPD2    N1 4163   3.667   0.986  14.555  0.7732  0.4199  0.7339
  275MPD2    H7 4164   3.613   0.930  14.620  1.2693 -2.7081 -1.6034
  276TMC3    C1 4165   3.851   0.956  14.706  0.3101  0.3884 -0.1855
  276TMC3    C2 4166   3.785   0.861  14.773  0.2633  0.6863 -0.6203
  276TMC3    C3 4167   3.832   0.815  14.894 -0.0759 -0.2222 -0.1421
  276TMC3    C4 4168   3.949   1.023  14.767 -0.6300 -0.1711  0.2429
  276TMC3    C5 4169   3.986   0.984  14.895  0.3213 -0.4222 -0.2260
  276TMC3    C6 4170   3.930   0.880  14.962 -0.1022 -0.2727  0.2678
  276TMC3     C 4171   3.801   1.002  14.575  0.3674 -0.1161  0.1391
  276TMC3     O 4172   3.881   1.043  14.493 -0.3864  0.4427  0.5496
  276TMC3     H 4173   3.697   0.817  14.725  0.3882 -1.3721  1.0091
  276TMC3    H1 4174   3.995   1.103  14.709  1.1355  0.8215  2.9976
  276TMC3    H2 4175   3.965   0.836  15.054 -0.3821 -1.3498 -0.1447
  276TMC3    C7 4176   4.099   1.045  14.956 -0.4624 -0.0826  0.3234
  276TMC3    C8 4177   3.758   0.712  14.959 -0.1019  0.7636 -0.3335
  276TMC3    O1 4178   4.117   1.057  15.074  0.3902  0.2407  0.8147
  276TMC3    O2 4179   3.746   0.726  15.078  0.9128  0.0198 -0.0456
  277MPD2     C 4180   1.252   4.354  13.385  0.1858  0.0966 -0.0245
  277MPD2    C1 4181   1.124   4.388  13.358  0.7270 -0.1837 -0.3594
  277MPD2    C2 4182   1.035   4.383  13.464  0.3542 -0.0436 -0.3881
  277MPD2    C3 4183   1.072   4.348  13.592 -0.3164 -0.2565 -0.1356
  277MPD2    C4 4184   1.201   4.313  13.619 -0.8781 -0.1442 -0.7209
  277MPD2    C5 4185   1.286   4.320  13.513  0.2467  0.7559  0.2684
  277MPD2     H 4186   0.933   4.416  13.445  0.0023 -0.7104  0.3252
  277MPD2    H1 4187   1.252   4.277  13.708 -2.6028  0.0946  0.3507
  277MPD2    H2 4188   1.326   4.339  13.307 -1.8439  1.2380 -2.1616
  277MPD2    H3 4189   1.386   4.281  13.524 -0.9968 -2.2458  1.0852
  277MPD2     N 4190   0.976   4.352  13.691 -0.0193  0.0544 -0.1731
  277MPD2    H5 4191   0.880   4.379  13.669  0.5265  2.2760  0.1863
  277MPD2    N1 4192   1.077   4.414  13.228  0.2236 -0.3159 -0.1153
  277MPD2    H7 4193   1.145   4.439  13.157 -0.5389  2.2030  0.0491
  278TMC3    C1 4194   0.867   4.282  13.873 -0.5653 -0.0212 -0.5224
  278TMC3    C2 4195   0.837   4.145  13.896 -0.2065 -0.0702 -0.2319
  278TMC3    C3 4196   0.705   4.105  13.859  0.4837  0.1997  0.0454
  278TMC3    C4 4197   0.764   4.369  13.838  0.0169 -0.0321 -0.1047
  278TMC3    C5 4198   0.636   4.321  13.833 -0.8568 -0.8257 -0.1437
  278TMC3    C6 4199   0.604   4.191  13.838  0.3901  0.1649 -0.3632
  278TMC3     C 4200   0.999   4.300  13.815 -0.0544 -0.0481 -0.1312
  278TMC3     O 4201   1.089   4.234  13.864 -0.6950  0.9921  0.1489
  278TMC3     H 4202   0.919   4.076  13.909  0.7695  0.2720 -4.4478
  278TMC3    H1 4203   0.792   4.474  13.838 -0.0560 -0.0160  0.6000
  278TMC3    H2 4204   0.502   4.154  13.841 -0.4318  2.4341 -0.9020
  278TMC3    C7 4205   0.534   4.412  13.867  0.1443 -0.3268  0.2660
  278TMC3    C8 4206   0.701   3.982  13.789  0.1948  0.3516  0.6305
  278TMC3    O1 4207   0.557   4.523  13.910  0.3338  0.2862  0.7188
  278TMC3    O2 4208   0.777   3.895  13.831 -0.0290  0.1134  0.5591
  279MPD2     C 4209   0.066   0.717  17.681  0.5604  0.1751 -0.3988
  279MPD2    C1 4210   0.011   0.607  17.620  0.1619  0.1284 -0.4897
  279MPD2    C2 4211   0.106   0.533  17.547 -0.1644  0.1627  0.3214
  279MPD2    C3 4212   0.239   0.568  17.523  0.2875 -0.0779  0.6024
  279MPD2    C4 4213   0.288   0.669  17.597  0.3511 -0.0733 -0.0115
  279MPD2    C5 4214   0.198   0.742  17.672  0.1827 -0.1836  0.1404
  279MPD2     H 4215   0.064   0.441  17.508  2.4198 -1.1707  0.6266
  279MPD2    H1 4216   0.392   0.697  17.592  0.4458 -0.8216 -2.0941
  279MPD2    H2 4217   0.013   0.786   0.052 -0.0963 -1.7792  1.1420
  279MPD2    H3 4218   0.239   0.824   0.037 -1.2622  1.0455 -0.5753
  279MPD2     N 4219   0.325   0.507  17.423 -0.1198 -0.1268  0.3875
  279MPD2    H5 4220   0.424   0.529  17.418  0.1757 -0.8239  3.3980
  279MPD2    N1 4221   4.595   0.581  17.630 -0.2724  0.3798  0.1870
  279MPD2    H7 4222   4.536   0.658  17.660 -0.3528  1.2240 -2.1882
  280TMC3    C1 4223   4.393   0.458  17.581  0.3101 -0.0398 -0.6873
  280TMC3    C2 4224   4.333   0.340  17.613  0.2183  0.8019  0.1043
  280TMC3    C3 4225   4.240   0.294  17.526  0.1270 -0.6379  0.4195
  280TMC3    C4 4226   4.338   0.542  17.487 -0.3283  0.2985 -0.2198
  280TMC3    C5 4227   4.232   0.492  17.405 -0.1133 -0.1081  0.3045
  280TMC3    C6 4228   4.191   0.368  17.422 -0.2437  0.0228 -0.1999
  280TMC3     C 4229   4.537   0.460  17.610  0.9851 -0.0532 -0.4647
  280TMC3     O 4230   4.602   0.351  17.598 -0.0056  0.4572  0.0587
  280TMC3     H 4231   4.366   0.289   0.010  0.2065 -0.1081 -0.4102
  280TMC3    H1 4232   4.383   0.633  17.449  1.8649 -0.7430 -0.1276
  280TMC3    H2 4233   4.127   0.316  17.352 -2.6542  1.1085  1.1535
  280TMC3    C7 4234   4.197   0.567  17.282 -0.5583  0.6131 -0.1036
  280TMC3    C8 4235   4.247   0.155  17.496 -0.0364 -0.4078  0.3855
  280TMC3    O1 4236   4.262   0.665  17.249  0.0778 -1.0817 -0.8076
  280TMC3    O2 4237   4.157   0.111  17.427  0.0495 -0.2892 -0.2721
  281TMC3    C1 4238   2.921   0.366  13.555 -0.0916 -0.3012 -0.2638
  281TMC3    C2 4239   3.042   0.375  13.624 -0.3866  0.3205  0.1074
  281TMC3    C3 4240   3.117   0.261  13.628  0.4142  0.8079 -0.6846
  281TMC3    C4 4241   2.875   0.246  13.510  0.7294 -0.4964 -0.7296
  281TMC3    C5 4242   2.943   0.130  13.540 -0.5096 -0.3567 -0.6549
  281TMC3    C6 4243   3.066   0.140  13.598 -0.2643 -0.5058 -0.2556
  281TMC3     C 4244   2.858   0.486  13.495  0.7727  0.0563 -0.3968
  281TMC3     O 4245   2.780   0.466  13.404 -0.6029 -0.8757 -0.2331
  281TMC3     H 4246   3.087   0.469  13.653  0.1487  0.2056 -0.3538
  281TMC3    H1 4247   2.782   0.242  13.453 -0.4851  2.3381  1.0258
  281TMC3    H2 4248   3.137   0.059  13.585  0.0407 -0.6344  2.1914
  281TMC3    C7 4249   2.889   0.006  13.489  0.1715 -0.4882  0.1200
  281TMC3    C8 4250   3.260   0.274  13.639 -0.5050  0.2936  0.0228
  281TMC3    O1 4251   2.783   0.007  13.424 -0.0612 -0.2373 -0.2726
  281TMC3    O2 4252   3.317   0.176  13.687  0.1412  0.1051  0.5461
  282MPD2     C 4253   0.762   1.717  14.898 -0.3265 -0.5719  0.3366
  282MPD2    C1 4254   0.631   1.753  14.939  0.1062  0.2941 -0.4677
  282MPD2    C2 4255   0.529   1.748  14.849 -0.1091  0.4037 -0.0094
  282MPD2    C3 4256   0.549   1.703  14.715 -0.5174  0.4938  0.7515
  282MPD2    C4 4257   0.673   1.666  14.681  0.5730  0.1661  0.2487
  282MPD2    C5 4258   0.774   1.671  14.771  0.5163 -0.0772 -0.1343
  282MPD2     H 4259   0.433   1.788  14.880 -0.4979 -0.4612 -0.1166
  282MPD2    H1 4260   0.692   1.619  14.585 -2.2732  1.9325 -1.1741
  282MPD2    H2 4261   0.845   1.721  14.968  0.0335  0.4554 -0.1514
  282MPD2    H3 4262   0.874   1.648  14.737 -0.5682 -0.9569 -2.6613
  282MPD2     N 4263   0.437   1.715  14.622 -0.0650 -0.3159 -0.3127
  282MPD2    H5 4264   0.346   1.742  14.657 -0.1567 -2.3600  1.0310
  282MPD2    N1 4265   0.600   1.798  15.074  0.1551  0.2541 -0.2514
  282MPD2    H7 4266   0.501   1.803  15.095  0.5581  0.4824  1.6479
  283TMC3    C1 4267   0.619   1.868  15.294  0.1652  0.1568  0.2396
  283TMC3    C2 4268   0.661   1.990  15.349 -0.1122  0.0694  0.0462
  283TMC3    C3 4269   0.614   2.008  15.478 -0.0884 -0.2012  0.1377
  283TMC3    C4 4270   0.533   1.774  15.353 -0.1531 -0.3572  0.0148
  283TMC3    C5 4271   0.494   1.797  15.483 -0.0060 -0.0403  0.4200
  283TMC3    C6 4272   0.537   1.909  15.549  0.0039 -0.3041 -0.7889
  283TMC3     C 4273   0.686   1.836  15.172  0.1515  0.8120 -0.2092
  283TMC3     O 4274   0.806   1.866  15.166  0.4445  0.6327  0.1049
  283TMC3     H 4275   0.724   2.061  15.298  1.1671 -1.3270 -0.2946
  283TMC3    H1 4276   0.495   1.695  15.290 -1.1690  0.6171 -0.5918
  283TMC3    H2 4277   0.491   1.937  15.643  0.0292  0.2386 -0.9380
  283TMC3    C7 4278   0.399   1.712  15.552 -0.6055 -0.7362  0.8394
  283TMC3    C8 4279   0.598   2.143  15.525  0.3721 -0.0031 -0.0352
  283TMC3    O1 4280   0.369   1.742  15.666 -1.0523 -0.2551 -0.7667
  283TMC3    O2 4281   0.584   2.159  15.648  0.0716  0.1847 -0.5229
  284MPD2     C 4282   3.632   0.839  12.288 -0.0131  0.6014  1.0405
  284MPD2    C1 4283   3.540   0.815  12.191 -0.3066 -0.4807 -0.1344
  284MPD2    C2 4284   3.485   0.682  12.194 -0.0576  0.8666  0.2201
  284MPD2    C3 4285   3.517   0.588  12.293 -0.7018  0.1572  0.1252
  284MPD2    C4 4286   3.607   0.621  12.392  0.4705  0.0134  0.5888
  284MPD2    C5 4287   3.667   0.747  12.386 -0.7460 -0.5485  0.5308
  284MPD2     H 4288   3.423   0.661  12.107  0.8086  1.0029 -0.4364
  284MPD2    H1 4289   3.628   0.555  12.475  2.2462  0.9577  0.8840
  284MPD2    H2 4290   3.687   0.932  12.283 -1.1398  1.1771 -0.6162
  284MPD2    H3 4291   3.739   0.783  12.459  0.7281  1.0173 -1.6994
  284MPD2     N 4292   3.455   0.461  12.300 -0.5493  0.4780  0.2324
  284MPD2    H5 4293   3.493   0.397  12.369  0.6721 -2.7452 -3.4402
  284MPD2    N1 4294   3.506   0.910  12.095  0.5731  0.5884 -0.4681
  284MPD2    H7 4295   3.447   0.875  12.020  0.9070  0.6149 -0.7388
  285TMC3    C1 4296   3.532   1.098  11.953 -0.3513 -0.2200 -0.2692
  285TMC3    C2 4297   3.554   1.016  11.844  0.2124  0.6273 -0.2109
  285TMC3    C3 4298   3.614   1.070  11.734 -0.2780 -0.0589  0.1558
  285TMC3    C4 4299   3.567   1.232  11.948  0.5934  0.4047 -0.1908
  285TMC3    C5 4300   3.588   1.287  11.826 -0.5790 -1.4449 -0.3938
  285TMC3    C6 4301   3.615   1.205  11.721 -0.5097  0.0404  1.1642
  285TMC3     C 4302   3.550   1.040  12.084  1.0515 -0.3068  0.6548
  285TMC3     O 4303   3.605   1.100  12.173  0.7575 -0.3874 -0.2645
  285TMC3     H 4304   3.566   0.908  11.851 -0.7380  0.4909 -0.6800
  285TMC3    H1 4305   3.554   1.296  12.034 -2.1563  1.9085 -1.7395
  285TMC3    H2 4306   3.624   1.250  11.623 -0.0828  0.2012  1.2807
  285TMC3    C7 4307   3.528   1.413  11.806 -0.1557 -0.0583  0.2473
  285TMC3    C8 4308   3.651   0.998  11.612 -0.0451 -1.0061 -0.1213
  285TMC3    O1 4309   3.581   1.476  11.720 -0.2414  0.1264  0.4021
  285TMC3    O2 4310   3.608   0.887  11.595  0.2921 -0.5699 -0.1851
  286MPD2     C 4311   3.666   0.277   1.304 -0.0819 -0.1428  1.0011
  286MPD2    C1 4312   3.671   0.252   1.164  0.3877 -0.2467 -0.5837
  286MPD2    C2 4313   3.779   0.185   1.119  0.4224 -0.0025  0.3944
  286MPD2    C3 4314   3.881   0.133   1.206 -0.0158  0.3258 -0.8869
  286MPD2    C4 4315   3.871   0.151   1.345  0.2059  0.0568  0.5180
  286MPD2    C5 4316   3.763   0.228   1.389  0.1324  0.8233  0.1419
  286MPD2     H 4317   3.792   0.181   1.012 -2.7331 -1.9430  0.0977
  286MPD2    H1 4318   3.948   0.117   1.414 -0.4859 -1.8665  0.3378
  286MPD2    H2 4319   3.586   0.330   1.354 -0.5729  0.4716 -0.4409
  286MPD2    H3 4320   3.758   0.255   1.494 -0.9166 -0.2803  0.3703
  286MPD2     N 4321   3.996   0.067   1.162  0.2550 -0.2816 -0.0821
  286MPD2    H5 4322   4.065   0.034   1.229  0.9199 -1.2312 -1.2413
  286MPD2    N1 4323   3.584   0.310   1.063  0.3164 -0.0702  0.1863
  286MPD2    H7 4324   3.610   0.298   0.966 -1.3191 -0.3350 -0.2143
  287TMC3    C1 4325   4.151   4.707   1.006 -0.8646 -0.2932  0.0937
  287TMC3    C2 4326   4.169   4.642   0.893  0.9290 -0.2260  0.2872
  287TMC3    C3 4327   4.292   4.611   0.841 -0.1503  0.2485 -0.1305
  287TMC3    C4 4328   4.256   0.019   1.084 -0.2237  0.0781  0.4785
  287TMC3    C5 4329   4.383   4.695   1.041 -0.5461  0.0347  0.1129
  287TMC3    C6 4330   4.408   4.642   0.913  0.0547  0.1795  0.1658
  287TMC3     C 4331   4.023   0.044   1.029 -0.6285 -0.0442  0.4206
  287TMC3     O 4332   3.944   0.049   0.932  0.2162  0.7097  0.0335
  287TMC3     H 4333   4.083   4.602   0.840  2.0313 -2.2282 -0.0104
  287TMC3    H1 4334   4.245   0.085   1.169 -2.2621  2.3933 -1.6049
  287TMC3    H2 4335   4.507   4.623   0.874  0.2536 -2.2735  1.8929
  287TMC3    C7 4336   4.489   4.701   1.137 -0.4503 -0.5228  0.0878
  287TMC3    C8 4337   4.301   4.532   0.721  0.2501 -0.5508 -0.1201
  287TMC3    O1 4338   4.482   0.046   1.243 -0.8492 -0.3146  0.0402
  287TMC3    O2 4339   4.216   4.447   0.702 -0.6594 -0.1292 -0.2269
  288TMC3    C1 4340   1.119   4.259  14.232 -0.0210 -0.3972 -0.0808
  288TMC3    C2 4341   1.067   4.258  14.354  0.3465  0.8004 -0.4572
  288TMC3    C3 4342   1.055   4.385  14.407  0.3421  0.0578 -0.7394
  288TMC3    C4 4343   1.135   4.364  14.158  0.1613  0.4179 -0.4111
  288TMC3    C5 4344   1.117   4.490  14.213  0.5298 -0.6521 -0.0957
  288TMC3    C6 4345   1.083   4.502  14.347 -0.0806 -0.3825 -0.2762
  288TMC3     C 4346   1.204   4.144  14.202  0.5579 -0.0541 -0.8487
  288TMC3     O 4347   1.222   4.063  14.291 -0.2364  0.3469  0.5468
  288TMC3     H 4348   1.068   4.172  14.419 -0.3218  0.0399 -1.4472
  288TMC3    H1 4349   1.180   4.361  14.060  0.4468  1.4918 -0.3187
  288TMC3    H2 4350   1.060   4.594  14.399 -0.8553  0.5691 -2.3028
  288TMC3    C7 4351   1.196   4.598  14.145 -0.2048 -0.4186 -0.3614
  288TMC3    C8 4352   0.978   4.391  14.530  0.3864 -0.1034 -0.3446
  288TMC3    O1 4353   1.261   4.567  14.042 -0.3615 -0.3072 -0.3788
  288TMC3    O2 4354   0.949   4.503  14.571 -0.0311 -0.2895  0.7505
  289MPD2     C 4355   1.124   3.257  14.469 -0.2888  0.7682  0.4064
  289MPD2    C1 4356   1.109   3.386  14.426  0.0101 -1.0538  0.0319
  289MPD2    C2 4357   1.005   3.417  14.336 -0.0120  0.3013 -0.0261
  289MPD2    C3 4358   0.920   3.318  14.286 -0.5705 -0.8746  1.0762
  289MPD2    C4 4359   0.933   3.190  14.339  0.1765  0.1890 -0.8868
  289MPD2    C5 4360   1.032   3.161  14.433  0.8815  0.5732 -0.1532
  289MPD2     H 4361   0.990   3.524  14.329  1.8003  0.3569 -3.4166
  289MPD2    H1 4362   0.874   3.103  14.313 -1.0439  0.4195  1.1002
  289MPD2    H2 4363   1.202   3.222  14.534  0.4894  1.6711 -0.0403
  289MPD2    H3 4364   1.043   3.056  14.453 -0.3388  0.4908  0.0925
  289MPD2     N 4365   0.820   3.342  14.187 -0.0374 -0.0700 -0.0396
  289MPD2    H5 4366   0.752   3.272  14.158 -0.9286 -0.0527  1.9988
  289MPD2    N1 4367   1.181   3.489  14.494 -0.0080 -0.6004  0.0685
  289MPD2    H7 4368   1.243   3.471  14.572 -1.0839 -0.9802  0.8347
  290TMC3    C1 4369   0.683   3.464  14.051  0.1755 -0.0440  1.1733
  290TMC3    C2 4370   0.607   3.582  14.075 -0.1048  0.1380 -0.1989
  290TMC3    C3 4371   0.493   3.594  14.000 -0.4523 -0.0016  0.2302
  290TMC3    C4 4372   0.657   3.377  13.947 -0.6487  0.7836  0.6165
  290TMC3    C5 4373   0.534   3.388  13.888 -0.0739 -0.6501 -0.3460
  290TMC3    C6 4374   0.450   3.497  13.916  0.7433 -0.2896 -0.2362
  290TMC3     C 4375   0.801   3.462  14.126  0.6174  0.9912  0.4089
  290TMC3     O 4376   0.854   3.571  14.139 -0.2476  0.0427  0.3696
  290TMC3     H 4377   0.632   3.645  14.160  0.1133  0.5108 -0.5451
  290TMC3    H1 4378   0.722   3.293  13.930  0.4529  1.3250  2.1039
  290TMC3    H2 4379   0.352   3.507  13.871  0.3133 -1.2570  0.4831
  290TMC3    C7 4380   0.475   3.279  13.812 -0.2587 -0.4475 -0.7503
  290TMC3    C8 4381   0.402   3.708  14.019  1.0085 -0.5011 -0.1820
  290TMC3    O1 4382   0.407   3.308  13.716 -0.5890  0.1015 -0.4283
  290TMC3    O2 4383   0.287   3.690  13.979 -0.6072 -0.4820  0.0378
  291MPD2     C 4384   0.049   3.227   0.040 -0.4947 -0.2083 -0.4491
  291MPD2    C1 4385   0.019   3.091   0.058  0.3014 -0.2337 -0.6629
  291MPD2    C2 4386   0.124   2.998   0.067 -0.1914  0.6384 -0.5074
  291MPD2    C3 4387   0.253   3.048   0.084  0.0260 -0.5623  0.4226
  291MPD2    C4 4388   0.286   3.183   0.079  0.4872 -0.0381  1.2862
  291MPD2    C5 4389   0.183   3.266   0.044  0.2236 -0.2898  0.4316
  291MPD2     H 4390   0.105   2.892   0.064  1.1121  0.4077 -0.4599
  291MPD2    H1 4391   0.384   3.218   0.109  2.3906 -2.1889 -2.4417
  291MPD2    H2 4392   4.695   3.301   0.022 -1.1093 -0.6809  0.2089
  291MPD2    H3 4393   0.199   3.373   0.039  0.5855 -0.3653 -0.0131
  291MPD2     N 4394   0.358   2.958   0.123  0.3824  0.4193 -0.4507
  291MPD2    H5 4395   0.452   2.997   0.112  0.1560  1.2765  0.5995
  291MPD2    N1 4396   4.610   3.039   0.055  0.3995 -0.3406 -0.0505
  291MPD2    H7 4397   4.610   2.938   0.056 -2.4263 -0.3181  0.3743
  292TMC3    C1 4398   4.378   3.022   0.055  0.2130 -0.3491  0.4752
  292TMC3    C2 4399   4.257   3.060   0.108 -1.0201  0.1401  0.8852
  292TMC3    C3 4400   4.143   3.009   0.062  0.2656  0.2045 -0.2214
  292TMC3    C4 4401   4.385   2.923  17.654 -0.1615  0.5993 -0.6713
  292TMC3    C5 4402   4.260   2.872  17.615  0.4965  0.6121 -0.4277
  292TMC3    C6 4403   4.133   2.917  17.653 -0.3841  0.0486  0.3057
  292TMC3     C 4404   4.500   3.102   0.072 -0.6120 -0.1766  0.0182
  292TMC3     O 4405   4.486   3.217   0.116  0.1604 -0.1516 -0.0430
  292TMC3     H 4406   4.266   3.139   0.181  1.0720  0.6151  0.1092
  292TMC3    H1 4407   4.469   2.898  17.591 -1.2256 -1.0609 -1.4388
  292TMC3    H2 4408   4.036   2.881  17.620 -0.0608  0.6978 -1.3683
  292TMC3    C7 4409   4.262   2.743  17.548  0.5950  0.2508  0.0901
  292TMC3    C8 4410   4.031   3.032   0.154 -0.0433  0.3968 -0.0432
  292TMC3    O1 4411   4.366   2.690  17.512  0.6099 -0.3430  0.1964
  292TMC3    O2 4412   3.922   3.016   0.104 -0.4214 -0.3261 -0.1739
  293MPD2     C 4413   2.246   4.190  12.488  0.1603 -0.7429 -0.6402
  293MPD2    C1 4414   2.170   4.298  12.522  0.4791 -0.3152 -0.2592
  293MPD2    C2 4415   2.178   4.341  12.654 -0.0209 -0.9966 -0.7925
  293MPD2    C3 4416   2.256   4.279  12.748 -0.0211 -0.3350 -0.4471
  293MPD2    C4 4417   2.327   4.166  12.709  0.7666  0.1227  0.5120
  293MPD2    C5 4418   2.331   4.130  12.581 -0.6316  0.4900 -0.2538
  293MPD2     H 4419   2.134   4.439  12.668  0.7371 -1.1412  2.7100
  293MPD2    H1 4420   2.398   4.113  12.772 -0.3832  0.6696  2.2565
  293MPD2    H2 4421   2.236   4.143  12.391 -2.1002 -1.7182  0.0627
  293MPD2    H3 4422   2.378   4.037  12.553  0.4469  0.5687  1.2525
  293MPD2     N 4423   2.273   4.334  12.877  0.3599  0.5302 -0.3133
  293MPD2    H5 4424   2.234   4.427  12.886 -1.1902 -0.2008  0.5206
  293MPD2    N1 4425   2.071   4.355  12.432  0.2281  0.1841  0.0656
  293MPD2    H7 4426   2.090   4.353  12.332 -0.8668  1.2989 -0.1681
  294TMC3    C1 4427   1.875   4.467  12.366  0.3345  0.3615  0.5444
  294TMC3    C2 4428   1.742   4.483  12.401  0.5516 -0.1470 -0.3857
  294TMC3    C3 4429   1.650   4.465  12.297 -0.2913  0.0833 -0.4150
  294TMC3    C4 4430   1.915   4.441  12.236  0.0369 -0.0103  0.1768
  294TMC3    C5 4431   1.816   4.434  12.138  0.5903 -0.1636 -0.7198
  294TMC3    C6 4432   1.682   4.450  12.166  0.7850 -0.2288 -0.7652
  294TMC3     C 4433   1.972   4.436  12.474 -0.0398 -0.5327 -0.4637
  294TMC3     O 4434   1.931   4.458  12.587  0.3642 -0.1864 -0.3745
  294TMC3     H 4435   1.705   4.487  12.503  0.6890  2.0660 -0.4293
  294TMC3    H1 4436   2.017   4.421  12.206  0.2114 -1.8443  2.0311
  294TMC3    H2 4437   1.617   4.443  12.080  0.8457 -1.9474 -0.6635
  294TMC3    C7 4438   1.843   4.486  12.005  0.3869  0.0724 -0.2119
  294TMC3    C8 4439   1.520   4.446  12.347  0.4268 -0.3889  0.4514
  294TMC3    O1 4440   1.787   4.593  11.980 -0.6514  0.7197  0.3735
  294TMC3    O2 4441   1.490   4.486  12.459  0.1845  0.1403  0.3727
  295MPD2     C 4442   2.902   2.992   0.446  0.1645 -0.5617 -0.4791
  295MPD2    C1 4443   2.834   3.063   0.346  0.4342  0.0954 -0.2770
  295MPD2    C2 4444   2.760   3.168   0.388 -0.2319 -0.2804 -0.5094
  295MPD2    C3 4445   2.721   3.181   0.520  0.0428 -0.8048 -0.1389
  295MPD2    C4 4446   2.791   3.115   0.617 -0.5778  1.0807 -0.4622
  295MPD2    C5 4447   2.888   3.020   0.579 -0.7338 -0.3736  0.3082
  295MPD2     H 4448   2.707   3.228   0.315  2.0033  0.5651 -1.4539
  295MPD2    H1 4449   2.758   3.112   0.720 -0.4139 -0.0734 -0.4501
  295MPD2    H2 4450   2.987   2.925   0.433 -0.1702 -1.1792  0.5164
  295MPD2    H3 4451   2.945   2.964   0.651 -0.4409  0.2998  0.5980
  295MPD2     N 4452   2.613   3.257   0.568  0.0177  0.0159 -0.3363
  295MPD2    H5 4453   2.611   3.274   0.668  2.1887 -1.9724  0.0614
  295MPD2    N1 4454   2.858   3.045   0.209  0.5088  0.6082  0.1908
  295MPD2    H7 4455   2.800   3.098   0.144  1.1712  0.9943 -0.0906
  296TMC3    C1 4456   2.422   3.393   0.560 -0.4784  0.6152 -0.4231
  296TMC3    C2 4457   2.348   3.473   0.475 -0.0481 -0.6605 -0.2690
  296TMC3    C3 4458   2.262   3.561   0.548 -0.1207  0.1803  0.2418
  296TMC3    C4 4459   2.425   3.405   0.697 -0.4656 -0.1969 -0.1479
  296TMC3    C5 4460   2.349   3.505   0.759  0.2530  0.3019 -0.2218
  296TMC3    C6 4461   2.262   3.578   0.688  0.5657  0.8031 -0.6528
  296TMC3     C 4462   2.506   3.300   0.491  0.0301 -0.0960 -0.1443
  296TMC3     O 4463   2.466   3.262   0.384 -0.1691  0.3112 -0.6563
  296TMC3     H 4464   2.337   3.460   0.368 -1.9817  0.7999 -0.2437
  296TMC3    H1 4465   2.486   3.341   0.760 -0.5827 -0.3560 -0.1969
  296TMC3    H2 4466   2.188   3.631   0.746 -2.4205 -2.6150 -1.3140
  296TMC3    C7 4467   2.338   3.506   0.908 -0.1998 -0.6115 -0.5219
  296TMC3    C8 4468   2.157   3.623   0.466 -0.4154 -0.2134 -0.2805
  296TMC3    O1 4469   2.260   3.593   0.958  0.4399 -0.3901 -0.4040
  296TMC3    O2 4470   2.147   3.582   0.355  0.7777 -0.3160 -0.8388
  297MPD2     C 4471   4.339   0.607  15.939 -0.3268 -0.2387 -0.4648
  297MPD2    C1 4472   4.332   0.716  15.863 -0.1863  0.0227 -0.5422
  297MPD2    C2 4473   4.436   0.803  15.867  0.5282  0.2563  0.6038
  297MPD2    C3 4474   4.554   0.778  15.940 -0.3599 -0.9085  0.4888
  297MPD2    C4 4475   4.564   0.662  16.010 -0.4615 -0.2966  1.1377
  297MPD2    C5 4476   4.451   0.574  16.011 -0.3815  0.0701 -0.2570
  297MPD2     H 4477   4.418   0.895  15.812 -0.1241 -1.0662 -1.3898
  297MPD2    H1 4478   4.648   0.643  16.076  2.2314  1.5503 -1.7455
  297MPD2    H2 4479   4.249   0.547  15.940 -0.1041 -0.5140  2.6602
  297MPD2    H3 4480   4.453   0.486  16.074 -1.5788  0.8159  0.7997
  297MPD2     N 4481   4.655   0.876  15.931  0.2627  0.1997  0.2524
  297MPD2    H5 4482   4.627   0.971  15.909 -3.9016 -0.7318  1.6071
  297MPD2    N1 4483   4.223   0.766  15.790 -0.3931 -0.7134  0.2100
  297MPD2    H7 4484   4.246   0.835  15.719  1.1212 -0.3527  1.0476
  298TMC3    C1 4485   4.006   0.766  15.687  0.3910  0.3717  0.0318
  298TMC3    C2 4486   4.057   0.767  15.563  0.2758  0.1353  0.3638
  298TMC3    C3 4487   3.968   0.793  15.460 -0.5626 -0.2516 -0.0411
  298TMC3    C4 4488   3.874   0.794  15.716 -0.0495 -0.6007 -0.0273
  298TMC3    C5 4489   3.792   0.818  15.614 -0.4297 -0.5427  0.4271
  298TMC3    C6 4490   3.840   0.830  15.482  1.3254  1.2184 -0.7302
  298TMC3     C 4491   4.095   0.714  15.790  0.6763 -0.8244  0.0981
  298TMC3     O 4492   4.039   0.636  15.869 -0.2852  0.0755 -0.1206
  298TMC3     H 4493   4.156   0.727  15.549  0.6111 -0.0398  3.2407
  298TMC3    H1 4494   3.832   0.784  15.815  0.3282  2.9354  0.4640
  298TMC3    H2 4495   3.772   0.828  15.398 -1.9901 -0.1851  1.9845
  298TMC3    C7 4496   3.666   0.879  15.642 -0.4011 -0.9454 -0.0061
  298TMC3    C8 4497   3.979   0.714  15.339  0.0913 -0.4566  0.2656
  298TMC3    O1 4498   3.610   0.851  15.749 -0.2200 -0.0683  0.2441
  298TMC3    O2 4499   3.882   0.646  15.317  0.0013  0.1267  0.8330
  299MPD2     C 4500   0.096   0.353  10.385 -0.6069 -0.1904 -0.9809
  299MPD2    C1 4501   0.162   0.467  10.405  0.3572 -0.0956 -0.1711
  299MPD2    C2 4502   0.107   0.583  10.360 -0.3139  0.7613 -0.1683
  299MPD2    C3 4503   4.713   0.586  10.287 -0.5183  0.3545  0.1878
  299MPD2    C4 4504   4.656   0.471  10.256  0.3603  0.1650  0.5895
  299MPD2    C5 4505   4.710   0.360  10.315  0.0117 -0.2106 -0.1364
  299MPD2     H 4506   0.151   0.675  10.398  0.1280  0.8360 -0.8600
  299MPD2    H1 4507   4.568   0.468  10.193  0.4590  0.7441  0.4219
  299MPD2    H2 4508   0.127   0.256  10.421  0.0012  0.1717 -0.5139
  299MPD2    H3 4509   4.666   0.264  10.293  0.1133 -0.7381  1.9367
  299MPD2     N 4510   4.652   0.706  10.239  0.4186 -0.5385 -0.0293
  299MPD2    H5 4511   4.576   0.696  10.173 -1.2264  2.9620  1.3177
  299MPD2    N1 4512   0.294   0.453  10.464  0.3219 -0.1309  0.5311
  299MPD2    H7 4513   0.321   0.358  10.486  0.1932 -0.6599 -1.5641
  300TMC3    C1 4514   4.612   0.945  10.215 -0.1473 -0.1902  0.2604
  300TMC3    C2 4515   4.592   1.065  10.284 -0.1150 -0.0348 -0.2892
  300TMC3    C3 4516   4.472   1.116  10.313  0.1402  0.8844  0.0581
  300TMC3    C4 4517   4.506   0.893  10.154 -0.8633  0.0423  0.1689
  300TMC3    C5 4518   4.386   0.942  10.180 -0.0253  0.5767  0.2755
  300TMC3    C6 4519   4.358   1.051  10.258  0.8832 -0.2233  1.2910
  300TMC3     C 4520   4.691   0.835  10.279  0.2796 -0.4996 -0.7998
  300TMC3     O 4521   0.030   0.873  10.380 -0.2690  0.1790 -0.1896
  300TMC3     H 4522   4.677   1.108  10.335 -1.0242  2.2749 -0.6921
  300TMC3    H1 4523   4.511   0.823  10.071  1.4068 -1.3574  1.4790
  300TMC3    H2 4524   4.257   1.061  10.295  1.2863  2.1227  1.7765
  300TMC3    C7 4525   4.277   0.849  10.158  0.0204 -0.0387 -0.3773
  300TMC3    C8 4526   4.466   1.152  10.455 -0.0555  0.1767  0.9678
  300TMC3    O1 4527   4.271   0.782  10.055  0.2277 -0.0921  0.0179
  300TMC3    O2 4528   4.573   1.146  10.518  0.3621 -0.0588  0.1529
  301MPD2     C 4529   3.082   1.669   0.490  0.1853 -0.0192  0.2559
  301MPD2    C1 4530   2.943   1.642   0.516  0.6655  0.6390  0.1052
  301MPD2    C2 4531   2.904   1.508   0.538 -0.0469 -0.3055 -0.4618
  301MPD2    C3 4532   2.994   1.402   0.535  0.2603  0.3242  0.3232
  301MPD2    C4 4533   3.123   1.433   0.496 -0.8714  0.0660 -0.9293
  301MPD2    C5 4534   3.164   1.561   0.482  0.3912 -0.2023 -0.3068
  301MPD2     H 4535   2.802   1.488   0.567  0.5430 -0.5330  1.4180
  301MPD2    H1 4536   3.180   1.342   0.488 -2.1322 -0.9130  1.5345
  301MPD2    H2 4537   3.118   1.771   0.484 -0.3977  0.2489  1.2490
  301MPD2    H3 4538   3.270   1.575   0.463  1.2876 -4.1674  1.6791
  301MPD2     N 4539   2.956   1.266   0.563  0.3947  0.1689  0.3388
  301MPD2    H5 4540   3.028   1.198   0.542  0.2798 -0.1195  0.8928
  301MPD2    N1 4541   2.849   1.744   0.539 -0.1259  0.3368 -0.1224
  301MPD2    H7 4542   2.768   1.712   0.592  0.5735 -1.2969 -0.0527
  302TMC3    C1 4543   2.794   1.098   0.599 -0.3184 -0.7779  0.4058
  302TMC3    C2 4544   2.886   0.998   0.601 -0.1294 -0.0782 -0.2934
  302TMC3    C3 4545   2.840   0.874   0.644 -0.0513  0.0118  0.0351
  302TMC3    C4 4546   2.661   1.075   0.629  0.1478 -0.3273 -0.3663
  302TMC3    C5 4547   2.623   0.944   0.656 -0.1776 -0.2515  0.0151
  302TMC3    C6 4548   2.711   0.842   0.676 -0.7790  0.6315 -0.3803
  302TMC3     C 4549   2.837   1.230   0.629 -0.1481 -0.3567  0.5216
  302TMC3     O 4550   2.771   1.305   0.697  0.3938  0.2582  0.3030
  302TMC3     H 4551   2.988   1.009   0.566 -1.0730  0.7263 -2.7935
  302TMC3    H1 4552   2.603   1.152   0.580  0.3445 -1.1258 -1.8422
  302TMC3    H2 4553   2.675   0.743   0.702  0.4436  0.0126 -1.0516
  302TMC3    C7 4554   2.497   0.902   0.594  0.0610  0.3404 -0.5936
  302TMC3    C8 4555   2.931   0.760   0.616  0.4238  0.5542 -0.6413
  302TMC3    O1 4556   2.509   0.796   0.535 -0.1945 -0.0228 -0.0482
  302TMC3    O2 4557   3.027   0.778   0.540 -0.0507  0.3458  0.0500
  303MPD2     C 4558   2.286   0.429  10.137 -0.7694  0.2092 -0.3976
  303MPD2    C1 4559   2.227   0.305  10.121 -0.5397  0.2115 -0.1831
  303MPD2    C2 4560   2.128   0.289  10.026  0.1537 -0.2996 -0.4843
  303MPD2    C3 4561   2.099   0.386   9.934 -0.7342  0.2944  0.3015
  303MPD2    C4 4562   2.173   0.501   9.934  1.1394  0.2403 -0.0467
  303MPD2    C5 4563   2.256   0.526  10.041 -0.8039 -0.4298 -0.4050
  303MPD2     H 4564   2.053   0.210  10.028  0.2482 -0.3951 -0.7825
  303MPD2    H1 4565   2.154   0.581   9.864  0.6426 -0.1499 -0.3624
  303MPD2    H2 4566   2.344   0.462  10.222 -0.5732  0.7952 -0.7547
  303MPD2    H3 4567   2.291   0.627  10.057 -0.0425 -0.4736 -1.7499
  303MPD2     N 4568   1.996   0.366   9.836  0.0507  0.1281  0.6008
  303MPD2    H5 4569   1.991   0.450   9.779  0.6499 -0.4295 -0.2717
  303MPD2    N1 4570   2.235   0.208  10.228  0.0451  0.1500  0.1622
  303MPD2    H7 4571   2.271   0.238  10.318  2.0757 -1.5692 -0.0780
  304TMC3    C1 4572   2.235   0.001  10.338 -0.1445  0.5733  0.0652
  304TMC3    C2 4573   2.174   0.042  10.455  0.2278  0.0625 -0.0319
  304TMC3    C3 4574   2.153   4.675  10.554  0.4752 -0.4663 -0.0517
  304TMC3    C4 4575   2.272   4.596  10.322 -0.3191  0.2976  0.3497
  304TMC3    C5 4576   2.252   4.505  10.423 -0.6915 -0.3767  0.1659
  304TMC3    C6 4577   2.202   4.547  10.546 -0.5145 -0.1745  0.2249
  304TMC3     C 4578   2.215   0.071  10.214 -0.3369  0.5514 -0.3544
  304TMC3     O 4579   2.203   0.007  10.110  0.2422  0.1960  0.6760
  304TMC3     H 4580   2.144   0.146  10.452  2.2624  0.6784  1.3532
  304TMC3    H1 4581   2.314   4.553  10.232  0.1381  2.3180 -0.4195
  304TMC3    H2 4582   2.169   4.468  10.612  0.6721 -0.9444 -0.1083
  304TMC3    C7 4583   2.214   4.369  10.383 -0.4887 -0.0586 -0.4682
  304TMC3    C8 4584   2.008   4.670  10.593  0.4699 -0.7192  0.4798
  304TMC3    O1 4585   2.112   4.333  10.442  0.0404 -0.2654 -0.2568
  304TMC3    O2 4586   1.973   0.055  10.639 -0.6449  0.0799 -0.0527
  305MPD2     C 4587   0.635   2.062  13.568 -0.3213 -0.2834  0.4503
  305MPD2    C1 4588   0.612   1.929  13.596  0.2689  0.0143 -0.0295
  305MPD2    C2 4589   0.611   1.833  13.497  0.1928 -0.3036  0.1078
  305MPD2    C3 4590   0.634   1.873  13.366 -0.1473  0.8045 -0.4418
  305MPD2    C4 4591   0.667   2.003  13.342 -0.0879  0.3708 -0.2817
  305MPD2    C5 4592   0.663   2.095  13.440  0.1254 -0.2479  0.0764
  305MPD2     H 4593   0.600   1.731  13.533  2.1073 -0.2923  0.7165
  305MPD2    H1 4594   0.682   2.037  13.240  1.5156 -3.0554 -1.1832
  305MPD2    H2 4595   0.637   2.143  13.641 -0.3644 -2.1148  2.5017
  305MPD2    H3 4596   0.672   2.200  13.418 -0.7041 -0.0436  0.7539
  305MPD2     N 4597   0.631   1.792  13.245 -0.4047  0.1010  0.1279
  305MPD2    H5 4598   0.662   1.836  13.159  2.9076  0.0858  1.2868
  305MPD2    N1 4599   0.606   1.894  13.730 -0.2155 -0.3920  0.5019
  305MPD2    H7 4600   0.626   1.797  13.754 -0.4124 -0.8058 -0.9734
  306TMC3    C1 4601   0.622   1.933  13.967  0.7154  0.0765 -0.2618
  306TMC3    C2 4602   0.743   1.877  13.972 -0.3391  0.3426 -0.4321
  306TMC3    C3 4603   0.776   1.820  14.090 -0.0984  0.4080  0.9088
  306TMC3    C4 4604   0.538   1.955  14.071 -0.4287  1.0140 -0.7292
  306TMC3    C5 4605   0.581   1.901  14.194  0.2438  0.2777 -0.6388
  306TMC3    C6 4606   0.696   1.828  14.195  0.2681 -0.4051  0.1034
  306TMC3     C 4607   0.565   1.974  13.834 -0.0191 -0.8106  0.3208
  306TMC3     O 4608   0.499   2.079  13.837  0.2932 -0.1276  0.0552
  306TMC3     H 4609   0.811   1.892  13.889  0.3065  0.3351  0.0942
  306TMC3    H1 4610   0.434   1.985  14.060 -0.9112 -1.1643 -2.0913
  306TMC3    H2 4611   0.707   1.766  14.283  0.3049  1.0006  1.0908
  306TMC3    C7 4612   0.574   1.986  14.314 -0.4556  0.4786 -0.8934
  306TMC3    C8 4613   0.912   1.795  14.133  0.5413  0.4454  0.5931
  306TMC3    O1 4614   0.469   2.045  14.334  0.1943 -0.7436  0.3743
  306TMC3    O2 4615   0.931   1.757  14.250  0.1991  0.7664 -0.1453
  307MPD2     C 4616   3.337   3.668  17.415  0.2754 -0.3920  0.0806
  307MPD2    C1 4617   3.301   3.802  17.395 -0.1994  0.1865  0.3400
  307MPD2    C2 4618   3.238   3.861  17.500  0.3977 -0.1258  0.4511
  307MPD2    C3 4619   3.191   3.793  17.604  0.0780  0.4470  0.4971
  307MPD2    C4 4620   3.220   3.656  17.614  0.8950 -0.1549 -0.4738
  307MPD2    C5 4621   3.301   3.603  17.526  0.3404 -0.1208 -0.2297
  307MPD2     H 4622   3.202   3.963  17.487  0.6401 -0.3246 -1.8686
  307MPD2    H1 4623   3.181   3.598   0.005  1.4293 -0.0318 -0.1468
  307MPD2    H2 4624   3.396   3.610  17.345 -0.1440 -0.1139 -0.5017
  307MPD2    H3 4625   3.331   3.499  17.534  0.4674 -0.0936 -0.3627
  307MPD2     N 4626   3.105   3.863  17.693  0.9733  0.3622  0.7550
  307MPD2    H5 4627   3.072   3.953  17.660 -1.8586 -1.2698 -0.8481
  307MPD2    N1 4628   3.326   3.880  17.277  0.0069  0.3927 -0.7050
  307MPD2    H7 4629   3.300   3.978  17.283 -4.3102 -0.7840  0.3856
  308TMC3    C1 4630   2.767   4.002   0.266 -0.5182 -1.0010 -0.4821
  308TMC3    C2 4631   2.816   4.122   0.295 -0.1164  0.2317 -0.3509
  308TMC3    C3 4632   2.940   4.147   0.241  0.4865 -0.0936  0.3636
  308TMC3    C4 4633   2.851   3.893   0.226  0.3616 -0.1861  0.0533
  308TMC3    C5 4634   2.969   3.925   0.175 -0.5858  0.0818 -0.1946
  308TMC3    C6 4635   3.009   4.055   0.169 -0.2384 -0.4284 -0.5036
  308TMC3     C 4636   2.629   3.958   0.293  0.2264  0.7085  0.0524
  308TMC3     O 4637   2.597   3.847   0.255  0.3584 -0.2958  0.7681
  308TMC3     H 4638   2.752   4.208   0.316  1.8452  0.9391  2.7299
  308TMC3    H1 4639   2.820   3.790   0.219 -1.0012  0.2563 -0.4956
  308TMC3    H2 4640   3.109   4.084   0.137 -0.0091  0.4986  1.0436
  308TMC3    C7 4641   3.049   3.818   0.116  0.8772 -0.8120  0.3218
  308TMC3    C8 4642   2.974   4.282   0.193 -0.1692  0.4208  0.1789
  308TMC3    O1 4643   3.058   3.707   0.168 -0.4171 -0.3251 -0.1409
  308TMC3    O2 4644   3.013   4.283   0.075 -0.4737  0.2652  0.0269
  309MPD2     C 4645   1.710   0.064  16.663  0.3085 -0.4692 -0.2432
  309MPD2    C1 4646   1.804   0.162  16.684  0.1745 -0.6951 -0.1333
  309MPD2    C2 4647   1.804   0.245  16.795  0.4430  0.0624 -0.2408
  309MPD2    C3 4648   1.709   0.215  16.889 -0.7877  0.6031  1.0389
  309MPD2    C4 4649   1.626   0.101  16.877  0.2958  0.6102 -0.2456
  309MPD2    C5 4650   1.625   0.029  16.761 -0.0321  0.1634  0.6851
  309MPD2     H 4651   1.876   0.326  16.803 -1.0310  1.4670 -1.0867
  309MPD2    H1 4652   1.553   0.078  16.953  0.7551 -0.3131 -0.0765
  309MPD2    H2 4653   1.706   0.005  16.573 -0.4830  0.7168 -0.9778
  309MPD2    H3 4654   1.560   4.669  16.734  0.9726 -0.3307 -0.2645
  309MPD2     N 4655   1.695   0.289  17.011 -0.3669  0.5486  0.4006
  309MPD2    H5 4656   1.628   0.245  17.073 -0.9267  1.4361  0.4153
  309MPD2    N1 4657   1.909   0.177  16.591 -0.0404  0.2784 -0.0363
  309MPD2    H7 4658   1.961   0.263  16.605  1.7694 -0.9005  0.5233
  310TMC3    C1 4659   2.044   0.126  16.400 -0.2537 -0.1223 -0.4250
  310TMC3    C2 4660   2.076   0.263  16.408  0.2844 -0.1462  1.1344
  310TMC3    C3 4661   2.178   0.305  16.332  0.1198  0.1338  0.1542
  310TMC3    C4 4662   2.105   0.043  16.310 -0.5898  0.0891 -0.4009
  310TMC3    C5 4663   2.190   0.100  16.218 -0.2927 -0.1343  0.5223
  310TMC3    C6 4664   2.224   0.233  16.227  0.2128 -0.2140  0.5557
  310TMC3     C 4665   1.942   0.084  16.488 -0.1633 -0.2677  0.1995
  310TMC3     O 4666   1.906   4.693  16.477 -0.0242  0.0297  0.3396
  310TMC3     H 4667   2.032   0.335  16.476 -0.4642 -0.6048  1.1362
  310TMC3    H1 4668   2.079   4.661  16.297  1.5347 -0.6116  1.0031
  310TMC3    H2 4669   2.309   0.274  16.174  1.4951 -3.3647  0.1750
  310TMC3    C7 4670   2.245   0.012  16.112 -0.7086 -0.3990 -0.2141
  310TMC3    C8 4671   2.171   0.444  16.301 -0.2440 -0.1671 -0.1024
  310TMC3    O1 4672   2.244   4.612  16.128  0.3848  0.1669  0.5452
  310TMC3    O2 4673   2.057   0.488  16.310 -0.0642  0.5979  0.3023
  311MPD2     C 4674   4.420   1.478  12.808  0.1507  1.3101 -0.4360
  311MPD2    C1 4675   4.363   1.578  12.733  1.2352 -0.4836  0.1661
  311MPD2    C2 4676   4.247   1.641  12.776  0.8608  0.6341 -0.2185
  311MPD2    C3 4677   4.177   1.598  12.888 -0.4799 -0.6135 -0.2387
  311MPD2    C4 4678   4.240   1.508  12.970 -0.2294 -0.1244  0.0109
  311MPD2    C5 4679   4.355   1.451  12.926  0.2602  0.1600  0.1627
  311MPD2     H 4680   4.198   1.700  12.699 -0.3383  1.0299  0.8473
  311MPD2    H1 4681   4.200   1.463  13.060 -1.9642 -0.4818 -0.9555
  311MPD2    H2 4682   4.515   1.435  12.776 -0.2028 -1.4887  2.2669
  311MPD2    H3 4683   4.391   1.368  12.985 -0.9760  1.0170  2.1332
  311MPD2     N 4684   4.051   1.647  12.924  0.1829  0.0200 -0.1311
  311MPD2    H5 4685   4.002   1.709  12.860  2.2447  0.4041 -1.3311
  311MPD2    N1 4686   4.418   1.633  12.612  0.5085  0.4749  0.4123
  311MPD2    H7 4687   4.374   1.712  12.566  0.4576 -0.6480 -1.4381
  312TMC3    C1 4688   3.859   1.673  13.053 -0.0089 -0.4800 -0.2731
  312TMC3    C2 4689   3.778   1.654  12.947 -0.0197 -0.2911  0.0075
  312TMC3    C3 4690   3.643   1.658  12.962  0.7731  0.4686 -0.0852
  312TMC3    C4 4691   3.803   1.683  13.178  0.5959  0.7352 -0.2491
  312TMC3    C5 4692   3.665   1.682  13.192  0.1849 -0.3782  0.0369
  312TMC3    C6 4693   3.581   1.663  13.084 -0.6163 -0.5269  0.7536
  312TMC3     C 4694   3.998   1.632  13.046 -0.3876 -0.3783  0.2590
  312TMC3     O 4695   4.049   1.591  13.150 -0.7265  0.4394 -0.0978
  312TMC3     H 4696   3.818   1.647  12.846  0.6775 -0.8555  0.3250
  312TMC3    H1 4697   3.864   1.699  13.265 -1.1763 -1.9109  1.4679
  312TMC3    H2 4698   3.475   1.673  13.106 -0.5724  1.5262 -0.0082
  312TMC3    C7 4699   3.601   1.723  13.317  0.1623 -0.2138 -0.1839
  312TMC3    C8 4700   3.577   1.569  12.865  0.1219 -0.7248  0.8283
  312TMC3    O1 4701   3.501   1.794  13.315 -0.0071  0.3701 -0.6495
  312TMC3    O2 4702   3.654   1.497  12.798  0.5576 -0.2391  0.0242
  313MPD2     C 4703   3.460   1.083  11.264  0.7578  0.3436 -0.2685
  313MPD2    C1 4704   3.399   1.181  11.192  0.2311  0.6970 -0.4260
  313MPD2    C2 4705   3.405   1.175  11.050  0.1527 -0.0993  0.4147
  313MPD2    C3 4706   3.453   1.067  10.983 -0.6606 -0.7800 -0.2127
  313MPD2    C4 4707   3.496   0.965  11.057 -0.5467  0.3094  0.4590
  313MPD2    C5 4708   3.510   0.978  11.194  0.8532  0.0567 -0.2098
  313MPD2     H 4709   3.368   1.254  10.986 -0.2789 -1.5379 -1.1328
  313MPD2    H1 4710   3.532   0.872  11.013  0.0903  0.0033  1.6302
  313MPD2    H2 4711   3.476   1.090  11.371  0.7866  3.7160 -0.4965
  313MPD2    H3 4712   3.554   0.901  11.257  1.3099  0.4858 -0.0059
  313MPD2     N 4713   3.456   1.074  10.843 -0.9126 -0.8980 -0.2800
  313MPD2    H5 4714   3.419   1.158  10.800 -2.4065 -1.0719  0.6456
  313MPD2    N1 4715   3.345   1.300  11.250 -0.1779  0.5240 -0.6150
  313MPD2    H7 4716   3.307   1.369  11.185  2.6870  0.7154 -2.0647
  314TMC3    C1 4717   3.325   1.467  11.382 -0.1654  0.4496 -0.2772
  314TMC3    C2 4718   3.432   1.537  11.424 -0.4778  0.4843 -0.6961
  314TMC3    C3 4719   3.473   1.656  11.368 -0.5845  0.1935  0.0532
  314TMC3    C4 4720   3.254   1.512  11.278  0.4134  0.1728  0.0839
  314TMC3    C5 4721   3.295   1.630  11.222  0.3247  0.4315 -0.5319
  314TMC3    C6 4722   3.404   1.695  11.256 -0.0433 -0.4947 -0.6909
  314TMC3     C 4723   3.350   1.332  11.389 -0.4047 -0.6823 -0.4469
  314TMC3     O 4724   3.395   1.295  11.496  0.1546 -0.1943  0.1876
  314TMC3     H 4725   3.503   1.491  11.492 -0.6924 -1.1834 -1.5936
  314TMC3    H1 4726   3.165   1.453  11.260  0.9013 -0.4047 -0.4319
  314TMC3    H2 4727   3.427   1.782  11.196 -0.4654  0.4650  0.5321
  314TMC3    C7 4728   3.243   1.651  11.084  0.2139  0.5541  0.1352
  314TMC3    C8 4729   3.611   1.702  11.373  0.7934  0.0038  0.4948
  314TMC3    O1 4730   3.121   1.642  11.061  0.0940  0.2341  0.0244
  314TMC3    O2 4731   3.643   1.776  11.282  0.1258 -0.0742 -0.5185
  315MPD2     C 4732   3.434   4.535  17.327 -0.1831 -0.5283 -0.2564
  315MPD2    C1 4733   3.545   4.618  17.330  0.2615  0.4213 -0.3578
  315MPD2    C2 4734   3.559   0.003  17.239 -0.0968 -0.6584 -0.2806
  315MPD2    C3 4735   3.453   0.041  17.158 -0.2774  0.0736 -0.3049
  315MPD2    C4 4736   3.332   4.691  17.171 -0.9102  0.1824 -0.3771
  315MPD2    C5 4737   3.327   4.578  17.251  0.1891 -0.0413  0.0443
  315MPD2     H 4738   3.656   0.052  17.243 -0.2536 -0.4451  1.0755
  315MPD2    H1 4739   3.241   4.711  17.117 -1.5468  0.0158  0.6402
  315MPD2    H2 4740   3.430   4.446  17.388 -1.0692  0.1698  0.7201
  315MPD2    H3 4741   3.235   4.520  17.258  0.7216 -0.4485  3.7929
  315MPD2     N 4742   3.479   0.138  17.063 -0.4276 -0.0831 -0.0415
  315MPD2    H5 4743   3.570   0.183  17.060  0.1827 -1.3885 -1.4314
  315MPD2    N1 4744   3.659   4.590  17.419 -0.1211 -0.1473 -0.6293
  315MPD2    H7 4745   3.732   4.660  17.421  1.3411 -1.6673 -0.5433
  316TMC3    C1 4746   3.422   0.293  16.885  0.1896 -0.5621 -0.6405
  316TMC3    C2 4747   3.555   0.309  16.867  0.2482  0.2584  0.2661
  316TMC3    C3 4748   3.587   0.398  16.766  0.4033 -0.6002  0.4438
  316TMC3    C4 4749   3.322   0.364  16.823 -0.3070 -0.4956  0.3767
  316TMC3    C5 4750   3.368   0.442  16.716 -0.3580  0.4557 -0.4678
  316TMC3    C6 4751   3.495   0.457  16.679  0.3789  0.7277  0.4850
  316TMC3     C 4752   3.379   0.197  16.985 -0.6583  0.2117  0.0495
  316TMC3     O 4753   3.257   0.184  17.002 -0.2906 -0.5677  0.2527
  316TMC3     H 4754   3.627   0.235  16.899  0.7266 -0.2107 -1.8621
  316TMC3    H1 4755   3.221   0.346  16.858 -0.6699  1.1547  0.1918
  316TMC3    H2 4756   3.521   0.526  16.600 -1.4235  0.3801 -0.4384
  316TMC3    C7 4757   3.262   0.449  16.619 -0.5989  0.7189  0.1499
  316TMC3    C8 4758   3.721   0.446  16.758  0.3709  0.4485  0.3627
  316TMC3    O1 4759   3.158   0.391  16.644 -0.0926 -0.4315  0.1380
  316TMC3    O2 4760   3.749   0.508  16.657  0.8743 -0.4207 -0.2114
  317MPD2     C 4761   0.721   3.657  12.364 -0.0858  0.0199  0.5543
  317MPD2    C1 4762   0.808   3.565  12.324 -0.1868  0.4239  0.7018
  317MPD2    C2 4763   0.858   3.476  12.421 -0.0162  0.2556  0.3348
  317MPD2    C3 4764   0.826   3.490  12.554 -0.0174 -1.2775  0.4643
  317MPD2    C4 4765   0.744   3.591  12.593  0.4746  0.5125 -0.8781
  317MPD2    C5 4766   0.691   3.681  12.495 -0.4911 -0.2413  0.5244
  317MPD2     H 4767   0.927   3.396  12.395 -1.7615 -0.2181 -2.7812
  317MPD2    H1 4768   0.703   3.605  12.693  0.3299 -1.2588 -0.6829
  317MPD2    H2 4769   0.657   3.707  12.292  0.7188 -1.4869 -1.2215
  317MPD2    H3 4770   0.629   3.765  12.524 -1.9767 -1.0114 -0.4694
  317MPD2     N 4771   0.881   3.394  12.642  0.1520 -0.0918  0.2217
  317MPD2    H5 4772   0.942   3.326  12.599 -1.3956 -2.1005  1.2163
  317MPD2    N1 4773   0.832   3.524  12.188  0.0637 -0.2805  0.0675
  317MPD2    H7 4774   0.858   3.427  12.173 -2.0701 -1.3143  3.1422
  318TMC3    C1 4775   0.940   3.288  12.852  0.6640  0.3137  0.6156
  318TMC3    C2 4776   0.876   3.182  12.918  0.3074 -0.3798  0.1969
  318TMC3    C3 4777   0.939   3.060  12.941  0.2916  0.5047 -0.4350
  318TMC3    C4 4778   1.066   3.270  12.812 -0.2016 -0.8313 -0.4834
  318TMC3    C5 4779   1.135   3.152  12.841  0.6348  0.7547  0.0304
  318TMC3    C6 4780   1.072   3.049  12.917 -0.5499  0.2317 -0.3816
  318TMC3     C 4781   0.857   3.387  12.778 -0.7160  0.4564 -0.0584
  318TMC3     O 4782   0.787   3.459  12.852 -0.7192  0.4074  0.4203
  318TMC3     H 4783   0.771   3.199  12.941 -0.1640 -0.4229 -1.9818
  318TMC3    H1 4784   1.106   3.353  12.756 -0.4956  1.5535  2.8732
  318TMC3    H2 4785   1.120   2.951  12.922 -1.2282 -0.0746  0.2239
  318TMC3    C7 4786   1.221   3.119  12.735 -0.1394 -0.1805  0.0389
  318TMC3    C8 4787   0.860   2.936  12.972  0.1699 -0.0927 -0.6549
  318TMC3    O1 4788   1.191   3.177  12.630  0.4407  0.3811 -0.2658
  318TMC3    O2 4789   0.917   2.840  13.023 -0.1457  1.2122  0.5711
  319MPD2     C 4790   1.473   4.394  17.037 -0.3807 -0.4646  0.4100
  319MPD2    C1 4791   1.481   4.262  16.993 -0.2605 -0.0209 -0.1563
  319MPD2    C2 4792   1.424   4.225  16.876  0.5290  0.5374 -0.1093
  319MPD2    C3 4793   1.348   4.319  16.804 -0.0142  0.2562 -0.6426
  319MPD2    C4 4794   1.344   4.445  16.854 -0.2896  0.0416  0.1641
  319MPD2    C5 4795   1.409   4.489  16.965  0.1026 -0.7054  0.4766
  319MPD2     H 4796   1.430   4.120  16.848  1.5859  0.3936  0.6613
  319MPD2    H1 4797   1.283   4.518  16.803  0.2804  0.6782  0.3854
  319MPD2    H2 4798   1.510   4.430  17.132 -1.3152  3.0936 -0.5683
  319MPD2    H3 4799   1.408   4.593  16.996 -1.9462 -1.0297  1.5344
  319MPD2     N 4800   1.275   4.292  16.687  0.5996  0.0244  0.6117
  319MPD2    H5 4801   1.217   4.365  16.647 -1.7645 -2.0909  0.2022
  319MPD2    N1 4802   1.546   4.163  17.070  0.3597  0.1886  0.2948
  319MPD2    H7 4803   1.550   4.070  17.028 -0.7091 -0.1194  0.8676
  320TMC3    C1 4804   1.182   4.171  16.508  0.0006 -0.6443 -0.5608
  320TMC3    C2 4805   1.170   4.281  16.434  0.8445  0.7273  0.1526
  320TMC3    C3 4806   1.099   4.279  16.315 -0.5801  0.3262 -0.1698
  320TMC3    C4 4807   1.116   4.058  16.473  0.1817  0.4847 -0.2485
  320TMC3    C5 4808   1.039   4.057  16.358  0.2289  0.0587 -0.1961
  320TMC3    C6 4809   1.032   4.162  16.277 -0.1615 -0.7994  1.4912
  320TMC3     C 4810   1.268   4.167  16.630 -0.2380  0.6398 -0.4224
  320TMC3     O 4811   1.299   4.056  16.678 -0.1397 -0.0564  0.0597
  320TMC3     H 4812   1.238   4.364  16.450  1.7824  0.2586 -1.4682
  320TMC3    H1 4813   1.129   3.967  16.530 -0.8131  0.0224 -0.7689
  320TMC3    H2 4814   0.982   4.152  16.181  1.4073  0.9095  0.4893
  320TMC3    C7 4815   0.974   3.936  16.322 -0.0191 -0.3243 -0.2561
  320TMC3    C8 4816   1.114   4.392  16.230  0.3477  0.1157  0.1743
  320TMC3    O1 4817   0.883   3.940  16.238 -0.3374 -0.2680 -0.5880
  320TMC3    O2 4818   1.210   4.464  16.258 -0.1095  0.4260 -0.3847
  321TMC3    C1 4819   1.664   4.059  17.241 -0.2129 -0.4769  0.1643
  321TMC3    C2 4820   1.621   3.938  17.212  0.4706  0.0217 -0.5835
  321TMC3    C3 4821   1.679   3.827  17.263 -0.0826 -0.9236 -0.1673
  321TMC3    C4 4822   1.777   4.081  17.312 -0.4118  0.6323 -0.2137
  321TMC3    C5 4823   1.833   3.967  17.367  0.9149  0.0073  0.1123
  321TMC3    C6 4824   1.786   3.836  17.348  0.0489  0.2965 -0.8720
  321TMC3     C 4825   1.595   4.181  17.198  0.3880 -0.5338 -0.0024
  321TMC3     O 4826   1.615   4.284  17.263 -0.2002 -0.2629 -1.0110
  321TMC3     H 4827   1.540   3.935  17.140 -0.7520  1.8529  0.7333
  321TMC3    H1 4828   1.802   4.185  17.332  2.4041 -0.4123  1.7014
  321TMC3    H2 4829   1.829   3.749  17.397 -1.4420  0.5590  0.8745
  321TMC3    C7 4830   1.976   3.961  17.362  0.5049  0.5455 -0.5902
  321TMC3    C8 4831   1.672   3.708  17.173 -0.1722 -0.4851  0.2970
  321TMC3    O1 4832   2.031   3.854  17.385 -0.1688  0.0293  0.0751
  321TMC3    O2 4833   1.569   3.668  17.119  0.0009 -0.0344  0.0746
  322MPD2     C 4834   0.266   1.182  13.759  0.1480 -0.8567  0.0586
  322MPD2    C1 4835   0.320   1.141  13.877 -0.7431 -0.7180 -0.8242
  322MPD2    C2 4836   0.307   1.003  13.908 -0.3990  0.3047 -0.2525
  322MPD2    C3 4837   0.250   0.913  13.816 -0.7304 -0.7201 -0.1958
  322MPD2    C4 4838   0.190   0.965  13.702 -0.8302  0.0693  0.3514
  322MPD2    C5 4839   0.195   1.100  13.675 -0.2364  0.0619 -0.0775
  322MPD2     H 4840   0.354   0.965  13.997 -3.4295  0.0378  1.2494
  322MPD2    H1 4841   0.155   0.896  13.627  1.2858  1.2556 -1.7404
  322MPD2    H2 4842   0.267   1.287  13.733 -0.2827 -0.1711  2.7453
  322MPD2    H3 4843   0.153   1.142  13.584 -3.0724 -1.1908  0.6695
  322MPD2     N 4844   0.274   0.778  13.841  0.2350 -0.7865  0.6089
  322MPD2    H5 4845   0.325   0.759  13.926 -0.4492 -0.7340  1.0370
  322MPD2    N1 4846   0.394   1.229  13.958  0.1112 -0.3715 -0.1995
  322MPD2    H7 4847   0.414   1.321  13.922  2.4096 -0.4112  0.9580
  323TMC3    C1 4848   0.528   1.306  14.126 -0.3155  0.1718  0.4855
  323TMC3    C2 4849   0.610   1.378  14.038  0.5430 -0.4881  0.1238
  323TMC3    C3 4850   0.713   1.442  14.092  0.4463  0.8902 -0.3862
  323TMC3    C4 4851   0.562   1.295  14.263  0.1426 -1.1408 -0.1254
  323TMC3    C5 4852   0.667   1.361  14.317  0.0257  0.4755 -0.5652
  323TMC3    C6 4853   0.738   1.441  14.230 -0.0128 -0.8360  0.4914
  323TMC3     C 4854   0.445   1.201  14.078  0.2458 -0.3751  0.1321
  323TMC3     O 4855   0.429   1.101  14.149 -0.1110  0.4295 -0.2111
  323TMC3     H 4856   0.595   1.383  13.931  1.6422  1.2811  0.0495
  323TMC3    H1 4857   0.513   1.238  14.341 -3.7846  2.2375 -0.1550
  323TMC3    H2 4858   0.820   1.505  14.261 -1.2221 -0.4119  2.7739
  323TMC3    C7 4859   0.742   1.305  14.426 -0.1920  0.4103 -0.3044
  323TMC3    C8 4860   0.822   1.478  14.006  0.5623 -0.6510 -0.2551
  323TMC3    O1 4861   0.700   1.205  14.472  0.2812 -1.1108 -0.2940
  323TMC3    O2 4862   0.924   1.450  14.072 -0.2808 -0.2183 -0.4014
  324MPD2     C 4863   2.603   2.588  13.934 -0.4924  0.2070 -0.2958
  324MPD2    C1 4864   2.551   2.643  14.047  0.0681  0.3011  0.3136
  324MPD2    C2 4865   2.414   2.668  14.056  0.2100  0.4732 -0.6556
  324MPD2    C3 4866   2.327   2.643  13.949 -0.1135  0.5701  0.2860
  324MPD2    C4 4867   2.376   2.585  13.836 -0.1234 -0.5917 -0.3112
  324MPD2    C5 4868   2.516   2.563  13.829  0.1485 -0.4935 -0.3407
  324MPD2     H 4869   2.379   2.714  14.147 -0.4913  1.9550 -1.6815
  324MPD2    H1 4870   2.314   2.577  13.748  2.1943  0.0969 -2.0212
  324MPD2    H2 4871   2.707   2.560  13.928 -1.1452 -2.0835 -0.7425
  324MPD2    H3 4872   2.558   2.513  13.742 -0.5801  0.7000 -1.3877
  324MPD2     N 4873   2.189   2.661  13.953 -0.4147  0.0858  0.3648
  324MPD2    H5 4874   2.132   2.627  13.876  1.1666 -1.7841  0.0452
  324MPD2    N1 4875   2.618   2.654  14.170  0.1763  0.0896 -0.1897
  324MPD2    H7 4876   2.559   2.665  14.252 -0.1442 -0.1804 -0.3861
  325TMC3    C1 4877   1.987   2.749  14.038  0.2127  0.0897 -0.5055
  325TMC3    C2 4878   1.920   2.655  13.959 -0.3955  0.6994 -0.1707
  325TMC3    C3 4879   1.782   2.674  13.954  0.3497  0.0485  0.0233
  325TMC3    C4 4880   1.926   2.849  14.106 -0.2217  0.5166  0.0380
  325TMC3    C5 4881   1.787   2.862  14.096 -0.7442  0.3321 -0.5220
  325TMC3    C6 4882   1.716   2.772  14.023  0.0735 -0.3583 -0.1068
  325TMC3     C 4883   2.131   2.741  14.052  0.5829  0.1073 -0.5715
  325TMC3     O 4884   2.187   2.825  14.118 -0.2641  0.6650 -0.4348
  325TMC3     H 4885   1.974   2.578  13.904 -1.0930 -1.1981  1.8272
  325TMC3    H1 4886   1.983   2.926  14.159 -0.7054  0.9375 -0.0507
  325TMC3    H2 4887   1.610   2.793  14.012 -0.3932 -2.3999  0.5286
  325TMC3    C7 4888   1.733   2.961  14.176 -0.0463  0.1568  0.3999
  325TMC3    C8 4889   1.715   2.580  13.859  0.6582 -0.8879  0.1590
  325TMC3    O1 4890   1.800   3.049  14.229 -0.0080 -0.6926  0.2352
  325TMC3    O2 4891   1.778   2.538  13.763 -0.1890 -0.3225  0.1103
  326MPD2     C 4892   3.659   3.498  10.960 -0.2749  0.1432 -0.1794
  326MPD2    C1 4893   3.663   3.550  10.830 -0.2335 -0.2580 -0.0662
  326MPD2    C2 4894   3.753   3.649  10.813  0.0642 -0.0597  0.3117
  326MPD2    C3 4895   3.836   3.698  10.916 -0.0439 -0.5429 -0.2296
  326MPD2    C4 4896   3.831   3.640  11.035  0.1386  0.2834 -0.1108
  326MPD2    C5 4897   3.746   3.536  11.058 -0.1517 -0.4573  0.1311
  326MPD2     H 4898   3.756   3.695  10.715 -2.6901 -1.3533 -0.3807
  326MPD2    H1 4899   3.885   3.674  11.123  1.0921 -1.2557 -0.1031
  326MPD2    H2 4900   3.596   3.414  10.986  1.2544 -1.2439 -0.9072
  326MPD2    H3 4901   3.730   3.506  11.160 -0.5732 -0.7180 -0.0114
  326MPD2     N 4902   3.930   3.802  10.905 -0.1555  0.2347 -0.0775
  326MPD2    H5 4903   3.981   3.832  10.988 -1.2666  2.6110 -0.2639
  326MPD2    N1 4904   3.578   3.511  10.727  0.0044 -0.3676 -0.9350
  326MPD2    H7 4905   3.590   3.551  10.635  3.1801  0.3563 -0.1888
  327TMC3    C1 4906   3.444   3.350  10.598 -0.6871 -0.3269 -0.0305
  327TMC3    C2 4907   3.444   3.428  10.488 -0.2513  0.2950 -0.2691
  327TMC3    C3 4908   3.472   3.371  10.366  0.8224 -0.0296  0.2831
  327TMC3    C4 4909   3.460   3.213  10.591 -0.2365 -0.0072  0.3892
  327TMC3    C5 4910   3.475   3.159  10.468 -0.3582 -0.1621 -0.4092
  327TMC3    C6 4911   3.472   3.232  10.353 -0.2353  0.3247  0.0584
  327TMC3     C 4912   3.488   3.407  10.729  0.6363  0.1265  0.4660
  327TMC3     O 4913   3.468   3.332  10.826 -0.2350  0.6216  0.2900
  327TMC3     H 4914   3.431   3.536  10.499 -0.2056  0.1390  1.3236
  327TMC3    H1 4915   3.459   3.154  10.682  0.1052  1.1122  1.1248
  327TMC3    H2 4916   3.517   3.187  10.265 -1.3230 -0.8774  0.1192
  327TMC3    C7 4917   3.535   3.025  10.460  0.3314  0.8310 -0.3826
  327TMC3    C8 4918   3.519   3.457  10.251  0.0949  0.0003 -0.2514
  327TMC3    O1 4919   3.503   2.947  10.370  0.5782  0.1032 -0.1882
  327TMC3    O2 4920   3.550   3.572  10.277  0.0123  0.3033 -0.8191
  328MPD2     C 4921   1.229   3.028  16.914  0.2336 -0.5092  0.1489
  328MPD2    C1 4922   1.125   2.990  16.826 -0.3424  0.2047  0.6363
  328MPD2    C2 4923   1.040   3.085  16.767  0.1844  0.0087 -0.7661
  328MPD2    C3 4924   1.077   3.220  16.782 -0.4031  0.0416 -0.4098
  328MPD2    C4 4925   1.193   3.254  16.852 -0.0734  0.5403 -0.0482
  328MPD2    C5 4926   1.265   3.160  16.918 -0.1291  0.4999 -0.5994
  328MPD2     H 4927   0.946   3.049  16.727 -0.9205 -2.3640  4.0055
  328MPD2    H1 4928   1.218   3.358  16.869 -1.0162  0.4563  1.8771
  328MPD2    H2 4929   1.280   2.958  16.980 -0.9959 -1.7760 -0.2533
  328MPD2    H3 4930   1.349   3.191  16.979 -0.4264  1.1053 -0.4909
  328MPD2     N 4931   0.996   3.326  16.735  1.3991 -0.8765 -0.9586
  328MPD2    H5 4932   1.032   3.420  16.741  3.4248 -1.6024 -1.6654
  328MPD2    N1 4933   1.103   2.849  16.822 -0.4021 -0.0879  1.0456
  328MPD2    H7 4934   1.137   2.790  16.897  0.3423  0.0865  0.8526
  329TMC3    C1 4935   0.976   2.663  16.757 -0.2372 -0.5600  0.9189
  329TMC3    C2 4936   0.974   2.615  16.884 -0.4656 -0.1592  0.1373
  329TMC3    C3 4937   0.888   2.513  16.918  0.4229  0.2160 -0.5565
  329TMC3    C4 4938   0.911   2.604  16.662  0.1621 -0.1624  0.5441
  329TMC3    C5 4939   0.848   2.481  16.693  0.0364 -0.0933  0.2618
  329TMC3    C6 4940   0.816   2.448  16.823 -0.3434  0.1635 -0.3171
  329TMC3     C 4941   1.017   2.795  16.731  0.0607 -0.0850 -0.3271
  329TMC3     O 4942   0.974   2.847  16.631 -0.1665 -0.2291  0.1128
  329TMC3     H 4943   1.023   2.671  16.963 -0.7550 -1.9354  1.5555
  329TMC3    H1 4944   0.915   2.649  16.563 -0.9121 -0.8548  0.1807
  329TMC3    H2 4945   0.751   2.364  16.845 -2.2482  1.6053 -0.4507
  329TMC3    C7 4946   0.755   2.437  16.589 -0.2174 -0.2036  0.3723
  329TMC3    C8 4947   0.863   2.511  17.061 -0.1132  0.7039  0.4360
  329TMC3    O1 4948   0.651   2.403  16.640 -0.4571  0.4001 -0.8410
  329TMC3    O2 4949   0.872   2.613  17.122 -0.2619  0.3868 -0.1715
  330TMC3    C1 4950   3.131   2.762   9.338 -0.4161 -0.9292 -0.3159
  330TMC3    C2 4951   3.040   2.670   9.298  0.1333 -0.6137  0.2690
  330TMC3    C3 4952   3.063   2.544   9.335 -0.7185  0.3001  0.0571
  330TMC3    C4 4953   3.248   2.739   9.397  0.5906 -0.3400 -0.6936
  330TMC3    C5 4954   3.270   2.604   9.433 -0.1602  0.0321 -0.3367
  330TMC3    C6 4955   3.181   2.508   9.400  0.0805  0.6958 -0.2592
  330TMC3     C 4956   3.098   2.903   9.309  0.2524  0.1102  0.0671
  330TMC3     O 4957   3.196   2.976   9.290  0.5446 -0.1551 -0.2722
  330TMC3     H 4958   2.950   2.697   9.243  0.5383  0.3898  0.1088
  330TMC3    H1 4959   3.310   2.825   9.421 -0.0913 -0.1829  0.5005
  330TMC3    H2 4960   3.201   2.405   9.427  0.4521  0.0630 -2.9597
  330TMC3    C7 4961   3.400   2.561   9.425 -0.8161 -0.3715 -0.2066
  330TMC3    C8 4962   2.944   2.452   9.338  0.0218 -0.2561  0.6838
  330TMC3    O1 4963   3.417   2.438   9.432 -0.1125  0.1758  0.3550
  330TMC3    O2 4964   2.842   2.490   9.285  0.1477  0.7549 -0.3243
  331MPD2     C 4965   1.690   1.097  12.344  0.4386 -0.4171 -0.5947
  331MPD2    C1 4966   1.795   1.184  12.329  0.3814 -0.4017 -0.8067
  331MPD2    C2 4967   1.921   1.136  12.294  0.3712  0.2702  0.0592
  331MPD2    C3 4968   1.936   1.000  12.270  0.7582 -0.5249  0.3838
  331MPD2    C4 4969   1.827   0.912  12.282 -0.5026 -0.1967 -0.6431
  331MPD2    C5 4970   1.706   0.966  12.322  0.7842 -0.9020  0.4562
  331MPD2     H 4971   2.008   1.200  12.294  0.4515  0.1613  0.3770
  331MPD2    H1 4972   1.828   0.807  12.257 -0.6246 -0.6253  1.2037
  331MPD2    H2 4973   1.589   1.130  12.364  0.7523 -0.1790  0.5894
  331MPD2    H3 4974   1.615   0.910  12.341 -1.0531  2.3777  1.1780
  331MPD2     N 4975   2.059   0.956  12.237  0.0207  0.3692  0.0548
  331MPD2    H5 4976   2.128   1.031  12.240  1.0963 -0.5797 -0.6428
  331MPD2    N1 4977   1.774   1.323  12.364  0.7241  0.3090  0.4315
  331MPD2    H7 4978   1.678   1.352  12.380  0.4347 -0.3501 -0.1224
  332TMC3    C1 4979   2.247   0.817  12.186 -0.3812 -0.0663 -0.0017
  332TMC3    C2 4980   2.315   0.931  12.151 -0.1372  0.5917 -0.0196
  332TMC3    C3 4981   2.450   0.932  12.188 -0.4535 -0.2902 -0.5877
  332TMC3    C4 4982   2.307   0.710  12.238 -0.4953  0.5290  0.8722
  332TMC3    C5 4983   2.440   0.721  12.272  0.1277  0.2031 -0.1625
  332TMC3    C6 4984   2.514   0.835  12.251 -0.1442  0.2323 -0.8204
  332TMC3     C 4985   2.105   0.824  12.217  0.4107 -0.0285  0.0330
  332TMC3     O 4986   2.048   0.717  12.231  0.2231  0.8975 -0.2119
  332TMC3     H 4987   2.269   1.009  12.092  0.9668  1.5375  0.3628
  332TMC3    H1 4988   2.242   0.626  12.262 -0.9558 -0.1082 -2.7447
  332TMC3    H2 4989   2.616   0.854  12.282 -0.2487  1.2106 -1.0684
  332TMC3    C7 4990   2.495   0.632  12.372 -0.0686 -0.0370  0.4135
  332TMC3    C8 4991   2.531   1.050  12.159 -0.0225  0.2823 -0.1998
  332TMC3    O1 4992   2.415   0.564  12.436 -0.1617  0.1981  0.2275
  332TMC3    O2 4993   2.630   1.061  12.229  0.5218 -0.2204 -0.0573
  333MPD2     C 4994   1.741   1.860  11.219 -0.3474  0.3920 -0.0003
  333MPD2    C1 4995   1.858   1.794  11.243 -0.3732 -0.4199 -0.4327
  333MPD2    C2 4996   1.844   1.675  11.306 -0.2869  0.0671 -0.2258
  333MPD2    C3 4997   1.730   1.622  11.351 -0.1722 -1.4275 -1.4499
  333MPD2    C4 4998   1.615   1.700  11.342  0.0099 -0.4214 -0.2856
  333MPD2    C5 4999   1.627   1.823  11.281 -0.0630 -0.1190 -0.1326
  333MPD2     H 5000   1.931   1.613  11.321 -0.9648 -0.9290 -0.3928
  333MPD2    H1 5001   1.517   1.669  11.377 -1.0660  0.0027 -2.8823
  333MPD2    H2 5002   1.738   1.947  11.154 -1.8113  1.0135  0.8991
  333MPD2    H3 5003   1.540   1.887  11.267  1.0306  0.7577 -3.0816
  333MPD2     N 5004   1.736   1.496  11.419 -0.5414 -0.1494 -0.3584
  333MPD2    H5 5005   1.822   1.442  11.426 -1.2160 -0.9805  1.3107
  333MPD2    N1 5006   1.981   1.844  11.193  0.1461  0.0728  0.1159
  333MPD2    H7 5007   1.975   1.915  11.120 -1.3803  1.4672  1.6237
  334TMC3    C1 5008   2.226   1.861  11.181  0.0120  0.3577  0.0247
  334TMC3    C2 5009   2.332   1.863  11.264  0.2163  0.1564  0.8505
  334TMC3    C3 5010   2.450   1.895  11.203 -0.0414 -0.2078 -0.5652
  334TMC3    C4 5011   2.219   1.895  11.049 -0.0264  0.2892 -0.6092
  334TMC3    C5 5012   2.336   1.937  10.998 -0.4248 -0.2415  0.1169
  334TMC3    C6 5013   2.453   1.942  11.071  0.5862 -0.4919 -0.0745
  334TMC3     C 5014   2.106   1.799  11.237  0.0316  0.1987  0.2760
  334TMC3     O 5015   2.116   1.742  11.342 -0.1157 -0.6726  0.2705
  334TMC3     H 5016   2.338   1.843  11.370 -0.4811 -1.2610  0.6224
  334TMC3    H1 5017   2.128   1.880  10.992  0.1594 -0.8887 -0.5986
  334TMC3    H2 5018   2.535   1.994  11.023  1.6311 -1.2920  0.8436
  334TMC3    C7 5019   2.338   2.015  10.876 -0.1768  0.2341  0.2420
  334TMC3    C8 5020   2.574   1.877  11.273  0.2236  0.1418 -0.5461
  334TMC3    O1 5021   2.446   2.036  10.819 -0.3709  0.5823  0.3000
  334TMC3    O2 5022   2.572   1.874  11.396 -0.6449 -0.6988 -0.0295
  335TMC3    C1 5023   1.653   3.025  17.312 -0.1978  0.5127 -0.1776
  335TMC3    C2 5024   1.565   3.001  17.213  0.6115  0.6209  0.1234
  335TMC3    C3 5025   1.609   2.996  17.081 -1.1254 -0.4037 -0.3939
  335TMC3    C4 5026   1.782   3.058  17.291  0.2095 -0.8269  0.5358
  335TMC3    C5 5027   1.819   3.049  17.155 -0.5290  0.1347 -0.1826
  335TMC3    C6 5028   1.739   3.017  17.051 -0.5077  0.4328  0.2558
  335TMC3     C 5029   1.602   3.002  17.444 -0.2445 -0.6602  0.4452
  335TMC3     O 5030   1.503   2.926  17.465 -0.1800  0.0034 -0.3558
  335TMC3     H 5031   1.463   2.974  17.239  0.8966  1.2164  1.8462
  335TMC3    H1 5032   1.859   3.060  17.367 -1.9010  0.4633  2.6382
  335TMC3    H2 5033   1.766   2.998  16.947  0.2495  3.3935 -0.0846
  335TMC3    C7 5034   1.951   3.094  17.121  0.7090  0.5608 -0.1986
  335TMC3    C8 5035   1.549   2.879  17.017  0.2185  0.1192  0.3424
  335TMC3    O1 5036   1.998   3.054  17.016 -0.1087 -0.3215  0.3384
  335TMC3    O2 5037   1.501   2.793  17.091  0.1186 -0.0071 -0.2487
  336MPD2     C 5038   1.643   1.233  16.299  0.2065  0.5263 -0.2502
  336MPD2    C1 5039   1.621   1.155  16.193 -0.3090  0.2076  0.9832
  336MPD2    C2 5040   1.620   1.020  16.211  0.2172 -0.0550 -0.0389
  336MPD2    C3 5041   1.637   0.966  16.336  0.1988  0.1593 -0.2668
  336MPD2    C4 5042   1.672   1.045  16.440 -0.2856  0.0175  0.1387
  336MPD2    C5 5043   1.666   1.174  16.416 -0.1964  0.4407 -0.1015
  336MPD2     H 5044   1.599   0.943  16.137 -0.6872 -0.5666  0.7439
  336MPD2    H1 5045   1.698   1.001  16.536  0.3322  2.1427  0.9506
  336MPD2    H2 5046   1.633   1.341  16.293  0.9920  0.5929 -0.3589
  336MPD2    H3 5047   1.679   1.245  16.498 -0.5424  1.4777 -0.9356
  336MPD2     N 5048   1.648   0.830  16.360 -0.0809  0.1399 -0.0915
  336MPD2    H5 5049   1.647   0.797  16.456  0.6252 -0.5932 -0.3377
  336MPD2    N1 5050   1.591   1.204  16.067 -0.2502  0.2229 -0.2708
  336MPD2    H7 5051   1.584   1.132  15.996  1.5016  0.1361 -0.3670
  337TMC3    C1 5052   1.531   1.339  15.888  0.4168  0.2948  0.0302
  337TMC3    C2 5053   1.425   1.416  15.857  0.0344  0.0518 -0.2884
  337TMC3    C3 5054   1.359   1.399  15.737 -0.5472 -0.3672  0.0771
  337TMC3    C4 5055   1.596   1.261  15.798  1.0998  0.1442 -0.0285
  337TMC3    C5 5056   1.540   1.261  15.675 -0.0096  0.8669 -0.1081
  337TMC3    C6 5057   1.421   1.326  15.640 -0.0527  0.2329  0.2772
  337TMC3     C 5058   1.572   1.335  16.030 -0.2712 -0.5197  0.3679
  337TMC3     O 5059   1.571   1.443  16.089 -0.3305 -0.1739 -0.5648
  337TMC3     H 5060   1.382   1.466  15.944 -1.2057 -1.5171 -0.0035
  337TMC3    H1 5061   1.686   1.205  15.823 -0.0242 -0.9887  1.4688
  337TMC3    H2 5062   1.373   1.324  15.543 -0.0465  3.1876  0.2287
  337TMC3    C7 5063   1.616   1.186  15.571  0.9490 -0.7593 -0.1510
  337TMC3    C8 5064   1.213   1.419  15.740 -0.3663  0.4529 -0.2190
  337TMC3    O1 5065   1.729   1.155  15.602 -0.3814 -0.4607  0.0800
  337TMC3    O2 5066   1.159   1.445  15.845  0.1214 -0.3872  0.5494
  338MPD2     C 5067   2.397   0.314   0.600  0.3653  0.9369 -0.6596
  338MPD2    C1 5068   2.257   0.320   0.573  0.1182 -0.7808 -0.1633
  338MPD2    C2 5069   2.184   0.430   0.602 -0.3916 -0.3438  0.1130
  338MPD2    C3 5070   2.246   0.542   0.666 -1.3892  0.2555 -0.0413
  338MPD2    C4 5071   2.380   0.529   0.699  0.2179 -0.0467  0.0342
  338MPD2    C5 5072   2.454   0.416   0.658 -0.6881 -0.4001 -0.1649
  338MPD2     H 5073   2.079   0.438   0.576 -0.7048  0.7288  1.7445
  338MPD2    H1 5074   2.422   0.606   0.762  0.5323  0.1699 -0.4401
  338MPD2    H2 5075   2.455   0.235   0.555 -0.6185  0.3627 -0.9249
  338MPD2    H3 5076   2.560   0.425   0.674 -0.9206  2.4848 -0.3921
  338MPD2     N 5077   2.167   0.652   0.702  0.9062 -0.5419 -0.3397
  338MPD2    H5 5078   2.068   0.639   0.686  0.8328 -0.0428 -0.2725
  338MPD2    N1 5079   2.185   0.217   0.508 -0.6860 -0.2436 -0.2116
  338MPD2    H7 5080   2.089   0.236   0.484 -0.4559  4.0737  2.3175
  339TMC3    C1 5081   2.086   0.839   0.810 -0.6626  0.0715  0.1514
  339TMC3    C2 5082   2.088   0.908   0.922  0.0442 -0.0536 -0.1055
  339TMC3    C3 5083   1.987   0.988   0.958  0.1967  0.1916  0.4276
  339TMC3    C4 5084   1.987   0.848   0.722 -0.2305  0.6379 -0.2389
  339TMC3    C5 5085   1.886   0.929   0.753 -0.2730  0.4377  0.3793
  339TMC3    C6 5086   1.884   1.006   0.872 -0.7363 -0.0937  0.7661
  339TMC3     C 5087   2.202   0.754   0.786 -0.0866 -0.3455  0.9327
  339TMC3     O 5088   2.311   0.787   0.835 -0.4222 -0.3387  0.1898
  339TMC3     H 5089   2.176   0.899   0.985  1.2827  0.4213 -1.7771
  339TMC3    H1 5090   1.991   0.793   0.629 -2.1190  0.7598 -0.3843
  339TMC3    H2 5091   1.788   1.055   0.885 -0.0696  1.4882 -0.3795
  339TMC3    C7 5092   1.772   0.943   0.662  0.4430  0.4519 -0.1230
  339TMC3    C8 5093   1.984   1.072   1.073 -0.1733 -0.3466 -0.3108
  339TMC3    O1 5094   1.705   1.039   0.666 -0.0187 -0.2170  1.0002
  339TMC3    O2 5095   2.095   1.094   1.118 -0.0549  0.0663  0.3890
  340MPD2     C 5096   1.558   3.676   9.439 -0.1222 -0.3269  0.3377
  340MPD2    C1 5097   1.618   3.557   9.483  0.2543  0.8751 -0.7885
  340MPD2    C2 5098   1.690   3.546   9.599 -0.6398  0.2230 -0.3708
  340MPD2    C3 5099   1.687   3.655   9.690  0.1347 -0.5837 -0.3089
  340MPD2    C4 5100   1.628   3.775   9.647 -1.1681  0.4394  0.3124
  340MPD2    C5 5101   1.557   3.781   9.528 -0.0226  0.6108  0.5074
  340MPD2     H 5102   1.749   3.458   9.623 -1.1000  0.0699  0.2057
  340MPD2    H1 5103   1.619   3.867   9.704  0.4626 -0.1220  1.4433
  340MPD2    H2 5104   1.514   3.683   9.340  0.6699 -1.1103 -0.0593
  340MPD2    H3 5105   1.508   3.874   9.502 -0.1295 -0.1479 -2.0128
  340MPD2     N 5106   1.766   3.664   9.807  0.1366  0.2397  0.2334
  340MPD2    H5 5107   1.791   3.757   9.840 -1.3207  0.8908 -0.4811
  340MPD2    N1 5108   1.595   3.450   9.397  0.2139 -0.1601  0.0359
  340MPD2    H7 5109   1.564   3.475   9.304 -0.7879 -5.1795 -1.0012
  341TMC3    C1 5110   1.581   3.240   9.300  0.7250 -0.0681 -0.1761
  341TMC3    C2 5111   1.494   3.132   9.321 -0.2586  0.1900  0.3989
  341TMC3    C3 5112   1.468   3.062   9.207  0.2824 -0.7129  0.2013
  341TMC3    C4 5113   1.639   3.270   9.176 -0.2186 -0.3990 -0.0610
  341TMC3    C5 5114   1.603   3.190   9.066 -0.5858  0.3847  0.3252
  341TMC3    C6 5115   1.523   3.086   9.088  0.7906 -0.4913 -0.1117
  341TMC3     C 5116   1.628   3.315   9.417  0.2205  0.3437 -0.1915
  341TMC3     O 5117   1.656   3.259   9.524 -0.0125 -0.3277  0.4935
  341TMC3     H 5118   1.447   3.098   9.412 -1.2233  0.6789  0.0890
  341TMC3    H1 5119   1.692   3.362   9.160 -0.1878  0.0727  2.8278
  341TMC3    H2 5120   1.507   3.016   9.007 -0.6638 -0.3124  0.0149
  341TMC3    C7 5121   1.715   3.152   8.983  0.4170 -0.0753  0.2138
  341TMC3    C8 5122   1.417   2.931   9.227 -0.4440 -1.2082  0.0536
  341TMC3    O1 5123   1.722   3.037   8.939 -0.0674  0.4687  0.0836
  341TMC3    O2 5124   1.355   2.883   9.133  0.5177  0.0803 -0.3930
  342MPD2     C 5125   4.333   1.256  17.448 -0.3597  0.1313  0.4484
  342MPD2    C1 5126   4.418   1.288  17.346  0.3798 -0.4613 -0.7031
  342MPD2    C2 5127   4.445   1.422  17.330  0.1994 -0.2347  0.2039
  342MPD2    C3 5128   4.378   1.517  17.409  0.2248  0.2001 -0.2204
  342MPD2    C4 5129   4.303   1.472  17.519  0.1526 -0.5590 -0.1983
  342MPD2    C5 5130   4.269   1.342  17.531  0.6688 -0.1083  0.4694
  342MPD2     H 5131   4.513   1.455  17.253  0.5237  1.4208  1.2048
  342MPD2    H1 5132   4.271   1.541  17.596 -1.0535 -0.5272 -0.7105
  342MPD2    H2 5133   4.310   1.151  17.463  3.1403 -0.6749  0.1923
  342MPD2    H3 5134   4.212   1.301  17.614 -3.0338 -0.5967 -2.3021
  342MPD2     N 5135   4.403   1.657  17.389  0.1288 -0.9476 -0.2457
  342MPD2    H5 5136   4.359   1.713  17.461  0.9545  0.0874 -0.5442
  342MPD2    N1 5137   4.486   1.194  17.264  0.1660 -0.5087  0.5147
  342MPD2    H7 5138   4.560   1.242  17.214 -1.7183  2.8719  0.9612
  343TMC3    C1 5139   4.528   0.993  17.148 -0.1731  0.9308 -0.2651
  343TMC3    C2 5140   4.603   1.057  17.051  0.5108 -0.3238 -0.1148
  343TMC3    C3 5141   4.643   0.992  16.935 -0.3551  0.1389  0.1352
  343TMC3    C4 5142   4.485   0.861  17.124  0.1118  0.3319 -0.0363
  343TMC3    C5 5143   4.523   0.798  17.005  0.7441 -0.0910  0.1420
  343TMC3    C6 5144   4.616   0.856  16.919 -0.0823 -0.3128 -0.1379
  343TMC3     C 5145   4.461   1.058  17.253 -0.0241 -0.2591 -0.0816
  343TMC3     O 5146   4.380   0.993  17.322  0.1495 -0.7346  0.5645
  343TMC3     H 5147   4.642   1.154  17.082 -1.3864 -0.1635  1.7914
  343TMC3    H1 5148   4.414   0.819  17.195  0.6781 -1.0689 -0.2982
  343TMC3    H2 5149   4.648   0.802  16.830  2.7600  2.2920 -0.7106
  343TMC3    C7 5150   4.500   0.651  16.995 -0.1330  0.0082 -0.0658
  343TMC3    C8 5151   0.049   1.051  16.887  0.2362 -0.0046 -0.2931
  343TMC3    O1 5152   4.483   0.605  16.881 -0.2618 -0.3255 -0.0786
  343TMC3    O2 5153   0.084   1.158  16.929  0.3406  0.4312  0.1024
  344MPD2     C 5154   0.998   0.953  10.581 -0.8707  0.9665  0.0477
  344MPD2    C1 5155   0.876   0.946  10.520  0.6290 -0.2907  0.1725
  344MPD2    C2 5156   0.845   1.037  10.425  0.3032 -0.2670 -0.9343
  344MPD2    C3 5157   0.932   1.143  10.396 -0.1903  0.4697 -0.4801
  344MPD2    C4 5158   1.054   1.146  10.454  0.2947  0.1988  0.0941
  344MPD2    C5 5159   1.088   1.044  10.544  0.3444  0.0693  0.0022
  344MPD2     H 5160   0.742   1.034  10.390  1.1552 -2.3944 -3.2991
  344MPD2    H1 5161   1.126   1.226  10.441 -1.4890  2.0312  1.4558
  344MPD2    H2 5162   1.029   0.883  10.658 -1.7889 -1.9828 -2.2604
  344MPD2    H3 5163   1.186   1.042  10.591  0.1509  2.0593  0.5054
  344MPD2     N 5164   0.899   1.252  10.309  0.1889 -0.1596 -0.1105
  344MPD2    H5 5165   0.977   1.313  10.286 -0.0778  0.2962  0.1942
  344MPD2    N1 5166   0.774   0.851  10.560  0.0343  0.0798 -0.2743
  344MPD2    H7 5167   0.683   0.871  10.520  0.9302  0.7573 -2.0040
  345TMC3    C1 5168   0.799   1.385  10.153  0.0807  0.6117  0.0533
  345TMC3    C2 5169   0.891   1.472  10.189  0.0719 -0.2215 -0.0645
  345TMC3    C3 5170   0.921   1.572  10.103 -0.2579 -0.2584 -0.1198
  345TMC3    C4 5171   0.722   1.395  10.041 -0.1478  0.2742  0.5263
  345TMC3    C5 5172   0.759   1.485   9.945  0.2811 -0.5679  0.1943
  345TMC3    C6 5173   0.855   1.580   9.980  0.3310 -0.4943 -0.6461
  345TMC3     C 5174   0.784   1.269  10.234 -0.3280  0.0911 -0.3172
  345TMC3     O 5175   0.693   1.199  10.210  0.3911  0.1660  0.5000
  345TMC3     H 5176   0.937   1.471  10.287  1.3265  2.2575 -0.6406
  345TMC3    H1 5177   0.639   1.325  10.039 -0.3470  0.5202  0.1721
  345TMC3    H2 5178   0.867   1.668   9.917 -0.4485 -0.6499 -1.0048
  345TMC3    C7 5179   0.670   1.535   9.847  0.6862 -0.3297  0.4153
  345TMC3    C8 5180   1.040   1.653  10.142 -0.0575  0.1052 -0.1165
  345TMC3    O1 5181   0.709   1.626   9.777  0.4501  0.2748 -0.3171
  345TMC3    O2 5182   1.086   1.640  10.257  0.3369  0.1178  0.1406
  346MPD2     C 5183   0.594   2.411  13.912  0.3689 -0.8292  0.2745
  346MPD2    C1 5184   0.672   2.521  13.897 -0.0521  0.0553  0.7621
  346MPD2    C2 5185   0.719   2.585  14.011 -0.5544  0.3227  0.1894
  346MPD2    C3 5186   0.696   2.536  14.135  0.1211  0.6901 -0.3280
  346MPD2    C4 5187   0.627   2.418  14.146  0.2038  0.6515 -0.5638
  346MPD2    C5 5188   0.588   2.348  14.033  0.3216  0.2237 -0.0287
  346MPD2     H 5189   0.764   2.681  13.990  0.5360 -0.3606 -0.5705
  346MPD2    H1 5190   0.612   2.361  14.237  1.1787 -0.5866 -1.1731
  346MPD2    H2 5191   0.552   2.355  13.828 -2.2413 -0.0475  1.0500
  346MPD2    H3 5192   0.535   2.254  14.037  2.0871 -0.8401 -1.8203
  346MPD2     N 5193   0.747   2.608  14.249 -0.3137  1.0511  0.7113
  346MPD2    H5 5194   0.805   2.689  14.233 -0.6708  1.1434 -0.1333
  346MPD2    N1 5195   0.710   2.576  13.771 -0.3585 -0.1632 -0.0164
  346MPD2    H7 5196   0.752   2.669  13.768 -2.2425  0.6487 -1.0300
  347TMC3    C1 5197   0.838   2.632  14.464 -0.1929 -0.1088 -0.5665
  347TMC3    C2 5198   0.964   2.664  14.414  0.7609  0.4758  0.0169
  347TMC3    C3 5199   1.055   2.724  14.498 -0.4013  0.0170  0.2801
  347TMC3    C4 5200   0.802   2.654  14.600  0.2408  0.5072 -0.5274
  347TMC3    C5 5201   0.905   2.708  14.681 -0.1006  0.1132 -0.8066
  347TMC3    C6 5202   1.029   2.729  14.631 -0.3713 -0.6375 -0.4494
  347TMC3     C 5203   0.737   2.574  14.384  0.1226 -0.3867 -0.0947
  347TMC3     O 5204   0.673   2.480  14.436  0.0760 -0.8671  0.1078
  347TMC3     H 5205   0.998   2.639  14.314  1.0181 -2.3819  0.8290
  347TMC3    H1 5206   0.706   2.615  14.634  0.7659  1.2897  1.9103
  347TMC3    H2 5207   1.116   2.748  14.693 -0.1670 -2.2455 -0.2375
  347TMC3    C7 5208   0.868   2.703  14.820 -0.2477 -0.7523 -0.0125
  347TMC3    C8 5209   1.179   2.771  14.436 -0.0017  0.3663  0.3027
  347TMC3    O1 5210   0.763   2.643  14.848  0.3490 -0.2484 -0.1612
  347TMC3    O2 5211   1.177   2.770  14.312  0.1245  0.5771  0.2524
  348MPD2     C 5212   0.034   2.165  11.888  0.2825 -0.3304  0.0653
  348MPD2    C1 5213   4.659   2.119  11.795 -0.7219 -0.2296  0.6170
  348MPD2    C2 5214   4.646   2.199  11.688  0.3068 -0.2911  0.0910
  348MPD2    C3 5215   4.701   2.319  11.677  0.3071 -0.7436 -0.1915
  348MPD2    C4 5216   0.066   2.368  11.770  0.3443 -0.3676  0.1304
  348MPD2    C5 5217   0.099   2.282  11.871  0.5515 -0.4129 -0.0046
  348MPD2     H 5218   4.572   2.180  11.612 -0.0777  0.2568  0.3296
  348MPD2    H1 5219   0.118   2.462  11.756  0.3459 -0.4283 -0.2598
  348MPD2    H2 5220   0.040   2.106  11.979  0.3336 -0.2157  0.1365
  348MPD2    H3 5221   0.171   2.312  11.947 -2.1626  1.2600  1.9066
  348MPD2     N 5222   4.666   2.391  11.562 -0.1885 -0.3340 -0.2376
  348MPD2    H5 5223   4.602   2.337  11.504  0.5028 -0.1566 -1.1640
  348MPD2    N1 5224   4.577   2.005  11.807 -0.1176  0.0439 -0.5777
  348MPD2    H7 5225   4.505   1.987  11.738  0.8579  1.8037 -2.0666
  349TMC3    C1 5226   4.443   1.854  11.927 -0.2944 -0.4419 -0.5333
  349TMC3    C2 5227   4.431   1.765  12.033  0.0892  0.8717  0.0809
  349TMC3    C3 5228   4.299   1.720  12.058  0.0695 -0.3812  0.2015
  349TMC3    C4 5229   4.337   1.898  11.854 -0.3829 -0.2214  0.9822
  349TMC3    C5 5230   4.210   1.863  11.892 -0.3483  0.3852 -0.6449
  349TMC3    C6 5231   4.188   1.761  11.984 -0.1132 -0.1147  0.0736
  349TMC3     C 5232   4.568   1.928  11.923 -0.1865  0.2669 -0.9346
  349TMC3     O 5233   4.643   1.923  12.019 -0.2177 -0.1376  0.1043
  349TMC3     H 5234   4.511   1.744  12.103 -2.8113 -1.2613  2.7573
  349TMC3    H1 5235   4.346   1.997  11.810  1.9135  0.2361  2.4997
  349TMC3    H2 5236   4.093   1.709  11.995 -0.3791 -0.1319 -2.2812
  349TMC3    C7 5237   4.094   1.918  11.822 -0.2755  0.2922 -1.0534
  349TMC3    C8 5238   4.275   1.643  12.183  0.0521  0.3568 -0.3615
  349TMC3    O1 5239   3.980   1.899  11.866  0.0397  0.3305  0.2889
  349TMC3    O2 5240   4.374   1.584  12.219 -0.4177  0.2172 -0.1672
  350MPD2     C 5241   2.915   0.501  10.381 -0.0758 -0.5871  0.2559
  350MPD2    C1 5242   3.030   0.485  10.307 -0.2109  0.1717 -0.3371
  350MPD2    C2 5243   3.121   0.585  10.291 -0.2499 -0.2019  0.6256
  350MPD2    C3 5244   3.106   0.700  10.362 -0.0386  0.2714 -0.5268
  350MPD2    C4 5245   2.990   0.723  10.430  0.6427  0.1698 -0.3994
  350MPD2    C5 5246   2.891   0.627  10.433 -0.4359  0.0356  0.2513
  350MPD2     H 5247   3.210   0.579  10.229 -0.9321  1.7119 -0.5436
  350MPD2    H1 5248   2.967   0.817  10.479  2.2723 -0.5870  1.8321
  350MPD2    H2 5249   2.848   0.417  10.389 -1.4083  0.4572  0.1531
  350MPD2    H3 5250   2.804   0.656  10.491  0.0924  1.5803  0.2627
  350MPD2     N 5251   3.208   0.798  10.354  0.3011 -0.9156 -0.4408
  350MPD2    H5 5252   3.292   0.774  10.303  1.7238  2.1129  0.4264
  350MPD2    N1 5253   3.059   0.365  10.245 -0.0970 -0.1861  0.6862
  350MPD2    H7 5254   3.146   0.362  10.195 -0.6393  1.8703 -0.3755
  351TMC3    C1 5255   3.065   0.138  10.177 -0.0453  0.5566  0.3786
  351TMC3    C2 5256   3.188   0.165  10.115  0.4317 -0.1535  0.2268
  351TMC3    C3 5257   3.245   0.062  10.049  0.2875  0.5115  0.0447
  351TMC3    C4 5258   3.000   0.016  10.176  0.1188 -0.0992  0.2402
  351TMC3    C5 5259   3.067   4.643  10.100  0.1551 -0.2498 -0.1004
  351TMC3    C6 5260   3.188   4.665  10.033  0.6318  0.4262 -0.2642
  351TMC3     C 5261   2.987   0.245  10.244  0.6133  0.3649 -0.8430
  351TMC3     O 5262   2.888   0.222  10.311  0.0763  0.1477  0.9062
  351TMC3     H 5263   3.246   0.250  10.148  1.4675  0.3427 -2.9071
  351TMC3    H1 5264   2.905   4.720  10.223  0.0274 -0.1533  0.0325
  351TMC3    H2 5265   3.236   4.590   9.971  1.4799 -0.2516  1.2209
  351TMC3    C7 5266   3.010   4.512  10.077  0.2510  0.4926  0.2912
  351TMC3    C8 5267   3.356   0.089   9.958 -0.4290  0.5106 -0.6321
  351TMC3    O1 5268   3.062   4.443   9.992 -0.2317  0.1485  0.1249
  351TMC3    O2 5269   3.402   4.713   9.908  0.7117  0.0502 -0.6994
  352MPD2     C 5270   2.692   2.709   0.357  0.5906  0.4296  0.1557
  352MPD2    C1 5271   2.588   2.675   0.438  0.4015 -0.8096  0.5437
  352MPD2    C2 5272   2.590   2.543   0.491  0.5105  0.3011  0.1843
  352MPD2    C3 5273   2.692   2.454   0.471 -0.2782  0.1525  0.5866
  352MPD2    C4 5274   2.793   2.494   0.386  0.4757 -0.0332  0.2452
  352MPD2    C5 5275   2.790   2.618   0.324 -0.0342  0.1744 -0.0933
  352MPD2     H 5276   2.501   2.517   0.548  0.2268  0.1545 -0.3225
  352MPD2    H1 5277   2.869   2.424   0.355  1.3022  0.2776  1.5646
  352MPD2    H2 5278   2.702   2.812   0.326 -0.8205  0.2622 -0.8433
  352MPD2    H3 5279   2.868   2.648   0.255 -0.8280  0.3546 -0.9179
  352MPD2     N 5280   2.701   2.324   0.523 -0.2947 -0.3590 -0.0338
  352MPD2    H5 5281   2.765   2.253   0.489  0.2995  0.4647 -0.6273
  352MPD2    N1 5282   2.485   2.774   0.454 -0.5255  0.3716  0.0841
  352MPD2    H7 5283   2.476   2.833   0.372 -1.2626  1.5283  1.0077
  353TMC3    C1 5284   2.636   2.135   0.659 -0.8636 -0.6416  0.6298
  353TMC3    C2 5285   2.747   2.075   0.595 -0.9991 -0.2493 -0.1090
  353TMC3    C3 5286   2.744   1.944   0.571 -0.3437  0.2957 -0.5230
  353TMC3    C4 5287   2.530   2.069   0.697  0.4122  0.1248  0.2340
  353TMC3    C5 5288   2.519   1.939   0.654 -0.7739  0.8814 -0.0977
  353TMC3    C6 5289   2.630   1.872   0.601 -0.2782 -0.0991  0.0401
  353TMC3     C 5290   2.620   2.277   0.626  0.2475 -0.1449 -0.7989
  353TMC3     O 5291   2.533   2.334   0.695  0.6673 -0.1405 -0.0231
  353TMC3     H 5292   2.835   2.132   0.567 -0.7700 -0.9240 -0.7824
  353TMC3    H1 5293   2.445   2.134   0.720  1.6134  2.3916 -1.7702
  353TMC3    H2 5294   2.605   1.769   0.579 -1.7152 -0.1302  1.7798
  353TMC3    C7 5295   2.399   1.863   0.687 -0.2986 -0.7351  0.4192
  353TMC3    C8 5296   2.866   1.878   0.531  0.5327 -0.1813 -0.2789
  353TMC3    O1 5297   2.388   1.751   0.637  0.3961  0.3552 -0.0193
  353TMC3    O2 5298   2.962   1.954   0.514  0.4213  0.0918 -0.2483
  354TMC3    C1 5299   3.704   3.295  13.123  0.5201  0.3216  0.4124
  354TMC3    C2 5300   3.681   3.427  13.120 -0.4950  0.6579  0.2716
  354TMC3    C3 5301   3.656   3.479  12.994 -0.3129 -0.4412  0.2234
  354TMC3    C4 5302   3.670   3.209  13.019  0.3996  0.1491 -0.3476
  354TMC3    C5 5303   3.654   3.265  12.898 -0.2066  0.7788 -0.2465
  354TMC3    C6 5304   3.646   3.400  12.889  0.0500  0.0364  0.2547
  354TMC3     C 5305   3.699   3.231  13.252  0.6700 -0.6504 -0.2342
  354TMC3     O 5306   3.641   3.127  13.254 -0.5951 -0.6949 -0.3354
  354TMC3     H 5307   3.670   3.478  13.215 -0.9688  1.8856 -0.4494
  354TMC3    H1 5308   3.695   3.103  13.023 -1.1357 -0.2130 -0.2934
  354TMC3    H2 5309   3.620   3.448  12.795  1.7986 -0.5147 -0.4972
  354TMC3    C7 5310   3.723   3.207  12.784  0.1077  0.6097 -0.5878
  354TMC3    C8 5311   3.704   3.603  12.962  0.7455  0.2980 -0.4296
  354TMC3    O1 5312   3.727   3.087  12.780  0.4045  0.2533 -0.1420
  354TMC3    O2 5313   3.777   3.605  12.860 -0.2172 -0.3080  0.2495
  355MPD2     C 5314   3.610   4.227  11.801  0.2165 -0.6669  0.3046
  355MPD2    C1 5315   3.632   4.316  11.703 -0.0207  0.1524  0.3429
  355MPD2    C2 5316   3.761   4.368  11.691  0.3563  0.1554 -0.0692
  355MPD2    C3 5317   3.857   4.344  11.789 -0.3435 -0.1663 -0.0060
  355MPD2    C4 5318   3.834   4.241  11.879 -0.5432  0.5899  0.5346
  355MPD2    C5 5319   3.707   4.187  11.883  0.3004 -0.1857  0.3237
  355MPD2     H 5320   3.796   4.416  11.601  0.5434  1.3058  0.6157
  355MPD2    H1 5321   3.910   4.222  11.954 -0.2299 -3.3021 -0.7492
  355MPD2    H2 5322   3.509   4.188  11.815 -0.2678  0.0074 -1.3314
  355MPD2    H3 5323   3.681   4.101  11.944  0.5026 -0.2096  0.3754
  355MPD2     N 5324   3.983   4.409  11.793  0.0632 -0.1139 -0.3346
  355MPD2    H5 5325   4.035   4.405  11.881 -1.8592 -0.9140  0.7600
  355MPD2    N1 5326   3.527   4.349  11.618 -0.2618 -0.3883 -0.1035
  355MPD2    H7 5327   3.444   4.291  11.621  0.3105 -1.1897  0.1707
  356TMC3    C1 5328   4.104   4.608  11.791  0.0275  0.3930 -0.0594
  356TMC3    C2 5329   4.152   4.716  11.724 -0.2861 -0.4496  0.2106
  356TMC3    C3 5330   4.257   0.061  11.772 -0.1706  0.3742 -0.2140
  356TMC3    C4 5331   4.134   4.587  11.925  0.2684  0.1599 -0.7186
  356TMC3    C5 5332   4.231   4.670  11.975  0.8037 -0.6130 -0.0013
  356TMC3    C6 5333   4.302   0.040  11.903  0.1246  0.0073  0.2820
  356TMC3     C 5334   4.012   4.519  11.719  0.5521 -0.0349  0.3945
  356TMC3     O 5335   3.982   4.554  11.608 -0.1039 -0.2177  0.7279
  356TMC3     H 5336   4.122   0.009  11.621 -0.9151 -1.7382  0.1946
  356TMC3    H1 5337   4.081   4.517  11.987  0.0322 -1.3491 -2.6128
  356TMC3    H2 5338   4.383   0.101  11.943  0.3299  0.6529 -1.1162
  356TMC3    C7 5339   4.255   4.665  12.114 -0.0474 -0.9570 -0.2603
  356TMC3    C8 5340   4.284   0.194  11.722  0.4006 -0.3150  0.8011
  356TMC3    O1 5341   4.231   4.564  12.176  0.5434 -0.2486 -0.3454
  356TMC3    O2 5342   4.205   0.223  11.634  0.3516 -0.1059 -0.9225
  357MPD2     C 5343   4.230   4.390   1.206  0.5965 -0.5004 -0.6255
  357MPD2    C1 5344   4.347   4.351   1.147 -0.6553 -0.1656  0.1669
  357MPD2    C2 5345   4.467   4.351   1.225 -0.0053 -0.9032  0.6386
  357MPD2    C3 5346   4.466   4.386   1.353  0.0578  0.3208 -0.0517
  357MPD2    C4 5347   4.351   4.426   1.412 -0.5420  0.1469  0.0289
  357MPD2    C5 5348   4.233   4.417   1.342  0.0933 -0.2106  0.3221
  357MPD2     H 5349   4.557   4.313   1.178 -0.3904 -2.3055  1.0385
  357MPD2    H1 5350   4.360   4.454   1.517  1.1126  1.7871 -0.5375
  357MPD2    H2 5351   4.141   4.403   1.146  0.3397 -0.9050 -0.3303
  357MPD2    H3 5352   4.138   4.454   1.378  0.0865  1.9774 -1.9071
  357MPD2     N 5353   4.587   4.379   1.421 -0.4393  0.4969 -0.1492
  357MPD2    H5 5354   4.655   4.314   1.382  0.2844  0.7507  0.6854
  357MPD2    N1 5355   4.350   4.307   1.014 -0.1754  0.7385  0.5058
  357MPD2    H7 5356   4.262   4.282   0.970  0.8725  0.0205 -1.1756
  358TMC3    C1 5357   4.462   4.229   0.815  0.5364 -0.5342 -0.1102
  358TMC3    C2 5358   4.343   4.153   0.810  0.4879  0.1997  0.0427
  358TMC3    C3 5359   4.349   4.038   0.745 -0.3909 -0.2711 -0.5883
  358TMC3    C4 5360   4.584   4.186   0.769  0.2629 -0.4270  0.4605
  358TMC3    C5 5361   4.584   4.059   0.719 -0.4246 -0.8486 -0.3910
  358TMC3    C6 5362   4.471   3.984   0.709  0.5296 -0.4745 -0.1932
  358TMC3     C 5363   4.464   4.312   0.932 -0.2581 -0.0123 -1.1064
  358TMC3     O 5364   4.565   4.378   0.947  0.7333  0.5145 -0.3943
  358TMC3     H 5365   4.249   4.203   0.828  0.0389 -0.6548  0.0706
  358TMC3    H1 5366   4.669   4.247   0.794 -1.7396  2.3610  0.5128
  358TMC3    H2 5367   4.487   3.890   0.658 -1.1220 -0.0454 -1.4861
  358TMC3    C7 5368   4.709   3.995   0.701 -0.4371 -0.3103  0.3765
  358TMC3    C8 5369   4.232   3.969   0.704  0.0493  0.3775 -0.7185
  358TMC3    O1 5370   4.719   3.877   0.738 -0.2190  0.2934 -0.6951
  358TMC3    O2 5371   4.132   4.037   0.695  0.7097  0.2948 -0.0581
  359MPD2     C 5372   4.005   3.532  11.896  0.1935 -0.1960 -0.2986
  359MPD2    C1 5373   4.030   3.414  11.838 -0.4890 -0.1764 -0.4204
  359MPD2    C2 5374   3.933   3.323  11.823 -0.4317 -0.2870  0.2404
  359MPD2    C3 5375   3.819   3.337  11.898 -0.4017  0.2742  0.8441
  359MPD2    C4 5376   3.791   3.464  11.964 -0.0633  0.4486 -0.1729
  359MPD2    C5 5377   3.885   3.561  11.950  0.2586 -0.2237  0.1737
  359MPD2     H 5378   3.953   3.233  11.765  2.5614  0.7737 -0.3881
  359MPD2    H1 5379   3.693   3.480  12.007  0.6578  1.2526  1.1703
  359MPD2    H2 5380   4.083   3.607  11.908  0.7393 -0.3098 -2.9936
  359MPD2    H3 5381   3.868   3.658  11.995  0.0430 -0.7736  1.2643
  359MPD2     N 5382   3.716   3.243  11.913  0.4087 -0.0123 -0.0842
  359MPD2    H5 5383   3.643   3.271  11.978  1.0819  2.1454 -0.2475
  359MPD2    N1 5384   4.156   3.384  11.773 -0.2201 -0.8564 -0.6800
  359MPD2    H7 5385   4.144   3.307  11.709 -2.8786 -2.0932  1.2973
  360TMC3    C1 5386   4.385   3.414  11.714  0.3698 -0.9807  0.6825
  360TMC3    C2 5387   4.480   3.509  11.698  0.2359  0.0781 -0.5645
  360TMC3    C3 5388   4.610   3.471  11.678  0.0256 -0.0346 -0.2519
  360TMC3    C4 5389   4.411   3.278  11.717  0.5598  0.7665  1.1451
  360TMC3    C5 5390   4.539   3.245  11.703 -1.1903  0.1672  0.5878
  360TMC3    C6 5391   4.641   3.337  11.701  0.6442  0.6184  0.3428
  360TMC3     C 5392   4.269   3.461  11.787 -0.0191  0.0699  0.6438
  360TMC3     O 5393   4.288   3.565  11.843 -0.0676  0.0980 -0.1994
  360TMC3     H 5394   4.445   3.601  11.651  2.0124  1.1874  0.3077
  360TMC3    H1 5395   4.337   3.204  11.741  0.2344 -0.0322 -2.2476
  360TMC3    H2 5396   0.017   3.297  11.681 -0.1343 -0.3468 -1.6634
  360TMC3    C7 5397   4.570   3.117  11.637 -0.1364  0.2186  0.6986
  360TMC3    C8 5398   4.708   3.556  11.616 -1.3551 -0.7504 -0.6898
  360TMC3    O1 5399   4.669   3.114  11.567  0.4192  0.9131  0.3599
  360TMC3    O2 5400   4.702   3.678  11.607  0.2280 -0.5924 -0.5007
  361MPD2     C 5401   0.704   1.748  16.633 -0.3972 -0.7877 -0.0513
  361MPD2    C1 5402   0.635   1.790  16.748  0.3308 -0.3483 -0.2104
  361MPD2    C2 5403   0.686   1.748  16.868 -0.0059  0.1385 -0.4800
  361MPD2    C3 5404   0.788   1.653  16.877 -0.7030 -0.4513  0.6735
  361MPD2    C4 5405   0.844   1.610  16.757 -0.0564 -0.2461 -0.0858
  361MPD2    C5 5406   0.807   1.663  16.636 -0.1094  0.3315  0.1526
  361MPD2     H 5407   0.635   1.778  16.958 -0.3014 -1.5012 -0.0888
  361MPD2    H1 5408   0.918   1.532  16.747  0.3992 -0.1231  2.5373
  361MPD2    H2 5409   0.670   1.777  16.534 -1.3809 -0.1031  0.4914
  361MPD2    H3 5410   0.858   1.624  16.549  1.0495 -1.9544  1.8846
  361MPD2     N 5411   0.836   1.591  16.995 -0.2158 -0.0121 -0.4611
  361MPD2    H5 5412   0.903   1.518  16.975 -0.1517  0.0495 -0.4713
  361MPD2    N1 5413   0.523   1.872  16.733 -0.0271 -0.0116 -0.5712
  361MPD2    H7 5414   0.497   1.920  16.647 -1.1032 -0.7016 -0.6337
  362TMC3    C1 5415   0.332   1.987  16.806 -0.3367 -0.1233 -0.4113
  362TMC3    C2 5416   0.214   1.957  16.861  0.4825  0.6572  0.3807
  362TMC3    C3 5417   0.102   2.012  16.807 -0.9229 -0.3611  0.1902
  362TMC3    C4 5418   0.340   2.067  16.693 -0.2276  0.2877 -0.1098
  362TMC3    C5 5419   0.222   2.120  16.637  0.1170  1.0994  0.7707
  362TMC3    C6 5420   0.098   2.090  16.695 -0.5427 -0.0885  0.4595
  362TMC3     C 5421   0.437   1.899  16.843  0.0758 -0.0333  0.1618
  362TMC3     O 5422   0.421   1.831  16.945  0.1253  0.0187 -0.4167
  362TMC3     H 5423   0.203   1.904  16.956  0.0044  2.1028  1.1259
  362TMC3    H1 5424   0.434   2.096  16.647  0.4605 -2.6340 -0.5639
  362TMC3    H2 5425   0.005   2.134  16.662 -0.8240 -0.9831  0.0744
  362TMC3    C7 5426   0.221   2.200  16.518 -0.1088 -0.8636  0.0962
  362TMC3    C8 5427   4.696   1.978  16.865 -0.3917  0.1286  0.8543
  362TMC3    O1 5428   0.301   2.291  16.499  0.2601  0.1942 -0.5198
  362TMC3    O2 5429   4.678   1.866  16.919  0.2021 -0.5992  0.3583
  363TMC3    C1 5430   4.342   0.177   9.022  0.2781  0.5099  0.5921
  363TMC3    C2 5431   4.349   0.091   9.133  0.6731 -0.0241 -0.8622
  363TMC3    C3 5432   4.260   0.120   9.238 -1.0054  0.5334  0.4177
  363TMC3    C4 5433   4.240   0.272   9.006 -0.0370  0.6773 -0.0982
  363TMC3    C5 5434   4.152   0.295   9.113 -0.6301  0.4066 -0.0097
  363TMC3    C6 5435   4.163   0.220   9.229 -0.3703  0.2120 -0.2128
  363TMC3     C 5436   4.404   0.131   8.892  0.2928  0.6307 -0.2953
  363TMC3     O 5437   4.406   0.202   8.793  0.1472  0.4850  0.0262
  363TMC3     H 5438   4.423   0.014   9.151  0.6010 -0.3847 -2.1121
  363TMC3    H1 5439   4.244   0.324   8.911  1.7907 -1.1523 -1.0136
  363TMC3    H2 5440   4.105   0.248   9.316  2.3169 -1.1534  2.0124
  363TMC3    C7 5441   4.068   0.413   9.114  0.2645 -0.5594 -0.1751
  363TMC3    C8 5442   4.295   0.067   9.373  0.0483  0.0033  0.3952
  363TMC3    O1 5443   3.978   0.423   9.197 -0.3930  0.8341 -0.3918
  363TMC3    O2 5444   4.258   0.138   9.468 -0.0891  0.1883  0.0167
  364MPD2     C 5445   3.676   3.492   9.767  0.0080 -0.4630 -0.1816
  364MPD2    C1 5446   3.677   3.585   9.867 -0.2635 -0.0280  0.4043
  364MPD2    C2 5447   3.637   3.554   9.993 -0.4839 -0.1163  0.3886
  364MPD2    C3 5448   3.596   3.423  10.020  0.4116  0.4203 -0.1525
  364MPD2    C4 5449   3.600   3.330   9.923  0.1345  0.5391 -0.1906
  364MPD2    C5 5450   3.650   3.361   9.798 -0.2033  0.1470 -0.0357
  364MPD2     H 5451   3.650   3.620  10.079 -1.0709 -0.3080  0.6259
  364MPD2    H1 5452   3.569   3.227   9.934 -1.9793  1.2071 -0.0159
  364MPD2    H2 5453   3.691   3.515   9.662 -2.4558  0.0405 -0.4165
  364MPD2    H3 5454   3.638   3.291   9.716 -0.7002 -2.4078  2.2281
  364MPD2     N 5455   3.533   3.383  10.139 -0.2325  0.2914 -0.0198
  364MPD2    H5 5456   3.510   3.284  10.130  0.3128  0.2361 -0.8537
  364MPD2    N1 5457   3.712   3.715   9.831  0.6716  0.2463  0.4846
  364MPD2    H7 5458   3.701   3.748   9.736  1.4247 -2.1974 -0.4371
  365TMC3    C1 5459   3.786   3.938   9.837  1.6003  0.0811 -0.2737
  365TMC3    C2 5460   3.689   3.986   9.758  0.0401  0.2614  0.2994
  365TMC3    C3 5461   3.701   4.115   9.718 -0.0605  0.2766 -0.4425
  365TMC3    C4 5462   3.867   4.020   9.903  0.2793 -0.1846  0.2570
  365TMC3    C5 5463   3.861   4.159   9.878  0.3676 -0.2523 -0.2213
  365TMC3    C6 5464   3.782   4.207   9.779 -0.1696 -0.5335  0.2604
  365TMC3     C 5465   3.750   3.821   9.911 -0.2080 -0.0368  0.3378
  365TMC3     O 5466   3.782   3.810  10.026  0.3182  1.0424 -0.5554
  365TMC3     H 5467   3.611   3.920   9.723 -0.3845  0.3574  1.0778
  365TMC3    H1 5468   3.934   3.985   9.981  0.8104 -0.7351 -0.4362
  365TMC3    H2 5469   3.756   4.312   9.772 -1.4578 -0.8278  0.7130
  365TMC3    C7 5470   3.831   4.233  10.000 -0.0562 -0.7397 -0.4961
  365TMC3    C8 5471   3.598   4.171   9.636 -0.1802  0.1287 -0.3512
  365TMC3    O1 5472   3.833   4.353  10.002 -0.0965 -0.0211 -0.2123
  365TMC3    O2 5473   3.573   4.291   9.657  0.1031  0.1329 -0.1576
  366MPD2     C 5474   1.554   0.262  14.945 -0.6193  0.2157  0.3111
  366MPD2    C1 5475   1.521   0.258  15.080 -0.5309  0.0060  0.0133
  366MPD2    C2 5476   1.608   0.202  15.168  0.7717  0.7907 -0.7695
  366MPD2    C3 5477   1.741   0.174  15.135  0.8261 -0.1885 -0.0589
  366MPD2    C4 5478   1.774   0.188  14.999  1.0299 -0.5735 -0.0047
  366MPD2    C5 5479   1.680   0.224  14.906 -0.0491 -0.2737  0.1586
  366MPD2     H 5480   1.574   0.184  15.270  0.3485 -1.5120 -1.3257
  366MPD2    H1 5481   1.876   0.176  14.964  0.9802 -2.7208  0.5695
  366MPD2    H2 5482   1.488   0.297  14.866 -0.6942 -0.4474  0.0735
  366MPD2    H3 5483   1.719   0.249  14.808 -1.6778 -2.6404 -1.0961
  366MPD2     N 5484   1.826   0.133  15.237 -0.3131 -0.7175 -0.5427
  366MPD2    H5 5485   1.780   0.137  15.327  1.8142  0.7999  0.4607
  366MPD2    N1 5486   1.393   0.300  15.121 -0.5405  0.2584  0.2700
  366MPD2    H7 5487   1.391   0.304  15.223  0.5978  2.0864  0.2129
  367TMC3    C1 5488   1.166   0.377  15.134  0.4893 -0.9734 -0.1791
  367TMC3    C2 5489   1.189   0.392  15.266  0.5950 -1.0469 -0.6813
  367TMC3    C3 5490   1.122   0.485  15.341 -0.5842  1.0152 -0.2652
  367TMC3    C4 5491   1.084   0.457  15.064  0.2268  0.0059 -0.5241
  367TMC3    C5 5492   1.006   0.537  15.144  0.5108  0.3017  0.2502
  367TMC3    C6 5493   1.032   0.564  15.280  0.1779 -0.1126  0.6853
  367TMC3     C 5494   1.277   0.328  15.052 -0.1118 -0.0231 -0.1626
  367TMC3     O 5495   1.266   0.326  14.929  0.6161 -0.1293 -0.0411
  367TMC3     H 5496   1.259   0.335  15.325 -0.1950 -0.1465  1.1164
  367TMC3    H1 5497   1.073   0.445  14.956 -1.6864 -3.0646  0.0152
  367TMC3    H2 5498   0.951   0.608  15.337 -1.0574 -1.9365  0.3176
  367TMC3    C7 5499   0.923   0.632  15.085 -0.0555  0.0349  0.2797
  367TMC3    C8 5500   1.176   0.525  15.468  0.1635 -0.0834 -0.1437
  367TMC3    O1 5501   0.908   0.734  15.153  0.6690 -0.0672 -0.3336
  367TMC3    O2 5502   1.268   0.460  15.518  0.3072 -0.5964  0.5206
  368MPD2     C 5503   2.376   2.299  12.890  1.0043  0.3822  0.5456
  368MPD2    C1 5504   2.376   2.366  12.773 -0.2452  0.5024  0.1343
  368MPD2    C2 5505   2.480   2.448  12.738  0.6136 -0.4479  0.5367
  368MPD2    C3 5506   2.597   2.460  12.818  0.6464  0.0224  0.5155
  368MPD2    C4 5507   2.601   2.376  12.931  0.8434 -0.2343 -0.0371
  368MPD2    C5 5508   2.490   2.305  12.968  0.1474  0.4555  0.5266
  368MPD2     H 5509   2.476   2.512  12.651 -0.2933  1.0173  1.6753
  368MPD2    H1 5510   2.686   2.355  12.996  0.4040  1.1970  0.9979
  368MPD2    H2 5511   2.293   2.239  12.925  0.7919 -0.2078 -0.9770
  368MPD2    H3 5512   2.492   2.244  13.058  0.6190  2.7329  2.0473
  368MPD2     N 5513   2.710   2.547  12.792  0.5490 -0.3081 -0.4139
  368MPD2    H5 5514   2.796   2.536  12.845 -0.4864  0.7407  1.4832
  368MPD2    N1 5515   2.259   2.341  12.689  0.0233  0.0735 -0.0305
  368MPD2    H7 5516   2.174   2.306  12.732  0.7305  0.4869  1.6798
  369TMC3    C1 5517   2.118   2.366  12.489 -0.1181  0.0121 -0.5893
  369TMC3    C2 5518   2.101   2.430  12.361 -0.2695  0.3291  0.3708
  369TMC3    C3 5519   1.977   2.438  12.312  0.1486 -0.6739 -0.0453
  369TMC3    C4 5520   2.011   2.321  12.562 -0.1191 -0.5835 -0.6094
  369TMC3    C5 5521   1.885   2.340  12.505  0.7056  0.8064 -0.1595
  369TMC3    C6 5522   1.866   2.400  12.382  0.2706  0.2343 -0.6316
  369TMC3     C 5523   2.252   2.372  12.560 -0.1841 -0.0444  0.4876
  369TMC3     O 5524   2.348   2.396  12.487 -0.5046 -0.3787  0.0362
  369TMC3     H 5525   2.194   2.460  12.315  0.3630 -0.6490  1.0208
  369TMC3    H1 5526   2.016   2.293  12.666  1.7114  0.0432 -0.5302
  369TMC3    H2 5527   1.765   2.415  12.343  0.3971 -1.1669 -1.5092
  369TMC3    C7 5528   1.779   2.321  12.601  0.3962  0.0925 -0.0906
  369TMC3    C8 5529   1.953   2.472  12.179  0.0184 -0.3441  0.6260
  369TMC3    O1 5530   1.813   2.325  12.716 -0.4798  0.4411  0.1622
  369TMC3    O2 5531   1.836   2.478  12.138 -0.6888  0.0768 -0.0861
  370TMC3    C1 5532   1.825   2.554  15.882  0.2794 -0.6233  0.0357
  370TMC3    C2 5533   1.736   2.482  15.961  0.6475  0.3429  0.1938
  370TMC3    C3 5534   1.702   2.357  15.917  0.1093  0.4894  0.1996
  370TMC3    C4 5535   1.885   2.502  15.770  0.1892 -0.1071 -0.0191
  370TMC3    C5 5536   1.867   2.369  15.742 -0.0119  0.0509  0.0458
  370TMC3    C6 5537   1.775   2.302  15.820 -0.1466 -0.2968  0.3438
  370TMC3     C 5538   1.905   2.640  15.956  0.0104 -0.3413  0.0917
  370TMC3     O 5539   1.890   2.631  16.076  0.6007  0.6055 -0.4891
  370TMC3     H 5540   1.681   2.528  16.042  0.7572  1.6333 -0.4629
  370TMC3    H1 5541   1.959   2.559  15.715  2.4426 -0.5031  2.6167
  370TMC3    H2 5542   1.755   2.198  15.798 -1.2873  0.0786 -0.4149
  370TMC3    C7 5543   1.968   2.296  15.666  0.2813 -0.1049  0.0998
  370TMC3    C8 5544   1.649   2.271  16.014 -0.1668 -0.4931 -0.4607
  370TMC3    O1 5545   2.026   2.370  15.585  0.0061 -0.4891 -0.1836
  370TMC3    O2 5546   1.699   2.156  16.018 -0.3910  0.3330 -0.0175
  371TMC3    C1 5547   3.171   0.650  15.321 -0.0721  0.0990  0.3397
  371TMC3    C2 5548   3.095   0.663  15.440 -0.0522  0.0884 -0.6800
  371TMC3    C3 5549   3.066   0.790  15.487 -0.3465 -0.3922  0.2095
  371TMC3    C4 5550   3.203   0.762  15.246 -0.5164 -0.0449  0.4490
  371TMC3    C5 5551   3.163   0.882  15.296 -0.0832  0.0955 -0.8454
  371TMC3    C6 5552   3.111   0.903  15.423 -0.1970  0.2273 -0.1945
  371TMC3     C 5553   3.248   0.531  15.296 -0.1119  1.1906  0.2006
  371TMC3     O 5554   3.360   0.534  15.246 -0.5559  0.1731  0.5780
  371TMC3     H 5555   3.090   0.572  15.499  0.3491  1.4724  1.5279
  371TMC3    H1 5556   3.247   0.747  15.149  0.2028  1.4590  0.5408
  371TMC3    H2 5557   3.092   1.002  15.463 -0.0540  0.8475 -1.6571
  371TMC3    C7 5558   3.194   1.004  15.228  0.0202 -0.1593 -0.2305
  371TMC3    C8 5559   3.019   0.799  15.625 -0.2578 -0.5821  0.0304
  371TMC3    O1 5560   3.107   1.090  15.243  0.0834  0.3393 -0.1346
  371TMC3    O2 5561   3.066   0.713  15.698  0.1402 -0.4271 -0.7588
  372MPD2     C 5562   3.080   2.762  13.023  0.1443  0.5070 -0.0573
  372MPD2    C1 5563   3.153   2.652  13.063 -0.8872  0.2177 -0.0603
  372MPD2    C2 5564   3.086   2.543  13.117 -0.0248 -0.4891 -0.3275
  372MPD2    C3 5565   2.952   2.555  13.134 -0.2507  0.2068  0.0943
  372MPD2    C4 5566   2.877   2.653  13.077 -0.6009  0.3441  0.0781
  372MPD2    C5 5567   2.941   2.763  13.029  0.6861  0.0593 -0.4081
  372MPD2     H 5568   3.141   2.464  13.166 -0.0065 -1.4266 -1.8704
  372MPD2    H1 5569   2.769   2.646  13.080 -0.6178  1.1200  1.3158
  372MPD2    H2 5570   3.121   2.860  12.999 -1.8712  1.1615 -0.8690
  372MPD2    H3 5571   2.885   2.848  12.991 -1.2357 -0.3559  1.4881
  372MPD2     N 5572   2.886   2.451  13.206 -0.1705  0.0429  0.5265
  372MPD2    H5 5573   2.943   2.384  13.256  0.5892  1.3562  1.4255
  372MPD2    N1 5574   3.295   2.651  13.053 -0.1931 -0.3690 -0.0339
  372MPD2    H7 5575   3.340   2.569  13.094 -1.3059 -1.5758 -1.2656
  373TMC3    C1 5576   2.724   2.305  13.295  0.0831  0.0656  0.4428
  373TMC3    C2 5577   2.592   2.299  13.335  0.7980  0.0169  0.1533
  373TMC3    C3 5578   2.569   2.175  13.390 -0.0281 -0.0122  0.8908
  373TMC3    C4 5579   2.804   2.197  13.267  0.1007 -0.8360  0.7752
  373TMC3    C5 5580   2.751   2.074  13.288  0.2976 -0.3482  0.2350
  373TMC3    C6 5581   2.631   2.064  13.347  0.1477 -0.6909 -0.0413
  373TMC3     C 5582   2.753   2.435  13.231 -0.1074  0.2406 -0.5749
  373TMC3     O 5583   2.655   2.506  13.204  0.1076 -0.9576 -0.2729
  373TMC3     H 5584   2.536   2.387  13.363 -0.6657 -0.3530 -1.5930
  373TMC3    H1 5585   2.900   2.206  13.219 -0.1899 -2.1275 -0.0448
  373TMC3    H2 5586   2.607   1.968  13.393  3.9445 -0.8707  1.5674
  373TMC3    C7 5587   2.832   1.977  13.350 -0.0044  0.0193 -0.1961
  373TMC3    C8 5588   2.565   2.203  13.535 -0.3165 -0.3024 -1.1370
  373TMC3    O1 5589   2.802   1.857  13.343  0.1717 -0.1708  0.1600
  373TMC3    O2 5590   2.574   2.315  13.583 -0.7051 -0.3136  0.1874
  374TMC3    C1 5591   3.314   1.802  10.017  0.3142  0.2106 -1.0997
  374TMC3    C2 5592   3.386   1.894   9.951 -0.3906  0.0560  0.0722
  374TMC3    C3 5593   3.318   1.984   9.881 -0.9798 -0.2219 -0.4125
  374TMC3    C4 5594   3.177   1.788  10.006  0.1021  0.2160 -0.9312
  374TMC3    C5 5595   3.118   1.885   9.934 -0.0016  0.7635  0.0762
  374TMC3    C6 5596   3.183   1.980   9.854  0.0108 -0.0543 -0.6595
  374TMC3     C 5597   3.391   1.691  10.068 -0.4095 -0.0601  0.2610
  374TMC3     O 5598   3.512   1.693  10.043  0.3703 -0.5306 -0.7057
  374TMC3     H 5599   3.494   1.901   9.958 -0.2868  0.5033 -1.7244
  374TMC3    H1 5600   3.117   1.708  10.046 -1.1563  0.8917 -1.4540
  374TMC3    H2 5601   3.134   2.060   9.800  1.4838  0.7642 -0.8000
  374TMC3    C7 5602   2.971   1.880   9.953 -0.7227  0.3710  0.5122
  374TMC3    C8 5603   3.388   2.094   9.820  0.1297 -0.0078 -0.5536
  374TMC3    O1 5604   2.926   1.793  10.028  0.1383  0.1086 -0.4032
  374TMC3    O2 5605   3.339   2.144   9.719  0.4348 -0.5322 -0.1817
  375MPD2     C 5606   3.239   2.778  16.983  0.1855  0.3020  0.0175
  375MPD2    C1 5607   3.168   2.805  16.865  0.7097 -0.1135 -0.3572
  375MPD2    C2 5608   3.224   2.769  16.738  0.3292 -0.0041  0.2693
  375MPD2    C3 5609   3.353   2.730  16.727  0.4050 -0.4317  0.0286
  375MPD2    C4 5610   3.421   2.703  16.844 -0.0070  0.5455 -0.5273
  375MPD2    C5 5611   3.371   2.733  16.971 -0.4905  0.0854  0.5014
  375MPD2     H 5612   3.174   2.779  16.643 -0.8226  1.2860  1.0182
  375MPD2    H1 5613   3.521   2.661  16.835 -0.4395 -0.3776 -1.0466
  375MPD2    H2 5614   3.192   2.791  17.080  1.3992 -1.5838  0.8474
  375MPD2    H3 5615   3.430   2.706  17.059  2.7382 -1.3018 -2.0906
  375MPD2     N 5616   3.409   2.706  16.593  0.5909  0.0083 -0.0118
  375MPD2    H5 5617   3.355   2.729  16.511  2.2051  0.2950 -0.9865
  375MPD2    N1 5618   3.044   2.858  16.863  0.3737 -0.1681  0.4862
  375MPD2    H7 5619   3.006   2.882  16.772  0.5222 -3.2637 -0.3934
  376TMC3    C1 5620   3.581   2.719  16.446  0.4461 -0.4336  0.0698
  376TMC3    C2 5621   3.718   2.733  16.431  0.0444 -0.1252  0.1860
  376TMC3    C3 5622   3.770   2.763  16.308  0.1138  0.5753 -0.3367
  376TMC3    C4 5623   3.496   2.729  16.344 -0.3980  0.2941 -0.1121
  376TMC3    C5 5624   3.549   2.763  16.219  0.4488  0.1926 -0.7048
  376TMC3    C6 5625   3.682   2.775  16.201 -0.5272  0.5395 -0.5186
  376TMC3     C 5626   3.539   2.666  16.572  0.1637  0.1350  0.4287
  376TMC3     O 5627   3.626   2.636  16.649 -0.0021  0.2431 -0.1641
  376TMC3     H 5628   3.781   2.735  16.519 -0.4638  0.9473  0.5310
  376TMC3    H1 5629   3.390   2.752  16.350 -0.4540 -0.3719  1.2674
  376TMC3    H2 5630   3.720   2.786  16.100 -0.4302 -1.6787 -0.7297
  376TMC3    C7 5631   3.459   2.812  16.114 -0.2883  0.4451 -0.1986
  376TMC3    C8 5632   3.911   2.792  16.295 -0.3283 -0.1919 -1.0258
  376TMC3    O1 5633   3.493   2.902  16.036 -0.1825 -0.5928 -0.6652
  376TMC3    O2 5634   3.945   2.814  16.183  0.5472  0.1450 -0.0765
  377MPD2     C 5635   1.157   2.430  11.860 -0.0397  0.0136  0.2835
  377MPD2    C1 5636   1.239   2.361  11.947 -1.1848 -1.1913 -0.3876
  377MPD2    C2 5637   1.208   2.361  12.082  0.5364 -1.0638 -0.0640
  377MPD2    C3 5638   1.104   2.434  12.129 -0.4812  0.2130  0.3292
  377MPD2    C4 5639   1.021   2.508  12.046 -0.5034  0.3515 -0.7087
  377MPD2    C5 5640   1.049   2.498  11.908 -0.3767 -0.1093  0.2803
  377MPD2     H 5641   1.269   2.307  12.154  0.9731 -1.4566 -0.7211
  377MPD2    H1 5642   0.937   2.565  12.083 -0.3599  0.9313 -1.2584
  377MPD2    H2 5643   1.172   2.447  11.754  0.7441 -0.4943  0.3175
  377MPD2    H3 5644   0.991   2.556  11.838  0.4761  0.4567  0.0441
  377MPD2     N 5645   1.084   2.459  12.270  0.6345 -0.7538 -0.4592
  377MPD2    H5 5646   1.008   2.519  12.298  0.8007 -0.8189  0.1432
  377MPD2    N1 5647   1.359   2.301  11.893 -0.6939 -0.6381 -0.6331
  377MPD2    H7 5648   1.386   2.323  11.797  1.3892  0.1625  0.1369
  378TMC3    C1 5649   1.710   2.323  11.752 -0.2775 -0.3241 -0.0881
  378TMC3    C2 5650   1.586   2.287  11.787 -0.2520  0.3542  0.2569
  378TMC3    C3 5651   1.570   2.212  11.898 -0.5845 -0.3360 -0.2938
  378TMC3    C4 5652   1.813   2.299  11.835 -0.6811 -0.3825 -0.5743
  378TMC3    C5 5653   1.799   2.222  11.946  0.5191  0.4522  0.0466
  378TMC3    C6 5654   1.676   2.185  11.989  0.1846 -0.6312 -0.0135
  378TMC3     C 5655   1.720   2.401  11.633 -0.5306 -0.4461  0.3963
  378TMC3     O 5656   1.615   2.449  11.594  0.3337 -0.5886 -0.2168
  378TMC3     H 5657   1.518   2.276  11.703 -1.0965  2.4940  0.6731
  378TMC3    H1 5658   1.909   2.346  11.818  0.5078 -1.9585  1.7826
  378TMC3    H2 5659   1.660   2.106  12.061  0.9179 -1.0758 -0.3435
  378TMC3    C7 5660   1.905   2.180  12.030  0.1746 -0.3787 -0.0993
  378TMC3    C8 5661   1.440   2.208  11.962  0.4499 -0.4568 -0.3636
  378TMC3    O1 5662   1.875   2.137  12.142 -0.1931 -0.1659 -0.0635
  378TMC3    O2 5663   1.424   2.138  12.061  0.0332 -0.2822 -0.3480
  379MPD2     C 5664   2.368   0.877  16.103 -0.7207  0.1239 -0.5978
  379MPD2    C1 5665   2.237   0.835  16.109  0.3173 -0.1455  0.4881
  379MPD2    C2 5666   2.208   0.716  16.178  0.1208 -0.5561 -0.3304
  379MPD2    C3 5667   2.316   0.634  16.219 -0.4686 -0.4939 -0.4909
  379MPD2    C4 5668   2.447   0.681  16.209  0.1259 -0.5280  0.5697
  379MPD2    C5 5669   2.470   0.799  16.144 -0.3292 -0.0816  0.4355
  379MPD2     H 5670   2.105   0.688  16.191  0.0323 -0.3159 -0.5216
  379MPD2    H1 5671   2.530   0.622  16.244  0.4878  0.7981  1.9857
  379MPD2    H2 5672   2.398   0.971  16.059 -0.6002  0.5282  0.3520
  379MPD2    H3 5673   2.573   0.832  16.136 -0.0445 -1.0683 -0.0204
  379MPD2     N 5674   2.289   0.500  16.255  0.3119 -0.2979 -0.6670
  379MPD2    H5 5675   2.379   0.452  16.256 -0.9024 -2.4858  1.3304
  379MPD2    N1 5676   2.139   0.908  16.041 -0.0264 -0.2314 -0.2602
  379MPD2    H7 5677   2.177   0.967  15.967  0.0624  0.4180  0.3041
  380TMC3    C1 5678   1.939   0.915  15.913  0.3336 -0.0483 -0.2903
  380TMC3    C2 5679   2.003   0.880  15.793  0.2890  0.3355  0.7250
  380TMC3    C3 5680   1.939   0.857  15.684 -0.9171 -0.0615 -0.0570
  380TMC3    C4 5681   1.805   0.910  15.919  0.5842  1.2654  0.1859
  380TMC3    C5 5682   1.739   0.881  15.801  0.6253  0.2890 -0.3684
  380TMC3    C6 5683   1.801   0.855  15.679 -0.4473 -0.2201  0.2241
  380TMC3     C 5684   1.998   0.876  16.035  0.5125  0.2451  1.0650
  380TMC3     O 5685   1.935   0.789  16.095 -0.5633 -0.1820 -0.2163
  380TMC3     H 5686   2.110   0.863  15.794  0.5271  1.8896  1.8698
  380TMC3    H1 5687   1.751   0.916  16.013  2.4260  2.2189  1.1910
  380TMC3    H2 5688   1.749   0.836  15.586  0.1891  1.8604 -0.5449
  380TMC3    C7 5689   1.594   0.892  15.811  0.8904  0.9138 -0.3004
  380TMC3    C8 5690   2.001   0.793  15.573 -0.1010 -0.1255  0.7874
  380TMC3    O1 5691   1.552   0.973  15.892  0.2196  0.1760 -0.0941
  380TMC3    O2 5692   1.944   0.804  15.469  0.3626  0.2124 -0.1989
  381TMC3    C1 5693   1.928   1.498  16.102  0.5854 -0.4722  0.3523
  381TMC3    C2 5694   1.949   1.620  16.036 -0.4230 -0.1984 -0.9008
  381TMC3    C3 5695   1.918   1.731  16.111 -0.7081 -0.6527 -0.4969
  381TMC3    C4 5696   1.872   1.489  16.230  0.6587  0.2818  0.1185
  381TMC3    C5 5697   1.840   1.607  16.296 -0.7990 -0.1837 -0.0124
  381TMC3    C6 5698   1.867   1.730  16.239 -0.1979 -0.7068  0.0051
  381TMC3     C 5699   1.995   1.381  16.045  0.0884  0.0293  0.6373
  381TMC3     O 5700   2.008   1.282  16.115 -0.2602  0.9145 -0.3360
  381TMC3     H 5701   2.004   1.621  15.942  2.3858  1.3249  0.7820
  381TMC3    H1 5702   1.847   1.398  16.283  0.5456 -0.0206 -0.4564
  381TMC3    H2 5703   1.840   1.822  16.290  1.0949  0.7045 -1.8240
  381TMC3    C7 5704   1.779   1.593  16.427  0.0339  0.8738  0.0098
  381TMC3    C8 5705   2.016   1.832  16.078 -0.1803 -0.6067 -0.2402
  381TMC3    O1 5706   1.807   1.491  16.487  0.0684  0.1512  0.0180
  381TMC3    O2 5707   2.101   1.793  16.002 -0.0845  0.2941 -0.6122
  382MPD2     C 5708   1.157   4.295  17.165  0.0952 -0.7832  0.7121
  382MPD2    C1 5709   1.019   4.291  17.150 -0.6517  0.5770  0.5884
  382MPD2    C2 5710   0.956   4.172  17.127  0.4101 -0.1600 -0.0160
  382MPD2    C3 5711   1.020   4.052  17.116 -0.8148  0.6981  0.0751
  382MPD2    C4 5712   1.160   4.056  17.127  0.1393 -0.0990 -0.2701
  382MPD2    C5 5713   1.222   4.173  17.158  0.0902 -0.3657  1.2897
  382MPD2     H 5714   0.848   4.174  17.128  0.4454  0.6517  1.3909
  382MPD2    H1 5715   1.218   3.965  17.114  0.0643 -0.1810 -0.0354
  382MPD2    H2 5716   1.204   4.388  17.197 -0.7117 -0.3615  0.6777
  382MPD2    H3 5717   1.325   4.158  17.188  1.1954  0.2960 -2.1894
  382MPD2     N 5718   0.955   3.928  17.088 -0.3411 -0.6509  0.4425
  382MPD2    H5 5719   1.007   3.842  17.072  3.2672  1.4670  0.8354
  382MPD2    N1 5720   0.951   4.410  17.173 -0.3067  0.3038  0.2455
  382MPD2    H7 5721   0.856   4.404  17.209 -0.0476 -1.4885  0.6495
  383TMC3    C1 5722   0.767   3.783  17.062 -0.2244 -0.0747  0.0613
  383TMC3    C2 5723   0.646   3.760  17.006 -0.1346 -0.8383  0.2968
  383TMC3    C3 5724   0.600   3.635  16.996  0.1005  0.8144 -0.2887
  383TMC3    C4 5725   0.850   3.685  17.105 -0.3117 -0.1508 -0.0926
  383TMC3    C5 5726   0.799   3.556  17.097  0.2048 -0.1778 -0.6526
  383TMC3    C6 5727   0.673   3.528  17.047 -0.3631 -0.6787 -0.6644
  383TMC3     C 5728   0.817   3.923  17.078  0.0102  0.3027  0.2608
  383TMC3     O 5729   0.733   4.011  17.064 -0.3733  0.1943 -0.7789
  383TMC3     H 5730   0.579   3.840  16.977 -1.2171 -2.1993 -0.9202
  383TMC3    H1 5731   0.936   3.711  17.166 -0.9265  1.5518  0.0410
  383TMC3    H2 5732   0.639   3.425  17.052  1.4245 -1.3254 -1.6723
  383TMC3    C7 5733   0.879   3.453  17.154 -0.1337 -0.1124 -0.0716
  383TMC3    C8 5734   0.477   3.607  16.927  0.1029 -0.6816 -0.3960
  383TMC3    O1 5735   0.813   3.359  17.205 -0.1012  0.1138  0.1768
  383TMC3    O2 5736   0.400   3.698  16.903 -0.2203  0.3688 -0.2407
  384MPD2     C 5737   2.306   4.619  11.338 -0.3242 -0.1919 -0.2983
  384MPD2    C1 5738   2.417   4.684  11.367  0.0824 -0.2268 -0.1242
  384MPD2    C2 5739   2.536   4.653  11.302 -0.0574  0.1035  0.0719
  384MPD2    C3 5740   2.558   4.558  11.208  0.3046  0.0094  0.0159
  384MPD2    C4 5741   2.446   4.486  11.180 -0.1310 -0.0303  0.0633
  384MPD2    C5 5742   2.329   4.511  11.249 -0.0247  0.0105  0.0373
  384MPD2     H 5743   2.618   4.712  11.342 -1.2029  0.5688  1.7613
  384MPD2    H1 5744   2.447   4.405  11.107  0.0678 -1.1087  1.2518
  384MPD2    H2 5745   2.210   4.642  11.383 -1.0606  0.6579 -2.2927
  384MPD2    H3 5746   2.237   4.456  11.230  0.3322 -0.3262 -0.7326
  384MPD2     N 5747   2.679   4.532  11.135  0.4493 -0.7628  0.0849
  384MPD2    H5 5748   2.672   4.446  11.082 -1.7688 -0.1771 -0.5972
  384MPD2    N1 5749   2.408   0.058  11.474  0.3980 -0.0730  0.4562
  384MPD2    H7 5750   2.329   0.063  11.538  0.0725 -2.9352  0.2789
  385TMC3    C1 5751   2.912   4.551  11.162 -0.8570  0.7944 -0.1606
  385TMC3    C2 5752   2.918   4.414  11.180  0.0452 -0.2094 -0.2442
  385TMC3    C3 5753   3.016   4.362  11.260 -0.4731 -0.8936 -0.6112
  385TMC3    C4 5754   3.009   4.633  11.216 -0.2455 -0.4347 -0.1903
  385TMC3    C5 5755   3.110   4.577  11.297  0.1790 -0.4396 -0.2151
  385TMC3    C6 5756   3.108   4.440  11.319  1.1281  0.0098 -0.4775
  385TMC3     C 5757   2.788   4.620  11.131 -0.1114 -0.6818  0.6572
  385TMC3     O 5758   2.780   0.017  11.152  0.3311 -1.0267  0.2692
  385TMC3     H 5759   2.833   4.349  11.161  0.8479 -1.8907  1.7969
  385TMC3    H1 5760   3.003   0.016  11.194 -1.6604 -0.0114  2.1025
  385TMC3    H2 5761   3.170   4.401  11.399  1.1776  0.7825 -0.1413
  385TMC3    C7 5762   3.174   4.663  11.399 -0.0465 -0.3794  0.2808
  385TMC3    C8 5763   3.020   4.217  11.283 -0.8077 -0.2882  0.1748
  385TMC3    O1 5764   3.161   0.059  11.378  0.2106  0.0027  0.5189
  385TMC3    O2 5765   3.085   4.164  11.377 -0.1168  0.6486 -0.2893
  386TMC3    C1 5766   2.584   3.248  11.498 -0.3939 -0.2486 -0.3915
  386TMC3    C2 5767   2.639   3.186  11.382 -0.4048 -0.1636  0.9896
  386TMC3    C3 5768   2.566   3.209  11.272 -0.0060  0.0236  0.1659
  386TMC3    C4 5769   2.460   3.302  11.501  0.3353  0.5475  0.3921
  386TMC3    C5 5770   2.387   3.320  11.386  0.1217 -0.2815 -0.3798
  386TMC3    C6 5771   2.440   3.272  11.268 -0.5490  0.3617  0.2636
  386TMC3     C 5772   2.655   3.250  11.624 -0.8972  0.2420 -0.2969
  386TMC3     O 5773   2.614   3.328  11.707 -0.2483 -0.7309 -0.4529
  386TMC3     H 5774   2.744   3.159  11.373  0.2712  2.1348  1.9065
  386TMC3    H1 5775   2.415   3.317  11.599  1.1519  1.2959  0.6448
  386TMC3    H2 5776   2.391   3.285  11.173  3.2395  3.5216 -1.2630
  386TMC3    C7 5777   2.239   3.305  11.399  0.2587  0.0770 -0.6120
  386TMC3    C8 5778   2.600   3.134  11.154  0.8443  0.1339  0.7637
  386TMC3    O1 5779   2.192   3.277  11.509  0.1496  0.3402  0.2111
  386TMC3    O2 5780   2.544   3.171  11.051 -0.3963  0.1172  0.0206
  387MPD2     C 5781   0.238   2.998   9.583 -0.3306 -0.2999 -0.2173
  387MPD2    C1 5782   0.288   2.952   9.702  0.0762 -0.1158 -0.1972
  387MPD2    C2 5783   0.268   2.829   9.747  0.1482  0.9918 -0.2219
  387MPD2    C3 5784   0.229   2.738   9.658  0.8233  0.0721  0.1850
  387MPD2    C4 5785   0.177   2.780   9.531 -0.2761  0.3612  0.5705
  387MPD2    C5 5786   0.165   2.913   9.503 -0.2888 -0.7110 -0.9848
  387MPD2     H 5787   0.297   2.811   9.850 -0.5237 -1.2953 -0.4492
  387MPD2    H1 5788   0.151   2.702   9.460  2.8732 -0.3089  0.1865
  387MPD2    H2 5789   0.223   3.102   9.555 -0.0900  0.5677  2.9108
  387MPD2    H3 5790   0.117   2.940   9.409 -0.8550 -1.2453 -0.8491
  387MPD2     N 5791   0.255   2.607   9.690 -0.2205  0.1309  0.3379
  387MPD2    H5 5792   0.300   2.592   9.780  2.1489  0.6454 -0.7620
  387MPD2    N1 5793   0.354   3.038   9.799 -0.1476 -0.1022 -0.0757
  387MPD2    H7 5794   0.388   2.992   9.883  0.5986 -1.2364 -0.9942
  388TMC3    C1 5795   0.520   3.185   9.856 -0.1479  0.1755 -0.2094
  388TMC3    C2 5796   0.557   3.311   9.863 -0.2000  0.2988 -0.5079
  388TMC3    C3 5797   0.682   3.352   9.904 -0.5583  0.2188  0.3697
  388TMC3    C4 5798   0.606   3.085   9.885  0.7056  0.3576  0.6678
  388TMC3    C5 5799   0.729   3.125   9.924  0.3101  0.0966 -0.0674
  388TMC3    C6 5800   0.772   3.255   9.932 -0.0498 -0.3242  1.2470
  388TMC3     C 5801   0.412   3.154   9.767 -0.3718  0.0743 -0.5968
  388TMC3     O 5802   0.359   3.249   9.707 -0.6755  0.2244  0.4109
  388TMC3     H 5803   0.479   3.383   9.840  1.8443  2.6284 -0.2031
  388TMC3    H1 5804   0.582   2.982   9.866  1.8839 -0.1467  1.8350
  388TMC3    H2 5805   0.876   3.267   9.960  0.4862 -0.5734 -0.6555
  388TMC3    C7 5806   0.831   3.025   9.920 -0.8923 -0.4117 -0.8083
  388TMC3    C8 5807   0.699   3.494   9.949  0.2544  0.4941  0.1419
  388TMC3    O1 5808   0.932   3.028   9.991 -0.2837 -0.3333  0.2583
  388TMC3    O2 5809   0.615   3.579   9.920 -0.5898  0.2940  0.1913
  389MPD2     C 5810   0.073   0.897  11.778  0.0756 -0.5286  0.5732
  389MPD2    C1 5811   4.674   0.903  11.715 -0.1823  0.5751  0.2024
  389MPD2    C2 5812   4.558   0.904  11.787  0.5464 -0.1424  0.3642
  389MPD2    C3 5813   4.564   0.889  11.927  0.2340 -0.3914 -0.2174
  389MPD2    C4 5814   4.689   0.890  11.992  0.2581 -0.4757  1.1365
  389MPD2    C5 5815   0.080   0.885  11.918 -0.1036  0.0326 -0.2629
  389MPD2     H 5816   4.459   0.895  11.743  0.0013 -0.5046  1.6484
  389MPD2    H1 5817   4.688   0.863  12.096 -0.7021  1.7098  1.7086
  389MPD2    H2 5818   0.168   0.899  11.726 -0.2319 -1.9156 -0.0632
  389MPD2    H3 5819   0.176   0.876  11.967 -1.0175  1.5197  1.8413
  389MPD2     N 5820   4.448   0.878  12.006 -0.1035  0.1088  0.5311
  389MPD2    H5 5821   4.456   0.839  12.099 -1.9595 -2.8674 -0.5591
  389MPD2    N1 5822   4.681   0.916  11.576 -0.0330  0.5594 -0.3268
  389MPD2    H7 5823   0.053   0.912  11.541  0.1008 -0.4543  0.1646
  390TMC3    C1 5824   4.209   0.868  12.040 -0.0481  0.3018 -0.2038
  390TMC3    C2 5825   4.232   0.769  12.128  0.2469  0.4116  0.0839
  390TMC3    C3 5826   4.121   0.698  12.173  0.5166  0.3205 -0.4440
  390TMC3    C4 5827   4.087   0.896  11.993  0.2169 -0.6085  0.2156
  390TMC3    C5 5828   3.976   0.837  12.053 -0.4239 -0.5007 -0.1881
  390TMC3    C6 5829   3.995   0.735  12.145  0.5689  0.1912  0.0868
  390TMC3     C 5830   4.322   0.921  11.960  0.2618  0.1214 -0.0085
  390TMC3     O 5831   4.293   0.996  11.869 -0.1511  0.7214  0.4269
  390TMC3     H 5832   4.332   0.736  12.155  0.4758  0.8918 -0.1777
  390TMC3    H1 5833   4.081   0.970  11.913 -1.0458 -0.0610  0.8155
  390TMC3    H2 5834   3.917   0.692  12.206  2.7732 -1.1987  1.9417
  390TMC3    C7 5835   3.873   0.816  11.955 -0.5856 -0.1456 -0.4207
  390TMC3    C8 5836   4.132   0.552  12.175  0.8299  0.2829  0.0992
  390TMC3    O1 5837   3.876   0.882  11.851  0.0014 -0.2409 -0.1774
  390TMC3    O2 5838   4.224   0.503  12.232  0.5357  0.0012 -0.0741
  391MPD2     C 5839   4.172   2.276  11.127 -0.0566 -0.1338 -0.0375
  391MPD2    C1 5840   4.279   2.326  11.068  0.0088  0.4958 -0.1816
  391MPD2    C2 5841   4.277   2.334  10.930 -0.0954 -0.4692 -0.0761
  391MPD2    C3 5842   4.163   2.308  10.857 -0.6106 -0.4125 -0.2153
  391MPD2    C4 5843   4.048   2.271  10.926  0.4131  0.0899  0.2205
  391MPD2    C5 5844   4.053   2.248  11.062  0.1224  0.3841  0.2786
  391MPD2     H 5845   4.357   2.390  10.883 -0.1534  0.3547  0.8178
  391MPD2    H1 5846   3.961   2.237  10.871 -0.2645  1.4205  0.4759
  391MPD2    H2 5847   4.174   2.272  11.235  1.1951 -0.0200 -0.0508
  391MPD2    H3 5848   3.969   2.203  11.113 -0.7094  1.0199 -0.5385
  391MPD2     N 5849   4.154   2.331  10.711  0.4727  0.8026 -0.1755
  391MPD2    H5 5850   4.246   2.341  10.669  1.6712  1.0315  2.4552
  391MPD2    N1 5851   4.382   2.377  11.153 -0.1068 -0.6576 -0.1270
  391MPD2    H7 5852   4.373   2.377  11.254  0.2114 -0.2625 -0.0945
  392TMC3    C1 5853   4.060   2.369  10.495  0.5425 -0.0781 -0.4319
  392TMC3    C2 5854   3.950   2.346  10.422 -0.0735  0.6088  0.0839
  392TMC3    C3 5855   3.947   2.384  10.292 -0.2792 -0.1518 -0.4107
  392TMC3    C4 5856   4.177   2.413  10.441  0.0316 -0.0854  0.1049
  392TMC3    C5 5857   4.160   2.471  10.319 -0.3870  0.0365 -0.0240
  392TMC3    C6 5858   4.053   2.453  10.236  0.1955  0.2515 -0.1807
  392TMC3     C 5859   4.044   2.340  10.635  0.2663 -0.1421 -0.0235
  392TMC3     O 5860   3.929   2.346  10.674 -0.4270  0.1253  0.0847
  392TMC3     H 5861   3.858   2.303  10.459  2.3763 -1.7123  3.4725
  392TMC3    H1 5862   4.263   2.433  10.504  1.4652  0.3060 -1.9845
  392TMC3    H2 5863   4.024   2.524  10.160  2.9937  0.5315 -1.0068
  392TMC3    C7 5864   4.248   2.580  10.287 -0.2995 -0.2019 -0.6174
  392TMC3    C8 5865   3.852   2.315  10.205  0.3376  0.4435 -0.1339
  392TMC3    O1 5866   4.337   2.595  10.373 -0.0284  0.0208  0.1084
  392TMC3    O2 5867   3.770   2.246  10.259 -0.0668  0.0130 -0.2181
  393TMC3    C1 5868   3.091   0.410  10.715  0.3297 -0.3723  0.8402
  393TMC3    C2 5869   3.020   0.289  10.728  0.4888  0.3749  0.3196
  393TMC3    C3 5870   3.064   0.182  10.655 -0.7520 -0.7664  1.3390
  393TMC3    C4 5871   3.196   0.426  10.622  0.1778 -0.2232 -0.3608
  393TMC3    C5 5872   3.234   0.319  10.555 -0.4119  0.2091 -0.6889
  393TMC3    C6 5873   3.170   0.193  10.571 -0.2970 -0.0335  0.5092
  393TMC3     C 5874   3.021   0.533  10.760  0.2046  0.0826 -0.1204
  393TMC3     O 5875   2.900   0.528  10.773  0.0639  0.5091 -0.6814
  393TMC3     H 5876   2.932   0.285  10.790  0.1497  1.1317 -0.1210
  393TMC3    H1 5877   3.236   0.524  10.597  0.5059 -0.8401 -2.2305
  393TMC3    H2 5878   3.189   0.109  10.506 -1.6493  0.0026  0.0564
  393TMC3    C7 5879   3.330   0.335  10.448  0.0353 -0.0840  0.2102
  393TMC3    C8 5880   2.990   0.060  10.649 -0.7931 -0.4587 -0.5041
  393TMC3    O1 5881   3.344   0.237  10.374 -0.3866 -0.3387  0.1927
  393TMC3    O2 5882   3.044   4.677  10.606 -0.2732 -0.2112 -0.1250
  394TMC3    C1 5883   4.603   0.976  11.361 -0.9714 -0.8270  0.3343
  394TMC3    C2 5884   4.499   1.011  11.284 -0.7839  1.1618 -0.3094
  394TMC3    C3 5885   4.508   1.003  11.150 -0.7610 -0.6217 -0.0744
  394TMC3    C4 5886   4.723   0.939  11.304  0.2368  0.0652 -0.2294
  394TMC3    C5 5887   0.005   0.934  11.160 -0.2037 -0.2656 -0.0455
  394TMC3    C6 5888   4.619   0.963  11.082 -0.7372 -0.3856 -0.1091
  394TMC3     C 5889   4.576   0.939  11.495 -0.5484  0.0643  0.4655
  394TMC3     O 5890   4.458   0.950  11.518 -0.0010 -0.1781 -0.3075
  394TMC3     H 5891   4.419   1.067  11.331 -0.4648  0.4729  1.0593
  394TMC3    H1 5892   0.088   0.908  11.359  0.9401  0.4446 -1.1308
  394TMC3    H2 5893   4.623   0.934  10.978  0.2649 -1.2450  0.1605
  394TMC3    C7 5894   0.135   0.931  11.094 -0.2223  0.3895  0.2724
  394TMC3    C8 5895   4.403   1.073  11.077 -0.0585 -0.2563 -0.2942
  394TMC3    O1 5896   0.150   1.008  11.001 -0.0416 -0.1774  0.7245
  394TMC3    O2 5897   4.308   1.116  11.136  0.1519 -0.2520 -0.2648
  395TMC3    C1 5898   4.496   2.880  14.167 -0.2390  0.2724 -0.3828
  395TMC3    C2 5899   4.368   2.915  14.182  0.3719  0.8494  1.0978
  395TMC3    C3 5900   4.336   3.042  14.228 -0.4211 -0.1964  0.2279
  395TMC3    C4 5901   4.599   2.960  14.215 -0.2563  0.2215  0.1036
  395TMC3    C5 5902   4.569   3.085  14.254 -0.1054  0.0370 -0.3467
  395TMC3    C6 5903   4.434   3.124  14.268 -0.4395 -0.3358  0.7799
  395TMC3     C 5904   4.512   2.757  14.247 -0.3192 -0.1536  0.3336
  395TMC3     O 5905   4.583   2.761  14.343  0.3629  0.1858 -0.0926
  395TMC3     H 5906   4.289   2.855  14.140  0.5072 -0.7285  3.0860
  395TMC3    H1 5907   4.699   2.918  14.225 -0.5847 -0.6111 -0.2044
  395TMC3    H2 5908   4.418   3.225  14.305 -1.1225  0.8718 -2.8242
  395TMC3    C7 5909   4.663   3.165  14.332  0.3193  0.1321 -0.5136
  395TMC3    C8 5910   4.224   3.061  14.312 -0.5686 -0.7734 -0.2989
  395TMC3    O1 5911   4.624   3.221  14.435  0.2173 -0.1230 -0.2970
  395TMC3    O2 5912   4.207   3.170  14.363  0.3564  0.1385  0.3762
  396MPD2     C 5913   3.994   4.371  16.764 -0.1147 -0.1813 -0.3942
  396MPD2    C1 5914   4.122   4.368  16.816  0.1052 -0.4350 -0.7169
  396MPD2    C2 5915   4.212   4.473  16.798  0.3880 -0.4646 -0.4633
  396MPD2    C3 5916   4.181   4.583  16.720  0.5265 -0.5887 -0.4255
  396MPD2    C4 5917   4.054   4.581  16.666 -0.3630  0.2489  0.4428
  396MPD2    C5 5918   3.961   4.481  16.699  1.0434 -0.2540  0.4444
  396MPD2     H 5919   4.312   4.462  16.838 -0.8027  0.0578  2.6905
  396MPD2    H1 5920   4.021   4.655  16.594 -1.6871 -1.4079 -0.6183
  396MPD2    H2 5921   3.927   4.287  16.777 -2.4260  1.7220  0.0008
  396MPD2    H3 5922   3.868   4.481  16.643 -0.3809 -0.8626  2.8225
  396MPD2     N 5923   4.283   4.676  16.682  0.3109  0.0015  0.3521
  396MPD2    H5 5924   4.379   4.662  16.710  0.2193  2.2153  1.7920
  396MPD2    N1 5925   4.155   4.246  16.873 -0.9683 -0.4197  0.3758
  396MPD2    H7 5926   4.091   4.170  16.858 -0.8450 -0.4644  0.0779
  397TMC3    C1 5927   4.310   4.087  16.945  0.3533  0.6377  0.0796
  397TMC3    C2 5928   4.321   4.028  16.821 -0.7780 -0.4034 -0.1025
  397TMC3    C3 5929   4.275   3.907  16.794  1.0157 -0.2031  0.1972
  397TMC3    C4 5930   4.244   4.007  17.037  0.4434 -0.0871  0.3009
  397TMC3    C5 5931   4.219   3.876  17.007 -0.0285 -0.6006  0.1954
  397TMC3    C6 5932   4.228   3.819  16.886  0.3604 -0.9333  0.7630
  397TMC3     C 5933   4.271   4.225  16.938 -0.7696  0.3000 -0.3013
  397TMC3     O 5934   4.340   4.307  17.001  0.5448 -0.1357 -0.2353
  397TMC3     H 5935   4.344   4.108  16.751 -0.5100 -0.4025 -0.0105
  397TMC3    H1 5936   4.205   4.064  17.121  1.5476  0.6657  0.3161
  397TMC3    H2 5937   4.192   3.719  16.863  1.0213 -0.6929 -1.3684
  397TMC3    C7 5938   4.145   3.800  17.108 -1.1912 -0.4421  0.1917
  397TMC3    C8 5939   4.250   3.880  16.651 -0.6101 -0.1877  0.7806
  397TMC3    O1 5940   4.054   3.729  17.071  0.4351  0.0271 -0.4851
  397TMC3    O2 5941   4.164   3.798  16.627 -0.0695 -0.3105 -0.3780
  398MPD2     C 5942   2.132   4.639  17.559  0.4513  0.3009 -0.1131
  398MPD2    C1 5943   2.243   4.571  17.602 -0.8854 -0.0981  0.1300
  398MPD2    C2 5944   2.371   4.622  17.586  0.7413  0.0011  0.2487
  398MPD2    C3 5945   2.385   0.025  17.536 -0.0438  0.0685 -0.1100
  398MPD2    C4 5946   2.272   0.096  17.516  0.0556  0.0993 -0.6185
  398MPD2    C5 5947   2.143   0.052  17.536  0.1314  0.0277 -0.3066
  398MPD2     H 5948   2.452   4.553  17.606 -0.4777 -1.4081  0.3854
  398MPD2    H1 5949   2.271   0.198  17.477  0.8901  0.4874  0.3829
  398MPD2    H2 5950   2.037   4.587  17.566  1.1097 -0.9830 -0.6437
  398MPD2    H3 5951   2.054   0.112  17.518  0.9184  1.2829 -0.0240
  398MPD2     N 5952   2.515   0.067  17.498  0.3799  0.1281 -1.1255
  398MPD2    H5 5953   2.584   4.722  17.528  1.4714  1.8491  0.2781
  398MPD2    N1 5954   2.232   4.441  17.650 -0.7667  0.0325  0.1618
  398MPD2    H7 5955   2.322   4.395  17.662 -0.7695  0.0690  0.3269
  399TMC3    C1 5956   2.133   4.226   0.002  0.4295  0.2153 -0.4732
  399TMC3    C2 5957   2.249   4.170  17.655  0.5930 -0.5731  0.1624
  399TMC3    C3 5958   2.245   4.032  17.643  1.2027  0.2767 -0.7874
  399TMC3    C4 5959   2.018   4.161   0.039  0.5459 -0.4618  0.2456
  399TMC3    C5 5960   2.022   4.023   0.036 -0.6110  0.4609  0.5997
  399TMC3    C6 5961   2.137   3.958  17.686 -0.7057 -0.0189 -1.3366
  399TMC3     C 5962   2.120   4.374  17.678  0.3745 -0.3370  0.3736
  399TMC3     O 5963   2.009   4.412   0.014  0.1863  0.1884  0.1515
  399TMC3     H 5964   2.346   4.217  17.645  0.8383 -0.9044  1.0048
  399TMC3    H1 5965   1.928   4.210   0.074  1.0607  0.5152  0.2060
  399TMC3    H2 5966   2.133   3.854  17.657 -2.8254 -1.1057  2.9795
  399TMC3    C7 5967   1.891   3.963   0.040 -0.5198  0.5703  0.2664
  399TMC3    C8 5968   2.364   3.955  17.602 -0.0193  1.0449 -0.1508
  399TMC3    O1 5969   1.797   4.038   0.040 -0.3145 -0.1981  0.0166
  399TMC3    O2 5970   2.351   3.842  17.556 -0.2184 -0.6205  0.0008
  400TMC3    C1 5971   0.815   3.444  16.634 -0.1650 -0.3285 -1.3707
  400TMC3    C2 5972   0.698   3.439  16.571 -0.3346  0.3637 -0.3461
  400TMC3    C3 5973   0.636   3.560  16.539 -1.1074  0.4122 -0.5208
  400TMC3    C4 5974   0.875   3.563  16.664 -0.1378 -0.5396 -0.5319
  400TMC3    C5 5975   0.808   3.683  16.644 -0.1410 -0.1542  0.1620
  400TMC3    C6 5976   0.687   3.681  16.582 -0.3197 -0.4391  0.5503
  400TMC3     C 5977   0.883   3.313  16.651  0.3092 -0.3797 -0.1562
  400TMC3     O 5978   0.823   3.218  16.614 -0.0312  0.0645  0.1549
  400TMC3     H 5979   0.643   3.347  16.554 -1.1081  0.4232  1.7811
  400TMC3    H1 5980   0.971   3.571  16.715 -1.1224 -0.6533  1.3383
  400TMC3    H2 5981   0.635   3.768  16.544  0.9672  0.3997  0.6869
  400TMC3    C7 5982   0.870   3.811  16.692  0.3397 -0.3847  0.8378
  400TMC3    C8 5983   0.512   3.560  16.471 -0.1544  0.5816 -0.5287
  400TMC3    O1 5984   0.979   3.803  16.754  0.6069 -0.1331 -0.1321
  400TMC3    O2 5985   0.445   3.662  16.464 -0.2853  0.0971  0.3505
  401MPD2     C 5986   3.735   2.866   1.309  0.7055  0.7655 -0.3636
  401MPD2    C1 5987   3.806   2.827   1.198  0.7259  0.4744  0.0628
  401MPD2    C2 5988   3.781   2.710   1.129  0.6858 -0.0541  0.4248
  401MPD2    C3 5989   3.705   2.611   1.190  0.2445 -0.2866  0.4379
  401MPD2    C4 5990   3.634   2.639   1.306  0.1081  0.0129  1.1476
  401MPD2    C5 5991   3.647   2.774   1.354  0.1992  0.3595  0.3865
  401MPD2     H 5992   3.847   2.683   1.047  0.0133  0.5977 -0.3375
  401MPD2    H1 5993   3.567   2.568   1.353 -1.1536  1.1346  1.0327
  401MPD2    H2 5994   3.743   2.960   1.361  0.6949  0.7010 -0.2461
  401MPD2    H3 5995   3.577   2.791   1.435 -0.5451 -0.0140 -0.1821
  401MPD2     N 5996   3.713   2.483   1.135  0.1015  0.3131 -0.6796
  401MPD2    H5 5997   3.768   2.472   1.051  1.4022  1.0102  0.0752
  401MPD2    N1 5998   3.906   2.910   1.150 -0.1710  0.3653  0.2107
  401MPD2    H7 5999   3.937   2.886   1.056 -0.4067 -0.0637  0.2437
  402TMC3    C1 6000   3.669   2.263   1.068  0.0204 -0.1382 -0.8852
  402TMC3    C2 6001   3.648   2.129   1.105  0.9736 -0.2832 -0.9183
  402TMC3    C3 6002   3.640   2.039   1.011  0.2792  0.0373  0.2172
  402TMC3    C4 6003   3.682   2.305   0.939  0.0964  0.2043 -0.4317
  402TMC3    C5 6004   3.660   2.212   0.845 -0.5127 -0.0561  0.1564
  402TMC3    C6 6005   3.645   2.079   0.882 -0.2507 -0.2466 -0.5674
  402TMC3     C 6006   3.658   2.365   1.175  0.3160 -0.7202 -0.2459
  402TMC3     O 6007   3.598   2.342   1.283  0.6149  0.7436  0.4368
  402TMC3     H 6008   3.651   2.097   1.209 -0.0764  0.0261 -0.7945
  402TMC3    H1 6009   3.693   2.409   0.911  0.0866 -0.3425 -2.4800
  402TMC3    H2 6010   3.651   2.000   0.808 -1.7836 -1.4144  0.5418
  402TMC3    C7 6011   3.663   2.251   0.704  0.5003  0.6083 -0.2483
  402TMC3    C8 6012   3.695   1.910   1.041 -0.2062 -0.5093  0.0525
  402TMC3    O1 6013   3.626   2.366   0.689 -0.0091 -0.6711 -0.3472
  402TMC3    O2 6014   3.760   1.854   0.949 -0.3191 -0.2604  0.5481
  403MPD2     C 6015   2.262   0.222  13.021  0.3886  0.0870 -0.1583
  403MPD2    C1 6016   2.288   0.153  13.136 -0.5605  0.0641 -0.1770
  403MPD2    C2 6017   2.326   0.235  13.240  0.0207  0.1234 -0.1196
  403MPD2    C3 6018   2.352   0.371  13.233 -0.1783  0.2455  0.4359
  403MPD2    C4 6019   2.324   0.441  13.113 -0.9579  0.1720 -0.4732
  403MPD2    C5 6020   2.275   0.364  13.012 -0.3192  0.0344 -0.2740
  403MPD2     H 6021   2.339   0.192  13.339 -1.4294 -0.6516 -0.2527
  403MPD2    H1 6022   2.337   0.548  13.099 -0.1922 -0.0612 -1.5139
  403MPD2    H2 6023   2.227   0.170  12.933 -2.5545 -0.4560  1.3237
  403MPD2    H3 6024   2.260   0.403  12.912 -3.0468  0.1537  0.1889
  403MPD2     N 6025   2.391   0.429  13.362  0.1333 -0.4396 -0.0699
  403MPD2    H5 6026   2.414   0.360  13.432  0.8963  0.1058  0.2118
  403MPD2    N1 6027   2.279   0.013  13.152  0.4358  0.0385 -0.3437
  403MPD2    H7 6028   2.243   4.682  13.074 -2.0251  1.5993 -0.2930
  404TMC3    C1 6029   2.317   4.527  13.240 -0.0952  0.6901  0.1886
  404TMC3    C2 6030   2.309   4.456  13.350  0.1747 -0.0513 -0.1014
  404TMC3    C3 6031   2.305   4.321  13.346  0.0606 -0.0107  0.3973
  404TMC3    C4 6032   2.305   4.474  13.114 -0.1211  0.2064  0.0898
  404TMC3    C5 6033   2.315   4.340  13.111  0.6640 -0.0506 -0.0714
  404TMC3    C6 6034   2.322   4.263  13.224  0.3873 -0.0423  0.0788
  404TMC3     C 6035   2.326   4.664  13.259 -0.2049  0.7127 -0.6091
  404TMC3     O 6036   2.388   4.704  13.357  0.3693  0.0711  0.5933
  404TMC3     H 6037   2.317   4.513  13.442  0.4793 -1.9722  1.0551
  404TMC3    H1 6038   2.331   4.531  13.026 -1.1945 -2.4827 -1.9623
  404TMC3    H2 6039   2.335   4.156  13.217  0.9276  0.0548 -0.4251
  404TMC3    C7 6040   2.330   4.264  12.982 -0.2243  0.1749  1.4622
  404TMC3    C8 6041   2.362   4.246  13.456  0.6590  0.8937  1.0444
  404TMC3    O1 6042   2.355   4.143  12.997  0.5352  0.1640 -0.2183
  404TMC3    O2 6043   2.441   4.155  13.420  0.9557  0.4787 -0.5464
  405MPD2     C 6044   2.425   0.827  14.385  0.0785 -0.1821  0.4517
  405MPD2    C1 6045   2.426   0.695  14.330  0.4615  0.2690  0.0327
  405MPD2    C2 6046   2.365   0.681  14.206  0.4115 -0.2975 -0.9331
  405MPD2    C3 6047   2.304   0.793  14.147 -1.3982 -0.2040 -0.0173
  405MPD2    C4 6048   2.307   0.917  14.203 -0.0842  0.0193  0.0233
  405MPD2    C5 6049   2.368   0.936  14.320  0.6427 -0.0576 -0.6497
  405MPD2     H 6050   2.361   0.588  14.150  0.1767 -0.2449 -1.0021
  405MPD2    H1 6051   2.259   1.004  14.159 -0.0256 -0.3449 -0.7649
  405MPD2    H2 6052   2.468   0.842  14.483  0.3659  1.6192  0.0316
  405MPD2    H3 6053   2.385   1.033  14.364  0.3073 -0.4563  0.3719
  405MPD2     N 6054   2.235   0.758  14.033 -0.2835  0.3045 -0.5723
  405MPD2    H5 6055   2.232   0.660  14.010 -0.6922 -0.1577  1.4004
  405MPD2    N1 6056   2.491   0.589  14.404 -1.4606 -0.0675  0.0798
  405MPD2    H7 6057   2.549   0.601  14.486 -1.2284  1.5303 -0.3303
  406TMC3    C1 6058   1.837   0.773  13.802 -0.2904 -0.0429 -1.1126
  406TMC3    C2 6059   1.840   0.630  13.803  0.0680 -0.2151 -0.6007
  406TMC3    C3 6060   1.947   0.566  13.845  0.0424 -0.3082  0.3458
  406TMC3    C4 6061   1.942   0.840  13.855 -1.0885 -0.3064  0.7215
  406TMC3    C5 6062   2.052   0.765  13.889 -0.2060  0.4604 -0.6624
  406TMC3    C6 6063   2.061   0.630  13.892  0.1482  0.2050 -0.5449
  406TMC3     C 6064   1.700   0.811  13.804 -0.7569 -0.2030 -0.6063
  406TMC3     O 6065   1.623   0.758  13.723  0.2160  0.3265 -0.2744
  406TMC3     H 6066   1.743   0.587  13.779 -1.0252  1.5252  0.6638
  406TMC3    H1 6067   1.960   0.946  13.845 -1.3931 -0.1375  1.8843
  406TMC3    H2 6068   2.159   0.584  13.896 -0.1263 -0.6328 -3.1952
  406TMC3    C7 6069   2.144   0.839  13.973 -0.1698 -0.3385  0.0569
  406TMC3    C8 6070   1.920   0.438  13.908  0.3306  1.5103  0.4492
  406TMC3    O1 6071   2.143   0.956  13.978 -0.2566 -0.5244 -0.3150
  406TMC3    O2 6072   1.806   0.395  13.903  0.1308  0.0453  0.1342
  407MPD2     C 6073   4.459   2.258   9.787 -1.3050 -0.1443  0.6755
  407MPD2    C1 6074   4.532   2.346   9.719  0.1851 -0.4330  0.0087
  407MPD2    C2 6075   4.570   2.465   9.773  0.1824 -0.5358  0.8952
  407MPD2    C3 6076   4.540   2.499   9.903  0.2423 -0.5609  0.9246
  407MPD2    C4 6077   4.475   2.403   9.982  0.4753  0.3031 -0.4863
  407MPD2    C5 6078   4.434   2.284   9.921 -0.3504  0.3274 -0.1906
  407MPD2     H 6079   4.623   2.546   9.724 -1.2016 -0.4415 -0.4380
  407MPD2    H1 6080   4.451   2.431  10.083 -0.2627  1.4465 -0.9829
  407MPD2    H2 6081   4.427   2.165   9.742 -1.2109  0.2403 -0.1922
  407MPD2    H3 6082   4.385   2.206   9.978  0.2555  1.1377  1.4462
  407MPD2     N 6083   4.581   2.621   9.962  0.4840 -0.1004  0.2654
  407MPD2    H5 6084   4.594   2.612  10.062  2.2003  0.1393  0.0633
  407MPD2    N1 6085   4.572   2.329   9.585 -0.1217  0.1418 -0.2367
  407MPD2    H7 6086   4.645   2.388   9.547 -0.9472  2.6253  2.0287
  408TMC3    C1 6087   4.645   2.230   9.397  0.6101  0.7377 -0.3101
  408TMC3    C2 6088   0.006   2.123   9.370 -0.2334 -0.2291  0.7128
  408TMC3    C3 6089   0.124   2.160   9.310 -0.1059 -0.5724  0.1488
  408TMC3    C4 6090   4.656   2.348   9.335 -0.6859 -0.4627  0.6000
  408TMC3    C5 6091   0.050   2.377   9.271 -0.4115 -0.7916  0.9246
  408TMC3    C6 6092   0.148   2.282   9.254 -0.2126 -0.4295 -0.6326
  408TMC3     C 6093   4.561   2.219   9.509  0.3943 -0.2785 -0.4121
  408TMC3     O 6094   4.514   2.108   9.530  0.2735  0.0105 -0.2770
  408TMC3     H 6095   0.003   2.027   9.419  0.7108  0.9882  3.1519
  408TMC3    H1 6096   4.589   2.432   9.352  1.7230  1.1557  2.2480
  408TMC3    H2 6097   0.239   2.299   9.198  1.1130  3.5235  2.7853
  408TMC3    C7 6098   0.086   2.513   9.233  0.6831 -0.5747 -0.7748
  408TMC3    C8 6099   0.232   2.071   9.345  0.1524 -0.0698 -0.1701
  408TMC3    O1 6100   0.207   2.537   9.225  0.1580 -0.6584 -0.2130
  408TMC3    O2 6101   0.207   1.949   9.358  0.0537  0.5856 -0.0022
  409MPD2     C 6102   3.946   2.970  16.661 -0.2131 -0.2006  0.7113
  409MPD2    C1 6103   4.057   2.992  16.742  0.0488 -1.0403  0.4418
  409MPD2    C2 6104   4.141   3.100  16.717  0.0583  0.1986 -0.6574
  409MPD2    C3 6105   4.112   3.187  16.618 -0.1823 -0.1839 -0.4293
  409MPD2    C4 6106   4.002   3.157  16.535  0.7423 -0.2137 -0.5246
  409MPD2    C5 6107   3.922   3.048  16.555  0.3941 -0.5170  0.4713
  409MPD2     H 6108   4.225   3.116  16.782 -0.3463 -3.1055  0.6841
  409MPD2    H1 6109   3.971   3.223  16.454 -0.1295 -2.9311 -2.4161
  409MPD2    H2 6110   3.881   2.886  16.682 -0.4379 -0.0914  0.4535
  409MPD2    H3 6111   3.837   3.028  16.490  0.9123  1.1916 -0.7537
  409MPD2     N 6112   4.189   3.304  16.595 -0.4495  0.3127 -0.0038
  409MPD2    H5 6113   4.180   3.339  16.500 -2.1987 -1.0383 -0.3204
  409MPD2    N1 6114   4.091   2.922  16.861  0.0173 -0.1920 -0.1708
  409MPD2    H7 6115   4.175   2.956  16.907 -0.8277  0.5205  0.8189
  410TMC3    C1 6116   4.372   3.458  16.605 -0.4423 -0.4691 -0.2041
  410TMC3    C2 6117   4.490   3.478  16.664 -1.0367 -0.4510  0.4917
  410TMC3    C3 6118   4.572   3.577  16.603 -0.7373 -0.0206 -0.2729
  410TMC3    C4 6119   4.331   3.520  16.488 -0.3731  0.4367  0.3660
  410TMC3    C5 6120   4.419   3.610  16.426  0.1259 -0.6285 -0.0076
  410TMC3    C6 6121   4.538   3.649  16.484 -0.0256 -0.1224 -0.5076
  410TMC3     C 6122   4.303   3.347  16.662  0.4962 -0.0129  0.1966
  410TMC3     O 6123   4.345   3.298  16.774  0.3056 -0.4894  0.1830
  410TMC3     H 6124   4.517   3.440  16.762 -0.9261  1.2741  1.1343
  410TMC3    H1 6125   4.231   3.508  16.450 -0.5169  1.1102  0.5261
  410TMC3    H2 6126   4.610   3.722  16.450 -1.0740  0.3412 -1.7189
  410TMC3    C7 6127   4.395   3.626  16.288 -0.0022  1.0138 -0.3674
  410TMC3    C8 6128   4.707   3.582  16.650 -0.1480  0.4891  0.0043
  410TMC3    O1 6129   4.309   3.553  16.252 -0.3138 -0.2916 -0.2071
  410TMC3    O2 6130   0.043   3.689  16.643 -0.5763  0.2586  0.1957
  411MPD2     C 6131   0.321   4.182  14.474 -0.4721 -0.3521  0.4697
  411MPD2    C1 6132   0.197   4.179  14.416  0.0554 -0.2783 -0.7354
  411MPD2    C2 6133   0.133   4.066  14.372  0.0544  0.0065  0.3513
  411MPD2    C3 6134   0.208   3.951  14.386  0.0324 -0.2040  0.1463
  411MPD2    C4 6135   0.344   3.961  14.420  0.3898  0.3993 -0.3340
  411MPD2    C5 6136   0.405   4.080  14.469 -0.0366 -0.4361  0.5737
  411MPD2     H 6137   0.028   4.074  14.347  0.0196 -1.8517 -0.1348
  411MPD2    H1 6138   0.401   3.870  14.430 -0.3429 -0.1287 -0.9330
  411MPD2    H2 6139   0.362   4.276  14.510  0.9929 -0.0734 -1.9262
  411MPD2    H3 6140   0.505   4.076  14.511 -0.4431  0.5587  1.6489
  411MPD2     N 6141   0.157   3.822  14.367  0.1472 -0.0966 -0.2428
  411MPD2    H5 6142   0.219   3.742  14.360 -0.5542 -0.6728  0.0591
  411MPD2    N1 6143   0.131   4.310  14.404 -0.1245 -0.9439  0.7447
  411MPD2    H7 6144   0.170   4.387  14.457  1.1949  0.0716 -1.7305
  412TMC3    C1 6145   4.712   3.668  14.295  0.1728 -0.2297  0.1157
  412TMC3    C2 6146   4.607   3.594  14.339 -0.0330  0.6290  0.2365
  412TMC3    C3 6147   4.557   3.488  14.268  0.1838 -0.2935  0.2504
  412TMC3    C4 6148   0.040   3.656  14.165 -0.1364  0.3737 -0.5379
  412TMC3    C5 6149   4.714   3.549  14.097 -0.6082 -0.6692 -0.9183
  412TMC3    C6 6150   4.615   3.465  14.144 -0.0368 -0.9686  0.2706
  412TMC3     C 6151   0.020   3.797  14.359  0.2195  0.2902 -0.3404
  412TMC3     O 6152   4.645   3.861  14.390 -0.5146  0.6579 -0.5236
  412TMC3     H 6153   4.557   3.617  14.433 -0.6189  1.4157 -0.2649
  412TMC3    H1 6154   0.097   3.736  14.119  0.6398  0.1416  0.0220
  412TMC3    H2 6155   4.581   3.378  14.089 -3.0741  0.8717 -0.7721
  412TMC3    C7 6156   4.678   3.579  13.960  0.4824  0.0296 -0.0356
  412TMC3    C8 6157   4.418   3.474  14.266  0.6137 -0.2843  0.5057
  412TMC3    O1 6158   4.565   3.540  13.938  0.2483  0.2418 -0.3423
  412TMC3    O2 6159   4.355   3.472  14.372 -0.0125  0.1427  0.6946
  413MPD2     C 6160   1.840   2.159  14.368 -0.0282 -0.1634 -0.3875
  413MPD2    C1 6161   1.787   2.038  14.400 -0.2431  0.2253  0.0382
  413MPD2    C2 6162   1.851   1.919  14.374  0.5288 -0.0920 -0.4873
  413MPD2    C3 6163   1.979   1.917  14.334  0.0488  0.2976 -0.0526
  413MPD2    C4 6164   2.042   2.037  14.320  0.0477  0.4503  0.0335
  413MPD2    C5 6165   1.970   2.158  14.348  0.5961  0.0326 -0.1223
  413MPD2     H 6166   1.798   1.827  14.392  0.2875  0.1984  0.2512
  413MPD2    H1 6167   2.149   2.042  14.307 -0.0574 -0.2680 -1.0859
  413MPD2    H2 6168   1.790   2.253  14.386 -2.6516 -1.4458 -0.9641
  413MPD2    H3 6169   2.012   2.258  14.342 -1.0011  0.9010  3.2961
  413MPD2     N 6170   2.041   1.792  14.312 -0.0165 -0.1796  0.2079
  413MPD2    H5 6171   1.988   1.710  14.339  1.1469 -1.0834 -0.2321
  413MPD2    N1 6172   1.661   2.026  14.462  0.2627 -0.2417 -0.2559
  413MPD2    H7 6173   1.614   1.937  14.465 -1.4830  0.5683 -3.2267
  414TMC3    C1 6174   2.213   1.641  14.253 -0.1520 -0.3691 -0.2755
  414TMC3    C2 6175   2.208   1.580  14.376  0.3475 -0.3415  0.1200
  414TMC3    C3 6176   2.260   1.449  14.366 -0.2482 -0.2582 -0.0850
  414TMC3    C4 6177   2.269   1.584  14.139 -0.6268  0.0460 -0.2636
  414TMC3    C5 6178   2.329   1.461  14.141  0.9358 -0.1116  0.7897
  414TMC3    C6 6179   2.324   1.388  14.256  0.7407 -0.0651 -0.1123
  414TMC3     C 6180   2.155   1.774  14.233 -0.0779  0.8054  0.7498
  414TMC3     O 6181   2.213   1.847  14.151 -0.0624 -0.1824  0.4531
  414TMC3     H 6182   2.167   1.619  14.468 -0.6844  0.9537 -0.8820
  414TMC3    H1 6183   2.268   1.643  14.048  0.3729  1.3415  0.5526
  414TMC3    H2 6184   2.375   1.293  14.260  1.2919  0.2235 -0.2753
  414TMC3    C7 6185   2.464   1.465  14.096  1.1923  0.4048 -0.0515
  414TMC3    C8 6186   2.284   1.371  14.487 -0.4603 -0.4603  0.6828
  414TMC3    O1 6187   2.531   1.569  14.111  0.1747 -0.6814  0.7043
  414TMC3    O2 6188   2.301   1.250  14.476 -0.4257  0.1936  0.5764
  415TMC3    C1 6189   1.823   0.280   9.713 -0.4458  0.0204  0.4877
  415TMC3    C2 6190   1.816   0.392   9.643 -0.5819  1.1129 -0.3302
  415TMC3    C3 6191   1.711   0.411   9.558  0.4339 -0.0030 -0.1172
  415TMC3    C4 6192   1.734   0.179   9.694  0.6536  0.4792  0.7490
  415TMC3    C5 6193   1.623   0.199   9.611 -0.0901 -0.1207  0.7614
  415TMC3    C6 6194   1.614   0.312   9.538  0.2889  0.0309 -0.0651
  415TMC3     C 6195   1.922   0.253   9.814 -0.2700 -0.0459  0.4023
  415TMC3     O 6196   1.915   0.150   9.881  0.5617 -0.0111  0.0045
  415TMC3     H 6197   1.897   0.464   9.630 -0.1387  0.8467  0.9849
  415TMC3    H1 6198   1.736   0.091   9.757 -0.4143  0.9357  1.4371
  415TMC3    H2 6199   1.527   0.333   9.478 -1.6704 -4.3250  1.2509
  415TMC3    C7 6200   1.535   0.092   9.590  0.3576  0.4006 -1.0637
  415TMC3    C8 6201   1.704   0.529   9.475 -0.6901  0.5045  0.6144
  415TMC3    O1 6202   1.464   0.097   9.493 -0.3474 -0.3199  0.5907
  415TMC3    O2 6203   1.622   0.530   9.384 -0.2279  0.1461  0.4861
  416MPD2     C 6204   4.376   3.625  11.365  0.4250 -0.0908 -0.4177
  416MPD2    C1 6205   4.257   3.557  11.346  0.5368  0.2155  0.2407
  416MPD2    C2 6206   4.254   3.459  11.251  0.2733 -0.2622 -0.2776
  416MPD2    C3 6207   4.371   3.422  11.188 -0.4822  0.1471  0.3189
  416MPD2    C4 6208   4.491   3.480  11.218  0.2287 -0.0628 -0.5201
  416MPD2    C5 6209   4.487   3.589  11.302  0.2499  0.5552 -0.8842
  416MPD2     H 6210   4.166   3.402  11.224  0.8853 -1.3520  0.0170
  416MPD2    H1 6211   4.577   3.464  11.155 -0.3154 -3.3046 -0.4420
  416MPD2    H2 6212   4.384   3.706  11.436 -1.1085  2.0068 -2.6389
  416MPD2    H3 6213   4.576   3.645  11.328 -1.0848  1.9593  0.6691
  416MPD2     N 6214   4.382   3.328  11.085 -0.0404 -0.4827 -0.2148
  416MPD2    H5 6215   4.472   3.295  11.051  0.0527 -0.3528 -0.0958
  416MPD2    N1 6216   4.142   3.600  11.413  0.0243  0.4139 -0.5511
  416MPD2    H7 6217   4.151   3.691  11.459  1.4777  0.5038 -1.0064
  417TMC3    C1 6218   3.928   3.613  11.496 -0.3880  0.2035 -0.4076
  417TMC3    C2 6219   3.975   3.685  11.599 -0.4568  0.3502 -0.0851
  417TMC3    C3 6220   3.891   3.787  11.643 -0.0830 -0.1616  0.6756
  417TMC3    C4 6221   3.802   3.634  11.437 -0.9248  0.1055 -0.3435
  417TMC3    C5 6222   3.724   3.737  11.480  0.0979  0.1265  0.2343
  417TMC3    C6 6223   3.768   3.811  11.582  0.4460  0.4431 -0.2659
  417TMC3     C 6224   4.022   3.533  11.421  0.3227  0.7478 -0.3784
  417TMC3     O 6225   3.983   3.431  11.363  0.0301 -0.7465  0.1537
  417TMC3     H 6226   4.064   3.663  11.657 -1.0606  0.3308  0.8403
  417TMC3    H1 6227   3.768   3.571  11.356  1.4537 -1.2211 -0.3092
  417TMC3    H2 6228   3.709   3.895  11.619 -0.6763 -0.7989  0.7666
  417TMC3    C7 6229   3.673   3.818  11.371  1.2536 -0.0354  0.1882
  417TMC3    C8 6230   3.905   3.865  11.766  0.1501  0.0457 -0.4977
  417TMC3    O1 6231   3.701   3.937  11.367  0.2372 -0.5824 -0.0454
  417TMC3    O2 6232   3.794   3.888  11.818  0.7152 -0.3185  0.2377
  418TMC3    C1 6233   2.838   0.088  17.231 -0.4615 -0.1569  0.6303
  418TMC3    C2 6234   2.720   0.147  17.254 -0.6325  0.4178 -0.7263
  418TMC3    C3 6235   2.688   0.175  17.384 -0.5338 -0.8450  0.0090
  418TMC3    C4 6236   2.915   0.030  17.337 -0.1629  0.2831 -0.5555
  418TMC3    C5 6237   2.885   0.081  17.461  0.1700  0.7632 -0.1907
  418TMC3    C6 6238   2.773   0.148  17.488 -0.4686  0.1291  0.5448
  418TMC3     C 6239   2.865   0.038  17.099  0.3602  0.0478  0.0276
  418TMC3     O 6240   2.841   0.114  17.006  0.6812 -0.1343 -0.0851
  418TMC3     H 6241   2.656   0.181  17.174 -0.1320  0.0233 -1.2979
  418TMC3    H1 6242   3.014   4.710  17.320  0.0857  0.6753 -0.1138
  418TMC3    H2 6243   2.740   0.170  17.588 -0.6851  0.0724  0.4874
  418TMC3    C7 6244   2.938   4.716  17.568 -0.4974 -0.2328 -0.7822
  418TMC3    C8 6245   2.548   0.170  17.415  0.5843  0.0244  0.4655
  418TMC3    O1 6246   2.980   4.605  17.536 -0.1045 -0.1274  1.0154
  418TMC3    O2 6247   2.491   0.278  17.402 -0.0229 -0.0523 -0.2197
  419MPD2     C 6248   1.307   3.479  12.498  0.1232 -0.1843  0.6334
  419MPD2    C1 6249   1.202   3.562  12.467 -0.6252  0.2526 -0.3757
  419MPD2    C2 6250   1.140   3.635  12.570 -0.5793 -0.3870 -0.2493
  419MPD2    C3 6251   1.174   3.613  12.695  0.1919 -0.4568 -0.8622
  419MPD2    C4 6252   1.276   3.535  12.735  0.2489  0.3670  0.6080
  419MPD2    C5 6253   1.346   3.476  12.625  0.2300  0.0367 -0.4308
  419MPD2     H 6254   1.053   3.697  12.556 -0.1972  0.1832 -0.1051
  419MPD2    H1 6255   1.322   3.530  12.833  0.5677  0.4034  0.4593
  419MPD2    H2 6256   1.368   3.430  12.422 -1.8191 -1.0224 -0.3955
  419MPD2    H3 6257   1.436   3.417  12.637 -0.7036 -1.3995 -0.5713
  419MPD2     N 6258   1.081   3.665  12.788 -0.0373  0.0106 -0.0070
  419MPD2    H5 6259   1.024   3.744  12.759  1.4122  1.8936  2.3212
  419MPD2    N1 6260   1.151   3.584  12.335  0.3793 -0.2863  0.3298
  419MPD2    H7 6261   1.070   3.642  12.316  0.5257  0.8324  3.2184
  420TMC3    C1 6262   0.983   3.749  12.980  0.2684 -0.4204  0.4333
  420TMC3    C2 6263   0.865   3.781  12.923  0.3506 -0.1055 -0.0889
  420TMC3    C3 6264   0.790   3.877  12.989 -0.2212 -0.2225  1.3208
  420TMC3    C4 6265   1.019   3.801  13.100  0.3965 -0.5920  0.5598
  420TMC3    C5 6266   0.946   3.895  13.157 -0.7131  0.4618  0.9845
  420TMC3    C6 6267   0.822   3.941  13.114  0.0824  0.5489  0.7097
  420TMC3     C 6268   1.074   3.648  12.924  0.3879 -0.0109  0.4245
  420TMC3     O 6269   1.137   3.577  13.000 -0.0592 -0.3649 -0.4310
  420TMC3     H 6270   0.840   3.737  12.827  0.8702 -0.5371 -0.0263
  420TMC3    H1 6271   1.099   3.751  13.153  0.4696 -3.0836 -1.8870
  420TMC3    H2 6272   0.751   4.009  13.160  0.3512  0.2755  1.5181
  420TMC3    C7 6273   0.996   3.941  13.288  0.3110  0.1517 -0.0270
  420TMC3    C8 6274   0.692   3.947  12.911 -1.3072 -0.0416 -0.4795
  420TMC3    O1 6275   0.912   3.970  13.372  0.3839 -0.2301  0.2866
  420TMC3    O2 6276   0.668   4.067  12.930 -0.1173 -0.3263  0.1020
  421TMC3    C1 6277   2.502   0.592  13.493  0.9289 -0.4017  0.5841
  421TMC3    C2 6278   2.500   0.730  13.529  0.0906 -0.2990  0.7083
  421TMC3    C3 6279   2.541   0.764  13.656  0.1894  0.4984  1.2174
  421TMC3    C4 6280   2.538   0.491  13.578  0.2537 -0.3876  0.4008
  421TMC3    C5 6281   2.588   0.535  13.699  0.2517 -0.4723  0.1868
  421TMC3    C6 6282   2.599   0.670  13.736 -0.6364 -0.1666  0.4538
  421TMC3     C 6283   2.427   0.561  13.367 -0.1345 -0.7110  0.0293
  421TMC3     O 6284   2.386   0.651  13.297  0.0460 -0.3645  0.4222
  421TMC3     H 6285   2.462   0.806  13.462  0.2822 -2.6263 -2.0419
  421TMC3    H1 6286   2.550   0.388  13.546 -0.2545 -0.8447  1.6729
  421TMC3    H2 6287   2.639   0.690  13.834  1.8768 -0.3242 -0.5481
  421TMC3    C7 6288   2.662   0.441  13.786 -0.6207  0.2054 -0.5773
  421TMC3    C8 6289   2.581   0.897  13.687 -0.3777  0.2363  0.4642
  421TMC3    O1 6290   2.748   0.487  13.863  0.1794  0.6052 -0.2805
  421TMC3    O2 6291   2.651   0.913  13.786 -0.2422  0.2009  0.4243
  422TMC3    C1 6292   0.012   1.719  12.275  0.8816 -0.4869  1.3511
  422TMC3    C2 6293   4.719   1.852  12.284 -0.4714  0.5732  0.3075
  422TMC3    C3 6294   4.639   1.894  12.387 -0.3835  0.1420 -0.1697
  422TMC3    C4 6295   4.664   1.632  12.346 -0.7936  0.5211  0.5837
  422TMC3    C5 6296   4.584   1.681  12.450 -0.0604 -0.2644  0.5842
  422TMC3    C6 6297   4.580   1.815  12.480 -0.5607  0.5240 -0.1259
  422TMC3     C 6298   0.129   1.669  12.205 -0.0772 -0.1723 -0.1490
  422TMC3     O 6299   0.220   1.753  12.197  0.1660  0.3298 -0.1470
  422TMC3     H 6300   0.057   1.922  12.228 -0.8424  0.2563 -0.4880
  422TMC3    H1 6301   4.670   1.528  12.318  0.4758  1.1221 -1.3892
  422TMC3    H2 6302   4.505   1.861  12.543  1.2055  2.4566  0.5855
  422TMC3    C7 6303   4.531   1.581  12.549  0.2650 -0.4302  0.1013
  422TMC3    C8 6304   4.605   2.030  12.399  0.1663 -0.0243 -0.3561
  422TMC3    O1 6305   4.594   1.479  12.566  0.4645 -0.2731  0.2642
  422TMC3    O2 6306   4.609   2.085  12.505 -0.4625 -0.1515 -0.3591
  423MPD2     C 6307   2.088   2.958  17.610 -0.1829  0.1127  0.3876
  423MPD2    C1 6308   1.993   2.898   0.006 -0.4040 -0.6127 -0.8934
  423MPD2    C2 6309   1.888   2.816  17.657 -0.2084  0.5433 -0.2647
  423MPD2    C3 6310   1.872   2.790  17.520 -0.0882 -0.2678  0.4017
  423MPD2    C4 6311   1.974   2.845  17.439  0.1314 -0.4949 -0.9122
  423MPD2    C5 6312   2.075   2.923  17.482  0.2782 -0.0195  0.7439
  423MPD2     H 6313   1.817   2.779   0.037  0.9885 -0.1305  0.5781
  423MPD2    H1 6314   1.979   2.826  17.332  1.0363  1.3786 -1.1937
  423MPD2    H2 6315   2.171   3.019  17.641 -1.2391 -0.1018  3.5931
  423MPD2    H3 6316   2.158   2.951  17.419 -1.2219  2.9052  0.0508
  423MPD2     N 6317   1.777   2.700  17.453  0.3613  0.4523  0.9118
  423MPD2    H5 6318   1.781   2.696  17.351 -2.2450  2.6980  0.7062
  423MPD2    N1 6319   2.012   2.913   0.148  0.2607  0.2221  0.0865
  423MPD2    H7 6320   1.957   2.858   0.214 -1.5797  0.5158 -1.2046
  424TMC3    C1 6321   2.130   2.965   0.352  0.1580 -0.4545  0.3567
  424TMC3    C2 6322   2.252   2.904   0.384 -0.2747  0.7666  0.0182
  424TMC3    C3 6323   2.263   2.853   0.511 -0.3264 -0.1801  0.2926
  424TMC3    C4 6324   2.027   2.959   0.435  0.0976 -0.3944 -0.0145
  424TMC3    C5 6325   2.039   2.907   0.556  0.2844 -0.5373 -0.1779
  424TMC3    C6 6326   2.160   2.860   0.600 -0.6438  0.8751  0.0068
  424TMC3     C 6327   2.111   2.986   0.208 -0.0172  0.0259 -0.6165
  424TMC3     O 6328   2.206   3.053   0.161 -0.3159  0.4405  0.6796
  424TMC3     H 6329   2.328   2.913   0.308 -1.2796  0.1490 -1.0759
  424TMC3    H1 6330   1.927   2.984   0.402  0.1799  0.2818  0.2574
  424TMC3    H2 6331   2.169   2.805   0.693 -0.3579 -0.9922 -1.1322
  424TMC3    C7 6332   1.922   2.839   0.609  0.5391 -0.0996 -0.7010
  424TMC3    C8 6333   2.381   2.771   0.547  0.0902  0.8694  0.5053
  424TMC3    O1 6334   1.934   2.727   0.656 -0.1447 -0.5146  0.2764
  424TMC3    O2 6335   2.372   2.705   0.652 -0.6788 -0.3983 -0.2399
  425MPD2     C 6336   0.473   2.049  17.137  0.1913  0.1458  0.0783
  425MPD2    C1 6337   0.426   1.957  17.228 -0.0485 -0.5384  0.6187
  425MPD2    C2 6338   0.300   1.963  17.276 -0.2642 -0.7099 -0.0002
  425MPD2    C3 6339   0.215   2.069  17.241 -0.1695 -0.6985  0.9007
  425MPD2    C4 6340   0.270   2.175  17.170  0.0623 -0.0670  0.4104
  425MPD2    C5 6341   0.394   2.159  17.113 -0.1044  0.2325  0.1566
  425MPD2     H 6342   0.265   1.884  17.342  1.7416  1.2213  3.4182
  425MPD2    H1 6343   0.221   2.268  17.146  1.8307  0.6380 -0.4998
  425MPD2    H2 6344   0.569   2.031  17.091  0.2976 -0.3142  0.4735
  425MPD2    H3 6345   0.436   2.243  17.058 -0.4559 -0.0917 -0.6090
  425MPD2     N 6346   0.080   2.049  17.269 -0.3549 -0.1657  0.0474
  425MPD2    H5 6347   0.054   1.961  17.312  1.4391 -0.5285  0.4065
  425MPD2    N1 6348   0.509   1.848  17.268 -0.3840 -0.3248  0.2966
  425MPD2    H7 6349   0.583   1.818  17.206 -0.0570 -0.7382  0.8947
  426TMC3    C1 6350   0.490   1.626  17.349 -0.1483 -0.4126 -0.2024
  426TMC3    C2 6351   0.470   1.588  17.218 -0.3797 -0.4378 -0.3972
  426TMC3    C3 6352   0.410   1.473  17.192 -0.5435  0.4282  0.0444
  426TMC3    C4 6353   0.438   1.555  17.459  0.2303 -0.5462 -0.1600
  426TMC3    C5 6354   0.353   1.446  17.426 -0.6507  0.7377 -0.5113
  426TMC3    C6 6355   0.348   1.405  17.296  0.0380 -0.1173 -0.0672
  426TMC3     C 6356   0.481   1.768  17.375  0.0291 -0.2159  0.6651
  426TMC3     O 6357   0.413   1.795  17.474 -0.0810 -0.1177  0.2357
  426TMC3     H 6358   0.484   1.661  17.139  2.5506 -0.5782 -0.0068
  426TMC3    H1 6359   0.461   1.585  17.561 -2.0931  2.1483 -0.4385
  426TMC3    H2 6360   0.286   1.320  17.267  1.3279 -0.7096 -1.1319
  426TMC3    C7 6361   0.227   1.446  17.498 -0.8300 -0.7302 -0.4403
  426TMC3    C8 6362   0.347   1.476  17.057 -0.0954 -0.0137 -0.4533
  426TMC3    O1 6363   0.143   1.356  17.470 -0.5502  0.1130  0.0633
  426TMC3    O2 6364   0.229   1.502  17.056 -0.4287 -0.4523  0.4624
  427MPD2     C 6365   3.886   4.163  14.434  0.2703 -0.0159  0.2744
  427MPD2    C1 6366   3.867   4.042  14.511 -0.0003  0.1994 -0.3531
  427MPD2    C2 6367   3.733   4.022  14.553  0.0902  0.2653  0.3863
  427MPD2    C3 6368   3.625   4.092  14.512  0.1363 -0.9388 -0.4475
  427MPD2    C4 6369   3.650   4.203  14.438 -0.1630 -0.3246  0.4141
  427MPD2    C5 6370   3.776   4.239  14.402 -0.8091 -0.3395  0.1293
  427MPD2     H 6371   3.711   3.925  14.596  1.8751  1.4428  3.9477
  427MPD2    H1 6372   3.570   4.259  14.392 -0.0475 -0.3109  0.2273
  427MPD2    H2 6373   3.984   4.183  14.392 -0.5454 -1.8557 -2.4777
  427MPD2    H3 6374   3.788   4.325  14.336  1.0759 -1.9328 -1.5957
  427MPD2     N 6375   3.493   4.052  14.540 -0.4868 -0.0535 -0.2428
  427MPD2    H5 6376   3.420   4.084  14.478 -2.1137 -1.9600  0.6701
  427MPD2    N1 6377   3.963   3.950  14.553 -0.4800  0.0422  0.0771
  427MPD2    H7 6378   3.938   3.881  14.623  0.6223  0.6141  1.0419
  428TMC3    C1 6379   4.179   3.873  14.606 -0.3859 -0.9064 -0.2055
  428TMC3    C2 6380   4.126   3.755  14.648 -0.3681  0.0962  0.1474
  428TMC3    C3 6381   4.215   3.653  14.677  0.5175  0.0268  0.2814
  428TMC3    C4 6382   4.312   3.903  14.609 -0.3349  0.5800 -0.2800
  428TMC3    C5 6383   4.395   3.798  14.640 -0.0126 -0.6819  0.0689
  428TMC3    C6 6384   4.348   3.672  14.655 -0.0236  0.5997 -0.5566
  428TMC3     C 6385   4.099   3.968  14.536 -0.6057  0.8655 -0.0378
  428TMC3     O 6386   4.152   4.055  14.471 -0.8325 -0.1636 -0.3495
  428TMC3     H 6387   4.018   3.748  14.642 -0.2417 -1.9035  0.0986
  428TMC3    H1 6388   4.350   3.994  14.564 -1.9902  0.1771 -2.5341
  428TMC3    H2 6389   4.414   3.588  14.677  0.4323  1.4763  1.3205
  428TMC3    C7 6390   4.508   3.831  14.729 -0.3395 -0.1993  0.0398
  428TMC3    C8 6391   4.152   3.528  14.724 -0.0259 -0.0196  0.0998
  428TMC3    O1 6392   4.556   3.737  14.790 -0.6889 -0.4279 -0.4543
  428TMC3    O2 6393   4.218   3.420  14.701  0.4854 -0.2301 -0.4642
  429MPD2     C 6394   0.053   4.070  17.460  0.3236 -0.1739  0.5626
  429MPD2    C1 6395   0.084   4.007  17.340 -0.8013  0.2466  0.1345
  429MPD2    C2 6396   0.128   4.080  17.228  1.4396 -0.1449 -0.2764
  429MPD2    C3 6397   0.150   4.217  17.232 -0.3796 -0.2071  0.4050
  429MPD2    C4 6398   0.119   4.276  17.353 -0.6057  0.1758 -0.1090
  429MPD2    C5 6399   0.069   4.209  17.461 -0.2477 -0.0816  0.6805
  429MPD2     H 6400   0.156   4.024  17.140  1.9912 -0.2065 -0.0623
  429MPD2    H1 6401   0.130   4.383  17.371 -0.7332  0.2872 -0.6965
  429MPD2    H2 6402   0.008   4.026  17.548  3.0265 -1.0588  1.5233
  429MPD2    H3 6403   0.042   4.257  17.554  0.2234  0.0230  0.7666
  429MPD2     N 6404   0.174   4.289  17.113  0.4120  0.5835 -0.4580
  429MPD2    H5 6405   0.158   4.242  17.024 -0.8889  1.0864 -0.4954
  429MPD2    N1 6406   0.074   3.864  17.334 -0.3132 -0.1747 -0.4962
  429MPD2    H7 6407   0.097   3.829  17.241  0.0312 -0.2948 -0.3630
  430TMC3    C1 6408   0.270   4.464  16.975 -0.1938 -0.0870 -0.6245
  430TMC3    C2 6409   0.191   4.421  16.871 -0.1367 -0.7704 -0.2512
  430TMC3    C3 6410   0.249   4.408  16.749  0.0830 -0.9233 -0.1559
  430TMC3    C4 6411   0.398   4.509  16.949  0.6383 -0.0868  0.2366
  430TMC3    C5 6412   0.451   4.486  16.822  0.0665  0.0434 -0.0334
  430TMC3    C6 6413   0.377   4.436  16.717 -0.4154 -0.7727  0.1600
  430TMC3     C 6414   0.237   4.418  17.112 -0.4754  0.3611 -0.1086
  430TMC3     O 6415   0.310   4.450  17.203  0.3524 -0.1780 -0.0504
  430TMC3     H 6416   0.091   4.381  16.885 -0.6623  0.6596  0.0664
  430TMC3    H1 6417   0.468   4.533  17.029  1.4750 -0.3108 -0.4262
  430TMC3    H2 6418   0.408   4.429  16.614  0.8322 -0.5481  0.5274
  430TMC3    C7 6419   0.596   4.456  16.815 -0.5814 -0.0444  0.3671
  430TMC3    C8 6420   0.167   4.407  16.627  0.5532  0.7645  0.5848
  430TMC3    O1 6421   0.670   4.524  16.884 -0.4106  0.5233  0.1588
  430TMC3    O2 6422   0.221   4.385  16.517  0.6012  0.2020  0.4271
  431MPD2     C 6423   1.263   4.330  12.402  0.7247  0.4239 -0.7707
  431MPD2    C1 6424   1.329   4.303  12.284 -0.2924  0.2259  0.1499
  431MPD2    C2 6425   1.282   4.203  12.197  0.5886 -0.3254  0.1854
  431MPD2    C3 6426   1.162   4.131  12.223  0.3282  0.2853  0.0113
  431MPD2    C4 6427   1.090   4.171  12.334 -0.3710 -0.5016 -0.0001
  431MPD2    C5 6428   1.141   4.263  12.417 -0.0330  0.1321 -0.9506
  431MPD2     H 6429   1.341   4.182  12.109 -2.9189  2.5511 -2.8632
  431MPD2    H1 6430   0.996   4.122  12.355 -1.2525 -0.0531 -2.8324
  431MPD2    H2 6431   1.285   4.401  12.481  2.4213  0.0537 -0.9175
  431MPD2    H3 6432   1.076   4.297  12.496  1.9733  0.7104  0.4288
  431MPD2     N 6433   1.118   4.021  12.150  0.9588 -0.0244  0.1703
  431MPD2    H5 6434   1.035   3.972  12.180  1.3458  0.5759  2.1880
  431MPD2    N1 6435   1.450   4.363  12.255  0.2172 -0.3490  0.1905
  431MPD2    H7 6436   1.505   4.326  12.178 -1.7430 -0.2745 -1.2460
  432TMC3    C1 6437   1.135   3.832  12.015 -0.1258  0.5039  0.2463
  432TMC3    C2 6438   1.178   3.792  11.892  0.3735 -0.0845 -0.0667
  432TMC3    C3 6439   1.218   3.661  11.881 -0.4344 -0.0835  0.3096
  432TMC3    C4 6440   1.131   3.749  12.121 -0.0587 -0.2493 -0.5325
  432TMC3    C5 6441   1.165   3.616  12.105  0.1217 -0.7771  0.1753
  432TMC3    C6 6442   1.217   3.576  11.984 -0.5250 -0.2678  0.3944
  432TMC3     C 6443   1.180   3.968  12.045  0.7963 -0.1118 -0.9209
  432TMC3     O 6444   1.274   4.010  11.978  0.0779 -0.3943 -0.1675
  432TMC3     H 6445   1.191   3.862  11.811  0.7694  0.1581  0.2056
  432TMC3    H1 6446   1.130   3.785  12.223  1.0493 -0.0349 -0.5985
  432TMC3    H2 6447   1.257   3.476  11.974 -1.0938 -0.2532 -1.8711
  432TMC3    C7 6448   1.214   3.539  12.219 -0.0843 -0.6059  0.1383
  432TMC3    C8 6449   1.334   3.647  11.792  0.9018  0.2469 -0.0006
  432TMC3    O1 6450   1.305   3.460  12.200  0.5478 -0.3903 -0.1831
  432TMC3    O2 6451   1.415   3.737  11.817  0.5264 -0.5587  0.1650
  433MPD2     C 6452   0.018   2.816  10.452 -0.1372 -0.1209  0.0176
  433MPD2    C1 6453   0.045   2.709  10.539 -0.6672  0.2656  0.1416
  433MPD2    C2 6454   0.113   2.727  10.657 -0.2127 -0.5951 -0.7335
  433MPD2    C3 6455   0.159   2.860  10.685 -0.3332  0.0033  0.3991
  433MPD2    C4 6456   0.140   2.963  10.594  0.0525 -0.2351  0.1920
  433MPD2    C5 6457   0.067   2.937  10.479 -0.4335 -0.1122  0.1291
  433MPD2     H 6458   0.151   2.644  10.714  0.7363 -0.5671 -1.3370
  433MPD2    H1 6459   0.159   3.068  10.615  0.3186 -0.3964  0.7598
  433MPD2    H2 6460   4.690   2.803  10.357  0.9976 -0.4460 -0.5341
  433MPD2    H3 6461   0.042   3.017  10.411  1.6815 -0.4262 -1.0267
  433MPD2     N 6462   0.235   2.883  10.806  0.0819 -0.0362 -0.5160
  433MPD2    H5 6463   0.247   2.801  10.864  1.1903  1.6097  1.5876
  433MPD2    N1 6464   0.013   2.580  10.487 -0.5615 -0.6330  0.3003
  433MPD2    H7 6465   4.708   2.572  10.390 -0.4133  0.1694  0.1909
  434TMC3    C1 6466   0.083   2.357  10.475  0.0226  0.0695 -0.1167
  434TMC3    C2 6467   0.149   2.277  10.559  0.3260 -0.1605  0.1665
  434TMC3    C3 6468   0.276   2.232  10.531  0.0504 -0.0084 -1.0772
  434TMC3    C4 6469   0.128   2.383  10.349 -0.1103  0.0235  0.9042
  434TMC3    C5 6470   0.249   2.336  10.325 -0.0147  0.2944 -0.0629
  434TMC3    C6 6471   0.330   2.273  10.413 -0.3782 -0.3198 -0.1918
  434TMC3     C 6472   0.031   2.467  10.556 -0.1990  0.1794  0.2159
  434TMC3     O 6473   4.716   2.450  10.673  0.2602  0.5216 -0.0874
  434TMC3     H 6474   0.119   2.277  10.664 -1.4881  2.1915 -0.3373
  434TMC3    H1 6475   0.055   2.410  10.274 -0.0155  0.8433  1.1135
  434TMC3    H2 6476   0.415   2.233  10.359 -1.9658 -3.3512 -0.3971
  434TMC3    C7 6477   0.288   2.330  10.182 -0.1783 -0.0774 -0.0111
  434TMC3    C8 6478   0.346   2.166  10.643  0.1320  0.1072  0.1273
  434TMC3    O1 6479   0.367   2.409  10.140 -0.5142  0.0931 -0.4909
  434TMC3    O2 6480   0.309   2.175  10.760 -0.1742 -0.4788  0.3027
  435MPD2     C 6481   2.059   2.245  15.028  0.8199  0.3652 -0.5657
  435MPD2    C1 6482   2.062   2.350  15.125  0.0137  0.2932 -0.6394
  435MPD2    C2 6483   2.157   2.343  15.218 -0.1018  0.2795 -0.1660
  435MPD2    C3 6484   2.255   2.241  15.215 -0.2282  0.4226  0.5921
  435MPD2    C4 6485   2.250   2.144  15.119 -0.0294  0.2677 -0.0821
  435MPD2    C5 6486   2.157   2.149  15.029  0.7616  0.1550  0.6405
  435MPD2     H 6487   2.146   2.420  15.294  0.2087 -0.8830  1.0508
  435MPD2    H1 6488   2.316   2.060  15.105  0.2649  0.8556 -2.2703
  435MPD2    H2 6489   1.982   2.231  14.953  1.7284 -0.9444 -1.2498
  435MPD2    H3 6490   2.164   2.075  14.951 -2.9104  0.5858 -0.0907
  435MPD2     N 6491   2.349   2.233  15.327 -0.0074 -0.0719 -0.4123
  435MPD2    H5 6492   2.345   2.306  15.397  1.7473  0.8981 -1.3241
  435MPD2    N1 6493   1.955   2.448  15.133 -0.0338 -0.4792 -0.0916
  435MPD2    H7 6494   1.957   2.514  15.210  1.1887  0.6243 -1.0791
  436TMC3    C1 6495   1.643   2.689  15.244 -0.0051 -1.0077 -0.1108
  436TMC3    C2 6496   1.751   2.614  15.201  0.6346  0.0445  0.0954
  436TMC3    C3 6497   1.734   2.543  15.089  0.6705 -0.3176  0.7960
  436TMC3    C4 6498   1.525   2.690  15.175 -0.0592  1.0687 -0.2040
  436TMC3    C5 6499   1.524   2.613  15.065  0.3805 -0.2777  0.2878
  436TMC3    C6 6500   1.625   2.548  15.009  0.2097  0.1129  0.1001
  436TMC3     C 6501   1.656   2.744  15.378 -0.3888 -0.6182 -0.4207
  436TMC3     O 6502   1.770   2.766  15.415  0.4096 -0.0174  0.0740
  436TMC3     H 6503   1.834   2.600  15.269 -0.6777  0.6968  1.8012
  436TMC3    H1 6504   1.447   2.758  15.206  1.7357  2.2820  1.6402
  436TMC3    H2 6505   1.615   2.474  14.930  1.5498 -0.7741  0.7699
  436TMC3    C7 6506   1.388   2.577  15.008  0.0927  0.0195  0.1695
  436TMC3    C8 6507   1.848   2.462  15.045  0.2224  0.0875 -0.0991
  436TMC3    O1 6508   1.295   2.553  15.085  0.2309  0.8433 -0.3034
  436TMC3    O2 6509   1.825   2.399  14.944  0.2472  0.4460  0.4977
  437TMC3    C1 6510   0.802   4.685  12.754  0.9103 -0.2720 -0.4179
  437TMC3    C2 6511   0.782   0.089  12.797  0.5164 -0.3892  0.0087
  437TMC3    C3 6512   0.855   0.194  12.747 -0.5907  0.2411 -0.0361
  437TMC3    C4 6513   0.907   4.663  12.667 -0.4288 -0.0398 -0.4948
  437TMC3    C5 6514   0.978   0.042  12.620  0.4535 -1.1510 -0.2982
  437TMC3    C6 6515   0.966   0.168  12.668  0.3246  0.3685  0.2015
  437TMC3     C 6516   0.725   4.578  12.805 -0.5825 -0.4792 -0.0614
  437TMC3     O 6517   0.784   4.468  12.804  0.2541 -0.5174  0.2784
  437TMC3     H 6518   0.712   0.113  12.876  0.3068 -1.1931  0.0660
  437TMC3    H1 6519   0.929   4.560  12.639 -1.8606  0.1481 -2.3485
  437TMC3    H2 6520   1.026   0.247  12.624 -0.0195  0.1058 -0.7384
  437TMC3    C7 6521   1.078   0.002  12.519 -0.5455 -0.3584 -0.3092
  437TMC3    C8 6522   0.839   0.317  12.831  0.1341  0.4070 -0.0980
  437TMC3    O1 6523   1.060   4.630  12.442  0.1672 -0.2103 -0.3403
  437TMC3    O2 6524   0.780   0.308  12.939  0.0856 -0.0513 -0.1849
  438MPD2     C 6525   2.775   0.057  16.166 -0.6865 -0.1947  0.4447
  438MPD2    C1 6526   2.888   4.721  16.219 -0.0525  0.4784 -0.5390
  438MPD2    C2 6527   2.859   4.615  16.311 -0.5902  0.0715  0.2607
  438MPD2    C3 6528   2.728   4.572  16.339  0.2044 -0.8228  0.1131
  438MPD2    C4 6529   2.617   4.643  16.289  0.7997  0.0026 -0.1473
  438MPD2    C5 6530   2.645   0.016  16.200 -0.3965 -0.8360  0.8255
  438MPD2     H 6531   2.944   4.567  16.357 -0.3003 -1.0551 -1.4203
  438MPD2    H1 6532   2.514   4.614  16.307  0.8155  0.2592  0.3776
  438MPD2    H2 6533   2.777   0.137  16.093 -0.0508  1.4483  2.2502
  438MPD2    H3 6534   2.571   0.082  16.156  0.9310  0.2680  0.2680
  438MPD2     N 6535   2.707   4.468  16.434  0.2632  0.7994  0.0090
  438MPD2    H5 6536   2.610   4.462  16.463  0.2118 -1.8380 -0.6909
  438MPD2    N1 6537   3.021   0.043  16.201 -0.5642 -0.1710 -0.5612
  438MPD2    H7 6538   3.097   4.719  16.248 -0.6575 -0.3015 -0.5386
  439TMC3    C1 6539   3.210   0.163  16.122 -0.2519  0.9365 -0.3772
  439TMC3    C2 6540   3.272   0.233  16.021 -0.0040  0.6449 -0.0095
  439TMC3    C3 6541   3.402   0.272  16.041 -0.7807  0.2484 -0.1409
  439TMC3    C4 6542   3.279   0.123  16.233 -0.0264 -0.2147 -0.3048
  439TMC3    C5 6543   3.415   0.160  16.240 -0.1001  0.1742  0.0677
  439TMC3    C6 6544   3.475   0.230  16.147 -0.1734  0.3966 -0.3411
  439TMC3     C 6545   3.061   0.148  16.118 -0.4071  0.4201  0.0373
  439TMC3     O 6546   2.997   0.210  16.037 -0.1270  0.5819  0.1337
  439TMC3     H 6547   3.220   0.260  15.930  0.1687  1.3403  0.0993
  439TMC3    H1 6548   3.235   0.047  16.296 -0.4072  0.9777  0.8515
  439TMC3    H2 6549   3.580   0.253  16.161 -0.0269 -0.4373 -0.0743
  439TMC3    C7 6550   3.478   0.154  16.370  0.0309  0.3349  0.0757
  439TMC3    C8 6551   3.482   0.338  15.944  0.1200 -0.2907  1.0277
  439TMC3    O1 6552   3.595   0.184  16.388 -0.7499 -0.2802  0.1725
  439TMC3    O2 6553   3.604   0.314  15.958  0.3397  0.4625  0.0274
  440MPD2     C 6554   1.936   0.722  14.331  0.4639  1.0069 -0.2145
  440MPD2    C1 6555   2.000   0.839  14.380 -0.9421 -0.5607 -0.1824
  440MPD2    C2 6556   2.090   0.827  14.485  0.0345  0.4573 -0.3245
  440MPD2    C3 6557   2.104   0.710  14.557  0.5158  0.0176 -0.3488
  440MPD2    C4 6558   2.043   0.596  14.498 -0.8242  0.1970 -0.0462
  440MPD2    C5 6559   1.960   0.601  14.390 -0.3212  0.0798 -0.2545
  440MPD2     H 6560   2.147   0.912  14.519 -1.5533  0.9237  1.1800
  440MPD2    H1 6561   2.071   0.500  14.539 -2.0623  0.0755  0.4963
  440MPD2    H2 6562   1.872   0.711  14.244 -2.1648 -0.9831  1.9792
  440MPD2    H3 6563   1.904   0.513  14.360  1.1514 -0.6336 -0.8753
  440MPD2     N 6564   2.195   0.696  14.658 -0.2014 -0.5259  0.9243
  440MPD2    H5 6565   2.198   0.598  14.684 -2.3176 -0.3406  1.8449
  440MPD2    N1 6566   1.973   0.964  14.329  0.0580 -0.1750 -0.4268
  440MPD2    H7 6567   2.012   1.042  14.381 -1.0354  0.1680 -0.1022
  441TMC3    C1 6568   2.386   0.737  14.789 -0.0050 -0.4106 -0.9642
  441TMC3    C2 6569   2.493   0.827  14.805 -0.0413  0.6216  0.4054
  441TMC3    C3 6570   2.529   0.854  14.937  0.6963  0.5873 -0.7650
  441TMC3    C4 6571   2.325   0.673  14.894  0.1790  0.2344  0.4351
  441TMC3    C5 6572   2.387   0.683  15.019 -0.0196 -0.2521  0.3122
  441TMC3    C6 6573   2.491   0.767  15.041 -0.6941  0.2584 -0.8104
  441TMC3     C 6574   2.283   0.795  14.701 -0.0394 -0.3687 -0.5444
  441TMC3     O 6575   2.290   0.913  14.678 -0.8609 -0.6657 -0.0374
  441TMC3     H 6576   2.522   0.880  14.714 -4.7096  1.2791 -0.7050
  441TMC3    H1 6577   2.239   0.609  14.879 -0.3052  0.9804  0.0241
  441TMC3    H2 6578   2.531   0.789  15.140 -2.7407  3.8166 -0.8007
  441TMC3    C7 6579   2.306   0.629  15.124 -0.3303  0.0054  0.0566
  441TMC3    C8 6580   2.502   0.994  14.970 -0.1395  0.0740  0.1305
  441TMC3    O1 6581   2.185   0.656  15.121 -0.1841  0.1668  0.3000
  441TMC3    O2 6582   2.517   1.025  15.087  0.1614  0.3852  0.4369
  442MPD2     C 6583   0.201   1.754  16.324  0.6031  0.5210  0.4300
  442MPD2    C1 6584   0.107   1.660  16.350  0.3011 -0.3418 -0.8352
  442MPD2    C2 6585   0.110   1.544  16.278  0.0330  0.1606 -0.4472
  442MPD2    C3 6586   0.207   1.523  16.179 -0.2585  0.0252 -0.2543
  442MPD2    C4 6587   0.291   1.625  16.141  0.1959 -0.1551  0.1356
  442MPD2    C5 6588   0.294   1.739  16.218 -1.2195 -0.9341 -0.2707
  442MPD2     H 6589   0.039   1.465  16.299 -0.3765  0.4306 -0.8194
  442MPD2    H1 6590   0.366   1.608  16.064 -2.1753 -2.1152 -1.7109
  442MPD2    H2 6591   0.206   1.841  16.389 -1.2056  2.5091 -2.0812
  442MPD2    H3 6592   0.363   1.820  16.197 -1.2509 -0.9105 -0.2826
  442MPD2     N 6593   0.220   1.402  16.102  0.1983  0.0001 -0.7854
  442MPD2    H5 6594   0.301   1.399  16.040  0.9135  1.0712  0.0733
  442MPD2    N1 6595   0.002   1.682  16.448 -0.6473  0.4983  0.5191
  442MPD2    H7 6596   4.659   1.607  16.468 -0.0978  0.4512  2.1287
  443TMC3    C1 6597   4.576   1.799  16.589  0.3421 -0.1583  0.0732
  443TMC3    C2 6598   4.488   1.905  16.566  0.7725 -0.2863 -0.3331
  443TMC3    C3 6599   4.358   1.901  16.613 -0.4331 -0.8765 -0.1632
  443TMC3    C4 6600   4.544   1.690  16.662  0.0360  0.1177 -0.7042
  443TMC3    C5 6601   4.414   1.702  16.710 -0.1925  0.0517 -0.0654
  443TMC3    C6 6602   4.315   1.789  16.672 -0.6549  0.1002 -0.0165
  443TMC3     C 6603   4.693   1.805  16.507 -0.1718 -0.4239 -0.0300
  443TMC3     O 6604   0.021   1.910  16.471 -0.4765  0.2555  0.0544
  443TMC3     H 6605   4.524   1.983  16.500 -0.6980  0.0199 -0.7585
  443TMC3    H1 6606   4.614   1.618  16.703  2.1911  0.9791 -2.8254
  443TMC3    H2 6607   4.218   1.783  16.722  1.3570 -1.1681  3.7166
  443TMC3    C7 6608   4.372   1.595  16.803 -0.3024 -0.4168  0.0383
  443TMC3    C8 6609   4.255   2.002  16.587  0.6395 -0.1056 -0.4988
  443TMC3    O1 6610   4.435   1.493  16.804  0.1597  0.3591  0.0706
  443TMC3    O2 6611   4.164   1.997  16.669  0.3459  0.3136  0.0685
  444MPD2     C 6612   0.333   1.089  16.804 -0.5289 -0.2842  0.2565
  444MPD2    C1 6613   0.266   0.967  16.801  0.1427  0.1811  0.0600
  444MPD2    C2 6614   0.329   0.855  16.748  0.3707 -0.6823  0.4563
  444MPD2    C3 6615   0.465   0.860  16.720  0.1975 -0.1308 -0.1198
  444MPD2    C4 6616   0.529   0.981  16.740 -0.4637  1.0171 -0.6909
  444MPD2    C5 6617   0.464   1.092  16.780  0.2544 -0.0453 -0.2151
  444MPD2     H 6618   0.276   0.760  16.747  1.7310 -1.4293 -0.9736
  444MPD2    H1 6619   0.635   0.997  16.725 -0.3353  0.2257 -0.6277
  444MPD2    H2 6620   0.293   1.182  16.844  3.4313  0.5195  2.3412
  444MPD2    H3 6621   0.523   1.182  16.794 -0.7473  0.7541 -1.2093
  444MPD2     N 6622   0.532   0.740  16.671 -0.0032 -0.3530 -0.5187
  444MPD2    H5 6623   0.469   0.664  16.648 -0.9156  0.4218 -0.5837
  444MPD2    N1 6624   0.131   0.951  16.839  0.2282 -0.1050 -0.1468
  444MPD2    H7 6625   0.091   0.858  16.830 -2.7722  1.0750  1.1977
  445TMC3    C1 6626   0.695   0.589  16.640 -0.2425  0.2128  0.4454
  445TMC3    C2 6627   0.613   0.532  16.545  0.7213 -0.2567 -0.2746
  445TMC3    C3 6628   0.632   0.398  16.527 -0.6815 -0.0405 -0.4586
  445TMC3    C4 6629   0.792   0.524  16.713  0.4445 -0.0562  0.0565
  445TMC3    C5 6630   0.805   0.396  16.692  0.3484  0.2152  0.3337
  445TMC3    C6 6631   0.729   0.332  16.599  0.3346 -0.1615 -0.0428
  445TMC3     C 6632   0.668   0.726  16.676  0.3935 -0.4927 -0.0455
  445TMC3     O 6633   0.762   0.804  16.700  0.5883 -0.1444  0.1571
  445TMC3     H 6634   0.547   0.590  16.482  2.2421 -0.9368 -2.4669
  445TMC3    H1 6635   0.862   0.589  16.765  1.5073 -1.0426 -0.1433
  445TMC3    H2 6636   0.732   0.227  16.571  0.4304 -0.7902  2.3589
  445TMC3    C7 6637   0.940   0.351  16.718  0.1762  0.4803 -0.7358
  445TMC3    C8 6638   0.581   0.333  16.411 -0.1543 -0.1191 -0.0255
  445TMC3    O1 6639   0.995   0.272  16.637  0.4855 -0.1816  0.5883
  445TMC3    O2 6640   0.641   0.239  16.364 -0.3723  0.2001 -0.3986
  446MPD2     C 6641   0.028   2.138  11.308  0.2450  0.2674 -0.1973
  446MPD2    C1 6642   0.008   2.122  11.173 -0.2512  0.0726  0.4572
  446MPD2    C2 6643   0.112   2.152  11.089 -0.0293 -0.3874  0.1850
  446MPD2    C3 6644   0.220   2.216  11.136  0.0733 -0.2481 -0.3349
  446MPD2    C4 6645   0.232   2.244  11.269 -0.1054  0.8108 -0.1642
  446MPD2    C5 6646   0.137   2.206  11.358 -0.4969 -0.4520  0.5423
  446MPD2     H 6647   0.105   2.143  10.981  0.9816 -0.3391  0.1149
  446MPD2    H1 6648   0.309   2.303  11.317  2.5274 -1.4536 -1.6534
  446MPD2    H2 6649   4.674   2.118  11.382  0.3634  3.3282  0.7356
  446MPD2    H3 6650   0.140   2.222  11.465  1.2382 -1.3060  0.6211
  446MPD2     N 6651   0.319   2.258  11.042  0.1170  0.5638 -0.5441
  446MPD2    H5 6652   0.291   2.251  10.945  1.6537  0.8303 -1.0110
  446MPD2    N1 6653   4.616   2.062  11.113 -0.5158  0.8002 -0.0206
  446MPD2    H7 6654   4.606   2.053  11.013 -1.7947 -0.7407  0.2352
  447TMC3    C1 6655   0.514   2.368  10.971 -0.4715 -0.2129 -0.1298
  447TMC3    C2 6656   0.460   2.432  10.863  0.4108 -0.5679 -0.2818
  447TMC3    C3 6657   0.544   2.499  10.783 -0.3188  0.5267  0.1834
  447TMC3    C4 6658   0.650   2.383  11.003 -0.2219 -1.1907 -0.4533
  447TMC3    C5 6659   0.728   2.457  10.919 -0.3125 -0.0877  0.0846
  447TMC3    C6 6660   0.685   2.512  10.807  0.3650  0.0515  0.2864
  447TMC3     C 6661   0.442   2.308  11.076  0.3644 -0.8952 -0.4327
  447TMC3     O 6662   0.504   2.300  11.183 -0.2937 -0.4541  0.1781
  447TMC3     H 6663   0.355   2.424  10.837  0.4630 -1.9190 -0.0927
  447TMC3    H1 6664   0.686   2.342  11.097 -0.1081 -1.8374 -0.7777
  447TMC3    H2 6665   0.752   2.563  10.739  1.0240  0.8784  1.5457
  447TMC3    C7 6666   0.869   2.475  10.951  0.5310  0.3871  0.8295
  447TMC3    C8 6667   0.482   2.539  10.658  0.2624  0.5405 -0.4367
  447TMC3    O1 6668   0.888   2.521  11.062 -0.4338 -0.1030  0.3131
  447TMC3    O2 6669   0.362   2.551  10.655 -0.2855  0.2296  0.4607
  448TMC3    C1 6670   2.862   2.126  16.745  0.1919 -0.2585 -0.1346
  448TMC3    C2 6671   2.921   2.047  16.659 -0.1397 -0.5148  0.1995
  448TMC3    C3 6672   2.910   1.913  16.682  0.2789  0.1864  0.1432
  448TMC3    C4 6673   2.787   2.086  16.859 -0.0132  0.1910 -0.0892
  448TMC3    C5 6674   2.802   1.958  16.883  0.0532 -0.1658  0.1985
  448TMC3    C6 6675   2.847   1.862  16.792  0.3454  0.0031  0.1261
  448TMC3     C 6676   2.871   2.267  16.738  0.0527  0.2834 -0.7768
  448TMC3     O 6677   2.780   2.335  16.781 -0.0488  0.5725  0.1098
  448TMC3     H 6678   2.982   2.083  16.577 -1.9199 -1.1455 -1.3828
  448TMC3    H1 6679   2.753   2.155  16.935 -2.4371 -1.3050  0.1646
  448TMC3    H2 6680   2.841   1.755  16.806 -1.3333  0.0701 -0.1048
  448TMC3    C7 6681   2.831   1.925  17.018 -0.7125  1.0123  0.3027
  448TMC3    C8 6682   2.914   1.829  16.565  0.1827  0.3514 -0.0875
  448TMC3    O1 6683   2.772   1.992  17.101  0.1479 -0.2223  0.1825
  448TMC3    O2 6684   2.920   1.710  16.590  0.3054 -0.1648  0.0451
  449MPD2     C 6685   0.081   0.120  14.351  0.0219  0.1179 -0.7465
  449MPD2    C1 6686   4.691   0.134  14.271 -0.1265 -0.5023 -0.2174
  449MPD2    C2 6687   4.568   0.128  14.330 -0.3300 -0.2180  0.3784
  449MPD2    C3 6688   4.549   0.121  14.468  0.4658  0.0262  0.3653
  449MPD2    C4 6689   4.665   0.113  14.546  0.1320 -0.0014 -0.6699
  449MPD2    C5 6690   0.066   0.111  14.487 -0.0243 -0.8052 -0.1865
  449MPD2     H 6691   4.483   0.143  14.264 -0.7533  1.3815  1.2588
  449MPD2    H1 6692   4.656   0.130  14.653  1.6027 -0.6651 -0.4361
  449MPD2    H2 6693   0.182   0.130  14.312  0.3685 -0.6799 -0.0460
  449MPD2    H3 6694   0.151   0.117  14.554 -1.8891  2.2763  1.9318
  449MPD2     N 6695   4.420   0.152  14.512 -0.1991 -0.7813  0.5636
  449MPD2    H5 6696   4.346   0.160  14.444 -0.1751 -0.8295  0.5321
  449MPD2    N1 6697   4.696   0.159  14.132  0.3420  0.0457  0.1403
  449MPD2    H7 6698   4.611   0.153  14.077  1.3785  1.6192 -1.6191
  450TMC3    C1 6699   0.038   0.211  13.918  0.2541 -0.9502  0.1420
  450TMC3    C2 6700   0.110   0.175  13.807  0.0390 -0.2307  0.4888
  450TMC3    C3 6701   0.054   0.211  13.690  0.2219 -0.4115  0.2198
  450TMC3    C4 6702   4.651   0.295  13.914 -0.4515 -0.7724  0.5379
  450TMC3    C5 6703   4.596   0.319  13.791  1.0233 -0.1375  0.4373
  450TMC3    C6 6704   4.657   0.276  13.678  0.1651 -0.3514  0.4766
  450TMC3     C 6705   0.082   0.174  14.051  0.5440  0.8595 -0.3469
  450TMC3     O 6706   0.198   0.185  14.085 -0.1214  0.1478 -0.4243
  450TMC3     H 6707   0.195   0.107  13.800 -1.7182 -2.4523  0.8201
  450TMC3    H1 6708   4.619   0.354  14.000 -1.1463  1.2221 -1.0720
  450TMC3    H2 6709   4.604   0.267  13.583  2.0332  0.7892 -0.6717
  450TMC3    C7 6710   4.470   0.368  13.779  0.0811 -0.2668  0.3937
  450TMC3    C8 6711   0.059   0.103  13.599 -0.4218 -0.3539 -0.0096
  450TMC3    O1 6712   4.437   0.438  13.685  0.2043 -0.2705  0.0075
  450TMC3    O2 6713   4.673   0.048  13.577  1.3344  0.0013  0.7936
  451MPD2     C 6714   1.334   0.526   0.624  0.3134  0.4561 -0.1668
  451MPD2    C1 6715   1.221   0.505   0.697 -0.7683  0.1489 -0.1018
  451MPD2    C2 6716   1.150   0.387   0.680  0.3501  0.1348 -0.4180
  451MPD2    C3 6717   1.205   0.290   0.596 -0.3496 -0.3307  0.1679
  451MPD2    C4 6718   1.315   0.316   0.520 -0.3589 -0.4769 -0.0895
  451MPD2    C5 6719   1.382   0.436   0.533  0.2176 -0.0674  0.2013
  451MPD2     H 6720   1.054   0.377   0.728  0.3800  0.2575 -0.3345
  451MPD2    H1 6721   1.360   0.241   0.456  2.2541  0.7451  0.3279
  451MPD2    H2 6722   1.383   0.623   0.631 -0.7380  1.0542 -0.9978
  451MPD2    H3 6723   1.473   0.459   0.479  0.5002  1.8225  1.4694
  451MPD2     N 6724   1.148   0.159   0.580 -0.2365  0.4030  0.0018
  451MPD2    H5 6725   1.198   0.092   0.522  2.4480  0.1015  2.6763
  451MPD2    N1 6726   1.177   0.606   0.791  0.0081  0.0211 -0.0302
  451MPD2    H7 6727   1.237   0.688   0.791  0.5590 -0.3867  1.1496
  452TMC3    C1 6728   0.994   4.711   0.602 -0.3252 -0.5621  0.1037
  452TMC3    C2 6729   0.918   4.641   0.689 -0.4860  0.4300  0.6831
  452TMC3    C3 6730   0.866   4.526   0.631 -0.6145  1.0392 -0.0703
  452TMC3    C4 6731   0.999   4.686   0.469  0.3226  0.5275 -0.1813
  452TMC3    C5 6732   0.944   4.575   0.419  0.2269 -0.7797 -0.0781
  452TMC3    C6 6733   0.862   4.496   0.495  0.0253  0.2904  0.7610
  452TMC3     C 6734   1.041   0.114   0.653  0.3031 -0.3852  0.4686
  452TMC3     O 6735   0.992   0.160   0.753 -0.3144 -0.2386  0.2260
  452TMC3     H 6736   0.905   4.660   0.795 -1.4027 -0.4177  0.7184
  452TMC3    H1 6737   1.074   0.014   0.410  2.6920 -1.9758  0.6659
  452TMC3    H2 6738   0.825   4.401   0.459  0.6143  1.2839 -2.4424
  452TMC3    C7 6739   0.966   4.537   0.280  0.3008 -0.0135  0.2180
  452TMC3    C8 6740   0.872   4.417   0.726 -0.5202  0.1866  0.0205
  452TMC3    O1 6741   0.933   4.421   0.252  0.6910  0.0510  0.0326
  452TMC3    O2 6742   0.956   4.422   0.811 -0.7389  0.2637  0.2578
  453TMC3    C1 6743   2.941   1.115  12.084  0.9081 -0.2327 -0.4929
  453TMC3    C2 6744   2.916   0.985  12.111  0.2274  0.1871  0.2349
  453TMC3    C3 6745   2.867   0.902  12.013 -0.1784  0.1412  0.4175
  453TMC3    C4 6746   2.922   1.168  11.960  0.2377  0.3591  0.8559
  453TMC3    C5 6747   2.876   1.082  11.860  0.1152  0.4589  0.3644
  453TMC3    C6 6748   2.844   0.949  11.884 -1.2339  0.4304  0.2119
  453TMC3     C 6749   2.953   1.216  12.183 -0.5699 -0.3800 -0.2764
  453TMC3     O 6750   3.028   1.307  12.156 -0.1767  0.1905  0.4598
  453TMC3     H 6751   2.939   0.943  12.208 -2.5792 -0.5851  0.5937
  453TMC3    H1 6752   2.939   1.274  11.943  1.0866  0.4761  2.3869
  453TMC3    H2 6753   2.801   0.891  11.803  1.0189  0.0353 -0.6939
  453TMC3    C7 6754   2.823   1.136  11.734  0.3585  1.3303  0.2588
  453TMC3    C8 6755   2.836   0.765  12.043 -0.6175  0.7057 -0.9891
  453TMC3    O1 6756   2.746   1.066  11.667  0.4385  0.4426 -0.6098
  453TMC3    O2 6757   2.884   0.719  12.147  0.5894  0.5448 -0.0496
  454MPD2     C 6758   1.283   0.659  16.487  0.4477 -0.5110 -0.1786
  454MPD2    C1 6759   1.301   0.738  16.377 -0.4584  0.1881  0.3248
  454MPD2    C2 6760   1.254   0.861  16.381  0.5859 -0.2141  0.1750
  454MPD2    C3 6761   1.193   0.917  16.495  0.9660 -0.3022  0.2324
  454MPD2    C4 6762   1.177   0.837  16.606 -0.5649 -0.4080  0.0029
  454MPD2    C5 6763   1.224   0.710  16.600 -0.0493 -0.3369  0.1249
  454MPD2     H 6764   1.255   0.921  16.291  1.7257 -1.2366 -0.4861
  454MPD2    H1 6765   1.120   0.863  16.695  1.2900 -2.7448  1.8707
  454MPD2    H2 6766   1.302   0.552  16.488 -2.8281 -1.0944 -0.4744
  454MPD2    H3 6767   1.218   0.648  16.689 -0.9586 -0.0996  0.2283
  454MPD2     N 6768   1.129   1.048  16.492  0.1735  0.0586  0.0363
  454MPD2    H5 6769   1.055   1.054  16.561  0.3238  2.4742 -0.0313
  454MPD2    N1 6770   1.318   0.687  16.247 -0.6687 -0.1879  0.2289
  454MPD2    H7 6771   1.322   0.754  16.171  0.9296 -0.8594 -0.2806
  455TMC3    C1 6772   0.993   1.174  16.364  0.7553  1.0923  0.5483
  455TMC3    C2 6773   0.926   1.248  16.455 -0.2992 -0.3753  0.1272
  455TMC3    C3 6774   0.788   1.239  16.441  0.0937  0.5245 -0.3594
  455TMC3    C4 6775   0.937   1.070  16.298  0.7356  0.0293 -0.0997
  455TMC3    C5 6776   0.797   1.054  16.304 -0.6766  0.2613 -1.1637
  455TMC3    C6 6777   0.722   1.146  16.375  0.3170  0.1062  0.3727
  455TMC3     C 6778   1.129   1.139  16.388  0.4676 -0.0768  0.0963
  455TMC3     O 6779   1.196   1.139  16.285 -0.2960  0.4753 -0.4340
  455TMC3     H 6780   0.976   1.328  16.507  1.7328 -0.9398 -0.9535
  455TMC3    H1 6781   1.002   1.005  16.240  0.6065 -2.5650  2.6946
  455TMC3    H2 6782   0.616   1.132  16.389  0.3327 -1.2804 -0.8687
  455TMC3    C7 6783   0.745   0.920  16.316 -0.1881 -0.0633  0.3441
  455TMC3    C8 6784   0.721   1.301  16.555  0.2122 -0.1738 -0.2046
  455TMC3    O1 6785   0.627   0.897  16.312  0.2230  0.2737  0.1113
  455TMC3    O2 6786   0.758   1.264  16.666  0.1413  0.7044  0.3233
  456MPD2     C 6787   3.469   1.119  15.432 -0.0334  0.3998 -0.1066
  456MPD2    C1 6788   3.501   1.044  15.543  0.1958  0.3582  0.0188
  456MPD2    C2 6789   3.415   1.034  15.646  0.1749  0.6999 -0.1887
  456MPD2    C3 6790   3.296   1.108  15.647  0.3143  0.1826  0.4975
  456MPD2    C4 6791   3.268   1.194  15.544 -0.4175  0.3049  0.3787
  456MPD2    C5 6792   3.355   1.198  15.442 -0.5385 -0.1194  0.2491
  456MPD2     H 6793   3.426   0.963  15.728 -1.9199  1.7888  1.0443
  456MPD2    H1 6794   3.179   1.255  15.543 -0.1647  0.6170 -1.6411
  456MPD2    H2 6795   3.529   1.114  15.342  0.5172  3.1059  0.1058
  456MPD2    H3 6796   3.337   1.256  15.352  2.9182  0.4486 -0.0605
  456MPD2     N 6797   3.232   1.114  15.772  0.4555 -0.4044 -0.0990
  456MPD2    H5 6798   3.270   1.054  15.845  2.2765  0.1566 -0.6038
  456MPD2    N1 6799   3.621   0.964  15.545  0.3251  0.2161 -0.5756
  456MPD2    H7 6800   3.692   0.990  15.477  2.7195  0.9076  2.1891
  457TMC3    C1 6801   3.120   1.199  15.951 -0.7997 -0.3864 -1.1192
  457TMC3    C2 6802   3.082   1.315  16.008  0.3416  0.2366 -0.0138
  457TMC3    C3 6803   3.070   1.305  16.144 -0.0978 -0.4370  0.1793
  457TMC3    C4 6804   3.119   1.074  16.014 -0.1966 -0.3751  0.1282
  457TMC3    C5 6805   3.110   1.077  16.150 -0.6753  0.6457 -0.2598
  457TMC3    C6 6806   3.096   1.194  16.214 -0.6234  0.9050  0.0710
  457TMC3     C 6807   3.140   1.209  15.804 -0.5279  0.6246  0.5343
  457TMC3     O 6808   3.067   1.293  15.746 -0.2822 -0.0180 -0.0679
  457TMC3     H 6809   3.112   1.408  15.962  0.6298 -0.0142 -0.3271
  457TMC3    H1 6810   3.154   0.985  15.963  0.6279  0.7612 -1.2945
  457TMC3    H2 6811   3.089   1.201  16.322  2.1424  0.4211  0.2799
  457TMC3    C7 6812   3.143   0.964  16.239 -0.0929 -0.6642 -0.7174
  457TMC3    C8 6813   3.031   1.423  16.213  0.1029 -0.3182  0.4960
  457TMC3    O1 6814   3.179   0.983  16.355  0.6742  0.1495  0.0247
  457TMC3    O2 6815   3.047   1.432  16.336  0.0732 -0.4504  0.3732
  458MPD2     C 6816   1.513   0.042  12.259  0.1193 -0.7518 -0.1953
  458MPD2    C1 6817   1.542   0.091  12.379 -0.2624  0.6544 -0.4762
  458MPD2    C2 6818   1.427   0.104  12.466 -0.0674 -0.0048  0.4834
  458MPD2    C3 6819   1.294   0.065  12.427  0.2582  0.5505  0.1604
  458MPD2    C4 6820   1.281   0.017  12.295 -0.2209 -0.2630  0.2451
  458MPD2    C5 6821   1.391   0.012  12.214 -0.4562  0.2105 -0.3025
  458MPD2     H 6822   1.445   0.136  12.567  0.6847 -0.7054  0.5698
  458MPD2    H1 6823   1.192   4.703  12.245  0.6918 -1.0041 -0.8510
  458MPD2    H2 6824   1.597   0.028  12.192 -1.6153 -0.5108 -2.4106
  458MPD2    H3 6825   1.363   4.689  12.120  2.8877 -0.7228 -0.8176
  458MPD2     N 6826   1.192   0.084  12.522  0.6622  0.3863 -0.0318
  458MPD2    H5 6827   1.209   0.144  12.602 -1.7127 -1.6780  2.0170
  458MPD2    N1 6828   1.678   0.110  12.426  0.1242  0.1398 -0.0924
  458MPD2    H7 6829   1.755   0.111  12.360  1.3912  1.5720  1.4117
  459TMC3    C1 6830   1.866   0.106  12.584  0.5423 -0.1044  0.2325
  459TMC3    C2 6831   1.950   0.095  12.477 -0.5907 -0.6593 -0.1629
  459TMC3    C3 6832   2.075   0.063  12.510 -0.5282  0.5045 -0.6274
  459TMC3    C4 6833   1.897   0.076  12.714 -0.9690 -0.2613  0.1865
  459TMC3    C5 6834   2.029   0.039  12.736  0.1911  0.1250 -0.5637
  459TMC3    C6 6835   2.122   0.029  12.637 -0.0520  0.3751 -0.0239
  459TMC3     C 6836   1.718   0.122  12.559 -0.3456 -0.2415 -0.6439
  459TMC3     O 6837   1.644   0.135  12.660 -0.0775 -0.5571  0.0100
  459TMC3     H 6838   1.912   0.121  12.378  2.2957  2.0565 -0.5573
  459TMC3    H1 6839   1.825   0.074  12.795  1.9380 -1.3925  2.7020
  459TMC3    H2 6840   2.224   4.722  12.657 -0.6581 -1.1051  0.8585
  459TMC3    C7 6841   2.068   4.695  12.859 -0.3627  0.0861  0.5073
  459TMC3    C8 6842   2.177   0.079  12.407 -0.3619 -0.2481 -0.2751
  459TMC3    O1 6843   2.153   4.606  12.860  0.4096  0.8513 -0.3896
  459TMC3    O2 6844   2.139   0.076  12.293  0.5377  0.6623 -0.4515
  460MPD2     C 6845   0.665   2.612  10.340  0.3845 -0.7773 -0.1726
  460MPD2    C1 6846   0.555   2.603  10.425 -0.8731 -0.2415  0.5861
  460MPD2    C2 6847   0.437   2.657  10.378  0.0711 -0.1757 -0.1549
  460MPD2    C3 6848   0.431   2.728  10.262 -0.1720  0.4382  0.3700
  460MPD2    C4 6849   0.546   2.752  10.188  0.5499  0.1026 -0.0260
  460MPD2    C5 6850   0.662   2.694  10.236  1.0423  0.4375 -0.1431
  460MPD2     H 6851   0.346   2.636  10.434 -0.3669  0.2471 -0.7101
  460MPD2    H1 6852   0.548   2.803  10.093  0.2076 -1.4302 -0.8444
  460MPD2    H2 6853   0.764   2.580  10.369  1.9842  2.2844 -2.2419
  460MPD2    H3 6854   0.756   2.714  10.186  0.5827  1.5500 -0.5552
  460MPD2     N 6855   0.307   2.787  10.231 -0.2962 -0.2792  0.1026
  460MPD2    H5 6856   0.225   2.750  10.278 -1.7402  2.8862  0.0791
  460MPD2    N1 6857   0.573   2.545  10.553  0.5251  1.1865 -0.5303
  460MPD2    H7 6858   0.670   2.518  10.568 -0.0790 -0.2311  0.9047
  461TMC3    C1 6859   0.145   2.906  10.108 -0.5369 -0.6661  0.1884
  461TMC3    C2 6860   0.064   2.803  10.078 -0.0733 -0.1155 -0.0927
  461TMC3    C3 6861   4.682   2.838   9.990  0.3939  0.1899  0.3844
  461TMC3    C4 6862   0.124   3.031  10.059  0.1699 -0.0533 -0.1013
  461TMC3    C5 6863   0.003   3.065  10.000 -0.3819 -0.9549 -0.3041
  461TMC3    C6 6864   4.650   2.964   9.957 -0.5228  0.0078 -0.7806
  461TMC3     C 6865   0.284   2.881  10.134 -0.3899 -0.5047  0.5579
  461TMC3     O 6866   0.364   2.941  10.060 -0.0141  0.1989  0.1695
  461TMC3     H 6867   0.098   2.702  10.097  0.9782  0.3749  0.6187
  461TMC3    H1 6868   0.208   3.098  10.078 -0.7963  1.4672 -1.1752
  461TMC3    H2 6869   4.572   2.979   9.883  0.7009 -1.7145 -2.4237
  461TMC3    C7 6870   4.702   3.200   9.951  0.5636  0.0556 -1.0728
  461TMC3    C8 6871   4.621   2.737   9.901 -0.0419  0.6596 -0.2426
  461TMC3    O1 6872   4.600   3.219   9.886  0.1211 -0.1244  0.8987
  461TMC3    O2 6873   4.594   2.772   9.787  0.0833 -0.2293 -0.4561
  462TMC3    C1 6874   0.720   2.795   0.113  0.2692 -0.2662  0.4169
  462TMC3    C2 6875   0.737   2.675   0.053  0.5968 -0.6014  0.5045
  462TMC3    C3 6876   0.625   2.596   0.049 -0.5095 -0.5065 -0.2784
  462TMC3    C4 6877   0.603   2.843   0.160 -0.4993 -0.4820 -0.7738
  462TMC3    C5 6878   0.489   2.762   0.153 -0.0928  0.4789  0.4247
  462TMC3    C6 6879   0.507   2.631   0.107 -0.0904 -0.2983  0.3237
  462TMC3     C 6880   0.841   2.869   0.131  0.0125  0.3745  0.4035
  462TMC3     O 6881   0.951   2.810   0.132  0.0282  0.2499  0.3364
  462TMC3     H 6882   0.834   2.645   0.016  0.7140 -0.1562  0.4474
  462TMC3    H1 6883   0.594   2.943   0.201  4.5866  0.1875 -1.2252
  462TMC3    H2 6884   0.421   2.572   0.080  0.4404 -0.2345 -1.5224
  462TMC3    C7 6885   0.355   2.825   0.153  0.6320  0.9474  0.0622
  462TMC3    C8 6886   0.619   2.482  17.656 -0.0333 -0.8082 -0.3635
  462TMC3    O1 6887   0.256   2.755   0.159  0.3151 -0.0820  0.0813
  462TMC3    O2 6888   0.536   2.394  17.669 -0.3876  0.2030 -0.0229
  463MPD2     C 6889   1.795   2.048   1.411  0.4675  0.1052 -0.6694
  463MPD2    C1 6890   1.734   2.174   1.406 -0.3221 -0.6182 -0.0958
  463MPD2    C2 6891   1.818   2.290   1.408  0.6144  0.0217 -0.0884
  463MPD2    C3 6892   1.955   2.277   1.428  0.7551 -0.1696 -0.4150
  463MPD2    C4 6893   2.005   2.150   1.433 -0.3689 -0.2784  1.2653
  463MPD2    C5 6894   1.931   2.038   1.415 -0.4039  0.2972 -0.8159
  463MPD2     H 6895   1.767   2.386   1.405  0.3061 -0.1402  0.0182
  463MPD2    H1 6896   2.113   2.141   1.432 -0.3891 -0.5342  1.5776
  463MPD2    H2 6897   1.735   1.959   1.402 -0.4143  0.6534 -0.2969
  463MPD2    H3 6898   1.984   1.944   1.427  0.6431  0.8922 -0.7632
  463MPD2     N 6899   2.046   2.381   1.434 -0.5278  0.3388  0.3579
  463MPD2    H5 6900   2.141   2.348   1.428  0.1063  2.3407 -0.6930
  463MPD2    N1 6901   1.592   2.191   1.399  0.0281 -0.0220 -0.1460
  463MPD2    H7 6902   1.561   2.286   1.380  1.1274  0.6706  1.5247
  464TMC3    C1 6903   1.362   2.131   1.398 -0.6973  0.4670  0.2771
  464TMC3    C2 6904   1.331   2.242   1.325  0.7163 -0.0417 -0.7242
  464TMC3    C3 6905   1.202   2.282   1.316 -0.5167  0.3267  1.1127
  464TMC3    C4 6906   1.267   2.065   1.465  0.2455  0.1209 -0.2433
  464TMC3    C5 6907   1.144   2.116   1.472  0.4297  0.2140 -0.3603
  464TMC3    C6 6908   1.104   2.219   1.391  0.1347  0.5623 -0.6461
  464TMC3     C 6909   1.500   2.087   1.415  0.8000 -0.1768 -1.0105
  464TMC3     O 6910   1.513   1.966   1.424 -0.1246 -0.2619  0.1650
  464TMC3     H 6911   1.412   2.279   1.263  1.2537  2.6599  1.5963
  464TMC3    H1 6912   1.292   1.986   1.535  1.3824  0.7259  0.0338
  464TMC3    H2 6913   1.009   2.270   1.398 -0.0480  0.1726 -0.3220
  464TMC3    C7 6914   1.038   2.030   1.532 -1.0127  0.6146  0.3921
  464TMC3    C8 6915   1.164   2.408   1.249 -0.1715 -0.0323  0.7594
  464TMC3    O1 6916   1.077   1.922   1.585 -0.3493 -0.0403 -0.5057
  464TMC3    O2 6917   1.048   2.431   1.216 -0.0780 -0.0649  0.2011
  465MPD2     C 6918   2.439   0.192  16.526 -0.1637  0.3268  0.7214
  465MPD2    C1 6919   2.372   0.234  16.635 -0.1687 -0.2712  0.2707
  465MPD2    C2 6920   2.383   0.368  16.672  0.0628  0.1194 -0.1443
  465MPD2    C3 6921   2.472   0.451  16.593 -0.3886 -0.1781 -0.4481
  465MPD2    C4 6922   2.543   0.408  16.487  0.4933 -0.5080  0.2916
  465MPD2    C5 6923   2.518   0.273  16.452 -0.4516  0.4121  0.7532
  465MPD2     H 6924   2.321   0.414  16.748 -1.8914 -0.9550 -1.0852
  465MPD2    H1 6925   2.603   0.472  16.423  1.3507 -1.7210 -0.1215
  465MPD2    H2 6926   2.440   0.087  16.502 -0.2909  0.5062 -0.0725
  465MPD2    H3 6927   2.577   0.227  16.374  2.2805  4.1245  0.5741
  465MPD2     N 6928   2.474   0.586  16.634 -0.3711  0.1588 -0.0943
  465MPD2    H5 6929   2.432   0.597  16.726  0.9194  1.0415  0.3774
  465MPD2    N1 6930   2.278   0.154  16.705  0.3138  0.2005  0.4027
  465MPD2    H7 6931   2.237   0.200  16.786 -0.0900  0.0137  0.3043
  466TMC3    C1 6932   2.427   0.967  16.793  0.0530  0.1918  0.3281
  466TMC3    C2 6933   2.400   1.062  16.702 -0.5767  0.2328 -1.4890
  466TMC3    C3 6934   2.419   1.044  16.574 -0.0912  0.4892  0.5698
  466TMC3    C4 6935   2.473   0.842  16.752 -0.2680  0.4014  0.1506
  466TMC3    C5 6936   2.498   0.826  16.619  0.2947 -0.3631 -0.0468
  466TMC3    C6 6937   2.460   0.924  16.529 -0.3941 -0.2070  0.0613
  466TMC3     C 6938   2.413   0.992  16.932 -0.6364  0.0384 -0.0026
  466TMC3     O 6939   2.353   1.094  16.961 -0.3232 -0.2782  0.4578
  466TMC3     H 6940   2.373   1.157  16.747  0.7572  0.6739 -1.6009
  466TMC3    H1 6941   2.492   0.756  16.815 -2.0421  0.2710  0.5181
  466TMC3    H2 6942   2.481   0.904  16.424 -0.7560 -0.0092 -0.0465
  466TMC3    C7 6943   2.534   0.693  16.569  0.2236 -0.3588 -0.6354
  466TMC3    C8 6944   2.372   1.142  16.480  0.2872 -0.4444  0.1988
  466TMC3    O1 6945   2.613   0.698  16.478 -0.4782  0.3794 -0.4330
  466TMC3    O2 6946   2.403   1.124  16.360 -0.0725  0.3796  0.1991
  467TMC3    C1 6947   3.510   3.980  13.470 -1.2329  0.5188 -0.0998
  467TMC3    C2 6948   3.431   4.087  13.476 -0.5310 -0.6000  0.3424
  467TMC3    C3 6949   3.320   4.084  13.555  0.0723  0.3530  0.4193
  467TMC3    C4 6950   3.489   3.867  13.545 -0.6494 -0.2694 -0.1367
  467TMC3    C5 6951   3.382   3.862  13.624  0.3886 -0.7886  0.8757
  467TMC3    C6 6952   3.295   3.973  13.628 -0.5969 -0.4282 -0.2428
  467TMC3     C 6953   3.652   4.008  13.446 -0.4648 -0.4587 -0.8393
  467TMC3     O 6954   3.701   4.112  13.493 -0.9549 -0.7942 -0.6375
  467TMC3     H 6955   3.457   4.172  13.415 -0.8432 -0.9149 -0.2290
  467TMC3    H1 6956   3.565   3.791  13.560  0.3760  0.6149 -0.8779
  467TMC3    H2 6957   3.215   3.979  13.700  0.6720  1.7134  0.9959
  467TMC3    C7 6958   3.371   3.772  13.731 -0.3102 -0.1352  0.1489
  467TMC3    C8 6959   3.223   4.186  13.532 -0.0531 -0.5262  0.2703
  467TMC3    O1 6960   3.473   3.719  13.768 -0.2351 -0.2578  0.1957
  467TMC3    O2 6961   3.276   4.280  13.480  0.1073  0.5323  0.7272
  468MPD2     C 6962   2.134   2.279  10.489  0.4598  0.5072  0.2657
  468MPD2    C1 6963   2.255   2.282  10.551 -0.6735 -0.6656 -0.6007
  468MPD2    C2 6964   2.277   2.202  10.659 -0.3205  0.5641 -0.4343
  468MPD2    C3 6965   2.185   2.108  10.708  0.2154  0.1659  0.2322
  468MPD2    C4 6966   2.066   2.097  10.639 -0.1211  0.1638  0.0221
  468MPD2    C5 6967   2.041   2.179  10.530  0.1769 -0.3274  0.4690
  468MPD2     H 6968   2.370   2.208  10.715 -1.5636  2.6539  1.4022
  468MPD2    H1 6969   1.997   2.017  10.666 -0.0091  0.6197  1.6745
  468MPD2    H2 6970   2.117   2.321  10.391  0.4869  1.0635  0.4944
  468MPD2    H3 6971   1.941   2.174  10.488  0.8509  0.3566 -1.1942
  468MPD2     N 6972   2.217   2.026  10.816 -0.1773  0.1786 -0.5110
  468MPD2    H5 6973   2.144   1.974  10.862  0.8558 -0.7581  0.0696
  468MPD2    N1 6974   2.357   2.369  10.513 -0.2981 -0.6752  0.5693
  468MPD2    H7 6975   2.437   2.368  10.575 -0.6045  2.1289  1.0257
  469TMC3    C1 6976   2.444   2.572  10.424  0.7857  0.5393  1.3012
  469TMC3    C2 6977   2.549   2.563  10.511  0.0331  0.0227  0.4314
  469TMC3    C3 6978   2.599   2.672  10.569  0.1142  0.3903 -0.5839
  469TMC3    C4 6979   2.387   2.693  10.399 -0.6211  0.5341 -0.5300
  469TMC3    C5 6980   2.449   2.808  10.448  0.3077  0.9825 -0.2845
  469TMC3    C6 6981   2.559   2.800  10.534  0.9374 -0.1126  0.1261
  469TMC3     C 6982   2.347   2.464  10.411 -0.8020  0.1123 -0.2199
  469TMC3     O 6983   2.275   2.459  10.315 -0.6149  0.0102  0.2763
  469TMC3     H 6984   2.581   2.463  10.537  2.3647  0.5145 -0.5788
  469TMC3    H1 6985   2.297   2.698  10.339 -2.0251 -2.8518  1.2748
  469TMC3    H2 6986   2.590   2.891  10.585  1.7821 -0.6859  0.6335
  469TMC3    C7 6987   2.396   2.943  10.436  0.0265 -0.4628  0.2732
  469TMC3    C8 6988   2.650   2.653  10.703 -0.4668  0.6398  0.3011
  469TMC3    O1 6989   2.477   3.030  10.440 -0.1644  0.4061  0.1668
  469TMC3    O2 6990   2.701   2.547  10.734 -0.0190  0.6564  0.5794
  470TMC3    C1 6991   0.430   3.889   1.071  0.0813  0.0428 -0.4839
  470TMC3    C2 6992   0.408   4.020   1.037  0.2920  0.3867 -0.7617
  470TMC3    C3 6993   0.490   4.109   1.097  0.0266  0.1538  0.4834
  470TMC3    C4 6994   0.532   3.848   1.154 -0.1809 -0.7343 -0.2564
  470TMC3    C5 6995   0.610   3.945   1.209 -0.0853  0.1377  0.1247
  470TMC3    C6 6996   0.601   4.074   1.174  1.5177 -0.0815  0.2224
  470TMC3     C 6997   0.335   3.794   1.017 -0.0949 -0.5735  0.2197
  470TMC3     O 6998   0.221   3.844   1.003 -0.1972 -1.0457  0.1254
  470TMC3     H 6999   0.327   4.039   0.968 -1.2540 -1.1992  0.6114
  470TMC3    H1 7000   0.530   3.747   1.193 -0.2770 -0.8802 -0.6357
  470TMC3    H2 7001   0.663   4.150   1.221 -0.2432  2.2600 -1.2552
  470TMC3    C7 7002   0.720   3.910   1.298 -0.6629  0.3751 -0.4017
  470TMC3    C8 7003   0.481   4.244   1.036 -0.2359  0.3059 -0.5136
  470TMC3    O1 7004   0.760   3.999   1.371 -0.3420 -0.1452 -0.2917
  470TMC3    O2 7005   0.364   4.277   1.004  0.4941  1.2929  0.4652
  471MPD2     C 7006   4.455   4.461  16.366  0.6700 -0.3412 -0.6884
  471MPD2    C1 7007   4.591   4.462  16.318 -0.4162  0.2096 -0.0506
  471MPD2    C2 7008   4.694   4.437  16.403  0.1891  0.3459 -1.2644
  471MPD2    C3 7009   4.662   4.430  16.535 -0.0560 -0.3245 -0.1385
  471MPD2    C4 7010   4.535   4.422  16.580  0.1439 -0.2696 -0.8507
  471MPD2    C5 7011   4.431   4.441  16.493  0.3413  0.7404 -0.4408
  471MPD2     H 7012   0.072   4.458  16.369 -0.0551  2.6177 -0.5424
  471MPD2    H1 7013   4.522   4.421  16.688  1.6739 -2.2921 -0.6829
  471MPD2    H2 7014   4.373   4.480  16.298 -0.3736  0.2798  0.7543
  471MPD2    H3 7015   4.327   4.430  16.523 -0.3000 -1.2719 -3.4225
  471MPD2     N 7016   0.029   4.422  16.641  1.2410 -0.0402  0.2181
  471MPD2    H5 7017   4.721   4.434  16.737 -1.5524  1.0123 -0.8191
  471MPD2    N1 7018   4.624   4.485  16.182  0.3877 -0.2934 -0.3069
  471MPD2    H7 7019   0.001   4.480  16.164  0.5592 -1.3837  0.9256
  472TMC3    C1 7020   4.597   4.472  15.941  0.3007 -0.1473  0.4167
  472TMC3    C2 7021   4.499   4.493  15.849  0.2797 -0.6879 -0.2553
  472TMC3    C3 7022   4.479   4.397  15.748 -0.2174  0.2275 -0.3147
  472TMC3    C4 7023   4.664   4.343  15.941 -0.6067 -0.0710 -0.3364
  472TMC3    C5 7024   4.629   4.245  15.847 -0.9004  0.2020  1.2539
  472TMC3    C6 7025   4.537   4.271  15.747  0.7132  0.5673  0.1629
  472TMC3     C 7026   4.543   4.503  16.073 -0.2899 -0.1105  0.4112
  472TMC3     O 7027   4.432   4.545  16.084 -0.7142  0.0460  0.0392
  472TMC3     H 7028   4.433   4.578  15.859  1.2429  0.0433 -0.0931
  472TMC3    H1 7029   0.008   4.321  16.023 -0.5679  0.1088 -0.3204
  472TMC3    H2 7030   4.525   4.203  15.664 -1.0746  1.1373 -0.0357
  472TMC3    C7 7031   4.631   4.109  15.906  0.8119 -0.0301  0.5162
  472TMC3    C8 7032   4.343   4.398  15.704  0.6288 -0.5582 -0.4488
  472TMC3    O1 7033   4.701   4.099  16.006 -0.1476  0.0637  0.0178
  472TMC3    O2 7034   4.312   4.505  15.656  0.0893  0.1451 -0.2470
  473MPD2     C 7035   4.586   1.700  13.891 -0.6960  0.0590 -0.5390
  473MPD2    C1 7036   4.597   1.791  13.789  0.1543 -0.1460  0.1917
  473MPD2    C2 7037   4.679   1.901  13.815  0.6026 -0.0063  0.0331
  473MPD2    C3 7038   0.034   1.912  13.928  0.4662  0.0925  0.4181
  473MPD2    C4 7039   0.021   1.819  14.030 -0.4143  0.4121 -0.1459
  473MPD2    C5 7040   4.662   1.704  14.008  0.3640  0.1059  0.7749
  473MPD2     H 7041   4.670   1.992  13.757  1.2979 -0.2621 -0.4769
  473MPD2    H1 7042   0.075   1.828  14.123 -0.0520  0.8233 -0.3925
  473MPD2    H2 7043   4.518   1.616  13.884 -1.0781  0.3495 -0.3658
  473MPD2    H3 7044   4.650   1.631  14.087  1.2271  0.0009  0.8005
  473MPD2     N 7045   0.107   2.036  13.965 -0.0260  0.1091 -0.0129
  473MPD2    H5 7046   0.127   2.043  14.064  0.3455 -2.3402  0.0730
  473MPD2    N1 7047   4.537   1.780  13.666  0.1733  0.3361 -0.2408
  473MPD2    H7 7048   4.551   1.842  13.587  2.2985  2.1385  1.5425
  474TMC3    C1 7049   0.174   2.254  13.956  0.2433  0.5436  0.6372
  474TMC3    C2 7050   0.242   2.345  13.890 -0.7156 -0.2773 -0.5283
  474TMC3    C3 7051   0.271   2.467  13.946 -1.0109  0.1922 -0.5247
  474TMC3    C4 7052   0.113   2.291  14.072 -0.3325 -0.4173 -0.0212
  474TMC3    C5 7053   0.139   2.406  14.131  0.0371  0.7029  0.2065
  474TMC3    C6 7054   0.222   2.499  14.070 -0.3048  0.1711  0.8101
  474TMC3     C 7055   0.136   2.139  13.879  0.6416  0.7679 -0.3676
  474TMC3     O 7056   0.144   2.150  13.754 -0.3985  0.7897 -0.6325
  474TMC3     H 7057   0.275   2.328  13.789  2.7079  1.0564  0.3556
  474TMC3    H1 7058   0.047   2.224  14.126  0.5987 -1.5719 -0.3131
  474TMC3    H2 7059   0.241   2.595  14.118  1.1567  0.0420  0.4745
  474TMC3    C7 7060   0.058   2.443  14.248  0.2901 -0.6444  0.0825
  474TMC3    C8 7061   0.298   2.575  13.848  0.2297 -0.1919 -0.6854
  474TMC3    O1 7062   4.664   2.400  14.249  0.6327  0.0402  0.0711
  474TMC3    O2 7063   0.257   2.554  13.733 -0.1184 -0.3090 -0.3739
  475MPD2     C 7064   3.628   0.596  10.120 -0.0055  0.3461 -0.0655
  475MPD2    C1 7065   3.611   0.676  10.227  0.1418 -1.0592 -0.4427
  475MPD2    C2 7066   3.536   0.621  10.333  0.4613 -0.4836 -0.3716
  475MPD2    C3 7067   3.487   0.491  10.336  0.1043  0.4454  0.4819
  475MPD2    C4 7068   3.510   0.413  10.229  0.6352  0.5594  0.1759
  475MPD2    C5 7069   3.585   0.459  10.123  0.0283 -0.1413 -0.9598
  475MPD2     H 7070   3.508   0.676  10.423 -0.1358  0.9028 -1.4012
  475MPD2    H1 7071   3.481   0.310  10.219  0.9568  0.4772  0.0948
  475MPD2    H2 7072   3.677   0.629  10.029  1.3093 -0.7211  0.2671
  475MPD2    H3 7073   3.606   0.395  10.038  1.6690 -0.6806 -0.1536
  475MPD2     N 7074   3.398   0.457  10.440  0.1907  0.8527 -0.1366
  475MPD2    H5 7075   3.371   0.528  10.507 -0.2736  0.3207  0.2339
  475MPD2    N1 7076   3.673   0.805  10.222  0.2204  0.3763 -0.3112
  475MPD2    H7 7077   3.740   0.819  10.148 -1.1538 -0.4859 -1.7277
  476TMC3    C1 7078   3.558   0.911  10.415  0.2027 -0.7783  0.7063
  476TMC3    C2 7079   3.432   0.918  10.357 -0.1429 -0.7891  0.3801
  476TMC3    C3 7080   3.336   0.976  10.434 -0.0080  0.3329  0.6257
  476TMC3    C4 7081   3.586   0.954  10.539  0.8787  0.0082 -0.0405
  476TMC3    C5 7082   3.487   0.999  10.613 -0.3760 -0.3122 -0.1316
  476TMC3    C6 7083   3.358   1.013  10.566  0.6870 -0.0629  0.1624
  476TMC3     C 7084   3.663   0.911  10.316 -0.2398 -0.0153  1.0076
  476TMC3     O 7085   3.729   1.019  10.322  0.2895 -0.0675  0.1012
  476TMC3     H 7086   3.410   0.886  10.256 -0.6146  1.1871 -0.1473
  476TMC3    H1 7087   3.690   0.948  10.569  0.9997 -0.1075 -0.4886
  476TMC3    H2 7088   3.280   1.040  10.637 -1.7051 -0.2582 -2.4024
  476TMC3    C7 7089   3.502   0.977  10.756  0.4103 -0.4010 -0.3484
  476TMC3    C8 7090   3.206   0.916  10.424 -1.1892  0.3512  0.0165
  476TMC3    O1 7091   3.583   0.889  10.786  0.2713 -0.4622  0.3172
  476TMC3    O2 7092   3.115   0.969  10.489 -0.4104  0.0091  0.0560
  477MPD2     C 7093   0.501   1.365  11.315 -0.2439  0.5283  0.1019
  477MPD2    C1 7094   0.557   1.450  11.411 -0.1862  0.4523 -0.4655
  477MPD2    C2 7095   0.608   1.386  11.524  0.0510 -0.3786 -0.5296
  477MPD2    C3 7096   0.604   1.244  11.537  0.0247 -0.1620  0.2255
  477MPD2    C4 7097   0.558   1.166  11.436  0.3119  0.6214  0.7723
  477MPD2    C5 7098   0.503   1.228  11.327 -0.5047  0.5884  0.2293
  477MPD2     H 7099   0.654   1.449  11.599  2.5991 -0.8042 -1.7304
  477MPD2    H1 7100   0.530   1.062  11.441 -1.2271  0.9922 -0.0962
  477MPD2    H2 7101   0.463   1.407  11.222 -1.0257 -0.7380 -0.1467
  477MPD2    H3 7102   0.466   1.171  11.243 -0.7951  0.2191  0.6144
  477MPD2     N 7103   0.642   1.192  11.662  0.5755 -0.1621 -0.0582
  477MPD2    H5 7104   0.680   1.259  11.728 -0.0022 -0.5698  0.7001
  477MPD2    N1 7105   0.570   1.590  11.389  0.0436  0.3077  0.4130
  477MPD2    H7 7106   0.528   1.628  11.305 -0.9842  1.8743  1.6273
  478TMC3    C1 7107   0.615   1.819  11.431  0.1162  1.0051  0.2441
  478TMC3    C2 7108   0.571   1.919  11.509 -0.2266 -0.2935  0.0132
  478TMC3    C3 7109   0.560   2.045  11.452  0.6575 -0.2170  0.8502
  478TMC3    C4 7110   0.653   1.828  11.298 -0.1402 -0.1405 -0.2779
  478TMC3    C5 7111   0.659   1.962  11.253 -0.3543  0.6176  0.3804
  478TMC3    C6 7112   0.623   2.066  11.330 -0.1017  0.4985 -0.2248
  478TMC3     C 7113   0.606   1.688  11.484 -0.3607  0.2480 -0.3801
  478TMC3     O 7114   0.638   1.682  11.603  0.3193 -0.7696  0.7758
  478TMC3     H 7115   0.536   1.904  11.611  1.2478 -1.9947  0.2619
  478TMC3    H1 7116   0.691   1.751  11.233 -0.3291  0.5025 -1.1493
  478TMC3    H2 7117   0.640   2.168  11.297 -2.4519 -0.0007 -2.9336
  478TMC3    C7 7118   0.731   1.988  11.131 -0.7147  0.6396 -0.3453
  478TMC3    C8 7119   0.522   2.161  11.536 -0.1834  0.0188 -0.0653
  478TMC3    O1 7120   0.856   2.003  11.133 -0.1340  0.0926 -0.5353
  478TMC3    O2 7121   0.495   2.143  11.655  0.2788 -0.5261  0.0900
  479MPD2     C 7122   4.721   4.128  14.729 -0.6555 -0.2013 -0.5305
  479MPD2    C1 7123   4.667   4.009  14.783 -0.3363 -0.1719 -0.2684
  479MPD2    C2 7124   4.718   3.961  14.904  0.1542  0.0296 -0.2404
  479MPD2    C3 7125   0.088   4.027  14.975  0.5689  0.1613  0.4889
  479MPD2    C4 7126   0.146   4.134  14.915  0.3175  0.3839 -0.3698
  479MPD2    C5 7127   0.107   4.179  14.790  0.6903 -0.0395 -0.9600
  479MPD2     H 7128   4.678   3.866  14.938  2.3222 -0.3541  1.1603
  479MPD2    H1 7129   0.230   4.182  14.964  0.0181  0.1894  0.3328
  479MPD2    H2 7130   4.677   4.181  14.646 -0.8320 -0.0435 -0.3378
  479MPD2    H3 7131   0.160   4.264  14.749  0.6703  1.1709  1.5510
  479MPD2     N 7132   0.131   4.001  15.106 -0.0359 -0.0927  0.2003
  479MPD2    H5 7133   0.217   4.050  15.126 -0.3283 -0.5419  2.5968
  479MPD2    N1 7134   4.556   3.955  14.710 -0.9367  0.5430 -0.6539
  479MPD2    H7 7135   4.522   4.015  14.636  0.4501  0.5783 -1.2565
  480TMC3    C1 7136   4.510   3.746  15.303  0.3880 -0.1097 -0.5282
  480TMC3    C2 7137   4.410   3.828  15.254  0.1437  0.2684  0.2760
  480TMC3    C3 7138   4.438   3.942  15.187 -0.2599  0.1967 -0.2766
  480TMC3    C4 7139   4.636   3.765  15.256 -0.0060  0.1852 -0.0886
  480TMC3    C5 7140   4.668   3.883  15.195  0.4857 -0.3989 -0.5916
  480TMC3    C6 7141   4.572   3.980  15.175  0.7111 -0.5965  0.6026
  480TMC3     C 7142   4.497   3.640  15.405 -0.1668 -0.1881 -0.3683
  480TMC3     O 7143   4.598   3.597  15.458 -0.4831  0.4352 -0.1070
  480TMC3     H 7144   4.305   3.805  15.271  0.5756 -3.8755 -2.4881
  480TMC3    H1 7145   4.709   3.687  15.275 -0.6669 -0.8087 -1.6727
  480TMC3    H2 7146   4.595   4.078  15.135 -1.8922 -0.4492 -0.5739
  480TMC3    C7 7147   0.083   3.909  15.199 -0.2318  0.3889 -0.3833
  480TMC3    C8 7148   4.330   3.999  15.110 -0.1605  0.2443 -0.0493
  480TMC3    O1 7149   0.143   3.887  15.304 -0.7326  0.2717 -0.1450
  480TMC3    O2 7150   4.214   3.982  15.141  0.1409 -0.8714 -0.1021
  481MPD2     C 7151   1.717   3.619  14.281  0.2436  0.1679 -0.7041
  481MPD2    C1 7152   1.595   3.554  14.304 -0.1256  0.0460  0.2040
  481MPD2    C2 7153   1.564   3.501  14.428  0.1464 -0.9642 -0.8808
  481MPD2    C3 7154   1.665   3.498  14.528 -0.1173  0.7241 -0.3157
  481MPD2    C4 7155   1.787   3.557  14.492 -0.1247 -0.1045  0.4238
  481MPD2    C5 7156   1.812   3.623  14.372 -0.4998  0.1271 -0.1571
  481MPD2     H 7157   1.471   3.446  14.435  1.3433 -2.5612  2.4385
  481MPD2    H1 7158   1.866   3.560  14.565  0.5911 -4.4800 -0.1688
  481MPD2    H2 7159   1.736   3.670  14.188 -1.6169 -0.6363 -1.5211
  481MPD2    H3 7160   1.902   3.679  14.352 -0.6202 -0.3393 -2.0526
  481MPD2     N 7161   1.648   3.438  14.654 -0.9464 -0.1286  0.0171
  481MPD2    H5 7162   1.731   3.445  14.713 -1.5799 -2.4351  1.1930
  481MPD2    N1 7163   1.501   3.561  14.202  0.1332  0.5132  0.0690
  481MPD2    H7 7164   1.526   3.618  14.121  0.2805  0.5718  0.1558
  482TMC3    C1 7165   1.309   3.519  14.077  0.0970  0.3812 -0.2197
  482TMC3    C2 7166   1.219   3.431  14.034  0.2392 -0.5331  0.2670
  482TMC3    C3 7167   1.146   3.465  13.926  0.4736 -0.5284  0.1475
  482TMC3    C4 7168   1.320   3.640  14.022  0.6930 -0.0705 -0.9987
  482TMC3    C5 7169   1.241   3.672  13.912  0.3902 -0.5980 -0.1087
  482TMC3    C6 7170   1.160   3.583  13.855  0.2457  0.2684 -0.2324
  482TMC3     C 7171   1.386   3.481  14.197  0.1962  1.0676  0.1989
  482TMC3     O 7172   1.355   3.374  14.251 -0.1056 -0.1492 -0.1115
  482TMC3     H 7173   1.196   3.343  14.092 -1.3951  0.0509  0.5023
  482TMC3    H1 7174   1.381   3.721  14.061  0.1007  0.1030 -0.4061
  482TMC3    H2 7175   1.109   3.603  13.762  0.6124  0.4220 -0.4035
  482TMC3    C7 7176   1.298   3.775  13.831  0.4712  0.4691 -0.4647
  482TMC3    C8 7177   1.065   3.363  13.868  0.6230  0.0019  0.3140
  482TMC3    O1 7178   1.419   3.776  13.836 -0.4229 -0.0588  0.7379
  482TMC3    O2 7179   1.093   3.249  13.895  0.0827 -0.2247  0.2981
  483TMC3    C1 7180   4.087   3.057   1.150 -0.4087 -0.2102 -0.1861
  483TMC3    C2 7181   4.069   3.066   1.011  0.9748 -0.0015 -0.3722
  483TMC3    C3 7182   4.173   3.102   0.933 -0.2140  0.0906  0.0115
  483TMC3    C4 7183   4.206   3.089   1.206 -0.1143  0.7705  0.1854
  483TMC3    C5 7184   4.305   3.125   1.125  0.0824  0.2389 -0.1358
  483TMC3    C6 7185   4.298   3.120   0.987 -0.2417 -0.3280  0.4842
  483TMC3     C 7186   3.983   2.991   1.234  0.3698 -0.1789  0.1009
  483TMC3     O 7187   3.992   3.022   1.355 -0.1207  0.3015  0.1135
  483TMC3     H 7188   3.974   3.038   0.966  0.2066  0.2830  1.0560
  483TMC3    H1 7189   4.227   3.064   1.310 -0.6257  0.3846  0.1926
  483TMC3    H2 7190   4.382   3.136   0.920 -1.7185 -0.0529 -1.2866
  483TMC3    C7 7191   4.441   3.093   1.171  0.8738  0.3865  0.1646
  483TMC3    C8 7192   4.157   3.107   0.784  0.1385  0.1824  0.0622
  483TMC3    O1 7193   4.505   3.023   1.094  0.8296  0.2148 -0.1127
  483TMC3    O2 7194   4.258   3.112   0.718  0.3141  0.0210 -0.3522
  484MPD2     C 7195   2.537   0.097  12.470  0.6486  0.7015 -0.4160
  484MPD2    C1 7196   2.424   0.093  12.389  0.3144  0.0361  0.0331
  484MPD2    C2 7197   2.431   0.078  12.252  0.2263 -0.3445 -0.6993
  484MPD2    C3 7198   2.548   0.049  12.202 -0.5505 -0.8134  0.4436
  484MPD2    C4 7199   2.663   0.031  12.281 -0.0576 -0.5323 -0.0754
  484MPD2    C5 7200   2.655   0.057  12.409 -0.1441 -0.0740  0.0366
  484MPD2     H 7201   2.345   0.088  12.186 -0.3203 -0.2595  0.0360
  484MPD2    H1 7202   2.762   0.014  12.241  0.8151  2.0428  0.9579
  484MPD2    H2 7203   2.533   0.106  12.577  1.5644 -3.3115 -0.0322
  484MPD2    H3 7204   2.744   0.034  12.467  2.3672  2.0550 -3.0088
  484MPD2     N 7205   2.558   0.030  12.058  0.6209  0.7711 -1.1783
  484MPD2    H5 7206   2.652   0.004  12.029  1.0217  2.5677 -1.4489
  484MPD2    N1 7207   2.302   0.106  12.461  0.4467 -0.0518  0.4919
  484MPD2    H7 7208   2.302   0.126  12.560  1.5550 -0.6142  0.6100
  485TMC3    C1 7209   2.544   0.107  11.835  0.1037  0.2677  0.2400
  485TMC3    C2 7210   2.671   0.151  11.844 -0.4684 -0.5040  1.3054
  485TMC3    C3 7211   2.726   0.236  11.748  0.2196 -0.1019 -0.8210
  485TMC3    C4 7212   2.467   0.131  11.722  0.4873  0.1967  0.6058
  485TMC3    C5 7213   2.525   0.209  11.626 -0.0806  0.2443 -0.0587
  485TMC3    C6 7214   2.649   0.270  11.644 -0.1315  0.5776 -0.0940
  485TMC3     C 7215   2.478   0.083  11.963 -0.1434 -0.6037 -0.6802
  485TMC3     O 7216   2.366   0.129  11.971  1.0351  0.3922  0.2999
  485TMC3     H 7217   2.727   0.141  11.936  1.3397 -3.6170 -0.1412
  485TMC3    H1 7218   2.369   0.086  11.709  0.6297  0.6132 -1.8799
  485TMC3    H2 7219   2.696   0.328  11.566  0.9998 -0.4853 -0.1939
  485TMC3    C7 7220   2.514   0.150  11.490 -0.7608  0.4042  0.0463
  485TMC3    C8 7221   2.869   0.224  11.720  0.5505 -0.0603  0.1589
  485TMC3    O1 7222   2.598   0.193  11.409 -0.0575  0.6041 -0.8355
  485TMC3    O2 7223   2.915   0.258  11.612  0.1051 -0.1726 -0.1947
  486MPD2     C 7224   4.712   4.144  12.672 -0.4359  0.0038  0.0816
  486MPD2    C1 7225   4.580   4.121  12.644  0.9159  0.2097 -0.8141
  486MPD2    C2 7226   4.480   4.216  12.670  0.3181  0.1032 -0.6273
  486MPD2    C3 7227   4.514   4.335  12.732  0.2671  0.3228  0.6790
  486MPD2    C4 7228   4.650   4.360  12.767 -0.7638 -0.4917  0.5739
  486MPD2    C5 7229   0.022   4.261  12.737 -0.1417  0.4017  0.3275
  486MPD2     H 7230   4.374   4.210  12.647 -0.4158  1.0911  2.4874
  486MPD2    H1 7231   4.681   4.451  12.817  0.1120 -0.3821 -0.1563
  486MPD2    H2 7232   0.063   4.066  12.655 -0.2598 -0.3167  2.3216
  486MPD2    H3 7233   0.124   4.282  12.766 -0.3401  2.8115 -0.7307
  486MPD2     N 7234   4.403   4.420  12.761 -0.1369  0.3801 -0.1719
  486MPD2    H5 7235   4.311   4.394  12.727  0.0679  1.5439 -1.6072
  486MPD2    N1 7236   4.544   3.994  12.593  0.1650  0.2681 -0.3994
  486MPD2    H7 7237   4.611   3.920  12.613  1.4625  1.2262 -1.1243
  487TMC3    C1 7238   4.392   3.813  12.571 -0.2208 -1.0737  0.7755
  487TMC3    C2 7239   4.274   3.774  12.504  0.2292  0.3292 -0.2813
  487TMC3    C3 7240   4.275   3.636  12.490  0.8452  0.0030  0.5559
  487TMC3    C4 7241   4.481   3.737  12.636 -0.4788  0.0789  0.5396
  487TMC3    C5 7242   4.462   3.605  12.632  0.0166  1.0689  0.3205
  487TMC3    C6 7243   4.373   3.548  12.547 -0.1376  0.0576 -0.5391
  487TMC3     C 7244   4.418   3.959  12.564  0.7668 -0.7017  0.1953
  487TMC3     O 7245   4.329   4.033  12.526 -0.8614 -0.6025 -0.0874
  487TMC3     H 7246   4.201   3.839  12.457  0.8080  1.9053  1.0092
  487TMC3    H1 7247   4.539   3.776  12.718  0.6357 -0.3223 -0.0434
  487TMC3    H2 7248   4.352   3.441  12.545  1.9732 -0.3761  0.4733
  487TMC3    C7 7249   4.448   3.547  12.769  0.6946 -0.4369 -0.5004
  487TMC3    C8 7250   4.148   3.574  12.472 -0.1032  0.0393 -0.2523
  487TMC3    O1 7251   4.490   3.614  12.865 -0.3150 -0.0488 -0.3888
  487TMC3    O2 7252   4.049   3.641  12.493  0.1644  0.3379  0.4406
  488MPD2     C 7253   4.244   0.972  16.127 -0.6517 -0.8014 -0.2703
  488MPD2    C1 7254   4.266   1.086  16.211  0.6291  0.5420  0.1049
  488MPD2    C2 7255   4.209   1.088  16.336  0.6386  0.1968 -0.2994
  488MPD2    C3 7256   4.120   0.984  16.375 -0.9456 -1.0481 -0.7095
  488MPD2    C4 7257   4.105   0.865  16.299  0.1068 -0.7020  0.3452
  488MPD2    C5 7258   4.176   0.864  16.177 -0.4374 -0.4527 -0.6269
  488MPD2     H 7259   4.226   1.173  16.402  1.8536 -1.7349  1.8754
  488MPD2    H1 7260   4.050   0.778  16.333 -0.3867 -0.6806 -0.3781
  488MPD2    H2 7261   4.281   0.960  16.025  0.2256 -0.4648  0.0064
  488MPD2    H3 7262   4.174   0.767  16.128  1.5130 -0.2348 -1.1096
  488MPD2     N 7263   4.088   0.994  16.510  0.5144 -0.0913 -0.1182
  488MPD2    H5 7264   4.128   1.073  16.562 -1.5732  1.2180 -0.5257
  488MPD2    N1 7265   4.351   1.190  16.173  0.3219  0.1760 -0.0413
  488MPD2    H7 7266   4.357   1.270  16.236  0.2074  2.0404 -2.4107
  489TMC3    C1 7267   4.030   0.894  16.725 -0.9510  0.3773  0.1312
  489TMC3    C2 7268   4.140   0.960  16.776 -0.7508 -0.0181  0.0412
  489TMC3    C3 7269   4.134   0.990  16.917  0.6476  0.3856 -0.8322
  489TMC3    C4 7270   3.930   0.841  16.808 -0.1276  0.7055 -0.2045
  489TMC3    C5 7271   3.932   0.874  16.943 -0.0919 -0.6446  0.3036
  489TMC3    C6 7272   4.026   0.956  16.995  0.3654 -0.0599 -0.7539
  489TMC3     C 7273   4.012   0.907  16.580 -0.4048 -0.2698  0.5299
  489TMC3     O 7274   3.936   0.821  16.532 -0.4291  0.3587  0.2431
  489TMC3     H 7275   4.216   1.007  16.714 -1.4412  1.2920  0.2023
  489TMC3    H1 7276   3.852   0.774  16.773  0.5620 -0.6538  0.8749
  489TMC3    H2 7277   4.017   0.986  17.099 -2.4986 -0.8441 -0.7670
  489TMC3    C7 7278   3.840   0.809  17.037 -0.3855  0.0575 -0.2865
  489TMC3    C8 7279   4.197   1.117  16.947 -0.5431  0.5784  0.3137
  489TMC3    O1 7280   3.874   0.771  17.153 -0.2088 -0.0955  0.0709
  489TMC3    O2 7281   4.286   1.149  16.872  0.4229 -0.8800 -0.0635
  490MPD2     C 7282   0.892   0.698  17.055 -0.1052 -0.6797  0.2733
  490MPD2    C1 7283   0.761   0.716  17.056 -0.3687 -0.4495 -0.1255
  490MPD2    C2 7284   0.703   0.836  17.022  0.8754  0.1749 -0.6708
  490MPD2    C3 7285   0.787   0.941  17.001  0.2611 -0.0276  0.3741
  490MPD2    C4 7286   0.922   0.920  16.985 -0.2456 -0.3326 -1.0869
  490MPD2    C5 7287   0.978   0.797  17.002 -0.1014  0.2797 -0.9069
  490MPD2     H 7288   0.598   0.851  17.046  1.3546 -0.2002  1.6454
  490MPD2    H1 7289   0.988   1.000  16.954 -0.0342  0.4096  1.2401
  490MPD2    H2 7290   0.927   0.602  17.089  2.6713  0.8552  1.7424
  490MPD2    H3 7291   1.085   0.781  16.993 -0.3516 -1.6567 -0.6208
  490MPD2     N 7292   0.743   1.077  17.002 -0.0406 -0.0143  0.1731
  490MPD2    H5 7293   0.806   1.145  16.960 -1.4669 -0.6838 -3.0111
  490MPD2    N1 7294   0.678   0.614  17.105 -0.5741  0.1949  0.4329
  490MPD2    H7 7295   0.581   0.646  17.111 -0.1724  1.9763 -2.3742
  491TMC3    C1 7296   0.602   0.398  17.135  0.1555 -0.2747  0.1445
  491TMC3    C2 7297   0.498   0.446  17.219 -0.4195  0.1716 -0.2244
  491TMC3    C3 7298   0.392   0.360  17.254 -0.1069  0.0594 -0.4516
  491TMC3    C4 7299   0.591   0.272  17.089  0.0961  0.2880  0.5518
  491TMC3    C5 7300   0.474   0.206  17.102  0.2064 -0.1300 -0.2774
  491TMC3    C6 7301   0.377   0.241  17.193 -0.8115  0.4373 -0.0095
  491TMC3     C 7302   0.709   0.482  17.084 -0.3679 -1.0162  0.5237
  491TMC3     O 7303   0.803   0.429  17.024  0.0507 -0.5686  0.2389
  491TMC3     H 7304   0.501   0.548  17.255  0.3596  0.8056 -2.0682
  491TMC3    H1 7305   0.677   0.230  17.039 -0.3913 -1.1614  0.9430
  491TMC3    H2 7306   0.295   0.177  17.224  1.7430 -1.5339  2.8135
  491TMC3    C7 7307   0.412   0.159  16.977 -0.3265  0.0647 -0.0244
  491TMC3    C8 7308   0.285   0.399  17.347  0.3982 -0.2008  0.2847
  491TMC3    O1 7309   0.293   0.143  16.989 -0.8024 -0.5483  0.3406
  491TMC3    O2 7310   0.185   0.339  17.340  0.1655  0.0679  0.0137
  492MPD2     C 7311   0.802   0.330  11.142 -0.9263 -0.0267  0.4290
  492MPD2    C1 7312   0.678   0.348  11.092 -0.6033  0.1351 -0.6716
  492MPD2    C2 7313   0.565   0.322  11.173 -0.6549  0.2652 -0.1809
  492MPD2    C3 7314   0.584   0.278  11.302 -1.1232 -0.6216  0.0553
  492MPD2    C4 7315   0.714   0.259  11.350 -0.4770  0.2697  0.3396
  492MPD2    C5 7316   0.817   0.280  11.266  0.5941  0.1500 -0.5234
  492MPD2     H 7317   0.461   0.339  11.146 -0.7880  0.6029  0.5305
  492MPD2    H1 7318   0.741   0.218  11.447 -0.2053 -2.6407 -0.9466
  492MPD2    H2 7319   0.895   0.350  11.090 -0.2089 -3.2072  0.5189
  492MPD2    H3 7320   0.914   0.251  11.305  0.2787 -0.6890 -0.3728
  492MPD2     N 7321   0.476   0.249  11.392  0.5115 -1.4002 -0.0363
  492MPD2    H5 7322   0.504   0.229  11.487  0.9584 -0.4928  0.0240
  492MPD2    N1 7323   0.668   0.398  10.962 -0.1546 -0.1641 -0.3110
  492MPD2    H7 7324   0.753   0.423  10.912  0.1377  1.6709  1.0981
  493TMC3    C1 7325   0.595   0.462  10.758 -0.7094 -0.3252 -0.4762
  493TMC3    C2 7326   0.687   0.567  10.756  0.1164  0.1839 -0.2956
  493TMC3    C3 7327   0.681   0.653  10.649  0.0188  0.0448 -0.5999
  493TMC3    C4 7328   0.498   0.455  10.665 -0.5941 -0.8558  0.3408
  493TMC3    C5 7329   0.505   0.540  10.560 -0.1217 -0.0379 -0.1910
  493TMC3    C6 7330   0.588   0.640  10.551  0.4453 -0.0965 -0.5171
  493TMC3     C 7331   0.557   0.403  10.882  0.9900 -0.2430  0.4291
  493TMC3     O 7332   0.448   0.354  10.902 -0.2342 -0.3406  0.0830
  493TMC3     H 7333   0.763   0.588  10.830  0.6508  0.2887 -0.8667
  493TMC3    H1 7334   0.418   0.383  10.674 -1.4280  0.1302  0.8462
  493TMC3    H2 7335   0.597   0.706  10.465  1.0354  0.8881  0.3041
  493TMC3    C7 7336   0.375   0.566  10.494  1.1287  0.5055 -1.0800
  493TMC3    C8 7337   0.802   0.739  10.632  0.1879  0.5164  0.8783
  493TMC3    O1 7338   0.365   0.683  10.471 -0.3940 -0.6850  0.1240
  493TMC3    O2 7339   0.900   0.700  10.695  0.1368  0.2743 -0.5192
  494TMC3    C1 7340   0.795   2.062   0.310  0.4753  0.0203 -0.2900
  494TMC3    C2 7341   0.877   1.970   0.380 -0.6998 -0.2657  1.1563
  494TMC3    C3 7342   0.980   1.914   0.309  0.0151 -0.2377 -0.5359
  494TMC3    C4 7343   0.826   2.104   0.184 -0.3289 -0.6632  0.1950
  494TMC3    C5 7344   0.929   2.046   0.126 -1.0536 -0.0669  0.3279
  494TMC3    C6 7345   1.008   1.944   0.182 -0.5869 -0.7511  0.1220
  494TMC3     C 7346   0.732   2.166   0.384  0.4468  0.1431 -0.3298
  494TMC3     O 7347   0.789   2.196   0.488  0.2498  0.2414 -0.3717
  494TMC3     H 7348   0.863   1.948   0.485 -1.8136 -4.2975  0.1769
  494TMC3    H1 7349   0.772   2.182   0.132  0.8538  0.1519  0.1834
  494TMC3    H2 7350   1.084   1.896   0.122 -0.7757 -0.6504 -0.2048
  494TMC3    C7 7351   0.985   2.107   0.009  0.3379  0.3353  0.3981
  494TMC3    C8 7352   1.049   1.793   0.339 -0.1904 -0.8034 -0.5433
  494TMC3    O1 7353   1.045   2.032  17.629  0.0997 -0.3516  0.3062
  494TMC3    O2 7354   1.145   1.764   0.271 -0.3881  0.4291 -0.2278
  495TMC3    C1 7355   4.674   4.457  14.347 -0.0959 -0.3404 -0.0418
  495TMC3    C2 7356   4.572   4.466  14.256 -0.1048 -0.9515 -0.4840
  495TMC3    C3 7357   4.444   4.485  14.299  0.7471  0.0695 -0.7927
  495TMC3    C4 7358   4.648   4.479  14.480  0.0053 -0.2643 -0.1322
  495TMC3    C5 7359   4.523   4.506  14.519  1.3130 -0.2557 -0.5095
  495TMC3    C6 7360   4.423   4.521  14.428 -0.0639  0.0853 -0.1921
  495TMC3     C 7361   0.021   4.337  14.318 -0.0006  0.3411  0.3606
  495TMC3     O 7362   4.694   4.271  14.231  0.0088 -0.0506  0.8579
  495TMC3     H 7363   4.586   4.453  14.149 -1.2541  1.3591 -0.9308
  495TMC3    H1 7364   4.722   4.462  14.557  0.0904 -2.0715 -0.6116
  495TMC3    H2 7365   4.321   4.541  14.460 -0.1576 -2.0946  0.8777
  495TMC3    C7 7366   4.484   4.417  14.632 -0.1847  0.1800  0.3376
  495TMC3    C8 7367   4.359   4.362  14.272 -0.2849  0.0736 -0.2534
  495TMC3    O1 7368   4.558   4.417  14.734  0.0023 -0.5943  0.0047
  495TMC3    O2 7369   4.241   4.372  14.300  0.4009  0.1623 -0.6048
  496MPD2     C 7370   1.696   4.442  15.200  0.9066 -0.1357 -0.7128
  496MPD2    C1 7371   1.680   4.325  15.271 -0.6338 -0.5716 -0.3661
  496MPD2    C2 7372   1.576   4.313  15.366 -0.1118  0.2541  0.1341
  496MPD2    C3 7373   1.483   4.415  15.383 -0.6410  0.2645 -0.1822
  496MPD2    C4 7374   1.500   4.530  15.310  0.7131 -0.1083  0.3493
  496MPD2    C5 7375   1.599   4.541  15.216 -0.2519  0.2341 -0.6756
  496MPD2     H 7376   1.562   4.220  15.421 -0.3772 -0.5369 -1.2646
  496MPD2    H1 7377   1.426   4.609  15.315  1.5044  0.6778 -0.2853
  496MPD2    H2 7378   1.769   4.447  15.119  2.4715 -0.6222  0.6886
  496MPD2    H3 7379   1.605   4.634  15.159 -1.5818 -0.3785 -1.8006
  496MPD2     N 7380   1.376   4.403  15.477 -0.0555 -0.3547 -0.1987
  496MPD2    H5 7381   1.308   4.478  15.486  1.3050  0.8232  0.2315
  496MPD2    N1 7382   1.778   4.222  15.230  1.2115 -0.3569  0.4019
  496MPD2    H7 7383   1.837   4.246  15.152 -1.6316 -1.1706 -1.9977
  497TMC3    C1 7384   1.234   4.326  15.646  0.4496 -0.0048 -0.6888
  497TMC3    C2 7385   1.114   4.320  15.583 -0.1949  0.5165  0.3937
  497TMC3    C3 7386   1.014   4.241  15.633 -0.1341 -0.4028 -0.4759
  497TMC3    C4 7387   1.251   4.271  15.774 -0.1046 -0.0376 -0.2252
  497TMC3    C5 7388   1.144   4.203  15.822 -0.7952  0.3420 -0.3961
  497TMC3    C6 7389   1.027   4.182  15.753 -0.6960 -0.1857 -0.4918
  497TMC3     C 7390   1.351   4.298  15.564 -0.1286  0.5239 -0.0922
  497TMC3     O 7391   1.418   4.203  15.594 -0.3766 -0.5738  0.0972
  497TMC3     H 7392   1.113   4.343  15.477  0.1498  0.6613  0.4206
  497TMC3    H1 7393   1.348   4.276  15.822  0.2534 -0.3192 -0.9090
  497TMC3    H2 7394   0.950   4.115  15.790  0.0228 -0.6164  0.2137
  497TMC3    C7 7395   1.166   4.116  15.937  0.8557 -0.2901 -0.5010
  497TMC3    C8 7396   0.942   4.161  15.534 -0.0766  0.1338  0.1001
  497TMC3    O1 7397   1.072   4.044  15.967  0.2843  0.2065  0.2840
  497TMC3    O2 7398   1.001   4.132  15.432 -0.7659 -0.0650  0.2433
  498MPD2     C 7399   1.944   0.945   9.276  0.3703  0.6476  0.6040
  498MPD2    C1 7400   2.009   0.906   9.396  0.2386 -0.0360  0.1510
  498MPD2    C2 7401   1.958   0.800   9.470  0.3584  0.6113 -0.4951
  498MPD2    C3 7402   1.846   0.735   9.427  0.1062  0.0187  0.0289
  498MPD2    C4 7403   1.788   0.773   9.311 -0.6958  0.7489 -0.3396
  498MPD2    C5 7404   1.845   0.871   9.230  0.7165  0.8797 -0.4839
  498MPD2     H 7405   2.005   0.776   9.564 -0.0796  0.3908 -0.3345
  498MPD2    H1 7406   1.707   0.711   9.272 -1.5566  0.9350  1.1498
  498MPD2    H2 7407   1.981   1.029   9.217 -0.5421 -0.3565 -1.4057
  498MPD2    H3 7408   1.775   0.897   9.151 -0.2450 -0.1666  0.0396
  498MPD2     N 7409   1.806   0.621   9.499 -0.1566 -0.2563 -0.4007
  498MPD2    H5 7410   1.858   0.607   9.585 -0.3187  1.5442 -0.0205
  498MPD2    N1 7411   2.117   0.983   9.457  0.3114  0.1262  0.1266
  498MPD2    H7 7412   2.146   0.962   9.552  0.0715  2.5668  0.7298
  499TMC3    C1 7413   2.287   1.134   9.497 -0.5624 -0.2278  0.5007
  499TMC3    C2 7414   2.292   1.079   9.627  0.7415  0.1845  1.0233
  499TMC3    C3 7415   2.394   1.130   9.706  0.1262 -0.1387 -0.0027
  499TMC3    C4 7416   2.379   1.224   9.460  0.1473 -0.2146  0.1067
  499TMC3    C5 7417   2.482   1.271   9.534 -1.0583  0.1168 -0.2390
  499TMC3    C6 7418   2.481   1.223   9.661  0.0074 -0.1515  1.0506
  499TMC3     C 7419   2.185   1.088   9.403 -0.8399  0.3465 -0.0931
  499TMC3     O 7420   2.174   1.146   9.294  0.0083  0.3404  0.1996
  499TMC3     H 7421   2.199   1.034   9.663  0.2777  0.5862  0.3220
  499TMC3    H1 7422   2.379   1.243   9.353  0.4775  2.1858  0.5240
  499TMC3    H2 7423   2.562   1.254   9.726 -0.3931 -1.2545  2.0629
  499TMC3    C7 7424   2.591   1.358   9.483  0.2561  0.7402  0.1244
  499TMC3    C8 7425   2.418   1.058   9.830  0.6659 -0.2957  0.5710
  499TMC3    O1 7426   2.692   1.349   9.547 -0.3114  0.0637  0.1380
  499TMC3    O2 7427   2.320   0.983   9.854  0.6396  0.3937 -0.3646
  500MPD2     C 7428   4.374   1.531  10.831  0.1429  0.1507  0.4380
  500MPD2    C1 7429   4.404   1.587  10.718  0.2040  0.1006  0.1027
  500MPD2    C2 7430   4.302   1.610  10.636 -0.2737  0.7522  0.2507
  500MPD2    C3 7431   4.171   1.593  10.669 -0.7200  0.0157  0.1630
  500MPD2    C4 7432   4.138   1.544  10.792 -0.4191 -0.0551 -0.0707
  500MPD2    C5 7433   4.244   1.507  10.868  0.2376 -0.5025  0.2686
  500MPD2     H 7434   4.324   1.649  10.537 -2.0703  1.6801  0.2248
  500MPD2    H1 7435   4.038   1.541  10.833 -1.6298 -4.3712 -3.2814
  500MPD2    H2 7436   4.446   1.503  10.907 -0.6755  0.2996  1.2773
  500MPD2    H3 7437   4.225   1.471  10.968  2.2740  1.4261  1.3277
  500MPD2     N 7438   4.065   1.620  10.587 -0.3095  0.1014 -0.0221
  500MPD2    H5 7439   3.975   1.628  10.632 -0.3430  2.2920 -0.4486
  500MPD2    N1 7440   4.532   1.603  10.664  0.3011 -0.3422 -0.3291
  500MPD2    H7 7441   4.538   1.638  10.569  1.6462 -0.7374 -0.3944
  501TMC3    C1 7442   0.055   1.630  10.657 -0.3974  0.5610 -0.3448
  501TMC3    C2 7443   0.056   1.711  10.548 -0.2018 -0.1902  0.7614
  501TMC3    C3 7444   0.183   1.763  10.512 -0.1870 -0.3070 -0.0757
  501TMC3    C4 7445   0.167   1.604  10.729  1.0451  0.2950 -0.4710
  501TMC3    C5 7446   0.288   1.661  10.688  0.6107  0.2437 -0.3445
  501TMC3    C6 7447   0.302   1.732  10.576  0.2901 -0.2357  0.9072
  501TMC3     C 7448   4.651   1.591  10.731 -0.0164 -0.8118 -0.1614
  501TMC3     O 7449   4.669   1.565  10.850  0.0520  0.2895 -0.2423
  501TMC3     H 7450   4.696   1.725  10.481  0.5523 -1.9120 -0.5465
  501TMC3    H1 7451   0.168   1.564  10.829  2.7888 -0.3274 -0.7450
  501TMC3    H2 7452   0.397   1.766  10.537 -0.4962 -1.1386 -1.8126
  501TMC3    C7 7453   0.410   1.627  10.758  0.2829  0.0391  0.0597
  501TMC3    C8 7454   0.192   1.861  10.411 -0.6157  0.3751 -0.3439
  501TMC3    O1 7455   0.399   1.531  10.832  0.3013 -0.7739  0.0263
  501TMC3    O2 7456   0.302   1.911  10.396  0.2874  0.6147  0.7391
  502TMC3    C1 7457   3.954   4.568  14.687  0.0931  0.2274 -0.5228
  502TMC3    C2 7458   3.907   4.677  14.626  0.4396 -0.4417 -0.0762
  502TMC3    C3 7459   3.770   4.698  14.624 -0.4283  0.1538 -0.3518
  502TMC3    C4 7460   3.866   4.475  14.755  0.0353 -0.2526 -0.5566
  502TMC3    C5 7461   3.726   4.499  14.752 -0.4462  0.6855  0.2821
  502TMC3    C6 7462   3.678   4.608  14.685 -0.7820 -0.2269  0.1733
  502TMC3     C 7463   4.087   4.588  14.738 -0.0501 -0.2954 -0.0422
  502TMC3     O 7464   4.174   4.595  14.655  0.0771  0.2843  0.2787
  502TMC3     H 7465   3.972   0.029  14.583 -1.5411  0.6675 -1.1634
  502TMC3    H1 7466   3.907   4.396  14.816 -0.8468 -0.2753  0.0173
  502TMC3    H2 7467   3.574   4.623  14.662 -0.2674  2.1997 -0.5819
  502TMC3    C7 7468   3.643   4.420  14.838  0.1117 -0.7767 -0.5143
  502TMC3    C8 7469   3.740   0.113  14.658 -0.6400  0.3281 -0.2190
  502TMC3    O1 7470   3.706   4.329  14.900 -0.0947  0.3536 -0.3331
  502TMC3    O2 7471   3.795   0.200  14.593  0.0537 -0.3079  0.6701
  503MPD2     C 7472   1.234   1.089  16.988  0.0928  0.4424 -0.9585
  503MPD2    C1 7473   1.203   1.077  17.123  0.0373  0.3717  0.3708
  503MPD2    C2 7474   1.276   0.981  17.194 -0.5685 -0.4554 -0.3529
  503MPD2    C3 7475   1.381   0.913  17.130  0.1534  0.1735  0.4580
  503MPD2    C4 7476   1.413   0.936  17.002  0.5226 -0.7940 -0.0549
  503MPD2    C5 7477   1.333   1.019  16.930 -0.0945  0.0158  0.4146
  503MPD2     H 7478   1.243   0.963  17.296 -0.1404 -0.0868 -0.1510
  503MPD2    H1 7479   1.491   0.876  16.956 -0.9316 -0.4479 -3.0045
  503MPD2    H2 7480   1.169   1.154  16.930  0.8720  0.3393 -1.9508
  503MPD2    H3 7481   1.353   1.026  16.824 -1.3221 -0.9024  0.1166
  503MPD2     N 7482   1.452   0.817  17.204  0.0062 -0.5908  0.0244
  503MPD2    H5 7483   1.429   0.817  17.303 -0.9592  2.7616 -0.2001
  503MPD2    N1 7484   1.110   1.152  17.189  0.1469 -0.5787 -0.4975
  503MPD2    H7 7485   1.103   1.148  17.291  2.1672 -1.0064 -0.3667
  504TMC3    C1 7486   1.620   0.652  17.252  0.5780  0.0531  0.6699
  504TMC3    C2 7487   1.525   0.577  17.315  0.0150  0.8697  0.6802
  504TMC3    C3 7488   1.533   0.444  17.314 -0.2357  0.1854  0.1090
  504TMC3    C4 7489   1.722   0.587  17.185 -0.3981  0.0554 -0.0038
  504TMC3    C5 7490   1.718   0.451  17.174 -0.2769 -0.4481  0.2044
  504TMC3    C6 7491   1.626   0.373  17.239 -0.0238  0.7671 -0.3729
  504TMC3     C 7492   1.566   0.751  17.162  0.0415  0.1323  0.5305
  504TMC3     O 7493   1.621   0.753  17.053  0.1167  0.2848  0.0319
  504TMC3     H 7494   1.464   0.626  17.390  2.3280  1.0604  2.4075
  504TMC3    H1 7495   1.787   0.648  17.124 -0.1430  0.0035  0.2183
  504TMC3    H2 7496   1.622   0.265  17.239  4.0295  0.6035 -0.8004
  504TMC3    C7 7497   1.771   0.395  17.049 -0.3573  0.0919  0.7089
  504TMC3    C8 7498   1.489   0.375  17.430  0.0559 -0.2363  0.1164
  504TMC3    O1 7499   1.851   0.460  16.983  0.0398  0.1393 -0.2644
  504TMC3    O2 7500   1.376   0.402  17.467 -0.8833 -0.2408  0.6007
  505MPD2     C 7501   1.547   4.480  10.494  0.1786  0.2251 -0.1675
  505MPD2    C1 7502   1.644   4.392  10.453 -0.0609  0.6085 -0.7142
  505MPD2    C2 7503   1.774   4.419  10.472  0.7696  0.1846 -0.2883
  505MPD2    C3 7504   1.811   4.530  10.542  0.3943 -0.2561  0.4831
  505MPD2    C4 7505   1.714   4.615  10.597  0.8397  0.3626 -0.1690
  505MPD2    C5 7506   1.580   4.592  10.562  0.0123 -0.6638 -0.5302
  505MPD2     H 7507   1.847   4.356  10.424  1.6609  1.5510 -0.7348
  505MPD2    H1 7508   1.743   4.704  10.653  0.0064 -1.5621  3.3026
  505MPD2    H2 7509   1.444   4.445  10.494  0.1590  0.2993  1.5743
  505MPD2    H3 7510   1.504   4.657  10.603  1.8214  1.1886 -0.0935
  505MPD2     N 7511   1.947   4.557  10.549 -0.1960  0.1822 -0.6117
  505MPD2    H5 7512   2.007   4.488  10.505 -0.2183  0.7299 -1.4952
  505MPD2    N1 7513   1.599   4.274  10.394  0.1100  0.6042  0.5491
  505MPD2    H7 7514   1.501   4.275  10.368 -0.1659  1.6608  1.6207
  506TMC3    C1 7515   1.622   4.089  10.232  0.6458 -0.0721 -0.3190
  506TMC3    C2 7516   1.544   4.142  10.131 -0.2896  0.8509 -0.4806
  506TMC3    C3 7517   1.559   4.103  10.002  0.9342 -0.3082 -0.1098
  506TMC3    C4 7518   1.706   3.986  10.198 -0.5437 -0.1369  0.3117
  506TMC3    C5 7519   1.729   3.955  10.070  0.9175 -0.1742  0.1583
  506TMC3    C6 7520   1.653   4.010   9.974  0.0220 -0.6699  0.0092
  506TMC3     C 7521   1.676   4.174  10.343 -0.7954  0.5989 -0.6296
  506TMC3     O 7522   1.793   4.143  10.366 -0.5893 -0.1465 -0.8387
  506TMC3     H 7523   1.462   4.210  10.146 -0.9464 -0.2902  1.0821
  506TMC3    H1 7524   1.757   3.933  10.277  1.2294 -1.3679 -1.6316
  506TMC3    H2 7525   1.675   3.988   9.870  2.9138  0.3065  0.4214
  506TMC3    C7 7526   1.864   3.944  10.038  0.2376  0.1330  0.1315
  506TMC3    C8 7527   1.487   4.172   9.898 -0.0622 -0.1481 -0.1108
  506TMC3    O1 7528   1.894   3.909   9.925 -0.4680 -0.3169 -0.0204
  506TMC3    O2 7529   1.464   4.115   9.796  0.4181 -0.4707  0.4845
  507TMC3    C1 7530   2.429   0.340  14.697 -0.5134 -0.1608  0.4859
  507TMC3    C2 7531   2.358   0.226  14.660  0.4536 -0.4753  0.0561
  507TMC3    C3 7532   2.370   0.180  14.531 -0.5009 -1.2651  0.3400
  507TMC3    C4 7533   2.504   0.406  14.606 -0.1268  0.1146  0.2665
  507TMC3    C5 7534   2.505   0.357  14.478 -0.0142 -0.0303 -0.4456
  507TMC3    C6 7535   2.448   0.244  14.441  0.0831 -0.1370 -0.5360
  507TMC3     C 7536   2.486   0.349  14.828 -0.9161  0.7296 -0.3138
  507TMC3     O 7537   2.593   0.403  14.834 -0.1206  0.3642  0.1547
  507TMC3     H 7538   2.291   0.176  14.729 -1.2532  2.0477  0.2230
  507TMC3    H1 7539   2.564   0.494  14.630 -0.9891  1.0619 -1.0725
  507TMC3    H2 7540   2.459   0.203  14.341 -1.3852 -0.8283 -0.4057
  507TMC3    C7 7541   2.467   0.452  14.376 -0.1566 -0.6526  0.6847
  507TMC3    C8 7542   2.238   0.137  14.477  0.5782 -0.0613  0.4734
  507TMC3    O1 7543   2.417   0.402  14.277  0.0935 -0.0418  0.4586
  507TMC3    O2 7544   2.152   0.097  14.556 -0.3360  0.2594 -0.0479
  508MPD2     C 7545   3.115   2.688  16.062 -0.5442 -0.2645 -0.1532
  508MPD2    C1 7546   3.224   2.771  16.040  0.3238 -0.5372  0.5057
  508MPD2    C2 7547   3.223   2.871  15.947  0.5343  0.9448  0.1621
  508MPD2    C3 7548   3.107   2.884  15.867  0.0692  0.6703  0.2881
  508MPD2    C4 7549   3.003   2.800  15.873 -0.3510 -0.1262  0.5850
  508MPD2    C5 7550   3.000   2.703  15.975  0.4477 -0.2893  0.4720
  508MPD2     H 7551   3.300   2.940  15.914  2.5014 -1.2663  0.2268
  508MPD2    H1 7552   2.914   2.805  15.811  1.4676  0.6932 -1.9308
  508MPD2    H2 7553   3.116   2.605  16.131  0.3653  1.0259  1.3881
  508MPD2    H3 7554   2.915   2.637  15.986  0.5784 -0.5660 -0.2150
  508MPD2     N 7555   3.106   2.997  15.780  0.6168 -0.9551 -0.0953
  508MPD2    H5 7556   3.197   3.041  15.777  0.4229 -0.6403 -1.6454
  508MPD2    N1 7557   3.337   2.745  16.119 -0.1515 -0.1531 -0.7529
  508MPD2    H7 7558   3.342   2.657  16.171 -0.5911 -0.7397 -1.7110
  509TMC3    C1 7559   3.034   3.297  15.441  0.4333 -0.0544 -0.2009
  509TMC3    C2 7560   3.159   3.352  15.460  0.0913 -0.2872 -0.3013
  509TMC3    C3 7561   3.226   3.326  15.581 -0.2849 -0.6687 -0.2126
  509TMC3    C4 7562   2.980   3.213  15.529 -0.2661 -0.1379  0.4840
  509TMC3    C5 7563   3.058   3.163  15.628 -0.0582  0.4803  0.2203
  509TMC3    C6 7564   3.178   3.226  15.665 -1.0043 -0.4650  0.9691
  509TMC3     C 7565   2.953   3.333  15.325 -0.1786  0.3000  0.4525
  509TMC3     O 7566   2.866   3.250  15.299  0.2681 -0.2873  0.0647
  509TMC3     H 7567   3.209   3.403  15.378  1.1637 -0.4716  0.2349
  509TMC3    H1 7568   2.880   3.173  15.518 -0.4664  0.4782  0.1001
  509TMC3    H2 7569   3.221   3.199  15.760  1.0555 -0.9699 -0.0891
  509TMC3    C7 7570   3.009   3.041  15.696 -0.1793  0.0187 -0.0033
  509TMC3    C8 7571   3.365   3.359  15.599  0.2813  0.6469 -0.0678
  509TMC3    O1 7572   2.896   3.003  15.666 -0.0203  0.4209 -0.0382
  509TMC3    O2 7573   3.419   3.298  15.687 -0.1799 -0.0517  0.0018
  510MPD2     C 7574   1.631   4.702  14.690  0.4358  0.6243  0.4005
  510MPD2    C1 7575   1.627   4.578  14.757  0.3716  0.0942  0.4132
  510MPD2    C2 7576   1.704   4.474  14.697  0.0553 -0.0413  0.0704
  510MPD2    C3 7577   1.755   4.485  14.571  0.0101 -0.0501 -0.2293
  510MPD2    C4 7578   1.752   4.606  14.507 -0.0416  0.3831 -0.4605
  510MPD2    C5 7579   1.700   4.717  14.568  0.3660 -0.6819 -0.5064
  510MPD2     H 7580   1.700   4.374  14.738  0.2851  0.2272  0.7478
  510MPD2    H1 7581   1.800   4.625  14.411 -2.1471 -3.4783 -2.2864
  510MPD2    H2 7582   1.573   0.065  14.725 -0.6644  0.1265 -0.2169
  510MPD2    H3 7583   1.711   0.092  14.525  0.6195 -1.5857 -2.4728
  510MPD2     N 7584   1.820   4.367  14.522 -0.1372 -0.5040  0.2962
  510MPD2    H5 7585   1.803   4.285  14.579 -1.5832  0.2066  0.8933
  510MPD2    N1 7586   1.527   4.550  14.854 -0.5459 -0.0390 -0.5396
  510MPD2    H7 7587   1.450   4.616  14.860  0.9449  1.8208 -1.6345
  511TMC3    C1 7588   1.359   4.398  14.926 -0.8915 -0.4887 -0.1338
  511TMC3    C2 7589   1.292   4.452  15.034 -0.8625 -0.2874  0.6782
  511TMC3    C3 7590   1.162   4.411  15.053 -0.2892  0.4397 -0.3006
  511TMC3    C4 7591   1.307   4.290  14.859 -0.1671  0.0767 -0.5120
  511TMC3    C5 7592   1.174   4.259  14.880 -1.1905 -0.3290 -0.1732
  511TMC3    C6 7593   1.097   4.321  14.968  0.1037  0.4737  0.3019
  511TMC3     C 7594   1.500   4.424  14.906 -0.1391  0.4510  0.0751
  511TMC3     O 7595   1.579   4.329  14.912 -0.0211  0.5643 -0.2520
  511TMC3     H 7596   1.346   4.523  15.096 -0.8281  1.5366 -1.4365
  511TMC3    H1 7597   1.361   4.238  14.780  1.2261  1.3596 -0.4070
  511TMC3    H2 7598   0.993   4.295  14.986 -0.3268  1.9819 -0.0055
  511TMC3    C7 7599   1.125   4.152  14.803 -0.6875  0.1251 -0.3206
  511TMC3    C8 7600   1.094   4.468  15.174  0.1092  0.2546 -0.4134
  511TMC3    O1 7601   1.171   4.138  14.688  0.2822 -0.2711 -0.7711
  511TMC3    O2 7602   1.155   4.556  15.238 -0.3409 -0.2582 -0.2208
  512TMC3    C1 7603   0.106   3.992  13.067  0.0613 -0.1726 -0.3717
  512TMC3    C2 7604   0.210   3.942  13.143  0.3490  0.5256 -0.6101
  512TMC3    C3 7605   0.273   3.832  13.094  0.8386 -0.3762  0.1816
  512TMC3    C4 7606   0.076   3.937  12.944  0.2376 -0.4047  0.1952
  512TMC3    C5 7607   0.154   3.833  12.893  0.1538  0.0387 -0.1632
  512TMC3    C6 7608   0.250   3.781  12.972 -0.0651 -0.2091 -0.1814
  512TMC3     C 7609   0.028   4.095  13.135 -0.3833  0.4542 -0.7030
  512TMC3     O 7610   0.077   4.169  13.217 -0.4352 -0.0847 -0.4754
  512TMC3     H 7611   0.214   3.978  13.245  1.0720 -0.0041 -0.4549
  512TMC3    H1 7612   4.719   3.976  12.883  1.3087  2.0680  0.3911
  512TMC3    H2 7613   0.300   3.689  12.944 -2.1686 -1.3935 -0.0562
  512TMC3    C7 7614   0.111   3.764  12.774 -0.5960  0.5287 -0.0217
  512TMC3    C8 7615   0.347   3.753  13.192 -0.5854 -0.4314 -0.1952
  512TMC3    O1 7616   0.062   3.831  12.683 -0.2780 -0.3831 -0.6186
  512TMC3    O2 7617   0.360   3.634  13.178  0.1691 -1.1188  0.4402
  513MPD2     C 7618   1.588   4.181  13.009 -0.9054  1.0085  0.6831
  513MPD2    C1 7619   1.614   4.061  12.941  0.2483  0.0113 -0.2020
  513MPD2    C2 7620   1.664   3.953  13.021  0.7460  0.7997  0.2741
  513MPD2    C3 7621   1.697   3.963  13.155  0.2908 -0.4626  0.5603
  513MPD2    C4 7622   1.661   4.080  13.218 -0.1745  0.2445 -0.0314
  513MPD2    C5 7623   1.603   4.186  13.151 -0.5171  0.3720 -0.3587
  513MPD2     H 7624   1.685   3.853  12.984  1.9120  0.7555  1.0602
  513MPD2    H1 7625   1.671   4.085  13.325  1.2069 -0.5203 -0.1130
  513MPD2    H2 7626   1.564   4.272  12.956 -0.7644  0.2114 -0.7429
  513MPD2    H3 7627   1.584   4.278  13.204  1.5992 -0.2676  1.5192
  513MPD2     N 7628   1.737   3.844  13.219 -0.2464 -0.3528  0.2951
  513MPD2    H5 7629   1.772   3.772  13.156  2.0086  0.6315  0.4374
  513MPD2    N1 7630   1.593   4.048  12.800 -0.1121 -0.1885  0.2548
  513MPD2    H7 7631   1.578   4.135  12.750  0.5643  0.7780  1.7291
  514TMC3    C1 7632   1.549   3.937  12.597  0.3879  0.4506  0.5287
  514TMC3    C2 7633   1.634   4.022  12.531 -0.8337  0.2884  0.2400
  514TMC3    C3 7634   1.655   3.993  12.397  0.2581 -0.4289  0.3757
  514TMC3    C4 7635   1.504   3.815  12.556 -0.5055 -0.2563 -0.1951
  514TMC3    C5 7636   1.546   3.786  12.429 -0.0518  0.8040 -0.6071
  514TMC3    C6 7637   1.611   3.871  12.350 -0.5608 -0.2354  0.6262
  514TMC3     C 7638   1.580   3.928  12.739 -0.6255  0.4297 -0.3130
  514TMC3     O 7639   1.574   3.814  12.788  0.8372  0.4934 -1.0325
  514TMC3     H 7640   1.654   4.120  12.575  1.4298 -1.1884  2.5166
  514TMC3    H1 7641   1.437   3.756  12.619  0.8441 -2.4858 -0.8335
  514TMC3    H2 7642   1.643   3.821  12.259  1.3192 -0.1854  1.2553
  514TMC3    C7 7643   1.618   3.659  12.446  0.3855 -0.1241  0.0678
  514TMC3    C8 7644   1.757   4.060  12.324 -0.1897  0.6283 -0.0911
  514TMC3    O1 7645   1.663   3.604  12.345 -0.2468 -0.5850 -0.1909
  514TMC3    O2 7646   1.824   4.138  12.388  0.2144 -0.0243  0.6649
  515MPD2     C 7647   0.034   1.143  15.216 -0.4256  0.3113  0.3023
  515MPD2    C1 7648   0.078   1.093  15.095 -0.0693  0.0478 -0.1016
  515MPD2    C2 7649   0.173   1.161  15.025  0.5074 -0.1496 -0.1507
  515MPD2    C3 7650   0.237   1.275  15.083 -0.0439  0.1892  0.2833
  515MPD2    C4 7651   0.196   1.309  15.209 -0.1384 -0.3983  0.4201
  515MPD2    C5 7652   0.098   1.246  15.270 -0.9036 -0.0086  0.1914
  515MPD2     H 7653   0.209   1.112  14.935  2.4448 -1.2239  1.2098
  515MPD2    H1 7654   0.228   1.394  15.268 -3.4704  2.8396 -2.4932
  515MPD2    H2 7655   4.673   1.097  15.268  0.9230 -2.0676  0.3424
  515MPD2    H3 7656   0.064   1.279  15.367 -1.7631 -0.7897  0.1559
  515MPD2     N 7657   0.350   1.341  15.035 -0.0659 -0.3472 -0.1600
  515MPD2    H5 7658   0.394   1.413  15.092  1.0361 -1.7854  0.8199
  515MPD2    N1 7659   0.030   0.973  15.039 -0.2699 -0.1837  0.1833
  515MPD2    H7 7660   0.079   0.948  14.953 -1.8290  1.4800 -1.2041
  516TMC3    C1 7661   4.643   0.756  15.010  0.2252 -0.3350  0.4237
  516TMC3    C2 7662   4.574   0.774  14.895 -0.1196  0.3880 -0.2412
  516TMC3    C3 7663   4.533   0.662  14.825 -0.5762  0.7449  0.3277
  516TMC3    C4 7664   4.670   0.634  15.065 -0.0642  0.2061  0.9233
  516TMC3    C5 7665   4.638   0.526  14.994 -0.0779  0.2229 -0.4041
  516TMC3    C6 7666   4.576   0.541  14.874 -0.6625 -0.0626 -0.7401
  516TMC3     C 7667   4.666   0.882  15.086 -0.3880  0.2982 -0.9507
  516TMC3     O 7668   4.603   0.880  15.193 -0.5370  0.0459  0.5234
  516TMC3     H 7669   4.561   0.876  14.859  1.0564 -0.5639 -3.4578
  516TMC3    H1 7670   4.721   0.625  15.160 -1.5668 -0.8806  1.6359
  516TMC3    H2 7671   4.511   0.462  14.838  1.7105 -2.3918  0.0331
  516TMC3    C7 7672   4.700   0.402  15.026 -0.3454 -0.4666 -0.1053
  516TMC3    C8 7673   4.469   0.673  14.693  0.7366  0.4104  0.3410
  516TMC3    O1 7674   4.716   0.378  15.142 -0.6727 -0.1397 -0.0416
  516TMC3    O2 7675   4.386   0.759  14.672  0.3390 -0.3060  0.1911
  517MPD2     C 7676   4.051   2.324  17.343 -0.1100  0.3531 -0.2033
  517MPD2    C1 7677   4.168   2.345  17.405 -0.3164  0.0678 -0.1393
  517MPD2    C2 7678   4.193   2.470  17.450 -0.3475 -0.4692  0.1158
  517MPD2    C3 7679   4.110   2.574  17.436  0.1884 -0.4688 -0.9092
  517MPD2    C4 7680   3.986   2.554  17.385  0.2732  0.0244  0.4134
  517MPD2    C5 7681   3.964   2.426  17.331  0.3425  0.3998 -0.6657
  517MPD2     H 7682   4.291   2.473  17.494 -0.3260  0.1821  0.0195
  517MPD2    H1 7683   3.912   2.630  17.364 -0.2418 -1.1261 -1.9097
  517MPD2    H2 7684   4.030   2.234  17.286  1.4727 -0.4368  0.4716
  517MPD2    H3 7685   3.886   2.423  17.256  2.2819 -0.6205 -2.6288
  517MPD2     N 7686   4.140   2.699  17.500  0.1001 -0.4638  0.2820
  517MPD2    H5 7687   4.063   2.765  17.505  2.1831  2.0142 -0.1925
  517MPD2    N1 7688   4.261   2.240  17.418 -0.1261 -0.3351 -0.1387
  517MPD2    H7 7689   4.350   2.259  17.464  0.1864 -2.2868  0.0338
  518TMC3    C1 7690   4.371   2.053  17.361 -0.3043 -0.2508 -0.0128
  518TMC3    C2 7691   4.376   1.917  17.360  0.6475 -0.3723  0.3791
  518TMC3    C3 7692   4.484   1.847  17.312  0.3959  0.1848  0.1804
  518TMC3    C4 7693   4.469   2.131  17.301 -0.0266 -0.9452  0.1493
  518TMC3    C5 7694   4.577   2.061  17.259  0.4688  0.4120  0.4930
  518TMC3    C6 7695   4.585   1.921  17.257 -0.0578  0.8823 -0.6854
  518TMC3     C 7696   4.242   2.115  17.376  0.0741 -0.0528  0.0402
  518TMC3     O 7697   4.137   2.053  17.354 -0.0216 -0.4140 -0.6237
  518TMC3     H 7698   4.284   1.872  17.393  0.1412 -0.3661 -1.0379
  518TMC3    H1 7699   4.486   2.237  17.316 -1.5777 -0.2849 -2.6774
  518TMC3    H2 7700   4.667   1.868  17.211  0.0711 -0.1074  0.6757
  518TMC3    C7 7701   4.704   2.130  17.225 -0.3871  0.2853  0.0778
  518TMC3    C8 7702   4.479   1.711  17.287  0.0850  0.6474  0.1334
  518TMC3    O1 7703   4.707   2.237  17.162 -0.2012  0.0409  0.5925
  518TMC3    O2 7704   4.551   1.666  17.196 -0.0444 -0.0086  0.1312
  519MPD2     C 7705   1.481   0.780  14.245 -0.3939 -1.0641  0.1426
  519MPD2    C1 7706   1.383   0.776  14.153  0.7527 -0.3403  0.0501
  519MPD2    C2 7707   1.388   0.684  14.048 -0.4601 -0.0979  0.3457
  519MPD2    C3 7708   1.500   0.594  14.031  0.0232  0.2328  0.1349
  519MPD2    C4 7709   1.600   0.607  14.128 -0.4497  0.2530  0.1221
  519MPD2    C5 7710   1.589   0.692  14.229  1.3822 -0.7808 -0.1012
  519MPD2     H 7711   1.299   0.670  13.990  0.1785 -3.7336  0.2725
  519MPD2    H1 7712   1.679   0.533  14.119  0.1448  0.8832  0.1712
  519MPD2    H2 7713   1.489   0.856  14.321  0.1349 -2.4648  1.4677
  519MPD2    H3 7714   1.669   0.698  14.302  0.6257  2.0751  0.5079
  519MPD2     N 7715   1.501   0.484  13.947 -0.8120 -0.1737  0.1351
  519MPD2    H5 7716   1.580   0.420  13.946 -0.0741  0.7366  0.9043
  519MPD2    N1 7717   1.261   0.846  14.169 -0.1433 -0.7706 -0.2627
  519MPD2    H7 7718   1.247   0.895  14.257 -0.7155  0.0067 -0.7843
  520TMC3    C1 7719   1.409   0.304  13.822  0.8469  0.1190  0.3258
  520TMC3    C2 7720   1.293   0.229  13.828  0.3516 -0.4820 -0.2833
  520TMC3    C3 7721   1.298   0.087  13.809 -0.2556 -0.2040  0.1865
  520TMC3    C4 7722   1.532   0.236  13.810  0.0055 -0.8360 -0.0165
  520TMC3    C5 7723   1.536   0.099  13.796  0.6267 -0.5331 -0.4619
  520TMC3    C6 7724   1.419   0.028  13.796 -0.4592 -0.2369 -0.1043
  520TMC3     C 7725   1.397   0.442  13.871 -0.6579  0.2346  0.3804
  520TMC3     O 7726   1.289   0.492  13.850  0.1824 -0.0109  0.4306
  520TMC3     H 7727   1.203   0.287  13.845  0.6025  0.8466 -3.5289
  520TMC3    H1 7728   1.629   0.284  13.807 -0.4891  0.2434  1.4402
  520TMC3    H2 7729   1.413   4.644  13.775  1.9123 -0.1187 -1.3106
  520TMC3    C7 7730   1.664   0.031  13.781 -0.1375  0.1459  0.1579
  520TMC3    C8 7731   1.182   0.027  13.748 -0.5587 -0.0669  0.2856
  520TMC3    O1 7732   1.669   4.634  13.819 -0.5464  0.9034 -0.5200
  520TMC3    O2 7733   1.195   4.661  13.668  0.2673  0.0809 -0.4449
  521MPD2     C 7734   2.171   3.295  17.332  0.8292  0.4963 -0.1106
  521MPD2    C1 7735   2.136   3.214  17.221  0.2878 -0.0864 -0.4486
  521MPD2    C2 7736   2.239   3.168  17.144  0.1594 -0.1461 -0.4465
  521MPD2    C3 7737   2.369   3.203  17.174 -0.1095  0.2622  0.1759
  521MPD2    C4 7738   2.401   3.286  17.283 -0.5792 -0.4699  0.2929
  521MPD2    C5 7739   2.299   3.330  17.358  0.3114  0.2315 -0.3804
  521MPD2     H 7740   2.215   3.117  17.051  0.5349  0.4769 -0.8833
  521MPD2    H1 7741   2.502   3.317  17.307 -0.9756  1.6732 -0.7989
  521MPD2    H2 7742   2.096   3.351  17.386  0.1780  0.1516 -0.6734
  521MPD2    H3 7743   2.329   3.404  17.431  0.8487  1.2886 -1.6748
  521MPD2     N 7744   2.469   3.150  17.083 -0.0761  0.1675 -0.0861
  521MPD2    H5 7745   2.444   3.092  17.003  2.1941 -0.1577 -0.5372
  521MPD2    N1 7746   2.000   3.189  17.207 -0.0955  0.2971  0.4245
  521MPD2    H7 7747   1.941   3.227  17.280 -1.0419  0.2350 -0.3134
  522TMC3    C1 7748   2.667   3.081  17.000 -0.1264 -0.0439 -0.4746
  522TMC3    C2 7749   2.776   3.006  17.041 -0.2906  0.8780  0.4702
  522TMC3    C3 7750   2.839   2.940  16.943 -0.0206  0.3399  0.2025
  522TMC3    C4 7751   2.623   3.083  16.873  0.3417 -0.2132  0.3806
  522TMC3    C5 7752   2.691   3.012  16.780 -0.3582  0.0886 -0.3608
  522TMC3    C6 7753   2.792   2.927  16.814  0.1740 -0.0856  0.6500
  522TMC3     C 7754   2.605   3.156  17.104  1.1180 -0.1068  0.0748
  522TMC3     O 7755   2.670   3.183  17.203 -0.1522  0.7118  0.3924
  522TMC3     H 7756   2.810   3.018  17.143  0.0696  1.2634  0.3054
  522TMC3    H1 7757   2.565   3.172  16.851 -1.0365 -0.1479  4.3671
  522TMC3    H2 7758   2.844   2.862  16.745  0.2410 -1.1844  1.7466
  522TMC3    C7 7759   2.681   3.051  16.641  0.2187  0.1879  0.7167
  522TMC3    C8 7760   2.969   2.888  16.976  0.0271  0.2156 -0.5249
  522TMC3    O1 7761   2.774   3.026  16.569 -0.5150 -0.3433 -0.7472
  522TMC3    O2 7762   2.985   2.858  17.097 -0.0724 -0.7338 -0.0018
  523MPD2     C 7763   0.202   3.472   9.980 -0.1256  0.3848  0.0918
  523MPD2    C1 7764   0.085   3.419   9.945 -0.1745  0.7490  0.1658
  523MPD2    C2 7765   4.710   3.494   9.876  0.3890 -0.8792 -0.6114
  523MPD2    C3 7766   0.010   3.626   9.851  0.4055 -0.1029  0.0629
  523MPD2    C4 7767   0.135   3.683   9.894 -0.4598  0.1554  0.6232
  523MPD2    C5 7768   0.225   3.599   9.951  0.6375 -0.0943 -0.3669
  523MPD2     H 7769   4.617   3.448   9.846  0.2125 -1.2870  0.5476
  523MPD2    H1 7770   0.163   3.785   9.870  1.0964 -0.2986  0.5675
  523MPD2    H2 7771   0.281   3.418  10.031  0.9455  1.7780 -0.0818
  523MPD2    H3 7772   0.324   3.630   9.980  0.5705  0.2199 -0.4743
  523MPD2     N 7773   4.649   3.708   9.773  0.3644  0.5617  0.0889
  523MPD2    H5 7774   4.660   3.808   9.765  0.6772  0.3786 -1.7257
  523MPD2    N1 7775   0.082   3.285   9.985  0.0097  0.4970 -0.2443
  523MPD2    H7 7776   0.138   3.252  10.063 -0.4467 -0.4346 -0.3147
  524TMC3    C1 7777   4.490   3.773   9.630  0.3225 -0.3192 -0.2520
  524TMC3    C2 7778   4.424   3.741   9.510 -0.7543  0.1002 -0.1813
  524TMC3    C3 7779   4.367   3.846   9.440 -0.4711 -0.3178  0.1164
  524TMC3    C4 7780   4.514   3.899   9.669 -0.0816 -0.2424  0.5197
  524TMC3    C5 7781   4.453   3.998   9.593  0.1908  0.3749 -0.1863
  524TMC3    C6 7782   4.382   3.976   9.476 -0.5753 -0.1554 -0.0948
  524TMC3     C 7783   4.547   3.664   9.697  0.1132 -0.5091  0.2399
  524TMC3     O 7784   4.533   3.552   9.651  0.5007  0.0192 -0.1800
  524TMC3     H 7785   4.387   3.642   9.489 -0.5119  0.2438 -1.3044
  524TMC3    H1 7786   4.550   3.931   9.767 -0.8841  0.8358  0.4636
  524TMC3    H2 7787   4.334   4.055   9.419  1.6656  0.9148 -0.4956
  524TMC3    C7 7788   4.493   4.136   9.622  0.2030 -0.4867  0.4593
  524TMC3    C8 7789   4.267   3.828   9.338  0.1660 -0.1099  0.0561
  524TMC3    O1 7790   4.572   4.155   9.714  0.2799 -0.2328  0.1394
  524TMC3    O2 7791   4.165   3.906   9.332  0.6678 -0.1234  0.2932
  525MPD2     C 7792   2.659   0.116  14.182  0.1619  0.4181  0.1258
  525MPD2    C1 7793   2.785   0.134  14.237 -0.3070 -0.2304 -0.4819
  525MPD2    C2 7794   2.846   0.262  14.234 -0.1766  0.1909  0.0511
  525MPD2    C3 7795   2.774   0.362  14.179 -0.3013 -0.4069 -0.3473
  525MPD2    C4 7796   2.659   0.337  14.109 -0.3714 -0.1364  0.0616
  525MPD2    C5 7797   2.601   0.215  14.111  0.3382  0.2013 -0.1133
  525MPD2     H 7798   2.937   0.273  14.292 -1.3094  2.1470  1.4272
  525MPD2    H1 7799   2.608   0.422  14.065 -0.0807 -1.6213 -3.1233
  525MPD2    H2 7800   2.604   0.023  14.167  0.1867  0.1253  1.8927
  525MPD2    H3 7801   2.508   0.193  14.060  0.3859 -3.9419  1.6020
  525MPD2     N 7802   2.809   0.495  14.188  0.1598 -0.3515  0.3174
  525MPD2    H5 7803   2.735   0.562  14.169  1.2754  0.3373 -1.6721
  525MPD2    N1 7804   2.852   0.018  14.297  0.0666 -0.5756  0.3284
  525MPD2    H7 7805   2.950   0.028  14.318  0.1246  0.0855 -0.2464
  526TMC3    C1 7806   2.886   4.527  14.374  1.0991 -0.9896  0.0695
  526TMC3    C2 7807   2.852   4.474  14.495 -0.0200  0.3626 -1.2246
  526TMC3    C3 7808   2.942   4.405  14.566 -0.2299  0.4401 -0.0435
  526TMC3    C4 7809   3.009   4.510  14.323  0.0854 -0.6870 -0.1972
  526TMC3    C5 7810   3.103   4.439  14.401 -0.1023  0.0635  0.5186
  526TMC3    C6 7811   3.076   4.390  14.526  0.2639 -0.0068 -0.4075
  526TMC3     C 7812   2.790   4.621  14.323  0.2228 -0.0404 -0.2726
  526TMC3     O 7813   2.670   4.588  14.324  0.5565  0.1266 -0.1450
  526TMC3     H 7814   2.750   4.479  14.531  0.7791  0.1727  1.0269
  526TMC3    H1 7815   3.018   4.553  14.224  1.3201  1.0794  0.6887
  526TMC3    H2 7816   3.156   4.335  14.573  0.0274  0.2830  0.3267
  526TMC3    C7 7817   3.198   4.359  14.327  0.0287 -0.0135 -0.2701
  526TMC3    C8 7818   2.906   4.357  14.702  0.1463  0.0678 -0.6649
  526TMC3    O1 7819   3.263   4.280  14.388 -0.0765 -0.2791 -0.6806
  526TMC3    O2 7820   2.991   4.332  14.780  0.1313 -0.6905  0.1082
  527MPD2     C 7821   1.413   2.780   0.576 -0.6531 -0.1436 -0.8319
  527MPD2    C1 7822   1.447   2.916   0.573  0.0754  0.5147 -0.4691
  527MPD2    C2 7823   1.573   2.958   0.590 -0.1500 -0.3710  0.1639
  527MPD2    C3 7824   1.675   2.868   0.603  0.5257 -0.0241 -0.2012
  527MPD2    C4 7825   1.645   2.730   0.589 -0.6503 -0.9920 -0.2414
  527MPD2    C5 7826   1.517   2.694   0.574 -0.0517 -0.1138  0.7670
  527MPD2     H 7827   1.601   3.062   0.599  0.6059 -0.4974 -0.6815
  527MPD2    H1 7828   1.717   2.649   0.600 -1.7519 -1.7811  1.2164
  527MPD2    H2 7829   1.312   2.743   0.587 -1.1163  1.4920  0.4414
  527MPD2    H3 7830   1.483   2.591   0.581  0.1656 -0.1665  1.0175
  527MPD2     N 7831   1.809   2.915   0.599 -0.1101 -0.4851  0.1992
  527MPD2    H5 7832   1.817   3.015   0.585  1.0214 -1.1935 -4.3136
  527MPD2    N1 7833   1.350   3.014   0.552  0.3526  0.4991 -0.4666
  527MPD2    H7 7834   1.382   3.111   0.551 -0.6403  0.8328  0.3235
  528TMC3    C1 7835   1.138   3.112   0.501  0.4556  0.6874  0.4526
  528TMC3    C2 7836   1.164   3.208   0.594 -0.5049  0.1852  0.8476
  528TMC3    C3 7837   1.064   3.295   0.620 -0.3249  0.3861 -0.0021
  528TMC3    C4 7838   1.013   3.089   0.456 -0.3068  0.6212 -0.0313
  528TMC3    C5 7839   0.914   3.176   0.480 -0.6840 -0.5704 -0.8936
  528TMC3    C6 7840   0.944   3.278   0.565 -0.1108  0.4863 -0.5709
  528TMC3     C 7841   1.218   2.986   0.512 -0.2976 -0.5632 -0.1091
  528TMC3     O 7842   1.161   2.880   0.476  0.0708  0.1399  0.8356
  528TMC3     H 7843   1.264   3.219   0.634 -0.3901 -2.1984  1.2258
  528TMC3    H1 7844   0.985   3.004   0.394  1.8018 -2.5013  3.3285
  528TMC3    H2 7845   0.869   3.346   0.605  1.1090  1.2293  0.4506
  528TMC3    C7 7846   0.774   3.149   0.450  0.4423  0.6698  0.0913
  528TMC3    C8 7847   1.065   3.353   0.751  0.3389  0.4660 -0.1977
  528TMC3    O1 7848   0.737   3.029   0.448  0.0888  0.3904  0.4979
  528TMC3    O2 7849   0.986   3.442   0.782 -0.1640 -0.1645  0.1379
  529MPD2     C 7850   3.418   1.818   0.816  0.2657  0.8632  0.2456
  529MPD2    C1 7851   3.450   1.755   0.699  0.7769  0.3819 -0.2227
  529MPD2    C2 7852   3.421   1.821   0.586 -0.2162 -0.0080  0.6192
  529MPD2    C3 7853   3.342   1.941   0.582  0.3338 -0.3398 -0.0182
  529MPD2    C4 7854   3.336   2.012   0.697 -0.0868 -0.0705  0.1722
  529MPD2    C5 7855   3.372   1.947   0.816  0.4836 -0.7389 -0.1645
  529MPD2     H 7856   3.439   1.770   0.492  1.4947  0.4977  0.6714
  529MPD2    H1 7857   3.301   2.114   0.697 -0.0604 -0.0548  2.3266
  529MPD2    H2 7858   3.443   1.777   0.913 -0.3637  1.6981  0.7737
  529MPD2    H3 7859   3.344   2.002   0.906  2.0243  0.0697 -0.1840
  529MPD2     N 7860   3.290   1.994   0.459  0.0691 -0.0082  0.3408
  529MPD2    H5 7861   3.252   2.088   0.457  0.0436 -0.0406 -0.5611
  529MPD2    N1 7862   3.506   1.618   0.684 -0.2891 -0.3094  0.1037
  529MPD2    H7 7863   3.536   1.594   0.590  0.6296  1.5933 -0.0876
  530TMC3    C1 7864   3.595   1.402   0.761 -0.4548 -0.1236 -0.2467
  530TMC3    C2 7865   3.653   1.339   0.863  0.0798  0.8546  0.1734
  530TMC3    C3 7866   3.695   1.213   0.835  0.1696 -0.0538  0.0026
  530TMC3    C4 7867   3.563   1.345   0.641  1.0512  0.2102  0.2450
  530TMC3    C5 7868   3.594   1.206   0.626  0.1358  0.1790 -0.5585
  530TMC3    C6 7869   3.664   1.143   0.721  0.4143  0.2693 -0.4060
  530TMC3     C 7870   3.537   1.536   0.794 -0.9997  0.5840  0.5595
  530TMC3     O 7871   3.520   1.552   0.913  0.2663 -0.1781  0.3071
  530TMC3     H 7872   3.685   1.397   0.949  0.7130 -0.1725  0.6364
  530TMC3    H1 7873   3.499   1.390   0.567 -0.6882  0.2280  1.7713
  530TMC3    H2 7874   3.700   1.041   0.708  0.8677  0.7624 -2.8745
  530TMC3    C7 7875   3.601   1.144   0.487 -0.0469 -0.1850 -0.4832
  530TMC3    C8 7876   3.766   1.145   0.939  0.3682 -0.3355  0.7695
  530TMC3    O1 7877   3.600   1.226   0.394 -0.2595 -0.0259 -0.1187
  530TMC3    O2 7878   3.731   1.178   1.052 -0.2658 -0.5515 -0.1232
  531MPD2     C 7879   1.867   3.321  12.747  0.1599 -0.3173 -0.2087
  531MPD2    C1 7880   1.816   3.420  12.825 -0.6451 -0.1017 -0.0782
  531MPD2    C2 7881   1.747   3.525  12.760 -0.5914  0.1510  0.5796
  531MPD2    C3 7882   1.729   3.531  12.624 -0.6495 -0.2591  0.6232
  531MPD2    C4 7883   1.786   3.429  12.549 -0.7302 -0.3767 -0.1243
  531MPD2    C5 7884   1.844   3.319  12.610  0.6729 -0.3417  0.1265
  531MPD2     H 7885   1.700   3.605  12.817  0.3660 -0.2597  1.9661
  531MPD2    H1 7886   1.774   3.422  12.442  0.1257 -3.3447 -0.0314
  531MPD2    H2 7887   1.908   3.236  12.799  2.0022  0.7940  0.1520
  531MPD2    H3 7888   1.876   3.241  12.542  0.6052  0.3723 -0.7261
  531MPD2     N 7889   1.644   3.630  12.576 -0.3075 -0.1789  0.8128
  531MPD2    H5 7890   1.609   3.697  12.644 -1.8638 -1.4001  1.2057
  531MPD2    N1 7891   1.841   3.416  12.966 -0.2959  0.2680  0.6840
  531MPD2    H7 7892   1.871   3.329  13.009  1.5386 -0.1156 -1.3626
  532TMC3    C1 7893   1.842   3.503  13.187 -0.3890  0.3286 -0.5734
  532TMC3    C2 7894   1.759   3.596  13.244 -0.2826  0.5143  0.7512
  532TMC3    C3 7895   1.786   3.660  13.357  0.2842  0.1341 -0.5232
  532TMC3    C4 7896   1.969   3.485  13.235 -0.5116  0.1899 -0.2117
  532TMC3    C5 7897   1.993   3.542  13.360 -0.2125 -0.1671 -0.6013
  532TMC3    C6 7898   1.898   3.620  13.422 -0.7420  0.4502 -0.2698
  532TMC3     C 7899   1.818   3.528  13.047 -0.9531  0.8906  0.5602
  532TMC3     O 7900   1.810   3.649  13.025  0.0008  0.2025 -0.5182
  532TMC3     H 7901   1.666   3.619  13.194  0.0867  0.6448  0.1243
  532TMC3    H1 7902   2.040   3.414  13.194  1.1972  1.9500 -0.3079
  532TMC3    H2 7903   1.925   3.663  13.518  0.8975 -0.4973 -0.2950
  532TMC3    C7 7904   2.127   3.538  13.419 -0.2586  0.1251 -0.4165
  532TMC3    C8 7905   1.752   3.805  13.347  0.3283 -0.4589  0.0351
  532TMC3    O1 7906   2.131   3.543  13.541 -0.1505  0.2339 -0.8256
  532TMC3    O2 7907   1.773   3.878  13.444 -0.7039 -0.8418 -0.2244
  533TMC3    C1 7908   2.914   0.701  14.249  0.4598  0.2499 -0.2669
  533TMC3    C2 7909   3.029   0.766  14.249 -0.2592  0.1389 -0.6004
  533TMC3    C3 7910   3.042   0.861  14.352 -0.2017 -0.2696  0.9696
  533TMC3    C4 7911   2.812   0.730  14.334 -0.6417 -0.0685  0.3451
  533TMC3    C5 7912   2.828   0.818  14.435 -0.6551 -0.5058 -0.3665
  533TMC3    C6 7913   2.944   0.883  14.448 -0.2375  0.2343 -0.1128
  533TMC3     C 7914   2.927   0.556  14.230  0.7615 -0.0837 -0.1044
  533TMC3     O 7915   3.033   0.502  14.246 -0.1134  0.5571 -0.5831
  533TMC3     H 7916   3.112   0.750  14.182  0.2989  0.5174 -0.0066
  533TMC3    H1 7917   2.721   0.672  14.327  0.3246 -1.4602 -0.7425
  533TMC3    H2 7918   2.963   0.956  14.525 -0.3462  0.4742 -0.3140
  533TMC3    C7 7919   2.768   0.768  14.560  0.0490 -0.7776 -0.1237
  533TMC3    C8 7920   3.174   0.892  14.404  0.4715 -0.4544  0.2653
  533TMC3    O1 7921   2.683   0.681  14.562 -0.5905 -0.1392 -0.5621
  533TMC3    O2 7922   3.186   0.857  14.520 -0.3993  0.4380 -0.1403
  534MPD2     C 7923   0.801   1.919   1.665 -0.2901  1.2152 -0.5716
  534MPD2    C1 7924   0.799   1.993   1.549 -0.3785  0.4198 -0.1507
  534MPD2    C2 7925   0.677   2.019   1.489  0.2802 -0.3433  0.3677
  534MPD2    C3 7926   0.563   1.957   1.540 -0.4610 -0.4200 -0.7235
  534MPD2    C4 7927   0.565   1.898   1.666  0.4479  0.6339 -0.1596
  534MPD2    C5 7928   0.683   1.873   1.727 -0.6398 -0.4454 -0.8462
  534MPD2     H 7929   0.671   2.081   1.400 -1.4919  0.1807  0.8578
  534MPD2    H1 7930   0.481   1.857   1.720  0.1534  1.9154  0.3506
  534MPD2    H2 7931   0.892   1.897   1.719  0.9710  1.4319 -2.6018
  534MPD2    H3 7932   0.680   1.834   1.828 -1.5957  1.2523 -0.2250
  534MPD2     N 7933   0.432   1.956   1.480 -0.0719  0.5625 -0.5413
  534MPD2    H5 7934   0.360   1.902   1.527  1.5554 -0.7686  0.4536
  534MPD2    N1 7935   0.912   2.061   1.502  0.9644 -0.9449 -0.4024
  534MPD2    H7 7936   0.907   2.135   1.432  1.2202 -0.0525  0.5154
  535TMC3    C1 7937   0.263   2.021   1.323  0.1907 -0.4836 -0.3781
  535TMC3    C2 7938   0.173   1.952   1.395  0.1254  0.1826 -0.0182
  535TMC3    C3 7939   0.052   1.937   1.336  0.7224  0.3489 -0.4965
  535TMC3    C4 7940   0.232   2.072   1.202 -0.2325 -0.1078  1.0617
  535TMC3    C5 7941   0.110   2.062   1.137 -0.2122 -0.7441 -0.2947
  535TMC3    C6 7942   0.026   1.973   1.209 -0.0218  1.0861  0.3455
  535TMC3     C 7943   0.405   2.016   1.362  0.2769  0.1432 -0.7737
  535TMC3     O 7944   0.478   2.060   1.274  0.2056  0.0130 -0.5349
  535TMC3     H 7945   0.182   1.899   1.489 -0.3562  0.4075  0.1527
  535TMC3    H1 7946   0.308   2.122   1.143 -2.7602  2.2836 -0.2354
  535TMC3    H2 7947   4.646   1.964   1.176  0.1904 -2.4671  0.7222
  535TMC3    C7 7948   0.119   2.027   0.995 -0.1522 -0.0095  0.0324
  535TMC3    C8 7949   4.695   1.822   1.360  0.2649  0.0451 -0.3573
  535TMC3    O1 7950   0.225   2.000   0.943 -0.6907  0.5463  0.3166
  535TMC3    O2 7951   4.573   1.827   1.348 -0.0414 -0.5209 -0.3708
  536MPD2     C 7952   0.012   0.053  15.915 -0.4804  0.5752 -0.3776
  536MPD2    C1 7953   4.622   0.095  15.984  0.1441  0.8455 -0.1607
  536MPD2    C2 7954   4.518   0.142  15.906  0.1492 -0.6067  0.7527
  536MPD2    C3 7955   4.511   0.131  15.764 -0.6073 -0.5089  0.0528
  536MPD2    C4 7956   4.625   0.083  15.701 -0.3992 -0.3690 -0.5128
  536MPD2    C5 7957   0.014   0.044  15.777 -0.3473  0.5167 -0.0981
  536MPD2     H 7958   4.432   0.187  15.954  0.2772 -1.3817  1.7121
  536MPD2    H1 7959   4.632   0.083  15.593 -0.9590 -0.5242 -0.5457
  536MPD2    H2 7960   0.096   0.013  15.970 -1.5161 -1.5530 -0.3611
  536MPD2    H3 7961   0.101   0.006  15.725 -1.7361 -1.8077 -0.6878
  536MPD2     N 7962   4.409   0.171  15.680 -0.2777 -0.2889  0.3531
  536MPD2    H5 7963   4.416   0.148  15.581 -1.1062 -0.7255  0.4023
  536MPD2    N1 7964   4.616   0.093  16.125 -0.6400  0.6851 -0.0495
  536MPD2    H7 7965   4.694   0.066  16.184  0.2177  3.5157  0.1547
  537TMC3    C1 7966   4.516   0.110  16.342 -0.5150 -0.4640  0.0041
  537TMC3    C2 7967   4.639   0.103  16.397  0.8678  0.4006 -0.0248
  537TMC3    C3 7968   4.631   0.083  16.532  0.0138  0.1481 -0.2545
  537TMC3    C4 7969   4.398   0.116  16.405  0.0313 -0.4812  0.5569
  537TMC3    C5 7970   4.396   0.100  16.539  0.5975  0.1658  0.5229
  537TMC3    C6 7971   4.514   0.073  16.603  0.3348  0.6966  0.8983
  537TMC3     C 7972   4.504   0.126  16.198 -0.7965  0.3170  0.3217
  537TMC3     O 7973   4.397   0.177  16.166 -0.0972  0.2589 -0.2512
  537TMC3     H 7974   0.008   0.119  16.341  2.2074  0.1241  2.0659
  537TMC3    H1 7975   4.304   0.098  16.354 -0.9807  4.3433  0.7122
  537TMC3    H2 7976   4.517   0.060  16.711  0.4211  0.8334  0.9119
  537TMC3    C7 7977   4.267   0.054  16.589  0.3298 -0.5403 -0.3316
  537TMC3    C8 7978   0.032   0.094  16.605 -0.7073 -0.1274  0.2665
  537TMC3    O1 7979   4.167   0.089  16.524  0.4088 -0.2847 -0.2259
  537TMC3    O2 7980   0.023   0.142  16.720  0.0426  0.2622 -0.5612
  538TMC3    C1 7981   0.751   2.897  10.511 -0.1712 -0.3946  0.1466
  538TMC3    C2 7982   0.867   2.846  10.463 -0.1218  0.2661 -0.1228
  538TMC3    C3 7983   0.923   2.922  10.362  0.1449 -0.0525 -0.1440
  538TMC3    C4 7984   0.698   3.023  10.472 -0.1033 -0.0837  0.1175
  538TMC3    C5 7985   0.762   3.086  10.365  0.2814 -0.3567 -0.3279
  538TMC3    C6 7986   0.876   3.037  10.310 -0.7632 -0.2448  0.0008
  538TMC3     C 7987   0.728   2.878  10.652 -0.2248 -0.4242 -0.1197
  538TMC3     O 7988   0.622   2.874  10.708  0.1503 -0.1581  0.5838
  538TMC3     H 7989   0.912   2.754  10.500 -1.1330  1.2547  3.5060
  538TMC3    H1 7990   0.621   3.079  10.523 -1.3734 -1.6468 -0.1037
  538TMC3    H2 7991   0.908   3.077  10.214 -0.3520 -0.0958  0.1977
  538TMC3    C7 7992   0.708   3.215  10.316  0.6443 -0.3133 -0.3638
  538TMC3    C8 7993   1.041   2.869  10.289 -0.1127 -0.7029  0.9111
  538TMC3    O1 7994   0.782   3.284  10.246  0.2274 -0.2213 -0.1241
  538TMC3    O2 7995   1.059   2.749  10.312  0.2459 -0.7313  0.0420
  539MPD2     C 7996   0.432   2.431  11.638 -0.0292 -0.0395 -0.3681
  539MPD2    C1 7997   0.472   2.407  11.506  0.6400 -0.1355  0.0010
  539MPD2    C2 7998   0.466   2.513  11.419  0.4503  0.7256 -0.4115
  539MPD2    C3 7999   0.422   2.642  11.451  0.5374 -0.4786  0.3497
  539MPD2    C4 8000   0.388   2.664  11.589 -0.2582  0.6284  0.0605
  539MPD2    C5 8001   0.396   2.558  11.675 -0.8322  1.3313 -0.0233
  539MPD2     H 8002   0.489   2.496  11.315  0.7520 -0.6940 -0.1063
  539MPD2    H1 8003   0.352   2.759  11.627  0.6899  1.7568 -1.8228
  539MPD2    H2 8004   0.436   2.351  11.712  2.6972  0.1115 -0.3310
  539MPD2    H3 8005   0.359   2.574  11.776 -0.4464  1.6845  0.0622
  539MPD2     N 8006   0.402   2.751  11.357 -0.1438 -0.0588 -0.2199
  539MPD2    H5 8007   0.384   2.842  11.397  0.7109 -0.8128  1.8734
  539MPD2    N1 8008   0.512   2.280  11.461  0.6391 -0.5025  0.4093
  539MPD2    H7 8009   0.524   2.276  11.360  1.0351  1.1810  0.3916
  540TMC3    C1 8010   0.424   2.867  11.157 -0.5399  1.0537  0.0607
  540TMC3    C2 8011   0.381   2.868  11.026  0.1947 -0.2532  0.5130
  540TMC3    C3 8012   0.366   2.991  10.967 -0.0777 -0.5665 -0.4505
  540TMC3    C4 8013   0.457   2.984  11.229 -0.2176  0.2359  0.3639
  540TMC3    C5 8014   0.430   3.103  11.170  0.7664 -0.5395 -0.3993
  540TMC3    C6 8015   0.388   3.106  11.042  0.3322 -0.1191  0.2652
  540TMC3     C 8016   0.429   2.739  11.219 -0.0212 -0.2253 -0.2668
  540TMC3     O 8017   0.463   2.645  11.148 -0.0858 -0.6465 -1.2854
  540TMC3     H 8018   0.363   2.772  10.977 -0.9857  0.6782 -0.8947
  540TMC3    H1 8019   0.481   2.991  11.335  0.7629 -1.3005  0.2480
  540TMC3    H2 8020   0.346   3.196  11.000 -1.4618 -0.8789  0.4328
  540TMC3    C7 8021   0.379   3.198  11.264  0.0778 -0.1820 -0.1485
  540TMC3    C8 8022   0.301   3.002  10.835 -0.7140 -0.3736 -0.5069
  540TMC3    O1 8023   0.316   3.140  11.353 -0.1574 -0.0503 -0.0236
  540TMC3    O2 8024   0.312   3.109  10.777 -0.4792  0.1659 -0.0701
  541MPD2     C 8025   3.554   3.918  13.069 -0.1476  0.4701  0.3030
  541MPD2    C1 8026   3.629   3.841  12.989  0.0240 -0.5180  0.0143
  541MPD2    C2 8027   3.690   3.897  12.880  0.5124  0.2429 -0.0722
  541MPD2    C3 8028   3.668   4.032  12.848  0.2009  0.1760  0.1528
  541MPD2    C4 8029   3.587   4.109  12.930 -0.4479 -0.1744 -0.6541
  541MPD2    C5 8030   3.549   4.049  13.047  0.3599 -0.0107 -0.4330
  541MPD2     H 8031   3.758   3.841  12.816  0.6872  0.1351  0.2104
  541MPD2    H1 8032   3.579   4.217  12.922  1.0769  0.0584  0.8192
  541MPD2    H2 8033   3.511   3.883  13.162  0.9725 -1.5346  0.0706
  541MPD2    H3 8034   3.497   4.114  13.116 -1.4938  0.6988 -2.4903
  541MPD2     N 8035   3.723   4.082  12.731  0.7724 -0.5715  0.0495
  541MPD2    H5 8036   3.753   4.019  12.658  0.5715  0.3628 -0.8322
  541MPD2    N1 8037   3.631   3.705  13.023  0.3915  0.0722 -0.3268
  541MPD2    H7 8038   3.579   3.679  13.107  2.1203 -3.1403 -0.2769
  542TMC3    C1 8039   3.712   4.228  12.553  0.2131 -0.0832  0.5416
  542TMC3    C2 8040   3.770   4.140  12.474  0.4700  0.6086 -0.3675
  542TMC3    C3 8041   3.729   4.131  12.340 -0.1236  0.0525  0.1010
  542TMC3    C4 8042   3.598   4.298  12.503  0.6853  0.6100  0.2459
  542TMC3    C5 8043   3.546   4.273  12.379  0.9311 -1.1869 -0.2763
  542TMC3    C6 8044   3.618   4.194  12.285  0.0631 -0.2510  0.0057
  542TMC3     C 8045   3.721   4.217  12.698 -0.5366 -0.3578  0.5910
  542TMC3     O 8046   3.682   4.320  12.755  0.3838  0.0849  0.2918
  542TMC3     H 8047   3.833   4.060  12.512 -1.1395 -0.9230 -0.9226
  542TMC3    H1 8048   3.543   4.359  12.573 -0.2205  0.7308 -0.5755
  542TMC3    H2 8049   3.581   4.188  12.183 -2.1386 -2.9306  0.9765
  542TMC3    C7 8050   3.426   4.336  12.326 -0.0952  0.5320 -0.1130
  542TMC3    C8 8051   3.792   4.036  12.247 -0.4009  0.3812  0.4053
  542TMC3    O1 8052   3.417   4.340  12.204  0.4788  0.2281  0.4530
  542TMC3    O2 8053   3.717   3.971  12.180  0.0580  0.0420 -0.5862
  543TMC3    C1 8054   2.746   4.287  16.569  0.2011  0.2355  0.2557
  543TMC3    C2 8055   2.828   4.182  16.607 -0.7284  0.3226  0.0815
  543TMC3    C3 8056   2.837   4.144  16.746 -0.4731 -0.0582 -0.6381
  543TMC3    C4 8057   2.677   4.358  16.664 -0.0835  0.1729  0.4642
  543TMC3    C5 8058   2.689   4.313  16.799  0.8193 -0.5177  0.2015
  543TMC3    C6 8059   2.760   4.203  16.840  0.5999 -0.7994  0.6643
  543TMC3     C 8060   2.797   4.367  16.464 -0.0168 -0.3430 -0.1130
  543TMC3     O 8061   2.914   4.351  16.431 -0.3705  0.2534  0.2472
  543TMC3     H 8062   2.885   4.144  16.523  1.7425  2.4658  0.7878
  543TMC3    H1 8063   2.608   4.439  16.647 -0.0345 -0.2036 -1.4716
  543TMC3    H2 8064   2.751   4.172  16.943 -3.1981 -2.2048 -0.0602
  543TMC3    C7 8065   2.613   4.379  16.909  0.3443  0.0687  0.3544
  543TMC3    C8 8066   2.933   4.043  16.781  0.4268 -0.5813 -0.5190
  543TMC3    O1 8067   2.610   4.319  17.014 -0.7633  0.2900  0.4542
  543TMC3    O2 8068   2.988   3.995  16.684 -0.6331  0.0680 -0.0355
  544MPD2     C 8069   3.117   3.663  17.064 -0.6026  0.5511  0.2565
  544MPD2    C1 8070   3.143   3.689  16.932  0.1371  1.0367  1.6390
  544MPD2    C2 8071   3.087   3.806  16.881  0.2635  0.0568  0.3024
  544MPD2    C3 8072   2.986   3.872  16.954  0.4119 -0.2052 -0.4743
  544MPD2    C4 8073   2.946   3.828  17.078 -0.7370 -0.0398 -0.1322
  544MPD2    C5 8074   3.018   3.726  17.135  0.3787  0.7659  0.0389
  544MPD2     H 8075   3.126   3.843  16.786  0.1068  1.7538  0.8885
  544MPD2    H1 8076   2.857   3.866  17.126  0.3178 -1.5531  3.0363
  544MPD2    H2 8077   3.168   3.584  17.117 -1.2601  0.1611  0.3031
  544MPD2    H3 8078   2.989   3.689  17.232  2.6271  0.1097  0.4449
  544MPD2     N 8079   2.920   3.985  16.903 -0.1663  0.6937 -0.4057
  544MPD2    H5 8080   2.854   4.029  16.966  0.0239 -0.7074  0.7704
  544MPD2    N1 8081   3.251   3.621  16.870  0.1907 -0.0790 -0.8278
  544MPD2    H7 8082   3.292   3.540  16.917 -1.9783  0.1488  1.4767
  545TMC3    C1 8083   3.448   3.612  16.752 -0.7227 -0.6701  0.5186
  545TMC3    C2 8084   3.503   3.612  16.625  0.5530 -0.1344 -0.2031
  545TMC3    C3 8085   3.620   3.541  16.604  0.6893 -0.2599 -0.0862
  545TMC3    C4 8086   3.523   3.576  16.860  0.3507  0.2155 -0.1925
  545TMC3    C5 8087   3.634   3.509  16.828  0.4004  0.3413 -0.5949
  545TMC3    C6 8088   3.685   3.478  16.704  0.6286 -0.0351 -0.8566
  545TMC3     C 8089   3.313   3.663  16.761 -0.4448 -0.0778 -0.1281
  545TMC3     O 8090   3.262   3.730  16.671  0.4482  0.2310 -0.2771
  545TMC3     H 8091   3.445   3.656  16.545  1.2767  0.4336 -0.4152
  545TMC3    H1 8092   3.486   3.604  16.958  4.4864 -2.1198  1.9935
  545TMC3    H2 8093   3.775   3.417  16.695  0.8113  0.0355  0.4446
  545TMC3    C7 8094   3.695   3.437  16.944 -0.0535 -0.8961 -0.3591
  545TMC3    C8 8095   3.643   3.504  16.461 -0.8539 -0.1986 -0.0712
  545TMC3    O1 8096   3.758   3.334  16.921 -0.2960  0.4338 -0.2580
  545TMC3    O2 8097   3.543   3.506  16.391 -1.0479 -0.0719  0.5583
  546MPD2     C 8098   4.512   0.179  17.192  0.1056  0.0449  0.8893
  546MPD2    C1 8099   4.433   0.236  17.095  0.4057  0.0096 -0.6742
  546MPD2    C2 8100   4.441   0.373  17.070 -0.0391  0.1594  0.0280
  546MPD2    C3 8101   4.536   0.450  17.129 -0.0784  0.2489  0.0415
  546MPD2    C4 8102   4.609   0.395  17.232  0.3367 -0.8063  0.1688
  546MPD2    C5 8103   4.599   0.260  17.262 -0.4947 -0.2086 -0.8592
  546MPD2     H 8104   4.359   0.413  17.013 -0.4646 -3.3222 -1.8045
  546MPD2    H1 8105   4.667   0.467  17.288 -1.9000  0.9129  0.2858
  546MPD2    H2 8106   4.488   0.080  17.227  1.1967 -0.3527  0.5054
  546MPD2    H3 8107   4.650   0.221  17.349 -1.4297  0.5926  0.0291
  546MPD2     N 8108   4.549   0.588  17.105 -0.1554 -0.1179  0.1455
  546MPD2    H5 8109   4.598   0.654  17.165  0.0326  1.1774 -1.4199
  546MPD2    N1 8110   4.333   0.152  17.053  0.0664 -0.3675  0.0133
  546MPD2    H7 8111   4.330   0.059  17.094 -2.6348 -0.8282 -1.2692
  547TMC3    C1 8112   4.124   0.083  16.962 -0.3042 -0.3657  0.4875
  547TMC3    C2 8113   4.018   0.103  16.877 -0.2990 -0.1084 -0.5857
  547TMC3    C3 8114   3.907   0.020  16.897  0.0013 -0.0016 -0.7162
  547TMC3    C4 8115   4.110   4.720  17.067 -0.4801 -0.3021  0.0956
  547TMC3    C5 8116   4.002   4.637  17.088  0.4952  0.3796  0.0063
  547TMC3    C6 8117   3.893   4.653  17.003 -1.1815 -0.1299 -0.5479
  547TMC3     C 8118   4.233   0.175  16.961  0.2724 -0.3888 -0.2405
  547TMC3     O 8119   4.241   0.254  16.868 -0.2063 -0.1291  0.8095
  547TMC3     H 8120   4.012   0.186  16.809 -0.3506  0.6370  0.3209
  547TMC3    H1 8121   4.191   4.701  17.137 -0.8462  1.5008  1.0264
  547TMC3    H2 8122   3.813   4.580  17.010 -0.2484 -1.1953 -1.1717
  547TMC3    C7 8123   4.035   4.512  17.151 -0.0143 -0.1846 -0.4149
  547TMC3    C8 8124   3.802   0.042  16.799  1.1232  0.1690 -0.5794
  547TMC3    O1 8125   4.134   4.512  17.226  0.2500 -0.0650 -0.3233
  547TMC3    O2 8126   3.798   0.141  16.730  0.3501 -0.5454 -0.0372
  548MPD2     C 8127   4.402   1.194  12.361  0.3258 -0.2224 -0.1594
  548MPD2    C1 8128   4.364   1.065  12.375 -0.4737 -0.0899 -0.4100
  548MPD2    C2 8129   4.451   0.963  12.349  0.3948 -0.2478 -0.0733
  548MPD2    C3 8130   4.581   0.992  12.330  0.0997  0.2772 -0.1303
  548MPD2    C4 8131   4.628   1.125  12.313  0.4106  0.1593 -0.1201
  548MPD2    C5 8132   4.534   1.218  12.318 -0.0829 -0.5285  0.4697
  548MPD2     H 8133   4.415   0.862  12.362  0.2385 -0.2044 -0.1682
  548MPD2    H1 8134   0.005   1.157  12.286  0.2515  0.2741 -0.5628
  548MPD2    H2 8135   4.336   1.280  12.360 -0.4746 -0.8431 -0.9588
  548MPD2    H3 8136   4.563   1.322  12.307  3.5726 -1.6598 -0.5229
  548MPD2     N 8137   4.682   0.891  12.343 -0.1306  0.1533 -0.0357
  548MPD2    H5 8138   0.056   0.920  12.350  0.4570 -1.6185 -0.8239
  548MPD2    N1 8139   4.226   1.048  12.409  0.0391 -0.0249 -0.0306
  548MPD2    H7 8140   4.179   1.138  12.411 -0.3932 -0.2100 -1.4680
  549TMC3    C1 8141   4.035   0.944  12.509  0.6412 -0.0027  0.4368
  549TMC3    C2 8142   3.961   1.057  12.479  0.4240  0.7903 -0.4735
  549TMC3    C3 8143   3.849   1.077  12.552 -0.8616  0.0538 -0.4861
  549TMC3    C4 8144   4.012   0.859  12.613  0.0499 -0.2353 -0.3541
  549TMC3    C5 8145   3.901   0.886  12.681 -0.4426 -0.3518 -0.1752
  549TMC3    C6 8146   3.813   0.986  12.646 -0.5841 -0.2081  0.6742
  549TMC3     C 8147   4.171   0.935  12.458 -0.1217  0.0474  0.0930
  549TMC3     O 8148   4.220   0.822  12.463  0.1004  0.2736 -0.1216
  549TMC3     H 8149   4.003   1.133  12.415  0.6376  0.1856 -1.0494
  549TMC3    H1 8150   4.086   0.784  12.637 -0.5673 -0.2107  1.6206
  549TMC3    H2 8151   3.728   1.008  12.710 -1.2381  1.0429 -0.6471
  549TMC3    C7 8152   3.838   0.779  12.764 -0.9546 -0.3275 -0.4659
  549TMC3    C8 8153   3.751   1.174  12.514  0.0988  0.0690  0.3212
  549TMC3    O1 8154   3.725   0.796  12.807  0.5612 -0.2091  0.3562
  549TMC3    O2 8155   3.637   1.171  12.568  0.3131  0.4463 -0.0148
  550TMC3    C1 8156   3.092   3.428  11.821 -0.0839  0.4017 -0.4941
  550TMC3    C2 8157   3.128   3.486  11.943 -0.3208 -0.1763  0.0478
  550TMC3    C3 8158   3.034   3.572  11.998 -0.1778 -0.5239  0.0972
  550TMC3    C4 8159   2.975   3.450  11.757 -0.2221  0.2145  0.4046
  550TMC3    C5 8160   2.894   3.545  11.815  0.1841  0.1299 -0.4418
  550TMC3    C6 8161   2.917   3.607  11.936  0.1915 -0.7295 -0.2832
  550TMC3     C 8162   3.188   3.332  11.764  0.0085  0.0986  0.1128
  550TMC3     O 8163   3.304   3.336  11.806 -0.0905  0.0037  0.1641
  550TMC3     H 8164   3.218   3.460  11.997  0.7044  0.5248 -1.3378
  550TMC3    H1 8165   2.959   3.412  11.657  0.8210  0.7599  0.0261
  550TMC3    H2 8166   2.848   3.687  11.961  0.3938 -1.0559  1.3336
  550TMC3    C7 8167   2.776   3.582  11.740  0.3144  0.6061  0.1833
  550TMC3    C8 8168   3.083   3.664  12.107  0.0008 -0.0335 -0.3282
  550TMC3    O1 8169   2.687   3.638  11.802 -0.0207 -0.0862  0.3222
  550TMC3    O2 8170   3.205   3.673  12.119 -0.0052 -0.4261 -0.2417
  551TMC3    C1 8171   0.434   1.481  12.967 -0.5426  0.1038 -0.7494
  551TMC3    C2 8172   0.529   1.504  12.869  0.2608 -0.2858  0.1925
  551TMC3    C3 8173   0.643   1.576  12.902  0.7877 -0.8578  0.2077
  551TMC3    C4 8174   0.466   1.523  13.093 -0.7111  0.9401 -0.8092
  551TMC3    C5 8175   0.572   1.610  13.115 -0.4152  0.0783  0.0942
  551TMC3    C6 8176   0.657   1.640  13.020 -0.3619  0.0832 -0.2947
  551TMC3     C 8177   0.318   1.413  12.927  0.1610  0.0938 -0.2311
  551TMC3     O 8178   0.220   1.417  13.005  0.2453  0.2271 -0.1461
  551TMC3     H 8179   0.513   1.471  12.767  0.2426  1.9760 -0.5429
  551TMC3    H1 8180   0.380   1.516  13.158 -0.7657  0.0247 -0.9886
  551TMC3    H2 8181   0.739   1.708  13.042 -0.0203 -0.3124 -0.3251
  551TMC3    C7 8182   0.579   1.672  13.242  0.2920 -0.5670 -0.2134
  551TMC3    C8 8183   0.726   1.606  12.786  0.6427  0.0550  0.2034
  551TMC3    O1 8184   0.528   1.616  13.336  0.2796 -0.0327  0.4436
  551TMC3    O2 8185   0.721   1.520  12.700  0.2207  0.7038 -0.3796
  552MPD2     C 8186   2.622   3.408  13.864  0.1047  0.4199 -0.0008
  552MPD2    C1 8187   2.589   3.276  13.896  0.2991 -0.4707  0.4273
  552MPD2    C2 8188   2.659   3.217  14.002  0.2309  0.0607  0.6282
  552MPD2    C3 8189   2.749   3.294  14.074 -0.7651 -0.7199 -0.3595
  552MPD2    C4 8190   2.763   3.426  14.059 -1.0555 -0.0813 -1.1013
  552MPD2    C5 8191   2.701   3.480  13.949  0.8453  0.5154  0.3792
  552MPD2     H 8192   2.645   3.111  14.023  3.3787 -0.8635 -1.8865
  552MPD2    H1 8193   2.825   3.488  14.124  0.4372 -0.4005 -2.2230
  552MPD2    H2 8194   2.597   3.455  13.769 -1.6789 -0.1152  0.2144
  552MPD2    H3 8195   2.730   3.578  13.912 -0.0230 -0.4467 -2.7955
  552MPD2     N 8196   2.824   3.241  14.180  0.3475  0.3818  0.0848
  552MPD2    H5 8197   2.871   3.316  14.229 -1.2031  1.0625  0.5091
  552MPD2    N1 8198   2.499   3.198  13.828  0.5979 -0.6090  0.8550
  552MPD2    H7 8199   2.503   3.100  13.856 -0.8107 -0.2287  2.4339
  553TMC3    C1 8200   2.362   3.133  13.631 -0.6094  0.2358 -0.7008
  553TMC3    C2 8201   2.321   3.172  13.511 -0.8673  0.1993 -0.3601
  553TMC3    C3 8202   2.256   3.078  13.430  0.2910  0.1937 -0.4329
  553TMC3    C4 8203   2.353   3.001  13.677 -0.1889 -0.2532 -0.3052
  553TMC3    C5 8204   2.306   2.906  13.589 -0.2499  0.1162 -0.7198
  553TMC3    C6 8205   2.253   2.944  13.466 -0.1641  0.3609 -0.1196
  553TMC3     C 8206   2.430   3.238  13.713  0.1756 -0.1006 -0.1883
  553TMC3     O 8207   2.408   3.350  13.665 -0.3730  0.9426 -0.0355
  553TMC3     H 8208   2.324   3.274  13.475  0.0778  0.5893  0.8198
  553TMC3    H1 8209   2.381   2.978  13.779  0.3647 -2.1597 -0.9021
  553TMC3    H2 8210   2.198   2.872  13.405  0.1337 -0.2027  0.2833
  553TMC3    C7 8211   2.405   2.808  13.557  0.2387 -1.2632  0.4388
  553TMC3    C8 8212   2.229   3.104  13.287  0.3943  0.0455 -0.2644
  553TMC3    O1 8213   2.385   2.741  13.456 -0.1880  0.4258 -0.3039
  553TMC3    O2 8214   2.150   3.028  13.235  0.1196  0.3847  0.9038
  554TMC3    C1 8215   4.661   2.553  11.398  0.2827  0.6146  0.1639
  554TMC3    C2 8216   4.588   2.460  11.327 -1.1952 -0.1313  0.7872
  554TMC3    C3 8217   4.603   2.465  11.192  0.3652 -0.5825  0.8265
  554TMC3    C4 8218   0.020   2.647  11.338 -1.0788 -0.0981  0.3075
  554TMC3    C5 8219   0.048   2.632  11.206  0.2153 -0.2527 -0.2896
  554TMC3    C6 8220   4.710   2.538  11.129  0.5065  0.2256 -0.2663
  554TMC3     C 8221   4.708   2.520  11.527  0.1102  0.3648 -0.6164
  554TMC3     O 8222   0.042   2.605  11.593  0.7620  0.8405 -0.1006
  554TMC3     H 8223   4.507   2.407  11.376 -2.0182  2.3108  2.0855
  554TMC3    H1 8224   0.075   2.721  11.394  1.0258 -1.8509  0.5554
  554TMC3    H2 8225   4.709   2.537  11.020 -3.4124  1.5547 -0.2533
  554TMC3    C7 8226   0.077   2.744  11.117 -0.5330 -0.4534  0.3950
  554TMC3    C8 8227   4.505   2.402  11.100  0.0665  0.1314  0.2594
  554TMC3    O1 8228   0.086   2.724  11.000 -0.0186  0.0429  0.4747
  554TMC3    O2 8229   4.548   2.372  10.990 -0.1082  0.7367  0.4548
  555TMC3    C1 8230   3.253   1.841  14.873 -0.2395 -1.3559  0.4417
  555TMC3    C2 8231   3.155   1.912  14.946  0.8654 -0.3970  0.0382
  555TMC3    C3 8232   3.086   1.839  15.035 -0.4036  0.3370  0.0068
  555TMC3    C4 8233   3.285   1.713  14.897  0.2453 -0.0560  0.9125
  555TMC3    C5 8234   3.216   1.650  14.994 -0.6646  0.8705 -0.7890
  555TMC3    C6 8235   3.117   1.712  15.068 -0.2688  1.1957 -0.1419
  555TMC3     C 8236   3.336   1.923  14.783 -0.4063  0.3147 -0.7306
  555TMC3     O 8237   3.453   1.886  14.770 -0.0731 -0.4264 -0.0786
  555TMC3     H 8238   3.140   2.019  14.954  1.9158 -0.3373  1.1621
  555TMC3    H1 8239   3.361   1.660  14.841 -0.9028  0.1260 -0.8183
  555TMC3    H2 8240   3.053   1.659  15.138  0.3736  0.8355  0.1747
  555TMC3    C7 8241   3.227   1.501  15.014 -0.5080 -0.4465  0.5882
  555TMC3    C8 8242   3.052   1.908  15.159  0.0488 -0.5533  0.9501
  555TMC3    O1 8243   3.156   1.458  15.098 -0.2934 -0.0240  0.4208
  555TMC3    O2 8244   2.981   2.008  15.152 -0.0683 -0.4200  0.1360
  556MPD2     C 8245   1.260   3.973  10.362 -0.4786 -0.6169  1.0315
  556MPD2    C1 8246   1.357   3.884  10.404  0.2230 -0.2188  0.2362
  556MPD2    C2 8247   1.414   3.806  10.309  0.4145 -0.2823 -0.6040
  556MPD2    C3 8248   1.383   3.810  10.174  0.0154 -0.1328 -0.0790
  556MPD2    C4 8249   1.286   3.900  10.136 -0.2486  0.3402  0.0447
  556MPD2    C5 8250   1.236   3.986  10.226 -0.1385 -0.0696  0.4964
  556MPD2     H 8251   1.494   3.742  10.346 -0.8172 -1.1413  0.6022
  556MPD2    H1 8252   1.265   3.913  10.031 -0.5436 -2.8310 -0.2780
  556MPD2    H2 8253   1.234   4.051  10.433 -1.5480 -0.5160  0.5252
  556MPD2    H3 8254   1.168   4.061  10.187  0.6549  0.4226  0.0402
  556MPD2     N 8255   1.443   3.716  10.088  0.0006 -0.7786  0.3350
  556MPD2    H5 8256   1.506   3.652  10.136  0.1699  0.2110  1.4426
  556MPD2    N1 8257   1.410   3.871  10.535 -0.4615  0.5073 -0.2845
  556MPD2    H7 8258   1.504   3.836  10.553 -0.6465 -0.7314 -1.7349
  557TMC3    C1 8259   1.451   3.559   9.913 -1.1406  0.1969 -0.4025
  557TMC3    C2 8260   1.410   3.525   9.782 -0.5588 -0.0186 -0.5436
  557TMC3    C3 8261   1.417   3.392   9.748 -0.7818 -0.6869  0.4589
  557TMC3    C4 8262   1.503   3.465   9.996  0.3423  1.0685 -0.0321
  557TMC3    C5 8263   1.532   3.343   9.948  0.2878  0.4251  0.2993
  557TMC3    C6 8264   1.484   3.299   9.825  0.5615  0.1396 -0.0733
  557TMC3     C 8265   1.417   3.694   9.956  0.5364 -0.1213 -0.5260
  557TMC3     O 8266   1.346   3.759   9.882  0.0256 -0.5118 -0.0046
  557TMC3     H 8267   1.381   3.598   9.707  0.8737  0.2306 -0.8576
  557TMC3    H1 8268   1.546   3.499  10.090  1.5763  0.3894 -0.3455
  557TMC3    H2 8269   1.477   3.195   9.798  1.1456 -0.4959  2.2252
  557TMC3    C7 8270   1.507   3.253  10.057  0.5232  0.0126 -0.0242
  557TMC3    C8 8271   1.326   3.353   9.634 -0.5605  0.0459  0.1737
  557TMC3    O1 8272   1.471   3.294  10.168  0.5867  0.1749 -0.0627
  557TMC3    O2 8273   1.313   3.427   9.538 -0.5102 -0.2942 -0.1624
  558TMC3    C1 8274   3.949   1.693  10.389 -0.2765  0.2343  0.2721
  558TMC3    C2 8275   3.829   1.672  10.456 -0.0295  0.3974  0.1753
  558TMC3    C3 8276   3.714   1.714  10.385  0.2279  0.4131  0.3006
  558TMC3    C4 8277   3.964   1.754  10.269 -0.2460  0.5095  0.4782
  558TMC3    C5 8278   3.847   1.788  10.210  0.3012 -1.1652 -0.6015
  558TMC3    C6 8279   3.723   1.772  10.261  0.1774 -0.2733 -0.0361
  558TMC3     C 8280   4.077   1.658  10.454 -0.2090 -0.3774  0.0673
  558TMC3     O 8281   4.174   1.654  10.378  0.0882 -0.2909  0.2383
  558TMC3     H 8282   3.825   1.639  10.559  0.9446  0.0503  0.1032
  558TMC3    H1 8283   4.065   1.766  10.230 -0.6001  0.0170 -0.5943
  558TMC3    H2 8284   3.640   1.815  10.207  1.0255  3.9715  2.0446
  558TMC3    C7 8285   3.861   1.854  10.083 -0.3494  0.1409  0.2800
  558TMC3    C8 8286   3.585   1.738  10.449 -0.7374 -0.9999 -0.7112
  558TMC3    O1 8287   3.961   1.923  10.063  0.1648 -0.2148  0.0466
  558TMC3    O2 8288   3.502   1.806  10.389 -0.1300 -0.4214  0.4634
  559MPD2     C 8289   3.868   2.014  10.472 -0.1553 -0.5754  0.5849
  559MPD2    C1 8290   3.827   1.999  10.600 -0.1441 -0.2337 -0.6621
  559MPD2    C2 8291   3.918   1.978  10.702 -0.2306  0.3257 -0.3840
  559MPD2    C3 8292   4.052   1.982  10.681  0.2385 -0.0127  0.1302
  559MPD2    C4 8293   4.092   2.009  10.548  0.1219  0.2651 -0.1284
  559MPD2    C5 8294   4.005   2.025  10.444  0.5981  0.1162  0.5162
  559MPD2     H 8295   3.896   1.936  10.800 -1.8772  2.3826  0.1324
  559MPD2    H1 8296   4.198   2.010  10.525  0.3694 -1.5214  0.9636
  559MPD2    H2 8297   3.791   2.039  10.400  1.3261  1.1122 -0.4146
  559MPD2    H3 8298   4.039   2.041  10.342 -0.8059  1.3831  0.2323
  559MPD2     N 8299   4.132   1.950  10.793  0.1655 -0.7400  0.1167
  559MPD2    H5 8300   4.088   1.934  10.883 -0.1965  0.1663  0.1058
  559MPD2    N1 8301   3.689   1.990  10.618  0.1285 -0.2010  0.5202
  559MPD2    H7 8302   3.633   2.018  10.538  0.6013 -1.5830 -0.2848
  560TMC3    C1 8303   4.305   1.885  10.918 -0.2620  0.2517 -0.0461
  560TMC3    C2 8304   4.211   1.816  10.991 -0.0742 -0.9942  0.4049
  560TMC3    C3 8305   4.229   1.799  11.125  0.5947  0.6162  0.3683
  560TMC3    C4 8306   4.410   1.950  10.982 -0.4687 -0.2270  0.8440
  560TMC3    C5 8307   4.414   1.945  11.112 -0.6724  0.0282 -0.9847
  560TMC3    C6 8308   4.331   1.861  11.184 -0.1693  0.4019 -0.8664
  560TMC3     C 8309   4.264   1.945  10.786 -0.6961  0.2358  0.0857
  560TMC3     O 8310   4.348   1.970  10.700  0.3076  0.3525 -0.6726
  560TMC3     H 8311   4.135   1.757  10.941 -1.8431 -0.1402  2.1012
  560TMC3    H1 8312   4.477   2.014  10.926  0.8365 -3.4960 -1.3215
  560TMC3    H2 8313   4.361   1.838  11.286 -0.3582 -1.4993 -1.2356
  560TMC3    C7 8314   4.510   2.017  11.190 -0.0836  0.0362  0.2810
  560TMC3    C8 8315   4.124   1.720  11.191  0.4870  0.4975 -0.0643
  560TMC3    O1 8316   4.488   2.035  11.311 -0.8408 -0.2103 -0.0757
  560TMC3    O2 8317   4.023   1.697  11.123  0.1597  0.0557 -0.2984
  561TMC3    C1 8318   1.809   1.121  11.565 -0.4050 -0.0561 -0.7827
  561TMC3    C2 8319   1.749   1.084  11.681 -0.1606 -0.5281  0.3412
  561TMC3    C3 8320   1.648   1.162  11.730 -0.0263 -0.5647 -0.0052
  561TMC3    C4 8321   1.762   1.226  11.496  0.4754  0.2035 -0.7030
  561TMC3    C5 8322   1.665   1.312  11.551 -0.0331 -0.5453  1.1829
  561TMC3    C6 8323   1.606   1.281  11.671 -0.1091  0.1636  0.3227
  561TMC3     C 8324   1.922   1.044  11.522 -0.2350 -0.5605  0.4242
  561TMC3     O 8325   1.953   0.950  11.595  0.5412  0.3766 -0.6196
  561TMC3     H 8326   1.766   0.991  11.733 -2.9822 -1.6034 -0.6507
  561TMC3    H1 8327   1.787   1.245  11.393 -2.1164  0.9843 -1.1752
  561TMC3    H2 8328   1.535   1.344  11.723 -1.0585 -1.8612  1.4396
  561TMC3    C7 8329   1.629   1.432  11.479  0.3623  0.7214  0.9501
  561TMC3    C8 8330   1.585   1.122  11.857 -0.3117  0.4525 -0.3911
  561TMC3    O1 8331   1.508   1.464  11.483  0.3846 -0.0604  0.2348
  561TMC3    O2 8332   1.657   1.064  11.938 -0.6114  0.2741  0.2476
  562TMC3    C1 8333   3.204   1.994  16.361  0.0728  0.1073  0.1842
  562TMC3    C2 8334   3.137   2.098  16.306  0.1672  0.2026 -0.7538
  562TMC3    C3 8335   3.124   2.089  16.167 -0.0820  0.5318 -0.0224
  562TMC3    C4 8336   3.256   1.886  16.287 -0.3454  0.1067  0.1674
  562TMC3    C5 8337   3.234   1.881  16.156 -0.1188  0.5610  0.5858
  562TMC3    C6 8338   3.164   1.977  16.093  0.0826 -0.0062 -0.0942
  562TMC3     C 8339   3.231   1.999  16.498  0.1280 -0.2800  0.5687
  562TMC3     O 8340   3.230   2.107  16.544 -0.1483 -0.0441  0.4160
  562TMC3     H 8341   3.105   2.185  16.362  1.0436 -1.3387  2.1608
  562TMC3    H1 8342   3.326   1.816  16.330  1.7361  1.7171 -0.5619
  562TMC3    H2 8343   3.158   1.980  15.985  1.1425 -0.8812 -0.1733
  562TMC3    C7 8344   3.254   1.759  16.075 -0.0342 -0.2781 -0.6304
  562TMC3    C8 8345   3.161   2.216  16.093 -0.0597  0.5597 -0.7558
  562TMC3    O1 8346   3.210   1.760  15.963 -0.4881 -0.3522  0.2824
  562TMC3    O2 8347   3.197   2.304  16.167 -0.7968 -0.0889  0.2467
  563MPD2     C 8348   0.334   3.697  15.496  0.0772 -0.5533  0.6316
  563MPD2    C1 8349   0.356   3.720  15.628  0.0069  0.7730 -0.0622
  563MPD2    C2 8350   0.487   3.692  15.668  0.4486 -0.7392  0.1993
  563MPD2    C3 8351   0.581   3.637  15.579 -0.5149 -0.6066  0.3168
  563MPD2    C4 8352   0.538   3.601  15.456  0.6457  0.3747  0.5996
  563MPD2    C5 8353   0.411   3.630  15.411  0.0493 -0.0672 -0.1525
  563MPD2     H 8354   0.521   3.690  15.771 -1.2187  2.1396  0.7845
  563MPD2    H1 8355   0.594   3.557  15.375 -0.7243  0.1557 -0.2238
  563MPD2    H2 8356   0.239   3.729  15.455 -0.5193 -0.6045  1.9896
  563MPD2    H3 8357   0.395   3.621  15.304  0.7052  2.1406 -0.4497
  563MPD2     N 8358   0.713   3.592  15.629  0.1543  0.5740  0.0975
  563MPD2    H5 8359   0.733   3.600  15.728  0.4770  3.4906 -0.2023
  563MPD2    N1 8360   0.263   3.777  15.718  0.1313  0.4684  0.4452
  563MPD2    H7 8361   0.166   3.783  15.687  0.3059 -2.5333 -0.6069
  564TMC3    C1 8362   0.229   3.792  15.941 -0.6945 -0.4232 -0.6114
  564TMC3    C2 8363   0.111   3.730  15.903  0.0860 -0.2240 -0.0750
  564TMC3    C3 8364   0.089   3.608  15.956 -0.4670 -0.0541 -0.5938
  564TMC3    C4 8365   0.318   3.730  16.036  0.2220 -1.3258  0.3412
  564TMC3    C5 8366   0.302   3.600  16.069  0.4723  0.2356 -0.0835
  564TMC3    C6 8367   0.185   3.542  16.030  0.2972  0.5316 -0.1832
  564TMC3     C 8368   0.300   3.856  15.830  0.1699  0.4771  0.1102
  564TMC3     O 8369   0.414   3.889  15.863  0.3494  0.4046 -0.1147
  564TMC3     H 8370   0.028   3.779  15.853 -0.8989 -1.5458  0.2695
  564TMC3    H1 8371   0.414   3.771  16.065 -0.1537  1.9678 -2.9899
  564TMC3    H2 8372   0.168   3.435  16.041 -0.6956  0.5058 -1.9853
  564TMC3    C7 8373   0.416   3.524  16.023 -0.3396  0.1794 -0.4865
  564TMC3    C8 8374   0.009   3.512  15.877  0.4488  0.1362 -0.0304
  564TMC3    O1 8375   0.525   3.528  16.084  0.0293 -0.2568 -0.1431
  564TMC3    O2 8376   4.685   3.422  15.943 -0.2206 -0.5130  0.4737
  565TMC3    C1 8377   1.128   0.337  10.205  0.0473  0.1882 -0.1362
  565TMC3    C2 8378   1.177   0.256  10.299  0.4673 -0.1021  0.1008
  565TMC3    C3 8379   1.126   0.129  10.316  0.3650 -1.0221 -0.9765
  565TMC3    C4 8380   1.033   0.300  10.116  0.2172  0.8758  0.4859
  565TMC3    C5 8381   0.988   0.167  10.138  0.2764  0.4930 -0.1560
  565TMC3    C6 8382   1.031   0.071  10.229  0.4780  0.6924  0.2924
  565TMC3     C 8383   1.149   0.478  10.230 -0.2888  0.3471  0.6944
  565TMC3     O 8384   1.143   0.561  10.139  0.0066  0.0452 -0.1728
  565TMC3     H 8385   1.268   0.285  10.351 -0.8823  1.3928  1.6592
  565TMC3    H1 8386   0.982   0.376  10.057  0.1924 -1.0574 -2.0130
  565TMC3    H2 8387   1.000   4.692  10.248 -0.3360  0.5217 -1.9487
  565TMC3    C7 8388   0.866   0.130  10.065 -0.7080  1.1058  0.4035
  565TMC3    C8 8389   1.169   0.062  10.441 -0.5247  0.4101 -0.3986
  565TMC3    O1 8390   0.824   0.018  10.085  0.1340 -0.1869 -0.4389
  565TMC3    O2 8391   1.221   0.133  10.526 -0.0438  0.0460 -0.3066
  566MPD2     C 8392   2.681   2.074  14.020  0.2569 -0.4089 -0.2930
  566MPD2    C1 8393   2.727   2.180  13.946 -0.6748 -0.1814  0.3185
  566MPD2    C2 8394   2.693   2.177  13.810  0.1515 -0.1899  0.0544
  566MPD2    C3 8395   2.609   2.080  13.754 -0.5140 -0.6177 -0.0477
  566MPD2    C4 8396   2.574   1.972  13.828 -0.0593 -0.0282 -0.3331
  566MPD2    C5 8397   2.615   1.973  13.955  0.2954  0.1592  0.2316
  566MPD2     H 8398   2.731   2.256  13.745 -2.8743  1.3630  0.1805
  566MPD2    H1 8399   2.513   1.888  13.798 -0.0737 -0.1784  0.1220
  566MPD2    H2 8400   2.699   2.070  14.127 -1.3793 -0.2066 -0.0118
  566MPD2    H3 8401   2.584   1.893  14.021  1.5340 -0.0482  0.5806
  566MPD2     N 8402   2.572   2.089  13.614  0.4060  0.3041  0.0116
  566MPD2    H5 8403   2.555   1.999  13.570 -1.0837 -0.1448  1.5029
  566MPD2    N1 8404   2.834   2.247  14.006 -0.3479  0.4118  0.6920
  566MPD2    H7 8405   2.859   2.215  14.099 -1.9394 -1.7552  0.3787
  567TMC3    C1 8406   3.038   2.382  13.997 -0.0883  0.1486 -0.5157
  567TMC3    C2 8407   3.103   2.477  13.928  0.5539  0.7928 -0.0853
  567TMC3    C3 8408   3.239   2.500  13.954  0.1322  0.0993  0.4159
  567TMC3    C4 8409   3.112   2.295  14.074 -0.7387  0.4255  0.3326
  567TMC3    C5 8410   3.250   2.318  14.103  0.5650 -0.3724 -0.4592
  567TMC3    C6 8411   3.314   2.424  14.039 -0.9616  0.0705 -0.8470
  567TMC3     C 8412   2.904   2.348  13.948  0.2341 -0.4480 -0.3905
  567TMC3     O 8413   2.874   2.408  13.845  0.1819  0.3383  0.0121
  567TMC3     H 8414   3.050   2.543  13.861  0.1439  2.2514  1.6729
  567TMC3    H1 8415   3.061   2.206  14.108 -0.7254  0.1724 -0.3186
  567TMC3    H2 8416   3.419   2.445  14.056 -1.1205  0.4903 -0.3875
  567TMC3    C7 8417   3.331   2.204  14.146  0.6770 -0.3169 -0.4376
  567TMC3    C8 8418   3.301   2.587  13.858 -0.5780  1.1114 -0.2675
  567TMC3    O1 8419   3.450   2.205  14.124 -0.2773 -0.5422  0.2601
  567TMC3    O2 8420   3.244   2.622  13.753  0.0334  0.0921  0.7735
  568MPD2     C 8421   0.028   2.146  16.202 -0.0969 -0.5450  0.3646
  568MPD2    C1 8422   0.108   2.213  16.294 -0.3391  0.0816 -0.3793
  568MPD2    C2 8423   0.167   2.329  16.255 -0.1051  0.3135  0.4537
  568MPD2    C3 8424   0.140   2.378  16.127  0.2384  0.0115 -0.6983
  568MPD2    C4 8425   0.068   2.304  16.037 -0.4714  0.4126 -0.5124
  568MPD2    C5 8426   0.018   2.185  16.077  0.7167  0.1005 -0.1521
  568MPD2     H 8427   0.212   2.398  16.326  2.6759 -0.2010 -0.8039
  568MPD2    H1 8428   0.023   2.352  15.951 -1.7668  3.9764  2.1790
  568MPD2    H2 8429   4.696   2.058  16.232 -1.9584  0.2220 -0.8231
  568MPD2    H3 8430   4.670   2.138  16.010  0.5175 -0.0688  0.1775
  568MPD2     N 8431   0.195   2.500  16.092 -0.0405  0.5994 -0.3566
  568MPD2    H5 8432   0.245   2.549  16.165  0.9440  0.3808 -0.8923
  568MPD2    N1 8433   0.121   2.159  16.425  0.2475 -0.7567  0.4553
  568MPD2    H7 8434   0.068   2.077  16.452 -0.0895 -0.9043 -0.6517
  569TMC3    C1 8435   0.245   2.690  15.955  0.2681  0.0914 -0.4449
  569TMC3    C2 8436   0.225   2.778  16.061  0.2099  0.3252 -0.0173
  569TMC3    C3 8437   0.292   2.891  16.053 -0.8222 -0.4452 -0.8950
  569TMC3    C4 8438   0.303   2.723  15.837  0.6114  0.1688  0.0452
  569TMC3    C5 8439   0.357   2.846  15.820 -0.3732  0.5232 -0.0120
  569TMC3    C6 8440   0.367   2.926  15.934 -0.7293 -0.1507  0.3805
  569TMC3     C 8441   0.186   2.556  15.967  0.8968  0.0220 -0.3818
  569TMC3     O 8442   0.145   2.513  15.859  0.3188  0.1422 -0.2556
  569TMC3     H 8443   0.173   2.754  16.153  1.1533  0.1695  0.4788
  569TMC3    H1 8444   0.283   2.658  15.752 -1.5841 -1.2272  1.6190
  569TMC3    H2 8445   0.413   3.023  15.921 -1.4313  0.0762 -0.3448
  569TMC3    C7 8446   0.285   2.917  15.712  0.0647  0.3819 -0.0083
  569TMC3    C8 8447   0.225   2.994  16.122  0.5584  0.6206  0.7877
  569TMC3    O1 8448   0.289   2.870  15.596  0.3736  0.5578 -0.7893
  569TMC3    O2 8449   0.103   2.994  16.120  0.1981  0.2558  0.0269
  570TMC3    C1 8450   4.478   1.321  16.042 -0.1174 -0.1914  0.0641
  570TMC3    C2 8451   4.575   1.333  15.938 -0.4619  1.1520 -0.1100
  570TMC3    C3 8452   4.631   1.463  15.933  0.3032 -0.3639 -0.1186
  570TMC3    C4 8453   4.445   1.427  16.127 -0.2768 -0.2219  0.1885
  570TMC3    C5 8454   4.487   1.551  16.095  0.2888 -0.2913  0.1747
  570TMC3    C6 8455   4.586   1.578  16.000 -0.1625  0.1299  0.4453
  570TMC3     C 8456   4.430   1.192  16.063  0.3369 -0.1151 -0.1580
  570TMC3     O 8457   4.479   1.097  16.010  0.4971 -0.0647  0.5441
  570TMC3     H 8458   4.585   1.253  15.867  1.9953  1.5747 -0.2196
  570TMC3    H1 8459   4.368   1.420  16.203 -0.2506  1.4150  0.3757
  570TMC3    H2 8460   4.630   1.675  15.985  1.2647 -0.8165 -1.5092
  570TMC3    C7 8461   4.444   1.662  16.186  0.5432  0.7865 -0.1644
  570TMC3    C8 8462   0.014   1.486  15.846  0.4685 -0.2130  0.2806
  570TMC3    O1 8463   4.393   1.633  16.295 -0.2608 -0.4432  0.9182
  570TMC3    O2 8464   0.063   1.596  15.851  0.0249 -0.4920  0.3494
  571MPD2     C 8465   2.934   2.307  17.088  0.3445 -0.7638  0.1437
  571MPD2    C1 8466   2.859   2.318  17.203 -0.2241  0.2373  0.1853
  571MPD2    C2 8467   2.878   2.428  17.288  1.0959 -0.6194 -0.6516
  571MPD2    C3 8468   2.973   2.523  17.261 -0.4691  0.4190 -0.3048
  571MPD2    C4 8469   3.039   2.514  17.140  0.2249  0.2867  0.3607
  571MPD2    C5 8470   3.022   2.406  17.059  0.0846 -0.3461 -0.0993
  571MPD2     H 8471   2.819   2.439  17.379  0.9544  2.0958 -1.0598
  571MPD2    H1 8472   3.097   2.599  17.106  1.4926 -0.5211  0.4990
  571MPD2    H2 8473   2.929   2.224  17.019 -0.7499  0.5652 -1.3681
  571MPD2    H3 8474   3.084   2.416  16.971 -1.3666 -1.3975 -1.2372
  571MPD2     N 8475   2.995   2.636  17.344  0.4311 -0.8321  0.0598
  571MPD2    H5 8476   3.057   2.705  17.303 -2.7145  1.3015 -1.1299
  571MPD2    N1 8477   2.745   2.232  17.223  0.5871  0.5446  0.0114
  571MPD2    H7 8478   2.735   2.143  17.174 -2.4797  0.4188  0.8660
  572TMC3    C1 8479   2.967   2.783  17.526 -0.2274 -0.2937  0.1816
  572TMC3    C2 8480   2.934   2.804  17.655  0.0826 -0.9012 -0.0337
  572TMC3    C3 8481   2.903   2.935   0.006  0.4749  0.2192  0.4087
  572TMC3    C4 8482   3.006   2.891  17.446  0.1811 -0.2104 -0.3190
  572TMC3    C5 8483   2.992   3.022  17.495  0.0221  0.1454 -0.5166
  572TMC3    C6 8484   2.938   3.043  17.624  0.7601 -0.2898  0.4864
  572TMC3     C 8485   2.957   2.645  17.473  0.5656  0.6143 -0.2265
  572TMC3     O 8486   2.910   2.560  17.545  0.1647  0.0348  0.1878
  572TMC3     H 8487   2.904   2.720   0.023 -0.2188 -1.5881 -1.1227
  572TMC3    H1 8488   3.023   2.887  17.339  0.9235 -1.8638 -0.1383
  572TMC3    H2 8489   2.929   3.144  17.661 -1.6294 -0.0726 -0.6653
  572TMC3    C7 8490   2.991   3.137  17.403  0.1933  0.5426  0.2843
  572TMC3    C8 8491   2.926   2.940   0.151  0.2676  0.2288  0.5032
  572TMC3    O1 8492   2.951   3.245  17.441  0.3027 -0.1465 -0.0910
  572TMC3    O2 8493   2.980   2.842   0.209  0.5596  0.2216  1.0605
  573MPD2     C 8494   4.158   3.604   0.670  1.0271  0.2201 -1.4058
  573MPD2    C1 8495   4.129   3.738   0.659 -0.1172  0.3156  0.0074
  573MPD2    C2 8496   4.020   3.778   0.586  0.5997  0.6682 -0.0183
  573MPD2    C3 8497   3.941   3.677   0.527 -0.3453  0.1924 -0.6104
  573MPD2    C4 8498   3.962   3.543   0.547 -0.1241  0.6796  0.9493
  573MPD2    C5 8499   4.072   3.511   0.624 -0.5249 -0.3442  0.5013
  573MPD2     H 8500   4.013   3.883   0.562  2.3062  1.4901  3.0156
  573MPD2    H1 8501   3.909   3.462   0.498  0.1720 -1.6364  4.4109
  573MPD2    H2 8502   4.251   3.575   0.717  0.0133 -1.6628 -0.5811
  573MPD2    H3 8503   4.101   3.406   0.621  0.7261  0.0284 -0.5896
  573MPD2     N 8504   3.846   3.704   0.420 -0.4785  0.8447  0.0158
  573MPD2    H5 8505   3.795   3.623   0.384  0.1984  1.0972 -1.5310
  573MPD2    N1 8506   4.237   3.831   0.699  0.0979  0.0624  0.3280
  573MPD2    H7 8507   4.324   3.795   0.736  0.4232  1.4278  0.8711
  574TMC3    C1 8508   3.731   3.795   0.236 -0.0870  0.1100  0.3124
  574TMC3    C2 8509   3.736   3.682   0.167 -0.1516  0.2031 -0.5076
  574TMC3    C3 8510   3.665   3.678   0.050  0.4826  0.4764  0.3081
  574TMC3    C4 8511   3.670   3.905   0.187  0.6490 -0.2841  0.1622
  574TMC3    C5 8512   3.605   3.901   0.069 -0.5452 -0.8101 -0.1250
  574TMC3    C6 8513   3.605   3.784  17.689  0.5588  0.0918  0.2041
  574TMC3     C 8514   3.828   3.819   0.349  0.0411  0.1377  0.1821
  574TMC3     O 8515   3.860   3.934   0.376 -0.0540  0.0574  0.8470
  574TMC3     H 8516   3.789   3.592   0.197 -1.6558 -0.6431 -0.3913
  574TMC3    H1 8517   3.683   3.990   0.252  0.5720  0.5305 -0.8848
  574TMC3    H2 8518   3.530   3.773  17.612  1.6626 -1.9573 -0.5876
  574TMC3    C7 8519   3.530   4.016   0.022  0.0365 -0.9193  0.9458
  574TMC3    C8 8520   3.684   3.554  17.673 -0.2456  0.2967 -0.4094
  574TMC3    O1 8521   3.517   4.025  17.592  0.3996 -0.4041  0.4363
  574TMC3    O2 8522   3.747   3.462   0.038 -0.2172  0.2515 -0.0647
  575TMC3    C1 8523   1.333   0.013  11.301 -0.0847  0.8031  0.1366
  575TMC3    C2 8524   1.335   4.620  11.366  0.3402 -0.0813 -0.4756
  575TMC3    C3 8525   1.324   4.508  11.297 -0.0873  0.4969  0.0952
  575TMC3    C4 8526   1.321   0.024  11.161  0.1635  0.2973  0.0689
  575TMC3    C5 8527   1.320   4.627  11.099 -0.7640  0.1053 -0.1551
  575TMC3    C6 8528   1.324   4.509  11.163 -0.1923  0.3389 -0.2852
  575TMC3     C 8529   1.323   0.137  11.378  0.2464 -0.8305 -0.8313
  575TMC3     O 8530   1.307   0.117  11.499  0.4069  0.5596  0.0392
  575TMC3     H 8531   1.332   4.622  11.475  0.5512  1.6769 -0.5005
  575TMC3    H1 8532   1.315   0.117  11.105 -2.3039  0.9339  1.3727
  575TMC3    H2 8533   1.323   4.419  11.102 -0.3025  0.7517 -0.8980
  575TMC3    C7 8534   1.291   4.632  10.958  1.0954  0.6749 -0.4268
  575TMC3    C8 8535   1.309   4.381  11.369 -0.1898  0.0205 -0.0205
  575TMC3    O1 8536   1.250   0.013  10.905  0.5196  0.5774 -0.6536
  575TMC3    O2 8537   1.246   4.294  11.310  0.0080  0.0465 -0.3211
  576MPD2     C 8538   0.241   1.306  12.364  0.1219 -0.5815 -0.4822
  576MPD2    C1 8539   0.366   1.360  12.337 -0.1770  0.2825 -0.0526
  576MPD2    C2 8540   0.403   1.477  12.410  0.0177 -0.9240  0.1590
  576MPD2    C3 8541   0.317   1.526  12.508  1.0097 -0.0746  0.3422
  576MPD2    C4 8542   0.199   1.464  12.536  1.3445  0.3978  0.1354
  576MPD2    C5 8543   0.170   1.350  12.462 -0.0191  0.6647 -0.2291
  576MPD2     H 8544   0.492   1.531  12.378  0.3755 -1.9291 -0.5374
  576MPD2    H1 8545   0.130   1.487  12.617 -1.8978 -1.7996 -1.9962
  576MPD2    H2 8546   0.208   1.220  12.308 -0.4162 -0.1269 -0.8684
  576MPD2    H3 8547   0.078   1.297  12.483 -0.8732  1.6721 -1.4181
  576MPD2     N 8548   0.348   1.643  12.576  0.3195  0.3092  0.0579
  576MPD2    H5 8549   0.435   1.686  12.546  0.6272 -0.5871 -0.3385
  576MPD2    N1 8550   0.462   1.311  12.242  0.8717 -0.1144 -0.5627
  576MPD2    H7 8551   0.550   1.358  12.222  0.0442  0.2562 -3.4664
  577TMC3    C1 8552   0.537   1.174  12.067 -0.0724  0.0928  1.0168
  577TMC3    C2 8553   0.666   1.205  12.110  0.4478 -0.1721 -0.5542
  577TMC3    C3 8554   0.767   1.152  12.033  0.4123 -0.1781 -0.1668
  577TMC3    C4 8555   0.507   1.123  11.941  0.3535 -0.7425  0.2576
  577TMC3    C5 8556   0.609   1.081  11.862  0.4796  0.2672  0.2163
  577TMC3    C6 8557   0.741   1.100  11.904 -0.6338  0.1486 -0.2038
  577TMC3     C 8558   0.430   1.209  12.155 -0.0437  0.0811  0.0084
  577TMC3     O 8559   0.328   1.138  12.146  0.1291  0.0772  0.0996
  577TMC3     H 8560   0.685   1.251  12.206 -2.0720 -0.4281  0.0662
  577TMC3    H1 8561   0.403   1.105  11.915  0.5116 -0.5091 -0.5246
  577TMC3    H2 8562   0.824   1.066  11.841 -0.9770 -0.0726 -0.5368
  577TMC3    C7 8563   0.593   1.076  11.719 -0.2479  0.0416 -0.1293
  577TMC3    C8 8564   0.903   1.144  12.094 -0.7028 -0.6334 -0.7197
  577TMC3    O1 8565   0.511   0.997  11.672 -0.0484  0.0705  0.5394
  577TMC3    O2 8566   0.908   1.184  12.212  0.6061 -0.2231 -0.0481
  578MPD2     C 8567   3.616   1.686   1.323 -0.4165 -0.0696  0.3726
  578MPD2    C1 8568   3.677   1.738   1.216 -0.1220  0.0547  0.2707
  578MPD2    C2 8569   3.787   1.662   1.164  0.0954 -0.0240 -0.0343
  578MPD2    C3 8570   3.834   1.549   1.228 -0.2751 -0.0594  0.5940
  578MPD2    C4 8571   3.780   1.505   1.343 -0.1490 -0.3504  0.3090
  578MPD2    C5 8572   3.670   1.574   1.388 -0.6347  0.9864 -0.0204
  578MPD2     H 8573   3.837   1.689   1.071  0.7447 -1.2338 -0.0352
  578MPD2    H1 8574   3.805   1.410   1.390  2.1751  0.2913  0.3165
  578MPD2    H2 8575   3.542   1.750   1.371 -2.2239 -1.5979 -0.3744
  578MPD2    H3 8576   3.619   1.546   1.479  2.4798  0.8264  1.6403
  578MPD2     N 8577   3.941   1.474   1.167  0.2575 -0.2162  0.3454
  578MPD2    H5 8578   3.962   1.485   1.068 -1.0109  2.0863  0.3330
  578MPD2    N1 8579   3.633   1.858   1.152  0.1651  0.4067  0.1889
  578MPD2    H7 8580   3.559   1.907   1.201 -1.0777  1.2724 -2.5580
  579TMC3    C1 8581   4.107   1.309   1.164  0.6020 -0.1999  0.0689
  579TMC3    C2 8582   4.220   1.262   1.227 -0.5710  0.1740 -0.1685
  579TMC3    C3 8583   4.315   1.197   1.148 -1.5526 -0.0744 -0.1219
  579TMC3    C4 8584   4.094   1.296   1.027 -0.3124 -0.2884 -0.3803
  579TMC3    C5 8585   4.182   1.216   0.957 -0.1852  0.8257 -0.2163
  579TMC3    C6 8586   4.296   1.173   1.008  0.7077  0.1200 -0.0651
  579TMC3     C 8587   4.009   1.379   1.238  0.1944 -0.1946  0.4753
  579TMC3     O 8588   4.025   1.377   1.359 -0.4733  0.0238  0.0613
  579TMC3     H 8589   4.241   1.277   1.332 -4.0246 -0.5632  0.6319
  579TMC3    H1 8590   3.995   1.317   0.988 -0.9709  0.5432  1.7014
  579TMC3    H2 8591   4.379   1.120   0.963 -0.3957 -1.1115 -0.6499
  579TMC3    C7 8592   4.154   1.185   0.814  0.2776 -0.3070  0.7408
  579TMC3    C8 8593   4.456   1.204   1.195 -1.4176 -0.5451 -0.2816
  579TMC3    O1 8594   4.228   1.100   0.764  0.2557  0.1472 -0.0601
  579TMC3    O2 8595   4.532   1.112   1.178  0.6347  0.1090 -0.0980
  580TMC3    C1 8596   3.323   0.288  12.208  0.1414  0.3440 -0.2016
  580TMC3    C2 8597   3.282   0.260  12.074 -0.3849 -1.0403  0.4828
  580TMC3    C3 8598   3.352   0.155  12.015  0.2046 -0.2951  0.3791
  580TMC3    C4 8599   3.402   0.202  12.280  0.2758  0.3764 -0.1212
  580TMC3    C5 8600   3.453   0.091  12.218  0.2347 -0.6552 -0.2893
  580TMC3    C6 8601   3.442   0.076  12.082 -0.2133  0.2493  0.5589
  580TMC3     C 8602   3.348   0.427  12.223 -0.2613  0.0737 -0.6655
  580TMC3     O 8603   3.281   0.498  12.146  0.4138 -0.1859 -0.4129
  580TMC3     H 8604   3.217   0.321  12.012  0.0561  0.3803  1.4020
  580TMC3    H1 8605   3.410   0.220  12.386  1.7857  0.5202 -0.2573
  580TMC3    H2 8606   3.496   0.005  12.020  0.0792  0.8959  0.0680
  580TMC3    C7 8607   3.543   0.010  12.302  0.1751  0.5359  0.5682
  580TMC3    C8 8608   3.423   0.222  11.917  0.2698 -0.3652 -0.4098
  580TMC3    O1 8609   3.572   0.050  12.413  0.8601  0.1016 -0.3825
  580TMC3    O2 8610   3.402   0.204  11.799  0.2885  0.3595 -0.3216
  581MPD2     C 8611   1.918   0.650  14.919 -0.3764 -0.5308  0.0347
  581MPD2    C1 8612   1.847   0.595  15.022  0.3618 -0.3742 -0.3678
  581MPD2    C2 8613   1.713   0.585  15.021  0.0879 -0.5450  0.6998
  581MPD2    C3 8614   1.650   0.624  14.902  0.9688 -0.4324 -1.1941
  581MPD2    C4 8615   1.719   0.686  14.800 -0.3005 -0.2162  0.1376
  581MPD2    C5 8616   1.852   0.701  14.816 -0.0382 -0.0625  0.1460
  581MPD2     H 8617   1.648   0.529  15.088 -1.3030 -0.6585 -0.7438
  581MPD2    H1 8618   1.664   0.745  14.727 -0.5974 -0.8381 -0.1447
  581MPD2    H2 8619   2.023   0.674  14.925 -0.2288 -0.8911 -1.2378
  581MPD2    H3 8620   1.915   0.767  14.758 -1.3886  0.8743 -0.2722
  581MPD2     N 8621   1.511   0.621  14.896  1.4573  0.1468  0.5327
  581MPD2    H5 8622   1.459   0.604  14.981  0.5709 -0.9778 -0.2297
  581MPD2    N1 8623   1.922   0.545  15.132  0.5685 -0.8853 -0.2370
  581MPD2    H7 8624   2.021   0.552  15.116  0.6608  0.1625  0.7347
  582TMC3    C1 8625   1.964   0.433  15.332  0.7384 -0.0152 -0.9178
  582TMC3    C2 8626   1.922   0.420  15.460 -0.2086 -0.0109  0.8299
  582TMC3    C3 8627   1.937   0.299  15.516  0.2730  0.1724 -0.0424
  582TMC3    C4 8628   2.030   0.332  15.275  0.5194 -0.4064 -0.2969
  582TMC3    C5 8629   2.026   0.206  15.329 -0.2744  0.0549 -0.0091
  582TMC3    C6 8630   1.980   0.187  15.450 -0.0366 -0.1707 -0.0458
  582TMC3     C 8631   1.867   0.505  15.253 -0.1851 -0.5543  1.0962
  582TMC3     O 8632   1.755   0.521  15.304 -0.7402  0.0707 -0.4459
  582TMC3     H 8633   1.883   0.504  15.515  1.7453  0.4571  1.4924
  582TMC3    H1 8634   2.075   0.350  15.178 -0.5143  0.8209 -0.5513
  582TMC3    H2 8635   1.964   0.084  15.480  0.8427 -0.5534 -0.8907
  582TMC3    C7 8636   1.963   0.126  15.229 -0.2391 -0.4080  0.0871
  582TMC3    C8 8637   1.899   0.290  15.656  0.3130  0.8329 -0.0957
  582TMC3    O1 8638   2.024   0.126  15.125  0.3842 -0.3202  0.1490
  582TMC3    O2 8639   1.861   0.391  15.715  0.6017 -0.0500 -0.4226
  583MPD2     C 8640   1.667   1.635  16.697  0.3409 -0.4508 -0.1040
  583MPD2    C1 8641   1.639   1.716  16.592 -0.2086 -0.6191  0.1494
  583MPD2    C2 8642   1.541   1.809  16.606 -0.4659  0.1168 -0.0277
  583MPD2    C3 8643   1.476   1.829  16.729 -0.4807 -0.0592  0.0746
  583MPD2    C4 8644   1.507   1.742  16.837 -0.3426 -0.3106  0.1256
  583MPD2    C5 8645   1.604   1.650  16.818 -0.2993  0.1957 -0.1451
  583MPD2     H 8646   1.510   1.879  16.529 -1.7162 -0.4617 -0.0410
  583MPD2    H1 8647   1.462   1.742  16.935 -0.3722  0.0947  0.1104
  583MPD2    H2 8648   1.741   1.555  16.694 -0.0615 -0.7268 -2.8010
  583MPD2    H3 8649   1.624   1.579  16.898 -0.9030 -0.9165 -0.9886
  583MPD2     N 8650   1.360   1.920  16.737 -0.0150 -0.7455 -0.5471
  583MPD2    H5 8651   1.354   1.991  16.665 -0.3713 -0.1402  0.0748
  583MPD2    N1 8652   1.708   1.706  16.465 -0.4037 -0.0109 -0.1070
  583MPD2    H7 8653   1.691   1.781  16.400 -1.8693 -0.7027 -0.5143
  584TMC3    C1 8654   1.205   2.061  16.877 -0.5585 -0.0996  0.1716
  584TMC3    C2 8655   1.225   2.168  16.792  0.7112 -0.2682  0.0853
  584TMC3    C3 8656   1.208   2.290  16.848  0.8575  0.8971 -0.4464
  584TMC3    C4 8657   1.167   2.079  17.013  0.5666 -0.0616  0.2014
  584TMC3    C5 8658   1.149   2.210  17.060 -0.0612  0.3641  0.6093
  584TMC3    C6 8659   1.168   2.315  16.978 -0.3131 -0.2095  0.1389
  584TMC3     C 8660   1.287   1.939  16.861 -0.1037 -0.0227  0.5644
  584TMC3     O 8661   1.294   1.870  16.960  0.3251 -0.1460 -0.1280
  584TMC3     H 8662   1.260   2.157  16.690 -1.7585  0.2720 -0.8204
  584TMC3    H1 8663   1.153   1.994  17.079  1.5651 -0.5896 -0.2798
  584TMC3    H2 8664   1.137   2.414  17.009 -1.6951 -0.1626 -1.3674
  584TMC3    C7 8665   1.146   2.228  17.205 -0.0685 -0.5007 -0.0001
  584TMC3    C8 8666   1.233   2.394  16.750 -0.5997  0.7341  0.1850
  584TMC3    O1 8667   1.151   2.123  17.269  0.2809  0.5566 -0.1650
  584TMC3    O2 8668   1.176   2.387  16.638 -0.8247 -0.0375 -0.1115
  585MPD2     C 8669   4.669   1.172   0.034  0.4637  0.2664 -0.2153
  585MPD2    C1 8670   0.077   1.183   0.068 -0.1594  0.1009  0.4323
  585MPD2    C2 8671   0.168   1.133  17.671  0.1410 -0.2372  0.0921
  585MPD2    C3 8672   0.134   1.085  17.548  0.3482 -0.7221  1.1892
  585MPD2    C4 8673   4.722   1.069  17.510  0.1978  0.0128 -0.7252
  585MPD2    C5 8674   4.630   1.118  17.605  0.0658  0.4825  0.5050
  585MPD2     H 8675   0.272   1.137   0.007  0.4605  2.1748 -1.3751
  585MPD2    H1 8676   4.684   1.041  17.413 -2.3284  0.5136  0.1144
  585MPD2    H2 8677   4.601   1.207   0.110  0.2005 -1.3956  0.3254
  585MPD2    H3 8678   4.525   1.109  17.582  0.1583 -2.1018  1.1696
  585MPD2     N 8679   0.241   1.050  17.467  0.2473 -0.6994  0.3789
  585MPD2    H5 8680   0.335   1.067  17.502 -0.0445  3.1587 -0.6654
  585MPD2    N1 8681   0.107   1.257   0.184 -0.1284  0.1575 -0.1367
  585MPD2    H7 8682   0.043   1.330   0.215  1.7254  2.1679 -1.0291
  586TMC3    C1 8683   0.373   1.001  17.292  0.1826  0.4579 -0.1607
  586TMC3    C2 8684   0.455   0.922  17.369 -0.2587  0.3662  0.1669
  586TMC3    C3 8685   0.590   0.930  17.367 -0.4112 -0.3448 -0.0753
  586TMC3    C4 8686   0.429   1.071  17.184  0.5654 -0.6841  0.7571
  586TMC3    C5 8687   0.563   1.068  17.173  0.1646  0.1386 -0.3949
  586TMC3    C6 8688   0.645   1.014  17.273 -0.3539 -0.5558 -0.0193
  586TMC3     C 8689   0.237   1.007  17.340  0.0067  0.7296 -0.6748
  586TMC3     O 8690   0.149   0.994  17.257  0.0031 -0.0862  0.5165
  586TMC3     H 8691   0.416   0.858  17.447 -0.1112  0.5710  0.4078
  586TMC3    H1 8692   0.372   1.119  17.105  1.6960  1.8952  1.5143
  586TMC3    H2 8693   0.753   1.018  17.265 -0.4846  1.8574 -0.7800
  586TMC3    C7 8694   0.632   1.138  17.066  0.0277 -0.9968 -0.5279
  586TMC3    C8 8695   0.663   0.809  17.404 -0.2696 -0.2587 -0.1039
  586TMC3    O1 8696   0.594   1.250  17.051  0.0021 -0.3106  0.8404
  586TMC3    O2 8697   0.593   0.713  17.437  0.0893  0.2180  0.1394
  587TMC3    C1 8698   2.943   4.339  16.072  0.6012  0.8243  0.1911
  587TMC3    C2 8699   2.860   4.392  15.973 -0.2453  0.1102  0.0144
  587TMC3    C3 8700   2.908   4.496  15.902  0.6633  0.4240 -0.2372
  587TMC3    C4 8701   3.064   4.376  16.085 -0.6756 -0.5767 -0.5542
  587TMC3    C5 8702   3.112   4.478  16.007  0.2442 -0.7870  0.6607
  587TMC3    C6 8703   3.037   4.544  15.914 -0.0849  0.2246 -0.1811
  587TMC3     C 8704   2.904   4.223  16.148 -0.6023  0.3559 -0.2824
  587TMC3     O 8705   2.991   4.157  16.200  0.1710  0.5958 -0.3680
  587TMC3     H 8706   2.762   4.348  15.960  1.0727 -2.5500 -0.9555
  587TMC3    H1 8707   3.125   4.318  16.154  0.1928 -0.6965 -1.4249
  587TMC3    H2 8708   3.066   4.640  15.875  1.0860 -0.8174 -1.8423
  587TMC3    C7 8709   3.246   4.515  16.033 -0.3326  0.1108 -0.3627
  587TMC3    C8 8710   2.819   4.587  15.841  0.2880 -0.0690 -0.4528
  587TMC3    O1 8711   3.296   4.591  15.951 -0.7607 -0.5726  0.2773
  587TMC3    O2 8712   2.863   4.670  15.764 -0.2960 -0.5046  0.2383
  588TMC3    C1 8713   0.304   2.382   9.665 -0.0962  0.1647 -0.3960
  588TMC3    C2 8714   0.242   2.269   9.709 -0.3825  0.2022 -0.2005
  588TMC3    C3 8715   0.317   2.171   9.768  0.2306 -0.1783 -0.0415
  588TMC3    C4 8716   0.437   2.407   9.690 -0.1518  0.4355 -0.4551
  588TMC3    C5 8717   0.505   2.310   9.757  1.3168 -0.1138  0.3580
  588TMC3    C6 8718   0.446   2.190   9.802 -0.0981  0.5855  0.5295
  588TMC3     C 8719   0.213   2.495   9.627 -0.2151 -0.0690 -0.4456
  588TMC3     O 8720   0.122   2.463   9.557 -0.2229  0.5386 -0.2602
  588TMC3     H 8721   0.135   2.252   9.702 -0.3290 -0.1775 -0.0421
  588TMC3    H1 8722   0.484   2.494   9.646 -1.0034 -0.6675 -3.5909
  588TMC3    H2 8723   0.489   2.119   9.871  0.3901 -1.5675 -2.0092
  588TMC3    C7 8724   0.630   2.350   9.818 -0.3812 -0.8819  0.7697
  588TMC3    C8 8725   0.260   2.034   9.782 -0.3477  0.3105 -0.6858
  588TMC3    O1 8726   0.678   2.273   9.900 -0.3495  0.2993 -0.7816
  588TMC3    O2 8727   0.146   2.016   9.746 -0.4954  0.4335 -0.7289
  589TMC3    C1 8728   4.715   0.205   0.844  0.1022  0.3739  0.0153
  589TMC3    C2 8729   0.015   0.319   0.913 -0.3434  0.4183  0.1165
  589TMC3    C3 8730   0.138   0.342   0.952  0.0249 -0.7676  0.3026
  589TMC3    C4 8731   0.093   0.112   0.814  0.5103 -0.0753 -0.1741
  589TMC3    C5 8732   0.215   0.128   0.869  0.1555 -0.4640  0.4145
  589TMC3    C6 8733   0.229   0.240   0.947  0.1012 -0.6214 -0.0896
  589TMC3     C 8734   4.586   0.181   0.776  0.1892 -0.1133  0.2081
  589TMC3     O 8735   4.580   0.077   0.712  0.0471 -0.6913 -0.0748
  589TMC3     H 8736   4.679   0.410   0.907 -1.3900 -0.3098 -0.7306
  589TMC3    H1 8737   0.065   0.024   0.757 -2.9860 -0.9896  2.9586
  589TMC3    H2 8738   0.310   0.252   1.019 -0.6512 -3.4753  1.2274
  589TMC3    C7 8739   0.304   0.009   0.874  0.3903  0.8697  0.7153
  589TMC3    C8 8740   0.162   0.464   1.030  0.0062 -0.5782 -0.1601
  589TMC3    O1 8741   0.256   4.625   0.836  0.5639  0.0629  0.6647
  589TMC3    O2 8742   0.065   0.529   1.076  0.0310 -0.3935  0.4390
  590MPD2     C 8743   4.205   2.737  16.524 -0.1177  0.3271  0.9010
  590MPD2    C1 8744   4.135   2.766  16.408 -0.2662  0.7356 -0.3370
  590MPD2    C2 8745   4.204   2.834  16.313 -0.2759 -0.1229  0.0184
  590MPD2    C3 8746   4.346   2.825  16.322  0.2814  0.1575 -0.0602
  590MPD2    C4 8747   4.416   2.789  16.434  0.7956 -0.1114  0.5319
  590MPD2    C5 8748   4.342   2.748  16.538 -0.5839  0.0741 -0.1323
  590MPD2     H 8749   4.164   2.867  16.218  1.8006 -0.9948 -1.1701
  590MPD2    H1 8750   4.524   2.788  16.439  0.8798  0.4594 -1.2602
  590MPD2    H2 8751   4.150   2.714  16.614  0.7453 -2.1903  0.7872
  590MPD2    H3 8752   4.384   2.728  16.635 -0.4806  0.5447 -0.0780
  590MPD2     N 8753   4.406   2.867  16.207 -0.0279  0.3000 -0.9105
  590MPD2    H5 8754   4.344   2.921  16.147 -1.8320 -1.8873 -1.0212
  590MPD2    N1 8755   3.993   2.757  16.402  0.6247  0.2030  0.1384
  590MPD2    H7 8756   3.947   2.721  16.485 -0.7510 -0.3906 -0.8866
  591TMC3    C1 8757   4.548   2.929  16.046 -0.7136 -0.1930 -0.6806
  591TMC3    C2 8758   4.613   2.859  15.943  0.1043  0.6137  1.7029
  591TMC3    C3 8759   4.603   2.922  15.822 -0.2447 -0.1598  0.5139
  591TMC3    C4 8760   4.493   3.052  16.035 -0.2596  0.4626  0.0894
  591TMC3    C5 8761   4.503   3.115  15.912  0.4592  0.1301 -0.0591
  591TMC3    C6 8762   4.545   3.047  15.801 -0.3333  0.5055 -0.3067
  591TMC3     C 8763   4.537   2.863  16.172 -0.4203 -0.8723  0.7793
  591TMC3     O 8764   4.628   2.788  16.207  0.2121  0.3167 -0.6055
  591TMC3     H 8765   4.632   2.754  15.958 -1.3449  0.2303  0.8637
  591TMC3    H1 8766   4.455   3.100  16.124  0.8566  2.3369 -0.4300
  591TMC3    H2 8767   4.562   3.096  15.705  2.2797 -1.1839 -0.7111
  591TMC3    C7 8768   4.406   3.223  15.897  0.3851  0.0072 -0.1696
  591TMC3    C8 8769   4.600   2.841  15.699  0.4945  0.0801 -0.0939
  591TMC3    O1 8770   4.308   3.217  15.966  0.1000 -0.3681  0.3006
  591TMC3    O2 8771   4.665   2.739  15.693 -0.0833 -0.0841 -0.0085
  592MPD2     C 8772   4.595   0.582  11.581  0.0638  0.5470 -0.4536
  592MPD2    C1 8773   4.655   0.509  11.683 -0.6512  0.0290 -0.3285
  592MPD2    C2 8774   4.586   0.407  11.739  0.2618 -0.2144  0.5788
  592MPD2    C3 8775   4.471   0.355  11.681 -0.2907 -0.7271 -0.3811
  592MPD2    C4 8776   4.416   0.422  11.568  0.5295 -0.5182  0.4193
  592MPD2    C5 8777   4.481   0.536  11.525  0.0063  0.5023  0.3852
  592MPD2     H 8778   4.619   0.355  11.828  0.5023 -1.2946 -0.1493
  592MPD2    H1 8779   4.325   0.394  11.516  0.6671 -0.7085  0.2780
  592MPD2    H2 8780   4.631   0.674  11.536  0.9191  0.7717  0.6959
  592MPD2    H3 8781   4.437   0.586  11.440 -1.3175 -2.9074 -0.9008
  592MPD2     N 8782   4.412   0.244  11.743  0.7563  0.1132  0.7600
  592MPD2    H5 8783   4.464   0.207  11.822  0.8452 -0.8283  0.2706
  592MPD2    N1 8784   0.058   0.555  11.733 -0.1128  0.2503  0.2586
  592MPD2    H7 8785   0.110   0.619  11.674  1.1114 -0.0321  1.0361
  593TMC3    C1 8786   0.243   0.578  11.862  0.2969  0.2734  0.2584
  593TMC3    C2 8787   0.286   0.633  11.984  0.4588  0.0948  0.0195
  593TMC3    C3 8788   0.405   0.707  11.970 -0.0614  0.0068  0.3203
  593TMC3    C4 8789   0.313   0.575  11.746  0.3334 -0.2145  0.4280
  593TMC3    C5 8790   0.427   0.651  11.744  0.1731 -0.0299 -0.5038
  593TMC3    C6 8791   0.476   0.721  11.851  0.4729  0.6885  0.6381
  593TMC3     C 8792   0.111   0.525  11.853 -0.7762  0.4011  0.3368
  593TMC3     O 8793   0.053   0.486  11.957  0.5244 -0.8239  0.0622
  593TMC3     H 8794   0.219   0.629  12.070  0.4167 -1.6614 -0.1092
  593TMC3    H1 8795   0.273   0.527  11.658  2.1429  1.3315 -1.2275
  593TMC3    H2 8796   0.560   0.789  11.843 -0.6842  1.9472 -0.8771
  593TMC3    C7 8797   0.507   0.627  11.629  0.7208 -0.1886  0.6120
  593TMC3    C8 8798   0.460   0.763  12.092 -0.1588 -0.3913  1.0570
  593TMC3    O1 8799   0.505   0.513  11.585 -0.5459  0.1091 -0.0234
  593TMC3    O2 8800   0.374   0.777  12.175 -0.1174  0.5173  0.1640
  594MPD2     C 8801   3.559   3.206  14.569  0.0972  0.3500  0.3872
  594MPD2    C1 8802   3.471   3.273  14.490  0.0665 -0.1463  0.2821
  594MPD2    C2 8803   3.501   3.399  14.447 -0.0984 -0.5566  0.2283
  594MPD2    C3 8804   3.616   3.463  14.486 -0.0518  0.6146 -0.1517
  594MPD2    C4 8805   3.706   3.398  14.569 -0.6120  0.0871 -0.8857
  594MPD2    C5 8806   3.672   3.274  14.609 -0.4326  0.7401 -0.1885
  594MPD2     H 8807   3.434   3.444  14.375  1.6484  0.6026 -0.6797
  594MPD2    H1 8808   3.802   3.434  14.606 -1.5909  1.6889  0.0868
  594MPD2    H2 8809   3.536   3.108  14.607  0.4618  0.0254 -0.2273
  594MPD2    H3 8810   3.743   3.238  14.683 -3.6224 -1.1091  1.9306
  594MPD2     N 8811   3.640   3.584  14.418 -0.2339 -0.2581 -0.0588
  594MPD2    H5 8812   3.560   3.620  14.365 -0.5474 -1.8314 -0.6430
  594MPD2    N1 8813   3.347   3.204  14.472  0.2171 -0.6160 -0.4872
  594MPD2    H7 8814   3.338   3.112  14.513  0.4885 -0.7285 -0.6783
  595TMC3    C1 8815   3.866   3.907  14.179  0.1984  0.1953  0.4482
  595TMC3    C2 8816   3.876   3.808  14.275  0.5688 -0.6645  0.5887
  595TMC3    C3 8817   3.758   3.765  14.333 -0.1312  0.4519  0.5265
  595TMC3    C4 8818   3.751   3.950  14.131  0.6275 -0.1458  0.5074
  595TMC3    C5 8819   3.634   3.905  14.195 -0.2652 -0.3971  0.2931
  595TMC3    C6 8820   3.636   3.814  14.296  0.4052 -0.6252  0.6818
  595TMC3     C 8821   3.972   3.995  14.157 -0.9091  0.1155  0.7483
  595TMC3     O 8822   3.953   4.113  14.135  0.6663 -0.0893  0.3355
  595TMC3     H 8823   3.973   3.770  14.306  0.6290 -1.9989 -1.2656
  595TMC3    H1 8824   3.752   4.030  14.058 -0.2029 -0.8558 -0.2789
  595TMC3    H2 8825   3.548   3.790  14.354 -0.9462  0.4683 -0.8985
  595TMC3    C7 8826   3.510   3.981  14.178  0.2840  0.2768 -0.2604
  595TMC3    C8 8827   3.760   3.651  14.416 -0.8199  0.4097 -0.2421
  595TMC3    O1 8828   3.428   3.959  14.267 -0.0770 -0.1623  0.2317
  595TMC3    O2 8829   3.867   3.614  14.453  0.0649 -0.3702 -0.3098
  596MPD2     C 8830   2.582   1.637  16.623 -0.0080 -0.0812  0.0780
  596MPD2    C1 8831   2.536   1.737  16.543  0.1463 -0.8706 -0.5178
  596MPD2    C2 8832   2.542   1.716  16.405  0.3437  0.3974 -0.4967
  596MPD2    C3 8833   2.573   1.589  16.349  0.8956  0.6940  0.0498
  596MPD2    C4 8834   2.614   1.489  16.429  0.4176  0.0662 -0.3585
  596MPD2    C5 8835   2.624   1.519  16.562 -0.3403 -0.4177 -0.1926
  596MPD2     H 8836   2.501   1.801  16.352  0.2559 -0.6489 -2.1120
  596MPD2    H1 8837   2.650   1.396  16.387  2.2027 -0.1983  1.7576
  596MPD2    H2 8838   2.591   1.650  16.730 -0.1178 -1.4915  0.2556
  596MPD2    H3 8839   2.665   1.437  16.620  0.5184 -0.7182 -1.2121
  596MPD2     N 8840   2.552   1.559  16.213  0.3587 -0.2111  0.3224
  596MPD2    H5 8841   2.567   1.462  16.187  1.5620  0.1619 -0.4193
  596MPD2    N1 8842   2.503   1.868  16.599 -0.4422  0.5248  0.6276
  596MPD2    H7 8843   2.488   1.950  16.542 -2.4008 -1.3307 -1.5086
  597TMC3    C1 8844   2.452   2.028  16.761  0.3791 -0.2278  0.4287
  597TMC3    C2 8845   2.502   2.131  16.683  0.0579  0.7721  0.8725
  597TMC3    C3 8846   2.465   2.259  16.713  0.0935  0.7298 -0.3024
  597TMC3    C4 8847   2.358   2.058  16.855  0.8976  0.9770  0.2010
  597TMC3    C5 8848   2.325   2.191  16.875  1.6087 -0.2916  0.0336
  597TMC3    C6 8849   2.376   2.295  16.807 -0.2350  0.1243 -0.7405
  597TMC3     C 8850   2.481   1.891  16.729  0.0177  0.0571 -0.7434
  597TMC3     O 8851   2.476   1.814  16.820 -0.0857  0.9193  0.2693
  597TMC3     H 8852   2.579   2.119  16.608 -3.0742  1.5231 -2.4395
  597TMC3    H1 8853   2.290   1.986  16.900 -0.0623 -0.4703 -3.5782
  597TMC3    H2 8854   2.351   2.398  16.828  0.9511  0.2117  0.2227
  597TMC3    C7 8855   2.186   2.212  16.907 -0.4188  0.6466 -0.7975
  597TMC3    C8 8856   2.512   2.355  16.626  0.1314  0.4284 -0.0466
  597TMC3    O1 8857   2.138   2.128  16.984 -0.4817 -0.1442 -0.0920
  597TMC3    O2 8858   2.521   2.475  16.659  0.4647  0.1311 -0.0170
  598TMC3    C1 8859   0.735   3.332  15.211  0.1928 -0.0533  0.1060
  598TMC3    C2 8860   0.609   3.277  15.204  0.4261  0.5913  0.3113
  598TMC3    C3 8861   0.534   3.314  15.095 -0.6537 -0.2928  0.6099
  598TMC3    C4 8862   0.781   3.427  15.124  0.6195 -0.5513  0.6566
  598TMC3    C5 8863   0.696   3.463  15.021  0.3692 -0.5070  0.5689
  598TMC3    C6 8864   0.577   3.408  15.008 -0.3487  0.0613 -0.7563
  598TMC3     C 8865   0.821   3.269  15.311  0.9017  0.2189  0.2615
  598TMC3     O 8866   0.765   3.205  15.391 -0.0523  0.3890  0.2611
  598TMC3     H 8867   0.575   3.201  15.274  0.0432  0.7369  0.2796
  598TMC3    H1 8868   0.883   3.466  15.119  0.3995 -0.3152 -2.0059
  598TMC3    H2 8869   0.508   3.437  14.930 -0.0243  1.6212 -0.4664
  598TMC3    C7 8870   0.732   3.563  14.920 -1.3104 -0.4606 -0.0340
  598TMC3    C8 8871   0.401   3.253  15.079 -0.8736 -0.5642 -0.8481
  598TMC3    O1 8872   0.667   3.566  14.818 -0.0142  0.5440  0.8335
  598TMC3    O2 8873   0.360   3.193  15.181  0.2857 -0.0275 -0.3618
  599MPD2     C 8874   1.021   1.103  15.971  0.0447 -0.3996 -0.4113
  599MPD2    C1 8875   0.963   0.981  15.971  0.5950  0.0135 -0.5443
  599MPD2    C2 8876   0.822   0.971  15.961  0.2507  0.5024  0.2600
  599MPD2    C3 8877   0.751   1.089  15.956 -0.2856  1.2556 -0.5488
  599MPD2    C4 8878   0.816   1.210  15.972  0.0326  0.0798  0.5368
  599MPD2    C5 8879   0.951   1.219  15.970  0.2155  0.0715  0.6288
  599MPD2     H 8880   0.776   0.873  15.956 -1.2707  1.2387 -0.2865
  599MPD2    H1 8881   0.753   1.296  15.988 -2.2692 -1.9407  2.2651
  599MPD2    H2 8882   1.129   1.109  15.977  0.0429 -1.5133  0.7406
  599MPD2    H3 8883   0.995   1.315  15.993  0.6228 -0.5220  2.2862
  599MPD2     N 8884   0.612   1.108  15.966 -0.1147  0.0616  0.4359
  599MPD2    H5 8885   0.576   1.202  15.974 -0.7588 -0.0352 -1.2023
  599MPD2    N1 8886   1.053   0.866  15.956 -0.2479 -0.5163  0.1537
  599MPD2    H7 8887   1.151   0.879  15.981  0.1783 -0.0095 -1.7961
  600TMC3    C1 8888   0.384   1.039  15.990  0.0027 -0.3781 -0.3954
  600TMC3    C2 8889   0.297   0.934  15.953  0.4738 -0.9715  0.1132
  600TMC3    C3 8890   0.157   0.957  15.967 -0.5018 -0.1125  0.0674
  600TMC3    C4 8891   0.345   1.162  16.037  0.3214 -0.7377  0.1786
  600TMC3    C5 8892   0.205   1.174  16.053 -0.6346  0.0690 -0.5526
  600TMC3    C6 8893   0.112   1.082  16.012 -0.4845 -0.2072 -0.4279
  600TMC3     C 8894   0.524   0.999  15.973 -0.2793 -0.4112  0.2654
  600TMC3     O 8895   0.551   0.879  15.967 -0.0582  0.6736 -0.3870
  600TMC3     H 8896   0.334   0.840  15.914  1.4907  0.8174 -3.1566
  600TMC3    H1 8897   0.411   1.230  16.091  0.4804 -1.2979  0.6976
  600TMC3    H2 8898   0.006   1.105  16.009 -0.7843 -1.5617  0.1717
  600TMC3    C7 8899   0.153   1.285  16.126 -0.1111 -0.0254  0.1873
  600TMC3    C8 8900   0.068   0.845  15.949 -0.8170 -0.2422 -0.6594
  600TMC3    O1 8901   0.044   1.263  16.184  0.6827  0.7958  0.1591
  600TMC3    O2 8902   0.116   0.735  15.938  0.5099  0.5873 -0.2304
  601MPD2     C 8903   3.047   3.317  16.918  0.2825  0.1641  0.6026
  601MPD2    C1 8904   2.966   3.364  17.024 -0.0814  0.8559  0.0555
  601MPD2    C2 8905   2.974   3.304  17.149  0.0910 -0.5629 -0.5988
  601MPD2    C3 8906   3.056   3.199  17.171 -0.0497 -0.4166  0.1984
  601MPD2    C4 8907   3.135   3.158  17.063  0.2664  0.1485 -0.6020
  601MPD2    C5 8908   3.132   3.215  16.942 -0.2277 -0.2046 -0.1393
  601MPD2     H 8909   2.911   3.336  17.232  2.5993  0.4279  0.9126
  601MPD2    H1 8910   3.201   3.073  17.071  0.5078  0.4355  0.4421
  601MPD2    H2 8911   3.030   3.360  16.820  2.9678  1.6893  0.7938
  601MPD2    H3 8912   3.190   3.167  16.864  0.8075  1.4240 -0.3598
  601MPD2     N 8913   3.055   3.111  17.286  0.2924  0.1145  0.2425
  601MPD2    H5 8914   3.107   3.024  17.278 -0.1257 -0.2658  1.5907
  601MPD2    N1 8915   2.857   3.453  17.005  0.0518  0.0421 -0.0835
  601MPD2    H7 8916   2.811   3.492  17.087  0.5911  1.7955 -0.6104
  602TMC3    C1 8917   2.656   3.525  16.922 -0.4045 -0.5143  0.1977
  602TMC3    C2 8918   2.654   3.650  16.978 -0.0241  0.1487 -0.7182
  602TMC3    C3 8919   2.536   3.717  16.985  0.6344 -0.2920 -0.2595
  602TMC3    C4 8920   2.539   3.473  16.865  0.5708 -0.5590  0.6352
  602TMC3    C5 8921   2.419   3.541  16.882 -0.7036  0.9289  0.7299
  602TMC3    C6 8922   2.411   3.666  16.939  0.0665 -0.8433 -0.3967
  602TMC3     C 8923   2.783   3.456  16.888  0.1031 -0.1600  0.4157
  602TMC3     O 8924   2.781   3.377  16.794 -0.2290  0.0875 -0.1568
  602TMC3     H 8925   2.749   3.699  16.997 -0.1081  0.6949 -1.7145
  602TMC3    H1 8926   2.545   3.367  16.841 -0.6849 -0.4585 -0.0531
  602TMC3    H2 8927   2.320   3.725  16.938 -0.4160 -1.6112 -1.2352
  602TMC3    C7 8928   2.291   3.467  16.875  0.6207 -0.1277 -0.0167
  602TMC3    C8 8929   2.527   3.854  17.042  0.0200 -0.2279 -0.6146
  602TMC3    O1 8930   2.271   3.370  16.799  0.0796 -0.3313 -0.6783
  602TMC3    O2 8931   2.616   3.936  17.018 -0.1757 -0.2157 -0.3947
  603TMC3    C1 8932   0.881   4.386  10.746 -0.1287 -0.3525 -1.7322
  603TMC3    C2 8933   0.917   4.359  10.875 -0.6102  0.2947 -0.0589
  603TMC3    C3 8934   0.919   4.478  10.951 -0.7273 -0.0443 -0.4201
  603TMC3    C4 8935   0.849   4.507  10.696 -0.1270 -0.0219 -0.1278
  603TMC3    C5 8936   0.864   4.619  10.772  0.3032  0.2535  0.3529
  603TMC3    C6 8937   0.901   4.608  10.902 -0.8922  0.0986  0.0894
  603TMC3     C 8938   0.843   4.280  10.659 -0.3776  0.0654 -0.8583
  603TMC3     O 8939   0.846   4.297  10.536  0.3033  0.2208 -0.2404
  603TMC3     H 8940   0.940   4.263  10.920  1.1331  0.9665  0.4729
  603TMC3    H1 8941   0.819   4.515  10.592 -0.1224  4.2999  0.2225
  603TMC3    H2 8942   0.888   4.698  10.962 -2.2208  0.3439 -0.5731
  603TMC3    C7 8943   0.885   0.025  10.716  0.1826 -0.0338  0.2344
  603TMC3    C8 8944   0.930   4.459  11.092  0.7169 -0.2014  0.2333
  603TMC3    O1 8945   0.944   0.105  10.786  0.1576 -0.0672  0.3706
  603TMC3    O2 8946   0.931   4.339  11.131  0.1325 -0.2519  0.9190
  604MPD2     C 8947   1.489   2.867  15.843  0.1245  0.8352  0.5730
  604MPD2    C1 8948   1.377   2.829  15.770 -0.7482  0.3001  0.2603
  604MPD2    C2 8949   1.391   2.794  15.639  0.3748 -0.1576 -1.1441
  604MPD2    C3 8950   1.515   2.796  15.579 -0.1730 -0.0733  0.0367
  604MPD2    C4 8951   1.630   2.826  15.657 -0.0036  0.3565 -0.2208
  604MPD2    C5 8952   1.614   2.851  15.793  0.3605 -0.5057 -0.1669
  604MPD2     H 8953   1.308   2.774  15.571 -0.2481  3.1999 -1.3427
  604MPD2    H1 8954   1.733   2.823  15.623  0.5792  2.0369  1.3703
  604MPD2    H2 8955   1.475   2.889  15.948 -2.7425  2.1540 -0.0825
  604MPD2    H3 8956   1.700   2.873  15.855  0.0775  2.0469 -0.6576
  604MPD2     N 8957   1.535   2.758  15.442 -0.3394  0.2837 -0.4675
  604MPD2    H5 8958   1.445   2.734  15.401 -2.0970  2.2504  2.2648
  604MPD2    N1 8959   1.254   2.830  15.834  0.5457  0.5643 -0.1905
  604MPD2    H7 8960   1.252   2.849  15.933  1.4681  0.9217 -0.2344
  605TMC3    C1 8961   1.026   2.827  15.885  0.5791 -0.0238 -0.3522
  605TMC3    C2 8962   1.075   2.794  16.010  0.0630  0.6856  0.5367
  605TMC3    C3 8963   1.048   2.876  16.118  0.5352  0.2369 -0.3833
  605TMC3    C4 8964   0.950   2.938  15.868 -0.4051 -0.4201 -0.5522
  605TMC3    C5 8965   0.906   3.000  15.983  0.0050  0.3688  0.3296
  605TMC3    C6 8966   0.962   2.981  16.104  0.7412 -0.3427 -0.1807
  605TMC3     C 8967   1.123   2.811  15.778  0.1854  0.3476  0.2767
  605TMC3     O 8968   1.082   2.780  15.671  0.0187 -0.0888  0.1654
  605TMC3     H 8969   1.147   2.713  16.023  0.5034  1.0680  0.4834
  605TMC3    H1 8970   0.910   2.962  15.771 -1.4802 -2.2205 -0.5563
  605TMC3    H2 8971   0.915   3.024  16.193  1.0162 -2.4494  0.9837
  605TMC3    C7 8972   0.799   3.098  15.970  0.3518  0.3434 -0.0760
  605TMC3    C8 8973   1.175   2.901  16.180 -0.4795  0.8378  0.1926
  605TMC3    O1 8974   0.759   3.147  16.073  0.2514  0.2192  0.4456
  605TMC3    O2 8975   1.271   2.879  16.112  0.3250 -0.5488 -0.0423
  606TMC3    C1 8976   2.589   2.471   0.063  0.4797 -0.2166  0.4042
  606TMC3    C2 8977   2.507   2.447   0.170 -0.0734 -0.6654  0.0270
  606TMC3    C3 8978   2.426   2.337   0.177  0.2256  0.3008 -0.3250
  606TMC3    C4 8979   2.621   2.364  17.673 -0.1858 -0.2721 -0.2243
  606TMC3    C5 8980   2.536   2.250  17.684 -0.1976 -0.2810 -0.4954
  606TMC3    C6 8981   2.440   2.241   0.086 -0.3782  0.1611 -0.9417
  606TMC3     C 8982   2.566   2.601  17.692  0.5376 -0.8121  0.4053
  606TMC3     O 8983   2.489   2.675   0.058  0.6416  0.2557  0.2155
  606TMC3     H 8984   2.501   2.524   0.246  3.0040 -0.3406 -0.0603
  606TMC3    H1 8985   2.694   2.378  17.594 -0.0880 -1.5076 -0.3563
  606TMC3    H2 8986   2.380   2.151   0.102  0.5312  0.1149  2.2825
  606TMC3    C7 8987   2.593   2.131  17.634  0.3400  0.5757 -1.1702
  606TMC3    C8 8988   2.372   2.322   0.312 -0.2341  0.7077 -0.2574
  606TMC3    O1 8989   2.705   2.137  17.592 -0.3709  0.3465  0.5751
  606TMC3    O2 8990   2.322   2.417   0.365 -0.4913  0.2567  0.1741
  607MPD2     C 8991   4.473   4.570  11.629  0.4520 -0.4169  0.5783
  607MPD2    C1 8992   4.555   4.642  11.717 -0.3206  0.4597  0.0998
  607MPD2    C2 8993   4.566   4.589  11.845 -0.0210 -0.0596  0.2638
  607MPD2    C3 8994   4.499   4.475  11.888  0.0593 -0.0882  0.1038
  607MPD2    C4 8995   4.415   4.408  11.795 -0.2603  0.3198  0.5931
  607MPD2    C5 8996   4.397   4.467  11.670  0.3430  0.4555 -0.4137
  607MPD2     H 8997   4.634   4.640  11.913  0.2351 -3.2692  2.3997
  607MPD2    H1 8998   4.354   4.322  11.823 -2.0947  0.8945 -1.6183
  607MPD2    H2 8999   4.444   4.607  11.531 -0.7920 -0.5862  0.8845
  607MPD2    H3 9000   4.339   4.417  11.594  0.3817  1.1761 -0.9251
  607MPD2     N 9001   4.525   4.438  12.023  0.0277 -0.0133  0.6176
  607MPD2    H5 9002   4.591   4.496  12.075  0.6758 -1.5244  1.4896
  607MPD2    N1 9003   4.638   0.033  11.688 -0.2585 -0.3228 -0.6865
  607MPD2    H7 9004   4.687   0.065  11.771 -0.6234 -0.9693 -0.2162
  608TMC3    C1 9005   0.062   0.171  11.580  0.0666  0.3093  0.5396
  608TMC3    C2 9006   0.110   0.189  11.706 -0.8909  0.2147 -0.5024
  608TMC3    C3 9007   0.244   0.226  11.714 -0.0754 -0.2234 -0.3847
  608TMC3    C4 9008   0.137   0.180  11.469  0.4043  0.3580  0.1752
  608TMC3    C5 9009   0.266   0.225  11.484  0.4840 -0.2555  0.0837
  608TMC3    C6 9010   0.318   0.256  11.606 -0.6338  0.3670 -0.5607
  608TMC3     C 9011   4.670   0.090  11.568 -0.6696  0.1986 -0.2839
  608TMC3     O 9012   4.616   0.079  11.459  0.0663 -0.3508  0.0709
  608TMC3     H 9013   0.055   0.183  11.800 -2.2041 -1.2559 -1.3758
  608TMC3    H1 9014   0.106   0.147  11.370 -0.7627  1.8046  0.0532
  608TMC3    H2 9015   0.422   0.281  11.626 -0.3831 -1.2346  0.1801
  608TMC3    C7 9016   0.352   0.223  11.368 -0.3239  0.0562 -0.1159
  608TMC3    C8 9017   0.304   0.239  11.847 -0.4916 -0.7051 -0.1926
  608TMC3    O1 9018   0.298   0.216  11.258  0.4078 -0.2509 -0.1603
  608TMC3    O2 9019   0.383   0.328  11.872 -0.2569  0.5044  0.4486
  609TMC3    C1 9020   3.198   3.424   9.019 -0.5306 -0.4558 -0.4526
  609TMC3    C2 9021   3.172   3.303   8.951 -0.2956  0.5316  0.5694
  609TMC3    C3 9022   3.262   3.202   8.936  0.5375 -0.5815  0.7382
  609TMC3    C4 9023   3.327   3.442   9.064 -0.0640 -0.2532  0.0185
  609TMC3    C5 9024   3.425   3.343   9.037  0.1558 -0.5581 -0.4536
  609TMC3    C6 9025   3.390   3.225   8.980 -0.7148  0.2816  0.1579
  609TMC3     C 9026   3.098   3.532   9.030 -0.2925  0.3619  0.3246
  609TMC3     O 9027   2.981   3.492   9.010 -0.4861 -0.4293  0.1898
  609TMC3     H 9028   3.080   3.300   8.894 -0.3626 -0.5715  0.7457
  609TMC3    H1 9029   3.365   3.533   9.108 -1.2825  0.2556  0.0332
  609TMC3    H2 9030   3.464   3.147   8.966 -0.2612  0.4015  1.8850
  609TMC3    C7 9031   3.554   3.368   9.093 -0.0955 -0.5142 -0.1381
  609TMC3    C8 9032   3.208   3.069   8.903  1.0208 -0.0017 -0.1218
  609TMC3    O1 9033   3.570   3.469   9.156 -0.4920  0.1391 -0.4714
  609TMC3    O2 9034   3.093   3.067   8.864 -0.0231 -0.0162 -0.1147
  610TMC3    C1 9035   0.562   4.621  12.464 -0.5457 -0.6712 -0.3574
  610TMC3    C2 9036   0.569   4.620  12.327  0.2877 -0.0452 -0.1244
  610TMC3    C3 9037   0.539   4.504  12.250 -0.5859 -0.4845 -0.0364
  610TMC3    C4 9038   0.532   4.506  12.527  0.8017  0.0719 -0.7412
  610TMC3    C5 9039   0.505   4.399  12.454  0.5213  0.0544  0.1759
  610TMC3    C6 9040   0.507   4.389  12.323 -0.1280  0.2169  0.2695
  610TMC3     C 9041   0.528   0.017  12.537  1.0410 -0.5469 -0.4634
  610TMC3     O 9042   0.453   0.002  12.630  0.0508  0.0410 -0.3505
  610TMC3     H 9043   0.588   4.707  12.265 -1.2998  1.1925  1.1294
  610TMC3    H1 9044   0.527   4.493  12.635 -1.1360  0.1925 -0.8226
  610TMC3    H2 9045   0.496   4.291  12.276 -3.6203  0.8392 -0.1920
  610TMC3    C7 9046   0.518   4.276  12.535  0.3062  0.2027 -0.1482
  610TMC3    C8 9047   0.490   4.519  12.116 -1.0709 -0.4265  0.1326
  610TMC3    O1 9048   0.611   4.275  12.613 -0.2090  0.3666  0.1084
  610TMC3    O2 9049   0.522   4.618  12.056  0.0847 -0.0455  0.0523
  611MPD2     C 9050   4.442   4.648  10.064 -0.1069 -0.1710  0.6361
  611MPD2    C1 9051   4.570   4.605  10.066  0.2267 -0.0963 -0.5933
  611MPD2    C2 9052   4.675   4.701  10.057  0.2615 -0.3218  0.0265
  611MPD2    C3 9053   4.648   0.112  10.058 -0.0820  0.4968 -0.5249
  611MPD2    C4 9054   4.517   0.151  10.071  0.0906  0.5204  1.0536
  611MPD2    C5 9055   4.417   0.061  10.071 -0.9631 -0.1399 -0.7305
  611MPD2     H 9056   0.055   4.668  10.049  0.6920  0.4104  2.3620
  611MPD2    H1 9057   4.490   0.256  10.072 -0.9049  0.2864 -0.7670
  611MPD2    H2 9058   4.358   4.581  10.055 -0.2706  0.2625 -0.9616
  611MPD2    H3 9059   4.317   0.103  10.069 -0.9213 -0.0650 -1.1543
  611MPD2     N 9060   0.028   0.212  10.042 -0.1801 -0.6231  0.0122
  611MPD2    H5 9061   4.720   0.305  10.015  1.7601 -0.4942 -1.7907
  611MPD2    N1 9062   4.597   4.464  10.064  0.1468 -0.0209 -0.2126
  611MPD2    H7 9063   4.517   4.406  10.088 -0.2678  1.2298  1.3999
  612TMC3    C1 9064   0.243   0.310  10.044  0.3938 -0.3769 -0.6342
  612TMC3    C2 9065   0.369   0.304  10.094  0.0410 -0.0187 -0.4564
  612TMC3    C3 9066   0.446   0.416  10.097  0.0133  0.2556  0.0001
  612TMC3    C4 9067   0.187   0.425   9.994 -0.3737  0.7005  0.5274
  612TMC3    C5 9068   0.272   0.537  10.004  0.3521  0.6206 -0.3282
  612TMC3    C6 9069   0.398   0.538  10.053 -0.7897  0.1014 -0.1480
  612TMC3     C 9070   0.162   0.183  10.058 -0.4637  0.0889  0.2637
  612TMC3     O 9071   0.214   0.083  10.110  0.0271  0.7010  0.0999
  612TMC3     H 9072   0.394   0.215  10.151  2.5379  0.2513 -1.1279
  612TMC3    H1 9073   0.090   0.441   9.949  0.3935  2.2534 -0.5701
  612TMC3    H2 9074   0.459   0.627  10.054  0.3786 -0.6322 -3.4139
  612TMC3    C7 9075   0.217   0.658   9.952 -0.2541 -0.3203  0.2996
  612TMC3    C8 9076   0.576   0.422  10.175 -0.9396 -0.1185 -0.1759
  612TMC3    O1 9077   0.147   0.643   9.854 -0.0158  0.0455  0.0992
  612TMC3    O2 9078   0.627   0.533  10.186  0.2788  0.0779  0.2932
  613MPD2     C 9079   3.577   1.768  16.440  0.1213 -0.7445  1.5056
  613MPD2    C1 9080   3.620   1.717  16.321 -0.2186  0.2301 -0.3276
  613MPD2    C2 9081   3.654   1.584  16.318 -0.3604  0.2023  0.2406
  613MPD2    C3 9082   3.630   1.500  16.423 -0.4211 -0.3710 -0.5933
  613MPD2    C4 9083   3.583   1.557  16.544  0.3032 -0.2822  0.0483
  613MPD2    C5 9084   3.558   1.691  16.552 -0.5541 -0.7825 -0.0957
  613MPD2     H 9085   3.679   1.542  16.222 -2.0442 -1.2074  0.4194
  613MPD2    H1 9086   3.566   1.507  16.639 -2.5667  0.1446 -0.2478
  613MPD2    H2 9087   3.563   1.874  16.459 -1.1597 -0.8502  1.1389
  613MPD2    H3 9088   3.523   1.738  16.643 -0.8209 -0.2194 -0.4926
  613MPD2     N 9089   3.672   1.367  16.409 -0.4369 -0.1385 -0.1632
  613MPD2    H5 9090   3.742   1.343  16.339 -0.4045  1.4772 -0.6880
  613MPD2    N1 9091   3.647   1.791  16.206 -0.4338  0.2462  0.3855
  613MPD2    H7 9092   3.685   1.736  16.129 -2.4455  0.5617 -0.8325
  614TMC3    C1 9093   3.652   1.960  16.046 -0.1865  0.3481  0.2431
  614TMC3    C2 9094   3.744   1.868  15.995 -0.1918 -0.5049 -0.1234
  614TMC3    C3 9095   3.709   1.786  15.891  0.1720  0.3385 -0.7900
  614TMC3    C4 9096   3.528   1.971  15.988  0.2717 -0.1592 -0.1851
  614TMC3    C5 9097   3.498   1.887  15.884 -0.6129  0.5547  0.0123
  614TMC3    C6 9098   3.584   1.795  15.833  0.7808 -0.0841  0.3985
  614TMC3     C 9099   3.628   1.925  16.185  0.3168 -0.1079  0.2043
  614TMC3     O 9100   3.561   1.998  16.250 -0.5441 -0.5801 -0.4592
  614TMC3     H 9101   3.843   1.864  16.040 -0.5976  0.3289  0.8582
  614TMC3    H1 9102   3.455   2.039  16.032  1.8454  1.4370 -0.0439
  614TMC3    H2 9103   3.549   1.723  15.759  0.0924 -1.4941  2.0907
  614TMC3    C7 9104   3.393   1.948  15.802 -0.4653 -0.6213  0.0040
  614TMC3    C8 9105   3.762   1.656  15.921  0.4801  0.1661  0.3403
  614TMC3    O1 9106   3.347   2.059  15.828  0.2449 -0.0393  0.3640
  614TMC3    O2 9107   3.793   1.641  16.039  0.4390  0.1624  0.2829
  615MPD2     C 9108   2.518   2.806  15.956  0.6615  0.1644 -0.4133
  615MPD2    C1 9109   2.596   2.891  15.882 -0.0920 -0.0510 -0.1181
  615MPD2    C2 9110   2.564   2.905  15.748  0.1479 -0.5037  0.4554
  615MPD2    C3 9111   2.457   2.828  15.694 -0.2958  0.3804  0.0929
  615MPD2    C4 9112   2.389   2.736  15.767 -0.1524  0.1751 -0.2845
  615MPD2    C5 9113   2.419   2.724  15.899 -0.5313  0.2831  0.1073
  615MPD2     H 9114   2.625   2.971  15.687 -0.4357 -0.3900 -0.0074
  615MPD2    H1 9115   2.315   2.667  15.728  1.7476 -2.2378  0.3659
  615MPD2    H2 9116   2.529   2.803  16.064 -0.0806 -1.9214 -0.3967
  615MPD2    H3 9117   2.366   2.664  15.972 -1.5829  0.6459 -0.3491
  615MPD2     N 9118   2.425   2.842  15.563  0.0344  0.0127 -0.1915
  615MPD2    H5 9119   2.335   2.801  15.539  0.5236 -1.2283  0.1273
  615MPD2    N1 9120   2.699   2.974  15.932  0.2746  0.2351 -0.0625
  615MPD2    H7 9121   2.758   3.020  15.864 -0.5511  2.8015  0.9631
  616TMC3    C1 9122   2.870   3.052  16.068  1.1269  0.3781  0.1809
  616TMC3    C2 9123   2.883   3.168  15.996  0.0606  0.1940  0.1910
  616TMC3    C3 9124   2.994   3.250  16.018  0.2356 -0.2071 -0.8594
  616TMC3    C4 9125   2.949   3.021  16.172 -0.5980 -0.1658 -0.6088
  616TMC3    C5 9126   3.062   3.096  16.196 -0.8857  0.1094 -0.8203
  616TMC3    C6 9127   3.085   3.210  16.119  0.5672  0.1051  0.3932
  616TMC3     C 9128   2.750   2.973  16.062  0.1513 -0.3487 -0.4758
  616TMC3     O 9129   2.714   2.900  16.155  0.0133 -0.0624  0.2251
  616TMC3     H 9130   2.808   3.193  15.922  2.4956  2.9766 -1.3402
  616TMC3    H1 9131   2.931   2.930  16.229  1.4314 -0.5800 -0.6500
  616TMC3    H2 9132   3.148   3.286  16.162  2.1755 -0.9310 -0.1480
  616TMC3    C7 9133   3.157   3.055  16.291  0.3318 -0.0919 -0.6697
  616TMC3    C8 9134   3.000   3.365  15.937 -0.3646  0.0478 -0.2833
  616TMC3    O1 9135   3.112   2.974  16.371  0.4748 -0.6014 -0.0642
  616TMC3    O2 9136   2.914   3.370  15.849 -0.0541 -0.4923 -0.3172
  617MPD2     C 9137   1.087   1.712  13.643 -0.3295 -0.2174 -0.4811
  617MPD2    C1 9138   1.123   1.644  13.756  0.0038  0.1390 -0.5202
  617MPD2    C2 9139   1.038   1.569  13.835 -0.5373 -0.1923  0.6968
  617MPD2    C3 9140   0.906   1.581  13.797 -0.1075 -0.6104 -0.5364
  617MPD2    C4 9141   0.867   1.653  13.683 -0.3736  0.4702 -0.2197
  617MPD2    C5 9142   0.952   1.728  13.613 -0.2308  0.0683  0.3728
  617MPD2     H 9143   1.072   1.513  13.921 -2.6652 -1.8800  0.4445
  617MPD2    H1 9144   0.763   1.658  13.655 -0.1001 -0.3435 -1.4014
  617MPD2    H2 9145   1.155   1.770  13.583  1.1630  1.2692  2.6648
  617MPD2    H3 9146   0.924   1.779  13.521  0.0332 -0.5702 -0.0584
  617MPD2     N 9147   0.800   1.533  13.878 -0.2441  0.5420  0.3088
  617MPD2    H5 9148   0.707   1.546  13.840 -1.4025 -1.9751  2.2787
  617MPD2    N1 9149   1.265   1.653  13.783 -0.6364  0.5206 -1.1333
  617MPD2    H7 9150   1.320   1.715  13.725 -0.6661 -0.1917 -1.9108
  618TMC3    C1 9151   1.484   1.625  13.880 -0.0598  0.4370 -0.3656
  618TMC3    C2 9152   1.568   1.513  13.892  0.1529 -0.4195  0.7344
  618TMC3    C3 9153   1.683   1.510  13.811  0.4078 -0.1834 -0.5405
  618TMC3    C4 9154   1.526   1.736  13.813 -0.3704 -0.2486  0.1839
  618TMC3    C5 9155   1.646   1.730  13.739 -0.2681 -0.2287  0.2462
  618TMC3    C6 9156   1.725   1.623  13.739 -0.4914  0.3691  0.1656
  618TMC3     C 9157   1.335   1.592  13.882 -0.2420  0.6151 -0.0918
  618TMC3     O 9158   1.300   1.502  13.958  0.1070 -0.1569  0.1141
  618TMC3     H 9159   1.523   1.428  13.942  0.6725 -0.6503  0.8106
  618TMC3    H1 9160   1.459   1.821  13.819 -0.2600 -0.2982  2.1228
  618TMC3    H2 9161   1.825   1.627  13.698 -0.7358 -1.5664 -0.6422
  618TMC3    C7 9162   1.595   1.764  13.601  0.2770  0.7771  0.2141
  618TMC3    C8 9163   1.722   1.380  13.772 -0.1640 -0.5312 -0.8063
  618TMC3    O1 9164   1.477   1.794  13.601 -0.1053 -0.1670 -0.4085
  618TMC3    O2 9165   1.687   1.289  13.845 -0.2305 -0.1145 -0.2502
  619MPD2     C 9166   2.806   3.068  13.164  0.1206 -0.2961  0.6785
  619MPD2    C1 9167   2.765   3.089  13.034 -0.1338 -0.3943 -0.1929
  619MPD2    C2 9168   2.662   3.021  12.982  0.4447 -0.9490  0.1053
  619MPD2    C3 9169   2.577   2.933  13.056 -0.5355 -0.4215 -0.7855
  619MPD2    C4 9170   2.611   2.919  13.188  0.2668 -0.4466  0.3280
  619MPD2    C5 9171   2.727   2.977  13.238  0.1237 -0.9486 -1.0621
  619MPD2     H 9172   2.636   3.032  12.877  0.6695  0.1668  0.1744
  619MPD2    H1 9173   2.556   2.851  13.252  0.3468  0.1336  1.0131
  619MPD2    H2 9174   2.895   3.116  13.203  1.6980 -2.1934 -0.5898
  619MPD2    H3 9175   2.750   2.961  13.343 -1.4436  3.6940 -0.0155
  619MPD2     N 9176   2.451   2.881  13.004  0.3268 -0.2724 -0.4325
  619MPD2    H5 9177   2.394   2.826  13.069  1.8284  0.0566  1.1764
  619MPD2    N1 9178   2.817   3.196  12.947 -0.4964 -0.0489  0.0266
  619MPD2    H7 9179   2.792   3.216  12.851  0.5708 -0.7664 -0.3969
  620TMC3    C1 9180   2.909   3.405  12.899  0.0720  0.7268  0.0493
  620TMC3    C2 9181   2.826   3.408  12.791  0.5211  0.1442 -0.3213
  620TMC3    C3 9182   2.731   3.506  12.768 -0.2341 -0.1354  1.0534
  620TMC3    C4 9183   2.909   3.520  12.979  0.0276 -0.4290 -0.1958
  620TMC3    C5 9184   2.808   3.612  12.969  0.3967  0.4792 -0.4970
  620TMC3    C6 9185   2.722   3.608  12.859 -0.5521 -0.3831  0.5708
  620TMC3     C 9186   2.907   3.292  12.989 -0.3359  0.0585  0.2316
  620TMC3     O 9187   2.928   3.314  13.107 -0.0879  0.1795 -0.2225
  620TMC3     H 9188   2.831   3.319  12.731 -0.4396 -2.4589  3.4533
  620TMC3    H1 9189   2.980   3.523  13.061  1.3221 -0.0405 -1.3389
  620TMC3    H2 9190   2.646   3.682  12.838 -0.6992 -2.0115 -4.4743
  620TMC3    C7 9191   2.756   3.644  13.096  0.4866 -0.0957 -0.3753
  620TMC3    C8 9192   2.597   3.452  12.753 -0.1916  0.3264  0.1131
  620TMC3    O1 9193   2.844   3.657  13.182  0.1503  0.4232 -0.9365
  620TMC3    O2 9194   2.530   3.467  12.655 -0.0706 -0.6850  0.2936
  621MPD2     C 9195   2.524   3.259   9.868 -0.1997 -0.4477 -0.5475
  621MPD2    C1 9196   2.625   3.171   9.825  0.1015  0.2826 -0.6676
  621MPD2    C2 9197   2.722   3.216   9.739  1.1664 -0.0280 -0.3174
  621MPD2    C3 9198   2.727   3.343   9.707  0.4934 -0.7007 -0.0005
  621MPD2    C4 9199   2.634   3.437   9.756 -0.2876  0.2247  0.4626
  621MPD2    C5 9200   2.533   3.390   9.839 -0.4809  0.6045  0.0641
  621MPD2     H 9201   2.794   3.141   9.708  2.4197  1.7259 -1.6613
  621MPD2    H1 9202   2.633   3.541   9.725 -2.0839 -0.2053 -0.8971
  621MPD2    H2 9203   2.453   3.236   9.946  1.1665  2.3054  1.5076
  621MPD2    H3 9204   2.457   3.455   9.879 -0.2943  1.6714 -1.3402
  621MPD2     N 9205   2.844   3.383   9.637 -0.1671 -0.1675  0.6894
  621MPD2    H5 9206   2.911   3.312   9.609 -1.1057 -0.6235 -0.3985
  621MPD2    N1 9207   2.628   3.040   9.855  0.3551 -0.1978  0.1259
  621MPD2    H7 9208   2.696   2.986   9.802 -0.8040 -0.1752 -1.3857
  622TMC3    C1 9209   2.562   2.841   9.941  0.7389  0.4146  0.2438
  622TMC3    C2 9210   2.477   2.778  10.026  0.7295  0.4336  0.3370
  622TMC3    C3 9211   2.401   2.674   9.990  0.2270  0.9626 -0.3765
  622TMC3    C4 9212   2.572   2.798   9.809  0.0843 -0.3161 -0.1880
  622TMC3    C5 9213   2.498   2.685   9.773  0.3881  0.0517  0.1179
  622TMC3    C6 9214   2.409   2.622   9.863  0.2156  0.3054  0.4665
  622TMC3     C 9215   2.551   2.983   9.951  0.1396  0.3005 -1.1081
  622TMC3     O 9216   2.487   3.029  10.048  0.0203  0.0123  0.2109
  622TMC3     H 9217   2.479   2.798  10.133  1.2888 -0.4233  0.4893
  622TMC3    H1 9218   2.650   2.836   9.743 -0.1124 -2.4377 -1.6657
  622TMC3    H2 9219   2.339   2.547   9.828 -0.6383  0.7081  1.3111
  622TMC3    C7 9220   2.503   2.658   9.635  0.1668  0.2867  0.3932
  622TMC3    C8 9221   2.269   2.678  10.049  0.4144  0.1329  0.1844
  622TMC3    O1 9222   2.554   2.740   9.565  0.3096  0.3291 -0.4852
  622TMC3    O2 9223   2.195   2.583  10.039 -0.2746  0.8188  0.1576
  623MPD2     C 9224   1.596   3.540  15.542  0.2618 -0.1259 -0.1025
  623MPD2    C1 9225   1.529   3.468  15.637  0.1105  0.4835  0.1966
  623MPD2    C2 9226   1.600   3.408  15.741  0.2896 -0.2603  0.0758
  623MPD2    C3 9227   1.735   3.420  15.756 -0.1975 -0.0638  0.5772
  623MPD2    C4 9228   1.802   3.495  15.662  0.5722  0.6672 -0.8959
  623MPD2    C5 9229   1.733   3.559  15.565 -0.5391  0.2335 -0.0052
  623MPD2     H 9230   1.543   3.353  15.816 -0.1801 -0.2694 -0.2831
  623MPD2    H1 9231   1.907   3.522  15.657  0.3463  1.7001 -0.1490
  623MPD2    H2 9232   1.544   3.583  15.457 -1.0337  0.1901  0.8576
  623MPD2    H3 9233   1.790   3.620  15.496  2.3188 -1.3801  0.9322
  623MPD2     N 9234   1.793   3.350  15.864  0.4709 -1.0876 -0.2012
  623MPD2    H5 9235   1.726   3.289  15.911 -0.1836 -0.3438 -0.1749
  623MPD2    N1 9236   1.384   3.460  15.650  0.3190 -0.2522  0.2574
  623MPD2    H7 9237   1.349   3.411  15.731 -1.0613 -1.5005 -1.0899
  624TMC3    C1 9238   2.023   3.212  16.236 -0.1274 -0.6350  0.4722
  624TMC3    C2 9239   1.914   3.132  16.263 -0.2702  0.3770  0.5848
  624TMC3    C3 9240   1.827   3.110  16.163  0.0242 -0.0361  0.0536
  624TMC3    C4 9241   2.032   3.274  16.116 -0.2820 -0.0385  0.0247
  624TMC3    C5 9242   1.940   3.248  16.019  0.5463  0.1993  0.5791
  624TMC3    C6 9243   1.835   3.161  16.039 -0.4214  0.1235  0.0917
  624TMC3     C 9244   2.133   3.227  16.329  0.6752 -0.1819 -0.5170
  624TMC3     O 9245   2.111   3.198  16.453  0.1995  0.6034  0.0314
  624TMC3     H 9246   1.898   3.093  16.363 -3.3476 -0.8357 -0.3870
  624TMC3    H1 9247   2.097   3.359  16.101  0.3375 -0.3428  0.9626
  624TMC3    H2 9248   1.755   3.147  15.967 -0.1897  1.8916 -0.4964
  624TMC3    C7 9249   1.925   3.352  15.916 -0.1019  0.0597  0.4284
  624TMC3    C8 9250   1.695   3.056  16.192 -0.6331 -0.4061  0.9441
  624TMC3    O1 9251   2.021   3.413  15.872 -0.4543 -0.0678 -0.0973
  624TMC3    O2 9252   1.635   2.986  16.111  0.1727  0.3796  0.1818
  625MPD2     C 9253   2.142   4.122   0.356  0.4380 -0.7116 -0.0972
  625MPD2    C1 9254   2.230   4.230   0.348  0.6518  0.6185  0.0413
  625MPD2    C2 9255   2.361   4.203   0.353 -0.6056 -0.5712  0.3916
  625MPD2    C3 9256   2.408   4.078   0.341 -0.4925 -0.5280  0.3946
  625MPD2    C4 9257   2.324   3.975   0.321  0.7438  0.2288 -0.2062
  625MPD2    C5 9258   2.190   3.997   0.342 -0.2319 -0.1800 -0.0807
  625MPD2     H 9259   2.429   4.286   0.372  0.0222 -1.4478  1.9411
  625MPD2    H1 9260   2.353   3.871   0.321  2.7833  0.8089  0.1255
  625MPD2    H2 9261   2.034   4.125   0.362  0.6858  2.6177  2.1254
  625MPD2    H3 9262   2.129   3.908   0.350 -0.7143  0.3759  2.4264
  625MPD2     N 9263   2.552   4.069   0.344  0.0627  0.0168  0.3972
  625MPD2    H5 9264   2.601   4.156   0.361  1.0220 -1.1331  3.5210
  625MPD2    N1 9265   2.189   4.364   0.344 -0.3026  0.8350 -0.2996
  625MPD2    H7 9266   2.256   4.441   0.337 -0.8864  1.4051  0.4604
  626TMC3    C1 9267   2.041   4.532   0.340  0.3038  0.5541 -0.4530
  626TMC3    C2 9268   1.940   4.589   0.275  0.2651 -0.2403 -0.0020
  626TMC3    C3 9269   1.959   4.717   0.249  0.1446 -0.5823 -0.4889
  626TMC3    C4 9270   2.140   4.607   0.403  0.5480 -0.2380  0.4657
  626TMC3    C5 9271   2.132   0.019   0.397  0.2544 -0.1518 -1.0511
  626TMC3    C6 9272   2.045   0.073   0.311 -1.1102  0.7933 -0.0943
  626TMC3     C 9273   2.058   4.395   0.345  0.5551 -0.3486 -0.0538
  626TMC3     O 9274   1.956   4.329   0.316  0.4581 -0.1492 -0.2150
  626TMC3     H 9275   1.873   4.525   0.219 -0.8922  0.7859  0.2305
  626TMC3    H1 9276   2.208   4.568   0.478 -1.0031 -0.2081  1.8987
  626TMC3    H2 9277   2.060   0.179   0.291 -1.1847  1.0114  1.0559
  626TMC3    C7 9278   2.237   0.095   0.463  0.0127  0.0833  0.3113
  626TMC3    C8 9279   1.882   0.056   0.149 -0.4014 -0.2794  0.4145
  626TMC3    O1 9280   2.338   0.035   0.488  0.2510 -0.5394  0.3463
  626TMC3    O2 9281   1.932   0.142   0.077  0.0530 -0.3038 -0.0254
  627MPD2     C 9282   1.057   0.459  14.244  0.3434 -0.7963 -0.4471
  627MPD2    C1 9283   1.034   0.409  14.374  0.1632 -0.3098 -0.2484
  627MPD2    C2 9284   0.964   0.286  14.391 -0.0961 -0.2099  0.8039
  627MPD2    C3 9285   0.931   0.206  14.280 -0.0110 -0.4205  0.5523
  627MPD2    C4 9286   0.947   0.257  14.147 -0.3175 -0.7214 -0.2802
  627MPD2    C5 9287   1.012   0.380  14.140  0.3338  0.2892 -0.3430
  627MPD2     H 9288   0.941   0.252  14.492  1.2562  0.0081  1.1780
  627MPD2    H1 9289   0.915   0.209  14.055  0.8125  0.2670 -1.1949
  627MPD2    H2 9290   1.097   0.559  14.229  1.3367 -0.9209  1.3749
  627MPD2    H3 9291   1.043   0.401  14.038 -0.5248 -0.8181 -0.8370
  627MPD2     N 9292   0.869   0.085  14.311 -0.6225  0.0728  0.0736
  627MPD2    H5 9293   0.849   0.060  14.408 -1.3017 -1.1773 -0.3897
  627MPD2    N1 9294   1.072   0.469  14.499 -0.1141  0.2530 -0.0971
  627MPD2    H7 9295   1.073   0.420  14.588 -1.2496 -2.2515 -1.4649
  628TMC3    C1 9296   1.154   0.650  14.625  0.2720 -0.1125  0.0406
  628TMC3    C2 9297   1.233   0.570  14.698  0.3441  0.4297  0.8044
  628TMC3    C3 9298   1.301   0.629  14.797  0.2879 -0.5571 -0.8178
  628TMC3    C4 9299   1.110   0.769  14.662 -0.3664  0.3926  0.3104
  628TMC3    C5 9300   1.167   0.827  14.775 -0.3068 -1.1804  0.3264
  628TMC3    C6 9301   1.259   0.752  14.843  0.2191 -0.6990 -0.3932
  628TMC3     C 9302   1.103   0.605  14.502 -0.6488 -0.4102 -0.4602
  628TMC3     O 9303   1.081   0.689  14.415 -0.0579  0.2622 -0.1218
  628TMC3     H 9304   1.280   0.483  14.653  0.9576  1.2554 -0.1680
  628TMC3    H1 9305   1.043   0.820  14.594  0.7072  1.8805  0.3550
  628TMC3    H2 9306   1.321   0.796  14.919 -0.1240  0.3903 -0.7463
  628TMC3    C7 9307   1.164   0.974  14.792  0.2664  0.2253 -0.2914
  628TMC3    C8 9308   1.442   0.615  14.780 -0.5840 -0.6244 -0.4760
  628TMC3    O1 9309   1.216   1.022  14.891  0.4550 -0.2225 -0.1056
  628TMC3    O2 9310   1.483   0.614  14.663  0.4690  0.8892  0.7996
  629MPD2     C 9311   3.293   3.753  15.745  0.6346  0.5786 -0.0469
  629MPD2    C1 9312   3.355   3.693  15.848  0.0892 -0.4534 -0.7332
  629MPD2    C2 9313   3.295   3.585  15.914  0.5736  0.6090 -0.7892
  629MPD2    C3 9314   3.166   3.544  15.882 -0.2263 -0.5114 -0.4247
  629MPD2    C4 9315   3.100   3.607  15.783  0.5588 -1.2849 -0.4830
  629MPD2    C5 9316   3.172   3.698  15.709  0.8157 -0.3444 -0.2854
  629MPD2     H 9317   3.344   3.537  15.998 -0.5403  1.7744  0.5410
  629MPD2    H1 9318   3.003   3.575  15.747 -1.2371  3.2487  0.3588
  629MPD2    H2 9319   3.332   3.842  15.698  0.6007  0.6097 -0.0160
  629MPD2    H3 9320   3.130   3.747  15.622 -0.5569 -0.4465  0.3257
  629MPD2     N 9321   3.123   3.426  15.946 -0.9453  0.5499 -0.1862
  629MPD2    H5 9322   3.185   3.392  16.018  2.2596  1.1041 -2.6929
  629MPD2    N1 9323   3.488   3.738  15.887  0.3294  0.2081  0.2526
  629MPD2    H7 9324   3.530   3.811  15.830  0.2680  1.3727  1.6873
  630TMC3    C1 9325   3.707   3.763  15.986  0.8967  0.5570 -0.7443
  630TMC3    C2 9326   3.764   3.788  15.867 -0.0303  0.1931 -0.9821
  630TMC3    C3 9327   3.897   3.769  15.848 -0.3628  0.8400  0.4563
  630TMC3    C4 9328   3.773   3.744  16.103 -0.7216  0.5227 -0.8370
  630TMC3    C5 9329   3.909   3.731  16.082 -0.1758  0.5227 -0.0702
  630TMC3    C6 9330   3.974   3.735  15.958 -0.1513  0.2697  0.3553
  630TMC3     C 9331   3.572   3.697  15.990  0.5421  0.8745  0.2582
  630TMC3     O 9332   3.533   3.620  16.083  0.0984  0.5666 -0.0498
  630TMC3     H 9333   3.704   3.791  15.777  0.6859  3.2947 -1.3601
  630TMC3    H1 9334   3.731   3.698  16.191 -2.5378 -0.0127 -1.9853
  630TMC3    H2 9335   4.080   3.715  15.951 -0.2588  0.0281 -0.5711
  630TMC3    C7 9336   3.992   3.782  16.191 -0.1451  0.5852 -0.6520
  630TMC3    C8 9337   3.970   3.857  15.764 -0.5490 -0.7583  0.2496
  630TMC3    O1 9338   3.955   3.770  16.303 -0.3088  0.1572  0.1477
  630TMC3    O2 9339   4.090   3.837  15.744  0.2858 -0.0908 -0.5036
  631MPD2     C 9340   1.753   3.395  15.229 -0.7912  0.8927 -0.1519
  631MPD2    C1 9341   1.879   3.457  15.232  0.7587  0.1195 -0.3766
  631MPD2    C2 9342   1.994   3.379  15.219 -0.6640 -0.2167  0.3957
  631MPD2    C3 9343   1.983   3.242  15.206  0.6038  0.5894 -0.2707
  631MPD2    C4 9344   1.857   3.182  15.197 -0.8312  0.3534  0.0197
  631MPD2    C5 9345   1.745   3.260  15.199  0.0945  0.3687 -0.1064
  631MPD2     H 9346   2.095   3.419  15.210 -0.0175 -1.6638  1.3358
  631MPD2    H1 9347   1.841   3.075  15.196 -0.9772  0.3538  1.6283
  631MPD2    H2 9348   1.666   3.458  15.235 -0.4726  1.2192  1.0496
  631MPD2    H3 9349   1.651   3.206  15.205 -0.8254  1.9226 -0.2806
  631MPD2     N 9350   2.105   3.160  15.195 -0.1821 -0.2281  0.1254
  631MPD2    H5 9351   2.197   3.202  15.199  0.0341 -0.5303 -1.3810
  631MPD2    N1 9352   1.887   3.597  15.241 -0.0660 -0.5059  0.4070
  631MPD2    H7 9353   1.799   3.646  15.248  1.2440  2.2978 -2.6152
  632TMC3    C1 9354   1.989   3.810  15.221  0.0003 -0.3024  0.3780
  632TMC3    C2 9355   1.876   3.879  15.251  0.2402  0.2480  0.2798
  632TMC3    C3 9356   1.856   4.004  15.193  0.1002 -0.1138 -0.0510
  632TMC3    C4 9357   2.080   3.861  15.127 -0.2645 -0.4304  0.2300
  632TMC3    C5 9358   2.060   3.987  15.077 -0.3936  0.1976 -0.1222
  632TMC3    C6 9359   1.946   4.062  15.107 -0.5612 -0.1021  0.4837
  632TMC3     C 9360   2.003   3.671  15.257  0.4304 -0.3376 -0.3546
  632TMC3     O 9361   2.119   3.633  15.264 -0.2985 -0.2226  0.3154
  632TMC3     H 9362   1.819   3.844  15.336 -1.6851 -0.2253 -1.2055
  632TMC3    H1 9363   2.144   3.791  15.074  0.0388  1.0851 -1.3983
  632TMC3    H2 9364   1.932   4.155  15.054 -1.6865  0.3832  1.6308
  632TMC3    C7 9365   2.170   4.021  14.981 -0.3123 -0.1448 -0.6303
  632TMC3    C8 9366   1.773   4.093  15.267  0.7188  0.1084  0.1240
  632TMC3    O1 9367   2.139   4.066  14.870 -0.6259  0.3104 -0.2051
  632TMC3    O2 9368   1.709   4.044  15.362  0.1326  0.0135 -0.4946
  633MPD2     C 9369   1.757   1.918  17.258 -0.1474 -0.2940 -0.1839
  633MPD2    C1 9370   1.806   1.810  17.180  0.4784 -0.9351  0.3826
  633MPD2    C2 9371   1.857   1.701  17.245  0.9117  0.0910  0.8704
  633MPD2    C3 9372   1.852   1.692  17.385  0.0708  0.4524 -0.7868
  633MPD2    C4 9373   1.805   1.797  17.460  1.2352  0.2546 -0.1181
  633MPD2    C5 9374   1.755   1.909  17.393 -0.5152  0.0660  0.2469
  633MPD2     H 9375   1.908   1.627  17.185 -0.4768  1.1281 -1.5747
  633MPD2    H1 9376   1.804   1.788  17.568  0.7896 -0.5082 -0.1839
  633MPD2    H2 9377   1.736   2.013  17.211  0.4045 -1.0514 -1.9736
  633MPD2    H3 9378   1.721   1.985  17.462 -1.0872  0.1813 -0.1631
  633MPD2     N 9379   1.901   1.580  17.453 -0.2850  0.1624 -0.4042
  633MPD2    H5 9380   1.922   1.595  17.552 -0.9292 -1.5807  0.0081
  633MPD2    N1 9381   1.836   1.814  17.043 -0.2779  0.1308 -0.3441
  633MPD2    H7 9382   1.881   1.735  16.999 -1.1831 -0.5537 -0.0582
  634TMC3    C1 9383   1.870   1.923  16.837 -0.1904  0.2756 -0.0360
  634TMC3    C2 9384   1.975   1.838  16.812 -0.2433  0.2568  0.2043
  634TMC3    C3 9385   2.027   1.830  16.686 -0.5621 -0.0876 -0.0256
  634TMC3    C4 9386   1.810   1.998  16.737  0.1629  0.0328 -0.1716
  634TMC3    C5 9387   1.853   1.975  16.607  0.2826 -0.6371  0.5959
  634TMC3    C6 9388   1.957   1.891  16.580  0.0248 -0.1239 -0.5400
  634TMC3     C 9389   1.806   1.927  16.962  0.2950 -0.3352  0.2344
  634TMC3     O 9390   1.708   1.995  16.984  0.4785 -0.0730 -0.6292
  634TMC3     H 9391   2.028   1.791  16.895  0.7257  0.4041 -0.3291
  634TMC3    H1 9392   1.755   2.086  16.768  0.5016 -0.4968  1.8903
  634TMC3    H2 9393   1.992   1.896  16.477 -0.8742  3.3874 -0.6762
  634TMC3    C7 9394   1.789   2.040  16.495  0.8143  0.2458 -0.0019
  634TMC3    C8 9395   2.126   1.721  16.669  0.4196 -0.5129  0.3017
  634TMC3    O1 9396   1.837   2.021  16.384  0.3404  0.0676 -0.2711
  634TMC3    O2 9397   2.152   1.642  16.759  0.3250  0.6050  0.0748
  635TMC3    C1 9398   2.529   2.164  17.283  0.0205 -0.1838 -0.0897
  635TMC3    C2 9399   2.545   2.032  17.276  0.3849  0.3441 -1.0470
  635TMC3    C3 9400   2.428   1.950  17.268 -0.0275 -0.5075 -0.2148
  635TMC3    C4 9401   2.399   2.213  17.283  0.6096 -0.1841  0.2312
  635TMC3    C5 9402   2.292   2.130  17.291  0.2471 -0.3988  0.3022
  635TMC3    C6 9403   2.303   1.998  17.292  0.7978 -0.3256  0.2208
  635TMC3     C 9404   2.644   2.254  17.311 -0.3997 -0.7851 -0.2577
  635TMC3     O 9405   2.618   2.350  17.383 -0.5290 -0.4513  0.0246
  635TMC3     H 9406   2.644   1.987  17.280 -0.3663 -1.1296  1.0480
  635TMC3    H1 9407   2.383   2.320  17.291  0.7430 -0.1422 -0.0916
  635TMC3    H2 9408   2.213   1.940  17.310  0.3752  1.0018  2.3801
  635TMC3    C7 9409   2.202   2.172  17.397 -0.4794 -0.0219 -0.8217
  635TMC3    C8 9410   2.441   1.809  17.250  0.1841  0.1574  0.5296
  635TMC3    O1 9411   2.115   2.096  17.427  0.0533 -0.5644 -0.1840
  635TMC3    O2 9412   2.557   1.767  17.246 -0.1668  0.2247  0.7902
  636MPD2     C 9413   3.363   1.523  15.935  0.5945  0.1078  0.1333
  636MPD2    C1 9414   3.360   1.539  16.070  0.1106 -0.1109 -0.4309
  636MPD2    C2 9415   3.389   1.431  16.147 -0.2893 -0.0992  0.1747
  636MPD2    C3 9416   3.430   1.309  16.095  0.6385  0.9025  0.7790
  636MPD2    C4 9417   3.442   1.300  15.955 -0.2825  0.2687  0.2556
  636MPD2    C5 9418   3.413   1.407  15.877 -0.5742  0.4478 -0.2114
  636MPD2     H 9419   3.363   1.435  16.252 -1.0699  1.9995 -0.0990
  636MPD2    H1 9420   3.489   1.215  15.907  1.5262  0.9881  0.7230
  636MPD2    H2 9421   3.377   1.617  15.882 -1.5155 -0.2994 -1.1437
  636MPD2    H3 9422   3.436   1.404  15.771 -2.3609 -0.8653 -0.5593
  636MPD2     N 9423   3.452   1.202  16.185  0.0328  0.1291  0.8079
  636MPD2    H5 9424   3.461   1.230  16.282 -1.6006  2.0724  0.4012
  636MPD2    N1 9425   3.310   1.651  16.138 -0.0110 -0.0731  0.1034
  636MPD2    H7 9426   3.318   1.651  16.239  0.9266  0.2395  0.0279
  637TMC3    C1 9427   3.559   1.013  16.257  0.0363  1.5024  0.5841
  637TMC3    C2 9428   3.549   1.082  16.377  0.5767 -0.8719 -0.0618
  637TMC3    C3 9429   3.658   1.138  16.434  0.3311  0.7895 -0.2112
  637TMC3    C4 9430   3.685   0.994  16.201 -0.1838 -0.2324 -0.5937
  637TMC3    C5 9431   3.791   1.066  16.257 -0.3469 -0.0778  0.0901
  637TMC3    C6 9432   3.776   1.127  16.375 -0.2370  0.3823  0.0229
  637TMC3     C 9433   3.481   1.070  16.149  0.1084  0.0235  0.6419
  637TMC3     O 9434   3.466   1.011  16.042 -0.1774  0.4666  0.8039
  637TMC3     H 9435   3.453   1.111  16.418  1.1359 -1.8085  1.9169
  637TMC3    H1 9436   3.700   0.927  16.118 -0.2540 -1.0879  0.0856
  637TMC3    H2 9437   3.849   1.186  16.430  0.2401 -1.6598  1.5789
  637TMC3    C7 9438   3.849   1.166  16.165  0.0441 -0.0187 -0.0936
  637TMC3    C8 9439   3.635   1.264  16.497  0.4152 -0.1441 -0.0437
  637TMC3    O1 9440   3.854   1.284  16.202  0.4328  0.4839 -0.0024
  637TMC3    O2 9441   3.558   1.280  16.587  0.5404 -0.7017 -0.0887
  638MPD2     C 9442   2.891   0.834  14.901 -0.5706  0.8741  0.1900
  638MPD2    C1 9443   2.844   0.760  14.795  0.1705  0.2795  0.3096
  638MPD2    C2 9444   2.824   0.626  14.804 -0.8130  0.7878  0.2003
  638MPD2    C3 9445   2.876   0.560  14.912  0.2213 -0.0748  0.1205
  638MPD2    C4 9446   2.919   0.630  15.020 -0.6262 -0.7943 -0.6702
  638MPD2    C5 9447   2.921   0.771  15.019  0.0402  0.1177  0.1949
  638MPD2     H 9448   2.791   0.565  14.721  0.9034  1.2600 -0.8499
  638MPD2    H1 9449   2.960   0.589  15.112 -0.0243 -1.0956 -1.0699
  638MPD2    H2 9450   2.898   0.942  14.893 -1.7702  0.8575 -1.0115
  638MPD2    H3 9451   2.970   0.821  15.102  0.9994 -2.3333  1.1324
  638MPD2     N 9452   2.878   0.416  14.908  0.1817 -0.0354  0.1339
  638MPD2    H5 9453   2.835   0.380  14.823  0.4257 -1.9360  0.8148
  638MPD2    N1 9454   2.825   0.826  14.672  0.3125  0.0487 -0.3204
  638MPD2    H7 9455   2.877   0.912  14.658  0.3218  0.4805  2.3738
  639TMC3    C1 9456   2.923   0.197  14.949 -0.5041 -0.4990 -0.0511
  639TMC3    C2 9457   2.809   0.170  14.879  0.5962  0.1084 -0.2948
  639TMC3    C3 9458   2.727   0.060  14.910 -0.2284  0.0558  0.2828
  639TMC3    C4 9459   2.966   0.110  15.051 -0.3958  0.2340 -0.8348
  639TMC3    C5 9460   2.893   4.720  15.068 -0.4086  0.5055 -0.8127
  639TMC3    C6 9461   2.771   4.691  15.005 -0.4131 -0.0046  0.2563
  639TMC3     C 9462   2.955   0.333  14.979  0.2339 -0.8269 -1.1098
  639TMC3     O 9463   3.030   0.360  15.073  0.0233 -0.2111 -0.5096
  639TMC3     H 9464   2.788   0.224  14.787  1.8057 -0.7385 -1.0624
  639TMC3    H1 9465   3.058   0.133  15.103 -0.1746 -1.0138 -0.6878
  639TMC3    H2 9466   2.726   4.593  15.017  1.3243 -0.9600 -0.9677
  639TMC3    C7 9467   2.983   4.611  15.089 -0.0529 -0.6782  0.6139
  639TMC3    C8 9468   2.647   0.016  14.801 -0.1628 -0.6373  0.0962
  639TMC3    O1 9469   2.948   4.520  15.166  0.0210 -0.4974  0.4794
  639TMC3    O2 9470   2.672   0.063  14.692 -0.3181 -0.4330 -0.4344
  640MPD2     C 9471   3.587   0.351   9.596  0.2501 -0.6164  0.7291
  640MPD2    C1 9472   3.605   0.225   9.645  0.2465  0.2571  0.3448
  640MPD2    C2 9473   3.539   0.183   9.751 -0.0906 -0.2042  0.0054
  640MPD2    C3 9474   3.448   0.265   9.815  0.0224  0.0834 -1.3123
  640MPD2    C4 9475   3.427   0.392   9.766 -0.7703  0.2805  0.2632
  640MPD2    C5 9476   3.498   0.436   9.665 -0.1025 -0.0550 -0.2353
  640MPD2     H 9477   3.564   0.086   9.794  1.7843  0.4181  0.3524
  640MPD2    H1 9478   3.368   0.465   9.821 -3.6065 -1.8476  0.0415
  640MPD2    H2 9479   3.657   0.392   9.525 -2.6683  0.4492 -1.5504
  640MPD2    H3 9480   3.487   0.537   9.627 -0.4325 -0.3967 -1.0529
  640MPD2     N 9481   3.374   0.219   9.924  0.1226 -0.3742 -0.3733
  640MPD2    H5 9482   3.319   0.286   9.977  3.1506 -0.5692  3.0151
  640MPD2    N1 9483   3.710   0.145   9.587  0.0601 -0.2994  0.3955
  640MPD2    H7 9484   3.757   0.198   9.515 -0.2386  2.7721  2.4211
  641TMC3    C1 9485   3.867   4.705   9.534 -0.0999 -0.7334  0.4025
  641TMC3    C2 9486   3.935   4.596   9.581 -0.3862 -0.5629 -0.3971
  641TMC3    C3 9487   3.999   4.518   9.483 -1.3776  0.2576 -0.4905
  641TMC3    C4 9488   3.851   0.017   9.400 -0.3231 -0.2502 -0.2428
  641TMC3    C5 9489   3.924   4.668   9.309  0.5553 -0.4592  0.1632
  641TMC3    C6 9490   4.006   4.563   9.355 -0.5688  0.7478 -0.1521
  641TMC3     C 9491   3.754   0.016   9.615 -0.7942 -0.3547 -0.7759
  641TMC3     O 9492   3.724   4.662   9.707 -0.0036  0.0338 -0.0585
  641TMC3     H 9493   3.938   4.559   9.682  0.2180  0.5709  0.0064
  641TMC3    H1 9494   3.787   0.094   9.358 -1.8113 -1.8655 -0.9656
  641TMC3    H2 9495   4.054   4.502   9.279 -1.4893  0.7447 -0.7238
  641TMC3    C7 9496   3.920   4.701   9.165  0.1694  0.4744  0.2518
  641TMC3    C8 9497   4.050   4.387   9.505 -0.1901 -0.2940 -0.0275
  641TMC3    O1 9498   3.859   0.082   9.142  0.5101 -0.4338  0.4084
  641TMC3    O2 9499   4.067   4.306   9.408  0.0849  0.1632  0.1479
  642TMC3    C1 9500   0.047   0.677  12.363 -0.4423  0.3864 -0.3350
  642TMC3    C2 9501   0.108   0.693  12.486  0.2802 -0.1632 -0.4712
  642TMC3    C3 9502   0.137   0.581  12.557  1.0453 -0.0842  0.2497
  642TMC3    C4 9503   0.033   0.550  12.310  0.6903 -0.1153  0.3467
  642TMC3    C5 9504   0.055   0.444  12.395  0.4502 -0.1410  0.3496
  642TMC3    C6 9505   0.105   0.455  12.521  0.6394  0.5615 -0.0625
  642TMC3     C 9506   4.658   0.763  12.329  0.7562  0.5555 -0.3175
  642TMC3     O 9507   4.556   0.703  12.302 -0.4142  0.3119  0.0309
  642TMC3     H 9508   0.132   0.793  12.519 -0.1591 -0.3337  0.3723
  642TMC3    H1 9509   4.699   0.548  12.217  0.9184 -0.1977  0.2078
  642TMC3    H2 9510   0.117   0.372  12.590  1.7692  0.0792 -0.8428
  642TMC3    C7 9511   4.696   0.331  12.362  0.1557 -0.3125 -0.7197
  642TMC3    C8 9512   0.173   0.609  12.697  0.2798  0.1295  0.8775
  642TMC3    O1 9513   4.664   0.330  12.242  0.0870 -0.3471  0.0137
  642TMC3    O2 9514   0.114   0.549  12.784 -0.0738  0.4179  0.0199
  643TMC3    C1 9515   4.004   4.541  17.618  0.4015 -0.1165 -0.1021
  643TMC3    C2 9516   3.873   4.561  17.580  0.1780  0.1071 -0.2683
  643TMC3    C3 9517   3.794   4.453  17.557  0.3856 -0.2712 -0.8484
  643TMC3    C4 9518   4.059   4.415  17.623 -0.4622 -0.1259  0.3606
  643TMC3    C5 9519   3.975   4.310  17.608 -0.3051 -0.0269 -0.2949
  643TMC3    C6 9520   3.838   4.324  17.579 -0.7761 -0.9704 -0.3959
  643TMC3     C 9521   4.063   4.647   0.007  0.0538  0.6057  0.0536
  643TMC3     O 9522   3.994   0.020   0.037 -0.0427  0.4604  0.0734
  643TMC3     H 9523   3.839   4.664  17.585 -0.4978  0.0276 -2.9939
  643TMC3    H1 9524   4.162   4.387  17.637  0.1766  0.7876 -2.5397
  643TMC3    H2 9525   3.774   4.237  17.567 -2.7656  0.2204  1.4501
  643TMC3    C7 9526   4.037   4.179  17.612  0.2478 -0.0281 -0.2913
  643TMC3    C8 9527   3.674   4.468  17.491 -0.2157 -0.7097 -0.1887
  643TMC3    O1 9528   4.097   4.151   0.020  0.0803  0.0154  0.4028
  643TMC3    O2 9529   3.618   4.360  17.470 -1.1325 -0.0576 -0.3087
  644MPD2     C 9530   4.137   0.732   8.939 -0.0648  0.0320  0.1194
  644MPD2    C1 9531   4.059   0.634   9.000 -0.2218 -0.2885 -0.2576
  644MPD2    C2 9532   3.939   0.677   9.048 -0.3888 -0.0249  0.3238
  644MPD2    C3 9533   3.888   0.808   9.035  0.4478 -0.7966  0.5326
  644MPD2    C4 9534   3.969   0.900   8.968  0.6687  0.4319  0.1921
  644MPD2    C5 9535   4.094   0.858   8.927 -0.0014  0.1186  0.0720
  644MPD2     H 9536   3.871   0.610   9.099  0.8894 -1.7293 -0.2014
  644MPD2    H1 9537   3.927   0.997   8.943 -2.1315 -1.1487 -1.2428
  644MPD2    H2 9538   4.235   0.719   8.893 -0.3138 -2.0137  0.1963
  644MPD2    H3 9539   4.161   0.931   8.882  1.0384 -0.0955  1.2574
  644MPD2     N 9540   3.758   0.847   9.088  0.3227  0.4390  0.1380
  644MPD2    H5 9541   3.705   0.772   9.132 -0.5564  0.3145 -1.1248
  644MPD2    N1 9542   4.114   0.508   9.025  0.3588 -0.5784 -0.5587
  644MPD2    H7 9543   4.210   0.498   8.991  0.7656 -1.4579  0.8645
  645TMC3    C1 9544   3.568   0.985   9.136 -0.4142 -0.3171 -0.5140
  645TMC3    C2 9545   3.510   0.894   9.224 -1.1057  0.1171 -0.7226
  645TMC3    C3 9546   3.379   0.901   9.258 -0.1001 -0.1646  0.1817
  645TMC3    C4 9547   3.485   1.088   9.092  0.9734 -0.7605  0.3875
  645TMC3    C5 9548   3.344   1.079   9.115 -0.2494 -0.0922  0.3892
  645TMC3    C6 9549   3.293   0.983   9.199 -0.4899  0.9549 -0.8210
  645TMC3     C 9550   3.691   0.963   9.065 -0.1752 -0.3852 -0.1164
  645TMC3     O 9551   3.718   1.046   8.977  0.0517  0.0606  0.0026
  645TMC3     H 9552   3.575   0.818   9.265  1.3854  3.3250  1.2529
  645TMC3    H1 9553   3.526   1.154   9.016  2.9642 -1.4271  0.8765
  645TMC3    H2 9554   3.187   0.962   9.213  0.2816 -3.2176 -1.2785
  645TMC3    C7 9555   3.261   1.192   9.060 -0.3499  0.2502  0.2565
  645TMC3    C8 9556   3.323   0.782   9.316  0.3911  0.2154  0.5860
  645TMC3    O1 9557   3.308   1.265   8.972  0.5887 -0.2840  0.2688
  645TMC3    O2 9558   3.378   0.678   9.277  0.9129 -0.0154  0.1677
  646MPD2     C 9559   3.077   4.052  14.105  0.1470  0.2978  0.7027
  646MPD2    C1 9560   3.010   4.084  14.217 -0.3369 -0.6131 -0.6367
  646MPD2    C2 9561   2.901   4.167  14.212  0.2871  0.1687 -0.4691
  646MPD2    C3 9562   2.850   4.215  14.094 -0.5173 -0.3265  0.7191
  646MPD2    C4 9563   2.918   4.182  13.978  0.3044 -0.7368 -0.0742
  646MPD2    C5 9564   3.027   4.095  13.983 -0.0943 -0.4907 -0.3085
  646MPD2     H 9565   2.858   4.203  14.305  0.0191 -0.7963 -0.2252
  646MPD2    H1 9566   2.879   4.205  13.879 -0.1949 -1.1305  0.0360
  646MPD2    H2 9567   3.165   3.989  14.103 -1.1948 -1.5693 -0.1377
  646MPD2    H3 9568   3.077   4.062  13.892 -0.5174  1.6313 -1.3018
  646MPD2     N 9569   2.734   4.303  14.103  0.3372  0.1160 -0.3695
  646MPD2    H5 9570   2.705   4.327  14.197 -3.2337  1.8411 -1.9119
  646MPD2    N1 9571   3.065   4.027  14.338 -0.0784  0.1048  0.9721
  646MPD2    H7 9572   3.154   3.979  14.327 -0.0065  0.7885 -1.6006
  647TMC3    C1 9573   3.083   3.983  14.567 -0.2844  0.5122  0.0894
  647TMC3    C2 9574   3.024   3.953  14.686  0.3323 -0.6604  0.1443
  647TMC3    C3 9575   3.105   3.940  14.794  0.1537  0.2831 -0.3728
  647TMC3    C4 9576   3.220   3.984  14.543  0.0636  0.5332  0.7663
  647TMC3    C5 9577   3.298   3.979  14.652  0.1057  0.2088 -0.4404
  647TMC3    C6 9578   3.240   3.965  14.781  0.0205  0.5287 -0.3756
  647TMC3     C 9579   3.005   4.031  14.459 -0.3994 -0.0990 -0.1613
  647TMC3     O 9580   2.886   4.058  14.481 -0.0214  0.0589  0.3650
  647TMC3     H 9581   2.916   3.946  14.689  0.4436 -1.4338  2.0335
  647TMC3    H1 9582   3.268   4.003  14.448 -1.6817 -0.7091 -0.3436
  647TMC3    H2 9583   3.303   3.961  14.869  0.4696  0.4395 -0.7005
  647TMC3    C7 9584   3.445   3.991  14.655 -0.4275 -0.1295  0.6941
  647TMC3    C8 9585   3.072   3.840  14.894 -0.0346 -0.6981  0.0290
  647TMC3    O1 9586   3.503   3.970  14.760 -0.3508 -0.5375 -0.3142
  647TMC3    O2 9587   3.135   3.844  14.994 -0.3715  0.7487  1.0799
  648TMC3    C1 9588   2.469   1.577  15.992  0.7769  0.6011 -0.0227
  648TMC3    C2 9589   2.536   1.463  15.962 -0.4846 -0.4129  0.2597
  648TMC3    C3 9590   2.518   1.397  15.851 -0.3334  0.8856 -0.7417
  648TMC3    C4 9591   2.363   1.617  15.917 -0.2976 -0.3064  0.8372
  648TMC3    C5 9592   2.358   1.563  15.793 -0.5979  0.6228  0.2057
  648TMC3    C6 9593   2.436   1.455  15.761 -0.2563  0.5003  0.7392
  648TMC3     C 9594   2.495   1.645  16.120 -0.2956 -0.2626  0.5518
  648TMC3     O 9595   2.463   1.762  16.135  0.4517  0.1452  0.1192
  648TMC3     H 9596   2.632   1.448  16.011  0.4599 -0.2110 -1.5183
  648TMC3    H1 9597   2.318   1.709  15.951  0.6303  0.9431 -1.2974
  648TMC3    H2 9598   2.435   1.417  15.659  0.3831 -0.4405  1.0884
  648TMC3    C7 9599   2.292   1.634  15.686  0.1647 -0.1677 -0.4547
  648TMC3    C8 9600   2.607   1.291  15.801 -0.1119 -0.4329  0.5912
  648TMC3    O1 9601   2.309   1.591  15.574  0.5433  0.6120  0.2331
  648TMC3    O2 9602   2.592   1.247  15.684 -0.7827 -0.0422 -0.4950
  649TMC3    C1 9603   1.368   2.822  12.387 -0.0293  0.2943  0.2585
  649TMC3    C2 9604   1.500   2.770  12.384 -0.1589 -1.1106 -0.4953
  649TMC3    C3 9605   1.553   2.720  12.497  1.0744  0.6022  0.1209
  649TMC3    C4 9606   1.299   2.825  12.506 -0.5042  0.1196 -0.5171
  649TMC3    C5 9607   1.350   2.766  12.617 -0.7085 -0.0056  0.3206
  649TMC3    C6 9608   1.477   2.717  12.614  0.4688 -0.6946  0.0516
  649TMC3     C 9609   1.313   2.903  12.288 -0.4162  0.2570  0.1236
  649TMC3     O 9610   1.191   2.931  12.292 -0.5755 -0.1676 -0.2879
  649TMC3     H 9611   1.541   2.752  12.285  1.2833 -0.1814 -0.0729
  649TMC3    H1 9612   1.195   2.858  12.514 -0.6154 -0.2417 -0.4814
  649TMC3    H2 9613   1.519   2.677  12.705 -0.2998 -0.7698  0.3681
  649TMC3    C7 9614   1.252   2.731  12.720  0.8065 -0.5957 -0.1527
  649TMC3    C8 9615   1.691   2.686  12.515 -0.2847 -0.0833 -0.5442
  649TMC3    O1 9616   1.146   2.788  12.734  0.1527  0.0127 -0.1005
  649TMC3    O2 9617   1.717   2.619  12.614 -0.2765 -0.9717  0.0512
  650TMC3    C1 9618   4.284   4.578  12.864  0.1964 -0.0493 -0.3773
  650TMC3    C2 9619   4.273   4.715  12.875 -0.1552 -0.0979  0.2027
  650TMC3    C3 9620   4.162   0.041  12.820 -0.2721  0.4071 -0.3380
  650TMC3    C4 9621   4.183   4.498  12.828  0.7596 -0.1010  0.1421
  650TMC3    C5 9622   4.074   4.548  12.763 -0.3046  0.3966  0.3462
  650TMC3    C6 9623   4.064   4.686  12.759  0.2601 -0.3631  0.2508
  650TMC3     C 9624   4.411   4.536  12.836 -0.9112  0.1101 -0.1230
  650TMC3     O 9625   4.514   4.594  12.873 -0.5113 -0.3299  0.0373
  650TMC3     H 9626   4.355   0.059  12.899  1.1872 -1.2585 -1.1828
  650TMC3    H1 9627   4.182   4.390  12.839 -0.3890  0.0121  1.1927
  650TMC3    H2 9628   3.978   0.010  12.711 -1.6079  0.0812  4.0326
  650TMC3    C7 9629   4.051   4.478  12.645  0.5002  0.0685 -0.3306
  650TMC3    C8 9630   4.128   0.181  12.828  0.2888 -0.5938 -0.5969
  650TMC3    O1 9631   4.129   4.391  12.612  0.3094 -0.2103 -0.4633
  650TMC3    O2 9632   4.212   0.271  12.809 -0.4458 -0.2429  0.5983
  651MPD2     C 9633   2.860   1.901  11.351  0.0432  0.2174 -0.2774
  651MPD2    C1 9634   2.817   1.897  11.222  0.2671  0.5855  0.1996
  651MPD2    C2 9635   2.911   1.913  11.120 -1.3005  0.4427 -0.0031
  651MPD2    C3 9636   3.042   1.942  11.143 -0.1755  0.3123 -0.1437
  651MPD2    C4 9637   3.089   1.934  11.274  0.6277  0.1979  0.2843
  651MPD2    C5 9638   2.997   1.914  11.376 -0.0016 -0.2412  0.2901
  651MPD2     H 9639   2.873   1.909  11.019  0.0117  0.0665 -0.4791
  651MPD2    H1 9640   3.190   1.947  11.312  0.2911 -1.0746  1.6296
  651MPD2    H2 9641   2.786   1.879  11.427  0.7292 -2.1156 -0.2773
  651MPD2    H3 9642   3.031   1.897  11.478 -1.4351  0.2864  0.8657
  651MPD2     N 9643   3.116   1.956  11.019 -0.0814 -0.5012 -0.0028
  651MPD2    H5 9644   3.065   1.951  10.932 -1.9890  0.4464  1.0789
  651MPD2    N1 9645   2.682   1.873  11.189 -0.5362  0.1699 -0.4494
  651MPD2    H7 9646   2.661   1.877  11.090 -0.1235 -0.2558 -0.5526
  652TMC3    C1 9647   3.493   2.012  10.743  0.1776  1.0599 -0.5533
  652TMC3    C2 9648   3.439   2.019  10.873  0.1297  0.0387  0.0990
  652TMC3    C3 9649   3.304   2.031  10.884 -0.5310  0.6729  1.0392
  652TMC3    C4 9650   3.419   2.022  10.632 -0.2580 -0.0816  0.5960
  652TMC3    C5 9651   3.287   2.046  10.651 -0.3310  0.3763  0.0940
  652TMC3    C6 9652   3.223   2.047  10.775 -0.4654 -0.8388 -0.3062
  652TMC3     C 9653   3.631   1.964  10.739  0.0341  0.1723 -0.3781
  652TMC3     O 9654   3.671   1.919  10.843  0.5275  0.0919 -0.5786
  652TMC3     H 9655   3.504   2.034  10.958  0.2400  0.5971 -0.0849
  652TMC3    H1 9656   3.460   2.012  10.532 -0.3983  1.4376  0.3802
  652TMC3    H2 9657   3.115   2.060  10.782 -0.1569  1.7396 -0.3356
  652TMC3    C7 9658   3.204   2.083  10.534 -0.4064 -0.2872 -0.1942
  652TMC3    C8 9659   3.248   2.008  11.019 -0.5983  0.0063  0.2958
  652TMC3    O1 9660   3.083   2.077  10.536 -0.7522 -0.5208  0.4317
  652TMC3    O2 9661   3.328   2.020  11.113 -0.5850  0.2427 -0.3629
  653MPD2     C 9662   1.480   1.890  17.596 -0.0442  0.6212  0.3727
  653MPD2    C1 9663   1.400   1.960  17.506  0.8973  0.0126 -0.1126
  653MPD2    C2 9664   1.305   1.879  17.440  0.0323 -0.2282 -0.2847
  653MPD2    C3 9665   1.295   1.745  17.453 -0.2730 -0.7726  0.9722
  653MPD2    C4 9666   1.388   1.678  17.531 -0.1779  0.4306  0.6359
  653MPD2    C5 9667   1.477   1.752  17.610  0.2418 -0.0181 -0.1424
  653MPD2     H 9668   1.242   1.932  17.370  0.2555  1.5998  0.8841
  653MPD2    H1 9669   1.404   1.571  17.531 -0.5353  0.3803 -1.2196
  653MPD2    H2 9670   1.563   1.939  17.646  2.9758 -0.1358 -3.8824
  653MPD2    H3 9671   1.561   1.713  17.667  1.5780 -1.5889 -3.1746
  653MPD2     N 9672   1.186   1.684  17.387  0.3414  0.2565  0.0960
  653MPD2    H5 9673   1.126   1.738  17.326 -0.0294 -0.4506 -0.1672
  653MPD2    N1 9674   1.403   2.096  17.469 -0.1888 -0.3577  0.1698
  653MPD2    H7 9675   1.339   2.128  17.397  1.6480  0.0288 -1.2858
  654TMC3    C1 9676   1.032   1.509  17.353  0.0567  0.2049  0.5538
  654TMC3    C2 9677   0.933   1.591  17.307  0.2306 -0.4095  0.2933
  654TMC3    C3 9678   0.843   1.532  17.219  0.6504 -1.2313  0.5992
  654TMC3    C4 9679   1.037   1.375  17.323 -0.4689 -0.3952 -0.5801
  654TMC3    C5 9680   0.955   1.331  17.228  0.5641 -0.2769  0.8775
  654TMC3    C6 9681   0.856   1.404  17.176 -0.0143  0.4808 -0.0308
  654TMC3     C 9682   1.155   1.558  17.416 -0.1008 -0.4749  0.6995
  654TMC3     O 9683   1.206   1.476  17.493 -0.4966  0.0312  0.3547
  654TMC3     H 9684   0.931   1.696  17.331 -1.2397 -0.1556 -0.8874
  654TMC3    H1 9685   1.127   1.321  17.352  0.9202  1.0278 -2.1913
  654TMC3    H2 9686   0.785   1.375  17.099  0.8308  1.4132 -1.1693
  654TMC3    C7 9687   1.022   1.240  17.134  0.6454 -0.1457 -0.0376
  654TMC3    C8 9688   0.801   1.629  17.122 -0.2437 -0.8203  0.1939
  654TMC3    O1 9689   0.989   1.263  17.017 -0.3601 -0.2037 -0.2465
  654TMC3    O2 9690   0.759   1.733  17.163 -0.1335 -0.1079  0.3534
  655MPD2     C 9691   2.789   1.586  15.419  0.4395 -0.7392 -0.3223
  655MPD2    C1 9692   2.763   1.706  15.352  0.6753  0.2130 -0.1345
  655MPD2    C2 9693   2.751   1.699  15.212 -0.3056 -0.0751 -0.4990
  655MPD2    C3 9694   2.772   1.581  15.140  0.4473  0.2813  0.0693
  655MPD2    C4 9695   2.790   1.466  15.213  0.2134 -0.5441 -0.2427
  655MPD2    C5 9696   2.794   1.470  15.348  0.1074  0.3909  0.2337
  655MPD2     H 9697   2.723   1.793  15.166 -0.4788  0.2086  0.1780
  655MPD2    H1 9698   2.803   1.369  15.167 -0.3449 -1.1313  0.8286
  655MPD2    H2 9699   2.797   1.571  15.526 -0.4413 -1.4231 -0.3492
  655MPD2    H3 9700   2.810   1.378  15.403 -0.7783  0.2528  0.2536
  655MPD2     N 9701   2.762   1.570  14.993 -0.7351 -0.1957  0.0327
  655MPD2    H5 9702   2.766   1.474  14.962  1.1193 -1.0479  2.8014
  655MPD2    N1 9703   2.747   1.832  15.414  0.0347 -0.5002  0.4443
  655MPD2    H7 9704   2.711   1.901  15.348  1.6655 -1.4890 -1.4822
  656TMC3    C1 9705   2.677   1.991  15.569 -0.1185 -0.1228 -0.6791
  656TMC3    C2 9706   2.606   2.003  15.683 -0.1600 -0.1031  0.7000
  656TMC3    C3 9707   2.492   2.081  15.699  0.2078 -0.0415 -0.4420
  656TMC3    C4 9708   2.624   2.055  15.459 -0.0645 -0.0422  0.4302
  656TMC3    C5 9709   2.509   2.124  15.467  0.4020 -0.0980 -0.3247
  656TMC3    C6 9710   2.439   2.144  15.586 -0.4222  0.4761 -0.1266
  656TMC3     C 9711   2.747   1.862  15.549  0.4139 -0.1368 -0.0785
  656TMC3     O 9712   2.761   1.780  15.640  0.0195  0.1464  0.2196
  656TMC3     H 9713   2.652   1.949  15.765 -0.9681  0.0700  1.2662
  656TMC3    H1 9714   2.679   2.063  15.366 -2.3720  0.5800 -0.8914
  656TMC3    H2 9715   2.348   2.202  15.596 -0.1089  0.3602  3.3876
  656TMC3    C7 9716   2.449   2.136  15.339 -0.3317  0.8227  0.1670
  656TMC3    C8 9717   2.408   2.066  15.817  0.2373 -0.7563 -0.1871
  656TMC3    O1 9718   2.483   2.054  15.257 -0.0370 -0.8987 -0.2459
  656TMC3    O2 9719   2.442   1.965  15.880  0.3146  0.2067 -0.2742
  657TMC3    C1 9720   1.881   1.134  14.190 -0.2792 -0.0400  0.3245
  657TMC3    C2 9721   1.883   1.213  14.299  0.4010  0.0896 -0.3099
  657TMC3    C3 9722   1.911   1.344  14.267  0.4675 -0.3810 -0.4409
  657TMC3    C4 9723   1.900   1.171  14.059 -0.3189 -0.3657  0.1118
  657TMC3    C5 9724   1.928   1.297  14.035  0.7885 -0.1142 -0.2399
  657TMC3    C6 9725   1.922   1.391  14.134 -0.0024 -0.3709 -0.1196
  657TMC3     C 9726   1.898   0.991  14.217 -0.2216 -0.3076  1.0425
  657TMC3     O 9727   1.872   0.914  14.120 -0.2560 -0.3760  0.3519
  657TMC3     H 9728   1.857   1.176  14.397  1.3954 -0.7076 -0.3520
  657TMC3    H1 9729   1.902   1.096  13.982  2.1501  1.8559 -1.9982
  657TMC3    H2 9730   1.944   1.495  14.110  0.7871 -0.6237 -0.4889
  657TMC3    C7 9731   2.013   1.326  13.918 -0.0304  0.0810 -0.1194
  657TMC3    C8 9732   1.888   1.450  14.358 -0.5047 -0.6149  1.0593
  657TMC3    O1 9733   2.053   1.440  13.899 -0.0787 -0.0944 -0.5440
  657TMC3    O2 9734   1.902   1.564  14.318  0.2134 -0.1086 -0.1776
  658MPD2     C 9735   3.383   1.739  14.372 -0.4325  0.0698 -0.0309
  658MPD2    C1 9736   3.263   1.800  14.416  0.6165  0.2512  0.2248
  658MPD2    C2 9737   3.228   1.927  14.364 -0.3491  0.6252  0.5555
  658MPD2    C3 9738   3.312   1.997  14.279 -0.1397  0.2702  0.2793
  658MPD2    C4 9739   3.434   1.941  14.248 -0.3090 -0.2992  0.0903
  658MPD2    C5 9740   3.467   1.815  14.297  0.3198  0.6118 -0.0889
  658MPD2     H 9741   3.135   1.978  14.385 -0.8368 -0.5641  1.2722
  658MPD2    H1 9742   3.504   1.995  14.184  0.3260  1.3578  2.1664
  658MPD2    H2 9743   3.418   1.638  14.394  1.3237  0.7905  0.4556
  658MPD2    H3 9744   3.556   1.774  14.252  0.6886  0.3911  0.8332
  658MPD2     N 9745   3.258   2.114  14.220  0.2747  0.4515 -0.1418
  658MPD2    H5 9746   3.160   2.124  14.241 -0.1467 -0.1099 -1.8579
  658MPD2    N1 9747   3.186   1.719  14.504  0.0739 -0.6625  0.5164
  658MPD2    H7 9748   3.224   1.627  14.525 -0.8260 -0.6281  2.2815
  659TMC3    C1 9749   3.006   1.668  14.638 -0.0242  0.3221 -0.3899
  659TMC3    C2 9750   2.926   1.708  14.743  0.3450 -0.4134 -0.6014
  659TMC3    C3 9751   2.815   1.639  14.781 -0.8892 -0.0268  0.1956
  659TMC3    C4 9752   2.971   1.557  14.566  0.4139  0.2143 -0.3463
  659TMC3    C5 9753   2.871   1.473  14.616 -0.6498 -0.4449  0.1246
  659TMC3    C6 9754   2.793   1.514  14.724  0.8331 -0.3049  0.0301
  659TMC3     C 9755   3.083   1.771  14.573 -0.0650  0.2608 -0.0113
  659TMC3     O 9756   3.050   1.886  14.591  0.1711  0.4331  0.1205
  659TMC3     H 9757   2.943   1.806  14.787 -1.3997  0.5125 -1.9868
  659TMC3    H1 9758   3.025   1.537  14.475  1.1367 -0.4397  0.2233
  659TMC3    H2 9759   2.705   1.462  14.760  0.4206 -1.2010 -2.3054
  659TMC3    C7 9760   2.797   1.417  14.508  0.0435  0.0098 -0.2677
  659TMC3    C8 9761   2.765   1.677  14.907 -0.2759 -0.3200 -0.0929
  659TMC3    O1 9762   2.679   1.433  14.527 -0.0885 -0.0060 -0.8462
  659TMC3    O2 9763   2.771   1.797  14.928  0.0869  0.0066  0.0644
  660MPD2     C 9764   1.187   0.621  13.018  0.0746 -0.4428  0.3016
  660MPD2    C1 9765   1.195   0.516  12.925 -0.5730  0.3512  0.1323
  660MPD2    C2 9766   1.160   0.392  12.965  0.8392  0.4248 -0.5656
  660MPD2    C3 9767   1.108   0.366  13.095  0.2606 -0.2457  0.1381
  660MPD2    C4 9768   1.109   0.472  13.183 -0.5506  0.5838  0.1462
  660MPD2    C5 9769   1.162   0.594  13.146  0.6811  0.4693 -0.3403
  660MPD2     H 9770   1.162   0.313  12.890  0.1238 -1.2014  1.1307
  660MPD2    H1 9771   1.069   0.465  13.284 -1.4072  1.4044 -0.1410
  660MPD2    H2 9772   1.207   0.724  12.991  1.7023 -0.3008  2.0009
  660MPD2    H3 9773   1.154   0.681  13.209  0.6246  0.3834 -0.2289
  660MPD2     N 9774   1.042   0.244  13.131 -0.2991 -0.2376  0.0439
  660MPD2    H5 9775   1.007   0.246  13.227  1.0050  0.8044  0.4968
  660MPD2    N1 9776   1.236   0.556  12.792  0.5527  0.0574 -0.2106
  660MPD2    H7 9777   1.255   0.655  12.777 -0.8046  0.7338  2.4597
  661TMC3    C1 9778   1.250   0.556  12.563 -0.4870 -0.4154  0.3636
  661TMC3    C2 9779   1.307   0.501  12.448  0.3889  0.2574 -0.2232
  661TMC3    C3 9780   1.315   0.585  12.338 -0.2427 -0.4178  0.3297
  661TMC3    C4 9781   1.208   0.689  12.564  0.0361 -0.2747  0.0796
  661TMC3    C5 9782   1.203   0.759  12.443 -0.2167  0.8127 -1.2314
  661TMC3    C6 9783   1.259   0.714  12.330  0.1125  0.2690  0.1327
  661TMC3     C 9784   1.244   0.482  12.686 -0.6787 -0.1376  0.3628
  661TMC3     O 9785   1.254   0.359  12.687  0.5433  0.4205 -0.8909
  661TMC3     H 9786   1.352   0.402  12.443 -2.4365 -1.0459  0.2357
  661TMC3    H1 9787   1.152   0.736  12.644  1.0734  0.0400  0.6263
  661TMC3    H2 9788   1.273   0.779  12.244 -0.4049 -0.8376 -0.7814
  661TMC3    C7 9789   1.090   0.849  12.430  0.4215  0.0728  0.1842
  661TMC3    C8 9790   1.346   0.520  12.215 -0.0249  0.4681  0.6636
  661TMC3    O1 9791   1.091   0.939  12.508  0.2722 -0.3549 -0.1808
  661TMC3    O2 9792   1.412   0.584  12.129  0.0153 -0.5004 -1.0709
  662MPD2     C 9793   1.091   0.530  17.379  0.4611 -0.2642  0.3902
  662MPD2    C1 9794   0.956   0.490  17.384 -1.0546  0.4645 -0.5329
  662MPD2    C2 9795   0.860   0.589  17.393 -0.1211 -0.2812 -0.0296
  662MPD2    C3 9796   0.894   0.723  17.396  0.4536 -0.2652  0.0050
  662MPD2    C4 9797   1.027   0.765  17.387  0.7198 -0.3187 -0.2619
  662MPD2    C5 9798   1.125   0.669  17.377  0.5704 -0.1967 -0.0235
  662MPD2     H 9799   0.757   0.555  17.401 -0.0636 -0.4440  0.0413
  662MPD2    H1 9800   1.064   0.866  17.387 -1.3393  0.4344  1.8111
  662MPD2    H2 9801   1.172   0.458  17.379 -0.5626 -1.4207 -0.3039
  662MPD2    H3 9802   1.231   0.689  17.377  0.9053 -1.9265  2.7784
  662MPD2     N 9803   0.793   0.824  17.389 -0.5051 -0.1850  0.6151
  662MPD2    H5 9804   0.822   0.920  17.377  0.7844 -0.8981 -1.9981
  662MPD2    N1 9805   0.914   0.356  17.383  0.2590 -0.4199 -0.1027
  662MPD2    H7 9806   0.813   0.346  17.382  0.1552  0.6386 -0.2256
  663TMC3    C1 9807   0.923   0.126  17.325  0.6805 -0.1585  0.2932
  663TMC3    C2 9808   0.829   0.090  17.420  0.3484 -0.0943 -0.0563
  663TMC3    C3 9809   0.776   4.689  17.422  0.0534  0.3931  0.4250
  663TMC3    C4 9810   0.966   0.041  17.227 -0.2852  0.0988  0.4875
  663TMC3    C5 9811   0.913   4.636  17.223  0.3015  0.7912  0.0241
  663TMC3    C6 9812   0.809   4.610  17.311  0.2904  0.3934  0.4559
  663TMC3     C 9813   0.990   0.253  17.338  0.2761  0.6156 -0.6318
  663TMC3     O 9814   1.110   0.247  17.317 -0.4973 -0.1197  0.1252
  663TMC3     H 9815   0.790   0.168  17.485 -0.8981 -0.3494 -0.5027
  663TMC3    H1 9816   1.044   0.079  17.162  0.8297 -3.3137 -0.1718
  663TMC3    H2 9817   0.779   4.507  17.326 -0.8164  0.4810 -1.1279
  663TMC3    C7 9818   1.002   4.536  17.166 -0.3588 -0.0622 -0.3857
  663TMC3    C8 9819   0.633   4.694  17.435 -0.0500 -0.4218 -0.4806
  663TMC3    O1 9820   1.109   4.572  17.116  0.2648 -0.0315 -0.1065
  663TMC3    O2 9821   0.568   4.619  17.363 -0.3472 -0.5415 -0.3174
  664MPD2     C 9822   4.068   3.642  17.345 -0.2858 -0.6458 -0.9458
  664MPD2    C1 9823   4.148   3.755  17.352  0.2415 -0.3973  0.1170
  664MPD2    C2 9824   4.195   3.793  17.471 -0.6105  0.5379 -0.5227
  664MPD2    C3 9825   4.149   3.735  17.587  0.1511  0.1196 -0.0075
  664MPD2    C4 9826   4.067   3.628  17.578  0.5252 -0.2399  0.4687
  664MPD2    C5 9827   4.026   3.583  17.457 -0.6849  0.6007  0.5793
  664MPD2     H 9828   4.266   3.874  17.487 -0.3744  0.5248 -1.5331
  664MPD2    H1 9829   4.024   3.575  17.662  1.1928  2.9774  2.8498
  664MPD2    H2 9830   4.021   3.609  17.253 -1.8307 -2.5667  0.5229
  664MPD2    H3 9831   3.955   3.502  17.456 -0.7841  0.6912  0.4169
  664MPD2     N 9832   4.187   3.799   0.012  0.1704 -0.5588 -0.3895
  664MPD2    H5 9833   4.268   3.861   0.017  0.2255 -0.6229 -0.4906
  664MPD2    N1 9834   4.191   3.830  17.239  0.3342  0.0090  0.0240
  664MPD2    H7 9835   4.267   3.895  17.255 -0.8712  1.7014 -1.0888
  665TMC3    C1 9836   4.235   3.795   0.240  0.8107 -0.2256 -0.6920
  665TMC3    C2 9837   4.266   3.693   0.329 -0.2170 -0.9032  0.6894
  665TMC3    C3 9838   4.382   3.704   0.405 -0.2123  1.1576 -0.5115
  665TMC3    C4 9839   4.302   3.917   0.244 -0.5678  0.1609  0.7359
  665TMC3    C5 9840   4.414   3.916   0.324 -0.4836  0.4381  0.2231
  665TMC3    C6 9841   4.460   3.811   0.401  0.2322  0.2406  0.8771
  665TMC3     C 9842   4.136   3.769   0.133 -0.3113  0.0475  0.0520
  665TMC3     O 9843   4.047   3.691   0.160 -0.1723 -0.2355 -0.1631
  665TMC3     H 9844   4.213   3.599   0.319 -1.0990 -0.1414 -1.5964
  665TMC3    H1 9845   4.279   4.007   0.188  1.6029  0.2637  0.0224
  665TMC3    H2 9846   4.559   3.809   0.447  0.2897  0.9493  0.7736
  665TMC3    C7 9847   4.491   4.040   0.334  0.0562 -0.8072  0.7071
  665TMC3    C8 9848   4.428   3.604   0.501  0.0805 -0.4991  0.2543
  665TMC3    O1 9849   4.608   4.019   0.345 -0.6744 -0.1561 -0.0486
  665TMC3    O2 9850   4.482   3.645   0.602  0.3140 -0.6662 -0.5816
  666TMC3    C1 9851   3.014   3.524   9.561 -0.2889  0.2569  0.7629
  666TMC3    C2 9852   3.085   3.407   9.554  0.0043 -0.0757 -0.8125
  666TMC3    C3 9853   3.189   3.399   9.466  0.2767  0.0322  0.0821
  666TMC3    C4 9854   3.041   3.634   9.483 -0.6628  0.1875  0.2368
  666TMC3    C5 9855   3.135   3.619   9.383 -0.0318  0.2614 -0.6514
  666TMC3    C6 9856   3.213   3.504   9.383  0.3081  0.5234 -0.0992
  666TMC3     C 9857   2.880   3.508   9.608  1.0881  0.1516 -0.6548
  666TMC3     O 9858   2.820   3.611   9.616  0.7701  0.2634 -0.0732
  666TMC3     H 9859   3.071   3.332   9.631 -1.6060  1.6675  0.5693
  666TMC3    H1 9860   2.966   3.712   9.481  0.2381  1.0588  0.3796
  666TMC3    H2 9861   3.292   3.500   9.309 -0.4219 -0.5911 -0.8159
  666TMC3    C7 9862   3.213   3.733   9.342  0.3963 -0.6563  0.0477
  666TMC3    C8 9863   3.283   3.299   9.495 -0.4277 -0.2128 -0.8468
  666TMC3    O1 9864   3.328   3.712   9.312 -0.1607 -0.6019  0.4936
  666TMC3    O2 9865   3.246   3.209   9.571  0.2146 -0.2810  0.3290
  667MPD2     C 9866   0.374   3.443  14.333  0.0581  0.2636 -0.0489
  667MPD2    C1 9867   0.265   3.454  14.416 -0.4945  0.0115 -0.2845
  667MPD2    C2 9868   0.160   3.365  14.399  0.3934 -0.6719  0.1834
  667MPD2    C3 9869   0.168   3.271  14.302 -0.7170  0.0151  0.2041
  667MPD2    C4 9870   0.272   3.276  14.211  0.4883 -0.0475  1.6929
  667MPD2    C5 9871   0.384   3.351  14.236  0.5111  0.6961 -0.6426
  667MPD2     H 9872   0.081   3.339  14.470 -0.6921  0.0681 -0.7543
  667MPD2    H1 9873   0.253   3.215  14.123 -0.0589  2.5053  0.0302
  667MPD2    H2 9874   0.468   3.493  14.356 -0.7847  2.0285 -0.4086
  667MPD2    H3 9875   0.476   3.338  14.178  1.3320 -0.4908  0.9321
  667MPD2     N 9876   0.064   3.176  14.270  0.6395  0.2943  0.5217
  667MPD2    H5 9877   0.081   3.126  14.184 -0.9611 -1.1399  1.0318
  667MPD2    N1 9878   0.262   3.545  14.524 -0.6626  0.8545 -0.3684
  667MPD2    H7 9879   0.187   3.535  14.592 -0.8810  1.2691 -0.5469
  668TMC3    C1 9880   0.356   3.687  14.697  0.3940  0.3477  0.1549
  668TMC3    C2 9881   0.426   3.796  14.725  0.7413  0.5546 -0.3596
  668TMC3    C3 9882   0.421   3.843  14.856  0.0950  0.0252 -0.6501
  668TMC3    C4 9883   0.279   3.617  14.789  0.6214 -1.0744 -0.2527
  668TMC3    C5 9884   0.275   3.664  14.918 -0.8471  0.1089 -0.4399
  668TMC3    C6 9885   0.344   3.783  14.954 -0.3316  0.5509  0.1101
  668TMC3     C 9886   0.371   3.628  14.565  0.0927 -0.1078  0.1375
  668TMC3     O 9887   0.478   3.652  14.509 -0.2113  0.3172 -0.2688
  668TMC3     H 9888   0.476   3.843  14.641  0.1784  1.9848  0.1072
  668TMC3    H1 9889   0.241   3.517  14.771 -0.7857 -0.1878 -2.2231
  668TMC3    H2 9890   0.335   3.818  15.056  0.2764 -1.2568  0.7932
  668TMC3    C7 9891   0.198   3.600  15.019 -0.0409 -0.1622  0.3868
  668TMC3    C8 9892   0.491   3.960  14.901  0.4711  0.2450 -0.0615
  668TMC3    O1 9893   0.215   3.630  15.134  0.0082  0.3449 -0.3929
  668TMC3    O2 9894   0.463   4.028  15.001  0.1461  0.9456 -0.4702
  669TMC3    C1 9895   2.989   3.011  14.552 -0.2442  0.6262  0.1684
  669TMC3    C2 9896   2.889   3.014  14.459 -0.5590 -0.2326 -0.0542
  669TMC3    C3 9897   2.918   3.099  14.348  0.2715 -0.3453  0.1906
  669TMC3    C4 9898   3.113   3.070  14.532  0.3447  0.3422  0.1855
  669TMC3    C5 9899   3.126   3.154  14.432 -0.0575 -0.0239  0.2708
  669TMC3    C6 9900   3.025   3.182  14.341 -0.0680  0.0377 -0.0701
  669TMC3     C 9901   2.985   2.909  14.651  0.0540 -0.5771  0.5646
  669TMC3     O 9902   2.869   2.879  14.678  0.5123  0.1795  0.4132
  669TMC3     H 9903   2.805   2.947  14.462 -0.6643  0.0095  2.4256
  669TMC3    H1 9904   3.193   3.072  14.605 -1.4263  0.5168  2.1299
  669TMC3    H2 9905   3.049   3.241  14.253 -0.3177  1.2179  0.6433
  669TMC3    C7 9906   3.234   3.250  14.414  0.0920 -0.3211  1.1362
  669TMC3    C8 9907   2.818   3.119  14.239 -0.1788  1.0471 -0.4045
  669TMC3    O1 9908   3.214   3.352  14.351  0.0618 -0.8806 -0.4145
  669TMC3    O2 9909   2.757   3.014  14.214  0.2454  0.2443 -0.2352
  670MPD2     C 9910   0.695   1.294  13.440 -0.4368 -0.3075 -0.3642
  670MPD2    C1 9911   0.819   1.338  13.466 -0.0792  0.6041 -0.4220
  670MPD2    C2 9912   0.873   1.303  13.592 -0.6701 -0.4417  0.2035
  670MPD2    C3 9913   0.809   1.233  13.691 -0.0170 -0.3544 -0.1897
  670MPD2    C4 9914   0.678   1.203  13.662 -0.1291 -0.5299  0.0976
  670MPD2    C5 9915   0.627   1.233  13.539  0.3279  0.4112 -0.5515
  670MPD2     H 9916   0.974   1.336  13.612 -0.7847 -0.1758  0.3425
  670MPD2    H1 9917   0.614   1.144  13.726 -3.0028  0.6935 -1.6540
  670MPD2    H2 9918   0.654   1.310  13.341 -0.9962 -0.3148 -0.1340
  670MPD2    H3 9919   0.526   1.195  13.529 -0.2309  1.3761  1.3567
  670MPD2     N 9920   0.876   1.202  13.815 -0.7737  0.8929  0.8194
  670MPD2    H5 9921   0.969   1.243  13.822 -0.9093  1.4052 -0.4480
  670MPD2    N1 9922   0.906   1.406  13.372  0.2239  0.1587 -0.3427
  670MPD2    H7 9923   0.991   1.448  13.410 -0.1471  0.7636 -0.1792
  671TMC3    C1 9924   0.897   1.105  14.035  0.4140  0.1009  0.3787
  671TMC3    C2 9925   1.026   1.075  14.021  0.1224  0.0734  0.2522
  671TMC3    C3 9926   1.080   0.979  14.115  0.3821  0.1615  0.1581
  671TMC3    C4 9927   0.825   1.068  14.145  0.0948  0.2976 -0.1407
  671TMC3    C5 9928   0.884   0.990  14.243  0.1327 -0.2765 -0.5498
  671TMC3    C6 9929   1.012   0.954  14.227 -0.7070 -0.3707 -0.5358
  671TMC3     C 9930   0.818   1.134  13.918 -0.2974 -0.2481  0.8095
  671TMC3     O 9931   0.702   1.088  13.920  0.7066 -0.0686  0.0323
  671TMC3     H 9932   1.063   1.078  13.919 -1.5025  1.8417 -0.2918
  671TMC3    H1 9933   0.721   1.096  14.149 -0.0754 -0.3692  0.0411
  671TMC3    H2 9934   1.045   0.872  14.291  0.1086 -0.2059 -0.7388
  671TMC3    C7 9935   0.788   0.896  14.291  0.6775 -0.1547 -0.1646
  671TMC3    C8 9936   1.171   0.878  14.069  0.6675 -0.6137  0.6657
  671TMC3    O1 9937   0.815   0.779  14.269  0.2416  0.0919 -0.4394
  671TMC3    O2 9938   1.167   0.847  13.949 -0.1370  0.3434  0.0762
  672MPD2     C 9939   1.919   1.855   0.868 -0.0904 -0.2534  0.6690
  672MPD2    C1 9940   1.975   1.780   0.769 -0.3001 -0.3287 -0.4302
  672MPD2    C2 9941   2.107   1.804   0.736 -0.4096 -0.4619  0.9936
  672MPD2    C3 9942   2.185   1.903   0.802 -0.2212 -0.4487  0.1534
  672MPD2    C4 9943   2.118   1.989   0.891 -0.7219  0.1782  0.6434
  672MPD2    C5 9944   1.988   1.962   0.926  0.1838  1.1574  0.1071
  672MPD2     H 9945   2.151   1.739   0.661 -0.3095  0.7258  0.0182
  672MPD2    H1 9946   2.167   2.070   0.943  3.3548 -2.0635  0.3299
  672MPD2    H2 9947   1.824   1.831   0.916 -0.0760  0.7682  1.2097
  672MPD2    H3 9948   1.930   2.028   0.989  1.5325  3.3976 -1.0116
  672MPD2     N 9949   2.316   1.933   0.774 -0.0225  0.7719 -0.8256
  672MPD2    H5 9950   2.345   2.028   0.793 -0.6851  0.7985  0.0662
  672MPD2    N1 9951   1.915   1.666   0.709  0.0466 -0.0295 -0.5848
  672MPD2    H7 9952   1.976   1.613   0.648  0.5017  1.8629 -1.7948
  673TMC3    C1 9953   1.749   1.513   0.651 -0.3083  0.3798 -0.3124
  673TMC3    C2 9954   1.841   1.444   0.583 -0.2055  0.1343  0.5078
  673TMC3    C3 9955   1.800   1.333   0.508  1.0292  0.8023  0.5478
  673TMC3    C4 9956   1.616   1.479   0.650  0.3835 -0.0603  0.8963
  673TMC3    C5 9957   1.577   1.365   0.583  0.5666 -0.5589  0.1117
  673TMC3    C6 9958   1.663   1.303   0.506 -0.1911 -0.1287  0.0069
  673TMC3     C 9959   1.788   1.628   0.735 -0.2519 -0.0241  0.3664
  673TMC3     O 9960   1.694   1.700   0.782 -0.2922 -0.3842 -0.0790
  673TMC3     H 9961   1.942   1.479   0.565 -1.2827  2.3713 -1.2108
  673TMC3    H1 9962   1.549   1.535   0.714  0.0653  1.1556 -0.4977
  673TMC3    H2 9963   1.630   1.225   0.439 -1.8530  1.0198 -0.5261
  673TMC3    C7 9964   1.433   1.340   0.555 -0.2210 -0.6323 -0.4213
  673TMC3    C8 9965   1.884   1.246   0.424 -0.4174 -0.1974 -0.6736
  673TMC3    O1 9966   1.403   1.227   0.511 -0.6640  0.5522  0.3374
  673TMC3    O2 9967   1.834   1.192   0.326 -0.1594 -0.0507 -0.2877
  674MPD2     C 9968   0.865   1.703  17.657  0.2890  0.2059  0.0986
  674MPD2    C1 9969   0.874   1.586   0.034  0.0324  0.0021  0.2292
  674MPD2    C2 9970   0.768   1.547   0.108  0.9690  0.2687  0.6535
  674MPD2    C3 9971   0.655   1.626   0.124 -0.4763  0.0184  1.1097
  674MPD2    C4 9972   0.645   1.745   0.051  0.1959  0.7982  0.1271
  674MPD2    C5 9973   0.749   1.775  17.661 -0.4407  0.1307  1.0482
  674MPD2     H 9974   0.777   1.455   0.164  2.9790 -1.3131 -2.2647
  674MPD2    H1 9975   0.554   1.804   0.058  0.3439  1.0564 -0.1247
  674MPD2    H2 9976   0.942   1.750  17.598  1.0322 -1.9618 -0.6625
  674MPD2    H3 9977   0.752   1.863  17.597 -0.2428 -1.0088 -0.5138
  674MPD2     N 9978   0.556   1.578   0.207  0.3320  0.4067  0.4333
  674MPD2    H5 9979   0.577   1.483   0.238  2.1281  0.5008 -0.4935
  674MPD2    N1 9980   1.003   1.522   0.038 -0.3439  0.1418  0.3469
  674MPD2    H7 9981   1.081   1.575  17.693  0.4734 -2.1335 -1.1278
  675TMC3    C1 9982   1.158   1.360   0.109  0.5427 -0.6723  0.4372
  675TMC3    C2 9983   1.178   1.219   0.127 -0.0939 -0.5828 -0.3202
  675TMC3    C3 9984   1.302   1.173   0.150 -0.3726 -0.3693 -0.9077
  675TMC3    C4 9985   1.261   1.451   0.123  0.9961 -0.0743 -0.0722
  675TMC3    C5 9986   1.382   1.394   0.156 -0.6647  0.2417 -0.2964
  675TMC3    C6 9987   1.413   1.258   0.163 -0.0366 -0.2046 -0.3459
  675TMC3     C 9988   1.016   1.395   0.087  0.4331  1.2365  0.1077
  675TMC3     O 9989   0.934   1.304   0.097  0.1307  0.2187  1.0939
  675TMC3     H 9990   1.094   1.149   0.132 -0.8539  0.4052  0.8368
  675TMC3    H1 9991   1.248   1.552   0.087 -0.5929 -1.0250 -2.1729
  675TMC3    H2 9992   1.509   1.214   0.188  0.2796  1.3545  1.1337
  675TMC3    C7 9993   1.486   1.479   0.203 -0.9145 -0.0819 -0.0180
  675TMC3    C8 9994   1.324   1.031   0.179 -0.0561 -0.0473 -0.4579
  675TMC3    O1 9995   1.593   1.429   0.224 -0.0012 -1.0669  0.1371
  675TMC3    O2 9996   1.297   0.953   0.088  0.9137  0.4041 -0.0779
  676MPD2     C 9997   3.995   0.046  11.107  0.1473 -0.1555  0.5712
  676MPD2    C1 9998   3.969   4.650  11.169  0.0433 -0.2629 -0.5000
  676MPD2    C2 9999   4.002   4.532  11.109  0.1638  0.5467 -0.2028
  676MPD2    C310000   4.071   4.527  10.988 -0.1966 -0.3434 -0.7757
  676MPD2    C410001   4.122   4.644  10.941 -0.5855 -0.1016 -0.0574
  676MPD2    C510002   4.082   0.044  11.002  0.5945 -0.4458  0.4336
  676MPD2     H10003   3.977   4.442  11.163 -1.9298  1.2058 -0.0629
  676MPD2    H110004   4.184   4.653  10.852 -1.3125  1.2157 -0.4410
  676MPD2    H210005   3.963   0.139  11.153  0.6299 -0.0474  0.6923
  676MPD2    H310006   4.097   0.133  10.942 -1.0142 -0.7512 -0.4306
  676MPD2     N10007   4.099   4.407  10.917 -0.3171 -0.1766  0.4845
  676MPD2    H510008   4.161   4.411  10.836 -0.8366 -0.1813  0.0858
  676MPD2    N110009   3.888   4.649  11.280  0.3535 -0.6398  0.7251
  676MPD2    H710010   3.857   4.555  11.304 -1.0407 -0.5286 -0.6767
  677TMC3    C110011   3.768   4.718  11.466 -0.0534  0.2772 -0.3716
  677TMC3    C210012   3.694   4.612  11.447 -0.5048  0.2803  0.1066
  677TMC3    C310013   3.605   4.567  11.545 -0.8829  0.0727 -0.3490
  677TMC3    C410014   3.773   0.060  11.588  0.2601  1.0878  0.4875
  677TMC3    C510015   3.692   0.011  11.686 -0.4819  0.0114  0.3857
  677TMC3    C610016   3.611   4.626  11.672 -0.2458  0.5494  0.0484
  677TMC3     C10017   3.863   0.036  11.364 -0.1379  0.4174  0.3279
  677TMC3     O10018   3.922   0.142  11.379 -0.2722  0.1533 -0.3498
  677TMC3     H10019   3.671   4.570  11.349  1.0063 -1.3023  0.4293
  677TMC3    H110020   3.846   0.136  11.612  2.2545 -1.1189  1.4722
  677TMC3    H210021   3.544   4.583  11.746 -0.5696 -0.2537 -0.7034
  677TMC3    C710022   3.731   0.026  11.829 -0.0243 -0.1724 -0.4757
  677TMC3    C810023   3.522   4.449  11.523  0.1800 -0.8604 -0.5527
  677TMC3    O110024   3.716   4.652  11.904 -0.3439  0.0300 -0.5706
  677TMC3    O210025   3.442   4.466  11.432 -0.5139  0.0095  0.1476
  678MPD2     C10026   0.504   0.774   1.239  0.6371  0.0365  0.8143
  678MPD2    C110027   0.551   0.731   1.112  0.1435  0.0976 -0.5924
  678MPD2    C210028   0.474   0.654   1.033 -0.0890  0.3982  0.0539
  678MPD2    C310029   0.360   0.600   1.088  0.1884 -0.3755  0.1233
  678MPD2    C410030   0.304   0.652   1.203 -0.4022  0.3870 -0.9232
  678MPD2    C510031   0.376   0.738   1.274  0.1339  0.0936  0.0588
  678MPD2     H10032   0.516   0.617   0.940 -1.7333  1.7495 -1.2260
  678MPD2    H110033   0.206   0.619   1.237  0.3487  0.4400  1.2948
  678MPD2    H210034   0.554   0.850   1.298 -0.5680 -0.7013  2.8031
  678MPD2    H310035   0.337   0.788   1.362  1.5708 -0.7376  1.1650
  678MPD2     N10036   0.294   0.496   1.020  0.1616 -0.4174 -0.3147
  678MPD2    H510037   0.351   0.445   0.954  0.2120 -1.4527  0.5252
  678MPD2    N110038   0.681   0.762   1.071 -0.0377  0.7230 -0.6258
  678MPD2    H710039   0.712   0.715   0.987 -1.9406  1.6139 -1.8230
  679TMC3    C110040   1.041   0.749   0.925  1.3499  0.2381 -0.1163
  679TMC3    C210041   0.974   0.767   1.047 -0.1842  0.8385 -0.1542
  679TMC3    C310042   0.881   0.868   1.047  0.1570 -0.1888 -0.4504
  679TMC3    C410043   1.035   0.840   0.822 -0.3075  0.5789 -0.5751
  679TMC3    C510044   0.947   0.949   0.836  0.0652 -0.1058  0.1163
  679TMC3    C610045   0.864   0.951   0.944  0.0882 -0.3830 -0.2052
  679TMC3     C10046   1.066   0.612   0.876 -0.0235 -0.1225  0.0001
  679TMC3     O10047   1.014   0.519   0.935 -0.3188 -0.1308 -0.1822
  679TMC3     H10048   0.999   0.705   1.132 -2.5977  0.2055  0.0894
  679TMC3    H110049   1.098   0.829   0.735  0.8984 -0.0004  0.3660
  679TMC3    H210050   0.787   1.025   0.962 -0.5176 -0.5557 -2.0500
  679TMC3    C710051   0.880   0.985   0.713  0.1339  0.2748  0.0103
  679TMC3    C810052   0.764   0.854   1.127 -0.1222 -0.0323  0.7769
  679TMC3    O110053   0.757   0.998   0.712 -0.0877 -0.1942 -0.3777
  679TMC3    O210054   0.749   0.944   1.212  0.0853 -0.0518  0.1976
  680MPD2     C10055   0.735   3.226  13.496 -0.6558 -0.0653  0.7888
  680MPD2    C110056   0.826   3.149  13.567  0.5008  0.6858  0.8967
  680MPD2    C210057   0.900   3.206  13.671 -0.2769 -0.2926  0.1834
  680MPD2    C310058   0.883   3.341  13.703 -0.4081 -0.3396 -0.3118
  680MPD2    C410059   0.789   3.415  13.637 -0.2674  0.1535  0.1087
  680MPD2    C510060   0.718   3.360  13.534  0.3434 -0.1505 -0.1603
  680MPD2     H10061   0.975   3.151  13.727  0.3849  0.7520  0.3172
  680MPD2    H110062   0.768   3.517  13.668 -0.5470  0.4428 -1.0411
  680MPD2    H210063   0.664   3.189  13.423  0.7470  2.9032 -2.0950
  680MPD2    H310064   0.645   3.414  13.475 -0.2301  1.1288  1.7114
  680MPD2     N10065   0.965   3.411  13.795 -0.3024  0.1918 -0.2908
  680MPD2    H510066   0.953   3.511  13.784 -0.3806 -0.0295 -2.2208
  680MPD2    N110067   0.830   3.005  13.551 -0.6072 -0.6898 -0.1618
  680MPD2    H710068   0.867   2.944  13.622  0.7125  2.0655  1.5376
  681TMC3    C110069   0.805   2.799  13.444 -0.0902  0.2846 -0.2485
  681TMC3    C210070   0.741   2.736  13.548 -0.5070 -0.7530  0.1463
  681TMC3    C310071   0.724   2.601  13.537 -0.1293  0.1281 -0.3256
  681TMC3    C410072   0.834   2.738  13.323 -0.3295  0.3076 -0.1381
  681TMC3    C510073   0.821   2.603  13.317 -0.2961 -0.0992 -0.0512
  681TMC3    C610074   0.759   2.535  13.422 -0.0091 -0.2074 -0.3526
  681TMC3     C10075   0.777   2.941  13.439  0.0575 -0.3256  0.5323
  681TMC3     O10076   0.745   2.984  13.328 -0.4669  0.0076  0.3885
  681TMC3     H10077   0.707   2.795  13.632  1.7991 -3.2267  2.8273
  681TMC3    H110078   0.880   2.806  13.253 -1.5703  1.5688  0.2675
  681TMC3    H210079   0.729   2.431  13.412 -0.9895  0.1437 -1.0342
  681TMC3    C710080   0.899   2.521  13.234  0.0102 -0.4051  0.1875
  681TMC3    C810081   0.675   2.526  13.649  0.5314  0.0427  0.7081
  681TMC3    O110082   0.881   2.399  13.257 -0.7861  1.2306  0.0088
  681TMC3    O210083   0.653   2.410  13.623 -0.2826  0.0098 -0.9105
  682MPD2     C10084   3.716   4.321  10.262 -0.2444  0.2032 -0.1693
  682MPD2    C110085   3.709   4.189  10.206  0.7397 -0.0568  0.2528
  682MPD2    C210086   3.615   4.100  10.256  0.2844 -0.3287  0.5059
  682MPD2    C310087   3.524   4.145  10.350  0.5172 -0.0480  0.3691
  682MPD2    C410088   3.547   4.264  10.411 -0.3879  0.3907 -0.4350
  682MPD2    C510089   3.653   4.352  10.374  0.0823  0.0941  0.3252
  682MPD2     H10090   3.583   4.010  10.205  0.5167 -0.4781  0.6262
  682MPD2    H110091   3.500   4.294  10.505  0.2100 -0.7806  0.2367
  682MPD2    H210092   3.795   4.390  10.234  0.4619  0.4593  2.4830
  682MPD2    H310093   3.665   4.445  10.428  0.0634  0.6220 -0.5970
  682MPD2     N10094   3.410   4.071  10.391 -0.0432 -0.3684  0.8315
  682MPD2    H510095   3.369   4.114  10.473  0.7453 -0.4388  1.2581
  682MPD2    N110096   3.779   4.152  10.088  0.7404 -0.3064 -0.8796
  682MPD2    H710097   3.762   4.058  10.054  2.5822 -1.5028  1.5228
  683TMC3    C110098   3.170   3.830  10.633  0.1881 -0.6981 -0.3058
  683TMC3    C210099   3.126   3.707  10.591  0.6192 -0.3879  0.6178
  683TMC3    C310100   3.162   3.679  10.460 -0.9912  0.5225  0.2248
  683TMC3    C410101   3.252   3.909  10.563  0.1098 -0.0322 -0.6247
  683TMC3    C510102   3.282   3.875  10.433 -0.3935  0.9881  0.5636
  683TMC3    C610103   3.244   3.752  10.380  0.4416 -0.4472 -0.1585
  683TMC3     C10104   3.091   3.889  10.732 -0.6064  0.8639 -0.1302
  683TMC3     O10105   3.066   4.011  10.721  0.0608 -0.3461  0.0043
  683TMC3     H10106   3.037   3.666  10.636 -0.0222  1.9842  1.5165
  683TMC3    H110107   3.287   4.003  10.603 -1.1987  0.4498 -0.6294
  683TMC3    H210108   3.265   3.731  10.276  0.6003 -1.4076  0.0719
  683TMC3    C710109   3.391   3.942  10.359  0.2561  0.0637  0.3886
  683TMC3    C810110   3.129   3.547  10.414  0.5304 -0.1052  0.2867
  683TMC3    O110111   3.441   3.867  10.275  0.1597 -0.4148  0.2537
  683TMC3    O210112   3.150   3.519  10.294  0.1277 -0.0976  0.2744
  684MPD2     C10113   1.068   3.426  16.219 -0.3933 -0.5338 -0.1572
  684MPD2    C110114   1.007   3.515  16.132  0.5249  0.0150 -0.1237
  684MPD2    C210115   0.987   3.652  16.182  0.6821  0.0437  0.7222
  684MPD2    C310116   1.032   3.688  16.312 -0.0321  0.5964  0.5277
  684MPD2    C410117   1.098   3.593  16.386  0.0533  0.3309 -0.1658
  684MPD2    C510118   1.116   3.469  16.337 -0.0329 -0.1267 -0.9716
  684MPD2     H10119   0.944   3.725  16.116  0.6953 -1.7028 -1.2161
  684MPD2    H110120   1.151   3.620  16.477 -1.9453  0.2817  1.0205
  684MPD2    H210121   1.096   3.325  16.190 -1.7323 -1.2774  1.1400
  684MPD2    H310122   1.173   3.410  16.409  0.9270  0.7981 -0.9761
  684MPD2     N10123   1.029   3.816  16.373 -0.1752 -0.2139  0.0535
  684MPD2    H510124   1.073   3.812  16.465  0.6731 -1.4322 -0.3959
  684MPD2    N110125   0.976   3.481  15.999  0.2181  0.1693  0.5282
  684MPD2    H710126   0.925   3.548  15.941  0.1149  0.7088  1.2444
  685TMC3    C110127   1.023   3.385  15.786 -0.0462 -0.2792 -0.5159
  685TMC3    C210128   0.917   3.460  15.739  0.3477  0.6455  0.1577
  685TMC3    C310129   0.929   3.526  15.626 -0.2194  0.0800  0.4679
  685TMC3    C410130   1.146   3.391  15.729  0.0866  0.4303 -0.2625
  685TMC3    C510131   1.157   3.461  15.612 -0.1761 -0.0089  0.3260
  685TMC3    C610132   1.053   3.531  15.562 -0.3458 -0.2157  0.2046
  685TMC3     C10133   1.025   3.375  15.928 -0.0236 -0.2627  0.1982
  685TMC3     O10134   1.110   3.295  15.962 -0.6377 -0.7368 -0.0922
  685TMC3     H10135   0.819   3.433  15.775  0.2307 -0.8607 -1.2334
  685TMC3    H110136   1.220   3.317  15.757  0.5390  0.8988 -0.2304
  685TMC3    H210137   1.053   3.570  15.460 -3.1198  0.9864  0.6586
  685TMC3    C710138   1.287   3.510  15.570  0.3411 -0.1901  0.2857
  685TMC3    C810139   0.811   3.556  15.545  0.2425  0.0530  0.2559
  685TMC3    O110140   1.305   3.589  15.480 -0.0275  0.0908  0.1130
  685TMC3    O210141   0.822   3.563  15.422  0.2285 -0.3111 -0.0359
  686MPD2     C10142   2.385   3.537  15.048 -0.9754  0.5325 -0.3759
  686MPD2    C110143   2.391   3.439  15.148  0.3402  0.4916  0.5059
  686MPD2    C210144   2.439   3.314  15.111  0.3944  0.1054 -0.6099
  686MPD2    C310145   2.462   3.279  14.977 -0.2361 -0.4230  0.8451
  686MPD2    C410146   2.443   3.375  14.880 -0.3267  0.1809 -0.8062
  686MPD2    C510147   2.405   3.502  14.919 -0.0376  0.0334  0.2159
  686MPD2     H10148   2.484   3.250  15.187 -0.7659  0.7268  0.5917
  686MPD2    H110149   2.457   3.362  14.773  1.7864  1.3307 -0.6671
  686MPD2    H210150   2.338   3.632  15.072 -0.2606  0.4209  1.4652
  686MPD2    H310151   2.388   3.574  14.840 -1.1443  0.9818  1.3213
  686MPD2     N10152   2.508   3.151  14.934 -0.0060  0.2491 -0.3182
  686MPD2    H510153   2.559   3.148  14.846 -0.4566 -1.2886 -0.5384
  686MPD2    N110154   2.347   3.466  15.278  0.3899 -0.2403 -0.6326
  686MPD2    H710155   2.316   3.558  15.307 -2.7857 -1.5197  0.0039
  687TMC3    C110156   2.450   3.015  15.120  0.4837 -0.1287  0.0362
  687TMC3    C210157   2.321   3.037  15.114 -0.8282  0.6261 -0.1268
  687TMC3    C310158   2.243   2.999  15.223 -0.0068 -0.1099 -0.5133
  687TMC3    C410159   2.510   2.958  15.228  0.5636  0.0955 -0.0384
  687TMC3    C510160   2.429   2.916  15.332 -0.0915 -0.0457  0.1431
  687TMC3    C610161   2.296   2.927  15.332 -0.4901  0.2281 -0.1910
  687TMC3     C10162   2.525   3.031  14.997  0.0045  0.3789 -0.4450
  687TMC3     O10163   2.578   2.933  14.949  0.5448  0.9865 -0.0500
  687TMC3     H10164   2.287   3.089  15.025 -0.1151  2.9574  0.9624
  687TMC3    H110165   2.618   2.945  15.226  0.2734 -2.2764  0.0465
  687TMC3    H210166   2.235   2.908  15.420 -1.1224 -2.5921 -1.2323
  687TMC3    C710167   2.503   2.901  15.459 -0.0640 -0.4981 -0.4672
  687TMC3    C810168   2.108   3.027  15.230  0.7978 -0.0014 -0.0767
  687TMC3    O110169   2.622   2.933  15.451  0.5884 -0.1387  0.5021
  687TMC3    O210170   2.027   2.959  15.295  0.0381 -0.2654 -0.4317
  688MPD2     C10171   1.708   2.412  16.839 -0.2304 -0.0521 -0.0751
  688MPD2    C110172   1.768   2.363  16.954  0.6497 -0.3650  0.2814
  688MPD2    C210173   1.901   2.318  16.955 -0.7005 -0.6194 -0.0095
  688MPD2    C310174   1.984   2.340  16.845 -0.9454 -0.1968 -0.3518
  688MPD2    C410175   1.927   2.394  16.729  0.2538  0.1325  0.5100
  688MPD2    C510176   1.791   2.426  16.729  0.0069 -0.8305  0.5318
  688MPD2     H10177   1.943   2.271  17.043  1.3057 -0.6661 -1.0084
  688MPD2    H110178   1.976   2.402  16.633  0.9112  0.9781  0.9078
  688MPD2    H210179   1.609   2.455  16.826  0.2751  0.4881 -2.1152
  688MPD2    H310180   1.753   2.469  16.636 -1.9166 -3.2699  0.1928
  688MPD2     N10181   2.116   2.312  16.834  0.6294  0.9845 -0.2479
  688MPD2    H510182   2.159   2.343  16.747  0.7680  1.1858 -0.1087
  688MPD2    N110183   1.699   2.369  17.077  0.0457  0.3926  0.3256
  688MPD2    H710184   1.752   2.334  17.157  2.7327 -0.8018 -1.9782
  689TMC3    C110185   1.553   2.424  17.241  0.0189  0.1098  0.2232
  689TMC3    C210186   1.601   2.534  17.313 -0.1627  0.4012  0.0229
  689TMC3    C310187   1.597   2.534  17.452 -0.0300 -0.1053  0.7013
  689TMC3    C410188   1.501   2.313  17.305  0.0159  0.6378 -0.1252
  689TMC3    C510189   1.501   2.314  17.444 -0.5151  0.2042  0.5234
  689TMC3    C610190   1.551   2.422  17.515 -0.6157  0.3191  0.1575
  689TMC3     C10191   1.577   2.421  17.099 -0.0242 -0.7056 -0.0231
  689TMC3     O10192   1.485   2.425  17.020  0.5076 -0.9146 -0.2474
  689TMC3     H10193   1.634   2.624  17.262 -2.7013  1.4534  0.2434
  689TMC3    H110194   1.490   2.216  17.259 -0.5239  1.0056 -0.7696
  689TMC3    H210195   1.551   2.423  17.624 -0.6961 -0.7632  0.1672
  689TMC3    C710196   1.488   2.186  17.516 -0.7525 -0.1189 -1.0088
  689TMC3    C810197   1.689   2.619  17.530  0.0676 -0.4528  0.3652
  689TMC3    O110198   1.551   2.174  17.624  0.5968 -0.1254 -0.2233
  689TMC3    O210199   1.678   2.606  17.653  0.4656 -0.0282 -0.5753
  690MPD2     C10200   4.014   4.451  15.278 -0.0320  0.1824  0.2368
  690MPD2    C110201   4.074   4.325  15.263  0.0004  0.1868  0.7517
  690MPD2    C210202   4.210   4.312  15.274 -0.0504 -0.4284 -0.0376
  690MPD2    C310203   4.284   4.424  15.309 -0.2789 -0.9076 -0.4443
  690MPD2    C410204   4.226   4.542  15.332  0.2147  0.1033  0.3706
  690MPD2    C510205   4.098   4.553  15.310 -0.3187  0.1388  0.5450
  690MPD2     H10206   4.256   4.213  15.272  1.7847  0.3800  1.6430
  690MPD2    H110207   4.278   4.633  15.360 -1.1401  1.1234 -0.4416
  690MPD2    H210208   3.906   4.464  15.272  0.1471  1.0261 -0.9663
  690MPD2    H310209   4.051   4.651  15.319 -2.5257 -0.9711  1.0635
  690MPD2     N10210   4.418   4.421  15.309 -0.2208 -0.1859 -0.9919
  690MPD2    H510211   4.467   4.507  15.331  0.9417 -0.8495 -0.9210
  690MPD2    N110212   4.006   4.204  15.234 -0.2492 -0.0885 -0.1949
  690MPD2    H710213   4.069   4.127  15.214  1.3142  0.3486  3.1161
  691TMC3    C110214   3.828   4.044  15.212 -0.3413  0.3826 -0.1683
  691TMC3    C210215   3.698   4.033  15.169  0.3786  0.8157  0.4372
  691TMC3    C310216   3.669   3.913  15.119 -0.6628  0.0207 -0.3474
  691TMC3    C410217   3.925   3.953  15.199 -0.0050 -0.0267 -0.0109
  691TMC3    C510218   3.885   3.825  15.165  0.0110  0.4456 -0.1386
  691TMC3    C610219   3.758   3.814  15.112  0.1141  0.8251  0.0959
  691TMC3     C10220   3.870   4.178  15.231 -0.0226 -0.3059 -0.1638
  691TMC3     O10221   3.782   4.261  15.255 -0.2515 -0.5851 -0.3650
  691TMC3     H10222   3.625   4.113  15.160  0.0179  0.4532  0.0918
  691TMC3    H110223   4.024   3.953  15.242  0.1999 -2.8641 -0.4690
  691TMC3    H210224   3.731   3.720  15.065 -0.8388  0.4296  1.4265
  691TMC3    C710225   3.895   3.742  15.280  1.0882  0.6095  0.4500
  691TMC3    C810226   3.530   3.862  15.153  0.4053 -0.3088 -0.7621
  691TMC3    O110227   3.989   3.770  15.360  1.1066  0.0500  0.3110
  691TMC3    O210228   3.514   3.745  15.125 -0.2505  0.5767 -0.7909
  692TMC3    C110229   1.103   0.628  15.925 -0.0900 -0.2163  0.6768
  692TMC3    C210230   1.211   0.640  16.004 -0.4694  0.8356 -0.4596
  692TMC3    C310231   1.273   0.531  16.070  0.3536 -0.5234 -0.5874
  692TMC3    C410232   1.044   0.503  15.898  0.2506 -0.1017  1.3181
  692TMC3    C510233   1.096   0.398  15.975 -0.6180  0.8848  0.2642
  692TMC3    C610234   1.208   0.408  16.056 -0.4065  0.2638  0.7483
  692TMC3     C10235   1.007   0.739  15.918  0.3655  0.5689  0.6897
  692TMC3     O10236   0.895   0.706  15.887 -0.3098  0.4530 -0.0641
  692TMC3     H10237   1.259   0.738  16.010 -1.7146  1.2993  1.8964
  692TMC3    H110238   0.955   0.492  15.837  1.2500  0.2462 -0.2001
  692TMC3    H210239   1.258   0.318  16.090  0.2876  0.7294  0.9658
  692TMC3    C710240   1.068   0.265  15.921 -0.5894  0.0920 -0.1973
  692TMC3    C810241   1.308   0.551  16.212  0.9671 -0.4446 -0.8170
  692TMC3    O110242   1.044   0.279  15.801  0.2839 -0.2100  0.1362
  692TMC3    O210243   1.317   0.456  16.289 -0.0083  0.4097 -0.2650
  693MPD2     C10244   0.345   3.564  10.281  0.1381 -0.1575  0.0842
  693MPD2    C110245   0.289   3.442  10.314  0.5982 -0.4140  0.1482
  693MPD2    C210246   0.372   3.332  10.336  0.0810 -0.5682 -0.5321
  693MPD2    C310247   0.503   3.344  10.320  0.2983  0.3235 -0.1880
  693MPD2    C410248   0.554   3.469  10.276  0.2537  0.2038 -0.5375
  693MPD2    C510249   0.476   3.580  10.256 -0.2646  0.3999 -0.0438
  693MPD2     H10250   0.331   3.238  10.372  0.9755 -1.7958 -2.7183
  693MPD2    H110251   0.661   3.478  10.261  0.6790 -2.2065  1.1287
  693MPD2    H210252   0.273   3.644  10.287  2.3227  1.8266  0.0927
  693MPD2    H310253   0.524   3.669  10.219  0.6525 -0.2321 -0.3837
  693MPD2     N10254   0.578   3.233  10.353 -0.1053  0.1036 -0.3220
  693MPD2    H510255   0.528   3.152  10.385  3.2741 -1.4309  1.0619
  693MPD2    N110256   0.152   3.448  10.339  0.5964  0.4338  0.5806
  693MPD2    H710257   0.111   3.537  10.364 -1.0314 -0.1536 -0.0236
  694TMC3    C110258   4.673   3.365  10.400 -0.2236 -0.1393 -0.1526
  694TMC3    C210259   4.576   3.282  10.348  0.0694 -0.5379 -0.4393
  694TMC3    C310260   4.503   3.195  10.435  0.0015  0.2040  0.8262
  694TMC3    C410261   4.682   3.378  10.541  0.0882  0.4814 -0.2736
  694TMC3    C510262   4.615   3.291  10.618 -0.4506 -0.3562 -0.2778
  694TMC3    C610263   4.531   3.199  10.568 -1.2132 -0.0295 -0.0581
  694TMC3     C10264   0.071   3.341  10.337  0.2186 -0.1892 -0.4792
  694TMC3     O10265   0.087   3.236  10.277  0.2884  0.2340  0.2112
  694TMC3     H10266   4.568   3.279  10.240  1.0928  1.7709 -0.5732
  694TMC3    H110267   0.024   3.454  10.584 -1.4762  0.7337  1.6600
  694TMC3    H210268   4.480   3.130  10.633 -2.6508 -0.2554 -1.4046
  694TMC3    C710269   4.636   3.295  10.760  0.8690  0.0983  0.0293
  694TMC3    C810270   4.436   3.076  10.383 -0.1304  0.1081 -0.6576
  694TMC3    O110271   4.637   3.409  10.805  0.0286 -0.6203  0.3180
  694TMC3    O210272   4.450   2.973  10.448  0.0460 -0.1087 -0.0806
  695MPD2     C10273   0.894   4.705  13.642 -0.6038 -0.5285 -0.1644
  695MPD2    C110274   0.932   0.085  13.726 -0.5961  0.3750 -0.2738
  695MPD2    C210275   0.843   0.173  13.772 -0.0319 -0.4111  0.2680
  695MPD2    C310276   0.710   0.160  13.747  0.4701 -0.2914  0.1377
  695MPD2    C410277   0.669   0.056  13.661  0.2866 -0.3473  0.1008
  695MPD2    C510278   0.761   4.703  13.603 -0.1691  0.1145  0.1295
  695MPD2     H10279   0.876   0.258  13.833 -0.5535  1.0611 -1.5178
  695MPD2    H110280   0.565   0.037  13.640  0.2992 -2.3209  1.7851
  695MPD2    H210281   0.956   4.623  13.608  2.3025  1.9594 -0.9244
  695MPD2    H310282   0.723   4.623  13.540 -0.7906  0.1579  0.4514
  695MPD2     N10283   0.619   0.260  13.788 -0.2748  0.9516 -0.1061
  695MPD2    H510284   0.646   0.339  13.846  1.5593 -1.0280  1.7217
  695MPD2    N110285   1.066   0.100  13.772  0.1958  0.9768  0.6885
  695MPD2    H710286   1.083   0.184  13.826  0.6460 -0.2859  2.5339
  696TMC3    C110287   0.411   0.364  13.835 -0.3044 -0.0658  0.4054
  696TMC3    C210288   0.448   0.387  13.964 -0.5161 -0.0402 -0.4765
  696TMC3    C310289   0.375   0.479  14.036 -0.3014 -0.1455  0.7352
  696TMC3    C410290   0.324   0.447  13.766 -0.0711  0.6279 -0.3192
  696TMC3    C510291   0.258   0.546  13.837 -0.2179 -0.0143 -0.4234
  696TMC3    C610292   0.281   0.562  13.975  0.1225 -0.0020  0.0118
  696TMC3     C10293   0.482   0.261  13.755  0.6136 -0.4118 -0.1170
  696TMC3     O10294   0.412   0.201  13.674 -0.3394 -0.5667 -0.2429
  696TMC3     H10295   0.524   0.334  14.021  1.6962  2.0407 -1.4666
  696TMC3    H110296   0.295   0.438  13.662 -0.0863  0.5450 -0.3078
  696TMC3    H210297   0.248   0.648  14.032  2.2634 -1.0514  2.8851
  696TMC3    C710298   0.233   0.666  13.768  0.3369 -0.1223 -0.3651
  696TMC3    C810299   0.449   0.534  14.148  0.6514 -0.0526  0.0773
  696TMC3    O110300   0.200   0.666  13.650 -0.2248  0.5035 -0.0830
  696TMC3    O210301   0.573   0.533  14.136 -0.4282 -0.3665  0.1782
  697MPD2     C10302   0.557   2.438  15.552 -0.4829 -0.4550 -0.3123
  697MPD2    C110303   0.572   2.369  15.435 -0.3738 -0.0292  1.0421
  697MPD2    C210304   0.557   2.439  15.321  0.2334  0.1406 -0.3220
  697MPD2    C310305   0.539   2.577  15.327  0.4755 -0.2275 -0.0041
  697MPD2    C410306   0.523   2.649  15.444  0.6065 -0.2440 -0.1780
  697MPD2    C510307   0.535   2.574  15.563  0.2103 -0.5849 -0.3392
  697MPD2     H10308   0.573   2.392  15.224 -0.9564  2.8068 -1.8168
  697MPD2    H110309   0.494   2.754  15.448  2.1423  0.2470 -2.0392
  697MPD2    H210310   0.552   2.378  15.642  0.8153  0.3036  0.2653
  697MPD2    H310311   0.519   2.612  15.663 -0.3105  1.3021 -1.1316
  697MPD2     N10312   0.526   2.644  15.202  0.2704 -0.4271 -0.0094
  697MPD2    H510313   0.528   2.584  15.120  2.5331 -0.7350  0.2646
  697MPD2    N110314   0.591   2.228  15.419  0.3506 -0.8481  0.5270
  697MPD2    H710315   0.590   2.178  15.331 -0.0723  1.0061 -0.5261
  698TMC3    C110316   0.525   2.810  15.042  0.6335 -0.2376  1.3823
  698TMC3    C210317   0.601   2.917  15.006  0.3368  0.2650  0.0619
  698TMC3    C310318   0.576   2.972  14.887  0.0705 -0.2875 -0.7123
  698TMC3    C410319   0.427   2.758  14.965  0.8025 -0.1203  0.3404
  698TMC3    C510320   0.406   2.819  14.844 -0.0374  0.4322  0.2766
  698TMC3    C610321   0.482   2.925  14.805 -0.2345  0.0127 -0.3418
  698TMC3     C10322   0.527   2.783  15.182  0.1245 -0.9855  0.4023
  698TMC3     O10323   0.540   2.877  15.262 -0.0257 -0.2146 -0.6559
  698TMC3     H10324   0.672   2.959  15.076  1.5135 -0.2035 -0.8519
  698TMC3    H110325   0.363   2.675  14.992  0.1120  0.9148  1.8986
  698TMC3    H210326   0.456   2.969  14.710  0.3671 -0.2534 -0.6267
  698TMC3    C710327   0.335   2.752  14.736  0.0861  0.7573  0.9755
  698TMC3    C810328   0.671   3.064  14.822  0.1519  0.4153 -0.6887
  698TMC3    O110329   0.379   2.761  14.622 -0.6328  0.0613 -0.3428
  698TMC3    O210330   0.640   3.093  14.710 -0.3965  0.0064 -0.2334
  699TMC3    C110331   0.948   0.024  13.116  0.0397  0.1135 -0.0828
  699TMC3    C210332   0.979   4.615  13.086 -0.3459  0.5497 -0.3996
  699TMC3    C310333   0.892   4.515  13.102 -0.2102  0.1335  0.1640
  699TMC3    C410334   0.833   0.058  13.174 -0.4878  0.1536 -0.3534
  699TMC3    C510335   0.743   4.681  13.183  0.4482  0.2274  0.5733
  699TMC3    C610336   0.766   4.548  13.150 -0.0199 -0.1258  0.7474
  699TMC3     C10337   1.038   0.126  13.057 -0.3865 -0.0729  0.9409
  699TMC3     O10338   1.114   0.095  12.968 -0.7137 -0.2210 -0.1813
  699TMC3     H10339   1.069   4.579  13.038 -0.6807  0.3754 -0.8956
  699TMC3    H110340   0.812   0.159  13.209  0.2337 -0.1755  0.9935
  699TMC3    H210341   0.689   4.472  13.159 -1.1807  1.2013  1.9180
  699TMC3    C710342   0.626   4.706  13.272 -0.4380  0.8011  0.3013
  699TMC3    C810343   0.944   4.410  13.195  0.0700 -0.3441  0.5082
  699TMC3    O110344   0.614   0.098  13.315 -0.1813  0.1877 -0.0189
  699TMC3    O210345   0.857   4.342  13.241 -0.4663  0.2514  0.1546
  700TMC3    C110346   4.120   2.761  17.022 -0.0047 -0.0456 -0.8194
  700TMC3    C210347   4.153   2.627  17.024  0.3883 -0.0029  0.2348
  700TMC3    C310348   4.263   2.586  17.093 -0.0282 -0.5765  0.0487
  700TMC3    C410349   4.181   2.851  17.100  0.2125 -0.3035 -0.0899
  700TMC3    C510350   4.277   2.799  17.179 -0.0067 -0.0608  0.3419
  700TMC3    C610351   4.331   2.674  17.173  0.2272  0.2925 -0.0634
  700TMC3     C10352   4.048   2.799  16.903 -0.2081  0.4048 -0.0035
  700TMC3     O10353   3.967   2.723  16.852 -0.5360  0.0325  0.0001
  700TMC3     H10354   4.096   2.562  16.958  0.1812 -0.6075  1.0096
  700TMC3    H110355   4.177   2.958  17.084  1.4172  0.0468  2.0162
  700TMC3    H210356   4.415   2.642  17.233 -1.7830 -0.6816  2.2230
  700TMC3    C710357   4.350   2.899  17.261  0.2864 -0.1727  0.4100
  700TMC3    C810358   4.324   2.468  17.043 -0.4558  0.4170 -0.0041
  700TMC3    O110359   4.475   2.894  17.264 -0.6669 -0.1532  0.0968
  700TMC3    O210360   4.444   2.471  17.062 -1.0459 -0.3431  0.1324
  701TMC3    C110361   4.540   1.516  15.479  0.0901 -0.0467  0.8205
  701TMC3    C210362   4.516   1.467  15.356  0.9381  0.3858 -0.1634
  701TMC3    C310363   4.602   1.504  15.257  0.0129 -0.3874  0.2145
  701TMC3    C410364   4.634   1.610  15.497  0.0774 -0.0426  0.4045
  701TMC3    C510365   4.722   1.644  15.391  0.1824 -0.0507  0.0569
  701TMC3    C610366   4.712   1.588  15.268 -0.6911  0.5044 -0.3934
  701TMC3     C10367   4.451   1.499  15.590 -0.1452  0.7445 -0.3069
  701TMC3     O10368   4.463   1.580  15.677  0.1787 -0.3466  0.0317
  701TMC3     H10369   4.421   1.429  15.319  0.0292 -0.0398  2.5461
  701TMC3    H110370   4.657   1.637  15.600 -3.8217 -0.4989  1.3693
  701TMC3    H210371   0.058   1.614  15.189 -0.9622  3.2079  0.2673
  701TMC3    C710372   0.063   1.778  15.394 -0.6836  0.0713 -0.6540
  701TMC3    C810373   4.597   1.441  15.122 -0.4080 -0.2528 -0.3844
  701TMC3    O110374   0.103   1.818  15.288 -0.3968 -0.4562 -0.2945
  701TMC3    O210375   4.671   1.480  15.032 -0.3744 -0.0270 -0.7493
  702MPD2     C10376   4.659   4.303  10.730  0.1833 -0.0010 -0.1390
  702MPD2    C110377   4.600   4.196  10.667 -0.1757 -0.8795  0.5346
  702MPD2    C210378   4.663   4.147  10.557 -0.2867 -0.9035  0.5502
  702MPD2    C310379   0.049   4.205  10.507  0.3105 -0.4840 -0.8723
  702MPD2    C410380   0.107   4.324  10.565  0.4800  0.3522  0.3228
  702MPD2    C510381   0.041   4.366  10.675 -0.1513 -0.3363 -0.2443
  702MPD2     H10382   4.627   4.061  10.501 -1.2251  0.3720 -0.7994
  702MPD2    H110383   0.181   4.381  10.511 -0.3213  1.4047  0.3327
  702MPD2    H210384   4.613   4.350  10.816 -1.1978 -0.8743 -0.4073
  702MPD2    H310385   0.073   4.459  10.718  0.9408  0.2150 -2.2285
  702MPD2     N10386   0.106   4.167  10.380  0.1153  0.2099  0.6002
  702MPD2    H510387   0.188   4.214  10.343 -0.1629 -0.7019 -1.2095
  702MPD2    N110388   4.466   4.154  10.708  0.3129 -0.2524 -0.1329
  702MPD2    H710389   4.426   4.199  10.790 -0.7862 -1.1596 -0.1724
  703TMC3    C110390   0.098   4.068  10.163  0.0926  0.1885 -0.6052
  703TMC3    C210391   4.716   3.993  10.120  0.0393 -0.6651  0.3402
  703TMC3    C310392   4.608   4.058  10.058 -0.2261 -0.1353  0.5259
  703TMC3    C410393   0.098   4.200  10.112 -0.3392  0.2756 -0.5619
  703TMC3    C510394   4.716   4.256  10.058 -0.1909 -0.3641 -0.2144
  703TMC3    C610395   4.595   4.191  10.045  0.1781 -0.1398  0.9852
  703TMC3     C10396   0.081   4.050  10.305 -0.1373  0.2320  0.2142
  703TMC3     O10397   0.020   3.951  10.347 -0.5218 -0.0247  0.0763
  703TMC3     H10398   4.703   3.887  10.137 -3.1013 -0.1784  0.9155
  703TMC3    H110399   0.173   4.275  10.133 -0.1386 -0.1623  0.3254
  703TMC3    H210400   4.508   4.238  10.001  1.3311  0.2899 -0.8619
  703TMC3    C710401   4.717   4.399  10.042 -1.0101 -0.4104  0.3548
  703TMC3    C810402   4.481   3.987  10.062 -0.5793  0.0252  0.1042
  703TMC3    O110403   0.104   4.452  10.023  0.1839 -0.0923  0.0294
  703TMC3    O210404   4.493   3.871  10.026  0.1201 -0.2510 -0.0737
  704TMC3    C110405   1.781   1.671  12.182  0.0548  0.5783 -0.1383
  704TMC3    C210406   1.898   1.729  12.190 -0.5436 -0.2513  0.0336
  704TMC3    C310407   1.966   1.716  12.302  0.5068 -0.1600 -0.4178
  704TMC3    C410408   1.738   1.582  12.277  1.1191  0.1458  0.0309
  704TMC3    C510409   1.820   1.558  12.384 -0.6052 -0.0679 -0.3314
  704TMC3    C610410   1.936   1.631  12.399 -0.9651 -0.2154  0.1277
  704TMC3     C10411   1.681   1.698  12.081  0.2388  0.4226  0.2544
  704TMC3     O10412   1.564   1.671  12.119 -0.3275 -0.5410 -0.1250
  704TMC3     H10413   1.936   1.802  12.120  0.2318 -0.3455  0.3589
  704TMC3    H110414   1.647   1.524  12.269  0.2683  1.2442  1.8865
  704TMC3    H210415   1.995   1.608  12.487  0.0046  2.3449  0.1328
  704TMC3    C710416   1.869   1.420  12.384  0.0529 -0.2370  0.1770
  704TMC3    C810417   2.097   1.788  12.311 -0.7500  0.5214 -0.3095
  704TMC3    O110418   1.989   1.395  12.399  0.1281  0.1639 -0.3574
  704TMC3    O210419   2.173   1.757  12.219  0.4294  0.0224  0.4099
  705MPD2     C10420   1.393   0.483  16.909 -0.4027  0.0444  0.4931
  705MPD2    C110421   1.362   0.426  16.789  0.3529  0.5283  0.0539
  705MPD2    C210422   1.227   0.397  16.768 -0.8277 -0.1749 -0.3563
  705MPD2    C310423   1.133   0.410  16.863  0.4920 -0.2544 -0.2858
  705MPD2    C410424   1.169   0.456  16.990 -0.6193 -0.9114 -0.2207
  705MPD2    C510425   1.299   0.490  17.016  0.3222  0.2226 -1.1482
  705MPD2     H10426   1.200   0.376  16.665  0.5345  0.9146 -0.9301
  705MPD2    H110427   1.099   0.481  17.068  2.6316  0.3071  2.3080
  705MPD2    H210428   1.498   0.503  16.923 -0.0549 -1.5615  0.1788
  705MPD2    H310429   1.314   0.555  17.101 -2.5263 -0.7277  0.0995
  705MPD2     N10430   0.998   0.399  16.837  0.2255 -0.0711 -0.1379
  705MPD2    H510431   0.930   0.444  16.897  0.2080 -0.6078  0.2465
  705MPD2    N110432   1.453   0.411  16.679 -0.1055 -0.5626 -0.0235
  705MPD2    H710433   1.413   0.380  16.591 -1.6072 -0.6196  0.6745
  706TMC3    C110434   1.633   0.364  16.342 -0.5716 -0.4593  0.0898
  706TMC3    C210435   1.633   0.487  16.273  0.2609 -0.8826  0.4430
  706TMC3    C310436   1.622   0.605  16.345 -0.4849  0.7878 -0.2480
  706TMC3    C410437   1.623   0.362  16.476  0.2151  0.2755 -0.4372
  706TMC3    C510438   1.614   0.480  16.540  0.6139 -0.2926  0.7384
  706TMC3    C610439   1.603   0.601  16.481 -0.4696  0.3912 -0.3264
  706TMC3     C10440   1.683   0.238  16.280  0.6988 -0.1560 -0.4546
  706TMC3     O10441   1.657   0.131  16.335 -0.6999 -0.1616  0.2734
  706TMC3     H10442   1.643   0.490  16.165 -1.5151 -2.1393  0.2398
  706TMC3    H110443   1.636   0.268  16.529 -3.2697  0.1623  0.2207
  706TMC3    H210444   1.578   0.681  16.549  2.6232  2.2047 -1.2935
  706TMC3    C710445   1.579   0.469  16.677  0.1731  0.4023  0.8142
  706TMC3    C810446   1.636   0.725  16.265  0.5681  0.2706  0.2068
  706TMC3    O110447   1.628   0.557  16.743 -0.0630  0.3176  0.0725
  706TMC3    O210448   1.624   0.717  16.145 -0.2862  0.0722  0.1868
  707TMC3    C110449   0.038   4.418   1.565  1.1628  0.2256 -0.1228
  707TMC3    C210450   0.113   4.313   1.524 -0.3799 -0.4280  0.0111
  707TMC3    C310451   0.244   4.330   1.515  0.1595  0.8398  0.3263
  707TMC3    C410452   0.092   4.542   1.584 -0.2434 -0.6349  0.2930
  707TMC3    C510453   0.228   4.552   1.575  0.7288 -0.5772  0.2586
  707TMC3    C610454   0.309   4.443   1.542 -0.0853 -0.0472 -0.1404
  707TMC3     C10455   4.616   4.428   1.545  0.3324  0.5418  0.3383
  707TMC3     O10456   4.556   4.513   1.609  0.0275 -0.1194  0.1643
  707TMC3     H10457   0.067   4.215   1.538  0.3744 -0.4820  2.0074
  707TMC3    H110458   0.026   4.624   1.610 -0.7596 -0.5115 -1.3874
  707TMC3    H210459   0.417   4.455   1.538 -0.1680  0.9772  0.5114
  707TMC3    C710460   0.282   4.669   1.644 -0.3531 -0.4920  0.3517
  707TMC3    C810461   0.329   4.214   1.499  0.0325 -0.0286 -0.4392
  707TMC3    O110462   0.192   0.016   1.687  0.4410  0.1516 -0.3097
  707TMC3    O210463   0.450   4.226   1.516  0.4731  0.0980  0.4436
  708MPD2     C10464   4.718   3.799  13.505 -0.0281  0.1673 -0.5515
  708MPD2    C110465   4.614   3.765  13.578 -0.8099 -0.2768  0.0957
  708MPD2    C210466   4.631   3.721  13.711  0.5995  0.0762  0.1246
  708MPD2    C310467   0.033   3.707  13.760 -0.0653  0.1138  0.7463
  708MPD2    C410468   0.145   3.749  13.691  0.2129  0.1951  0.0663
  708MPD2    C510469   0.121   3.794  13.563  0.1594 -0.5964 -0.9462
  708MPD2     H10470   4.550   3.701  13.780  1.5548 -1.1054  0.9108
  708MPD2    H110471   0.242   3.746  13.738  0.0510  1.4797  0.4962
  708MPD2    H210472   4.710   3.865  13.419  0.9474  1.0888  0.0686
  708MPD2    H310473   0.205   3.842  13.515 -0.6488  1.7342 -0.0394
  708MPD2     N10474   0.049   3.655  13.889  0.2242  0.3857  0.0806
  708MPD2    H510475   0.144   3.655  13.925  1.0050  0.8628 -1.9829
  708MPD2    N110476   4.480   3.793  13.533 -0.0073  0.3237 -0.6333
  708MPD2    H710477   4.473   3.826  13.437 -1.1868  0.4163 -0.5137
  709TMC3    C110478   4.245   3.805  13.535 -0.1448 -0.3011 -0.0688
  709TMC3    C210479   4.224   3.722  13.427 -0.0895 -0.2656 -0.3466
  709TMC3    C310480   4.109   3.652  13.418  0.5330  0.6250  0.0336
  709TMC3    C410481   4.151   3.829  13.629 -0.0385 -0.8744  0.1302
  709TMC3    C510482   4.032   3.767  13.609 -0.6322 -0.1468  0.9484
  709TMC3    C610483   4.008   3.679  13.505 -0.3368  0.2547  0.3013
  709TMC3     C10484   4.368   3.791  13.605  0.7862 -0.7020 -0.0503
  709TMC3     O10485   4.342   3.766  13.724  0.6228 -0.3627 -0.6570
  709TMC3     H10486   4.303   3.713  13.353 -0.9438  0.0381 -1.2948
  709TMC3    H110487   4.170   3.894  13.713  2.9214  0.1206 -1.3045
  709TMC3    H210488   3.918   3.619  13.510 -0.4204  0.2848 -0.7453
  709TMC3    C710489   3.982   3.713  13.730  0.7302 -0.2882 -0.2261
  709TMC3    C810490   4.073   3.560  13.309  0.1813  0.0564  0.3518
  709TMC3    O110491   3.863   3.696  13.751  0.4541 -0.5716  0.6433
  709TMC3    O210492   3.962   3.509  13.322 -0.2047  0.6229  0.1042
  710TMC3    C110493   0.206   0.666   0.310  0.9239  0.6076  0.0761
  710TMC3    C210494   0.236   0.550   0.245  0.1474 -0.1680 -0.2760
  710TMC3    C310495   0.366   0.539   0.201  0.6627  0.0622 -0.2686
  710TMC3    C410496   0.303   0.761   0.339  0.2082  0.2792 -1.0009
  710TMC3    C510497   0.427   0.739   0.288  0.2776 -0.2351  0.2365
  710TMC3    C610498   0.464   0.624   0.228  0.3189  0.7735 -0.0697
  710TMC3     C10499   0.072   0.680   0.351 -0.4168 -0.4609 -0.5798
  710TMC3     O10500   0.000   0.592   0.301 -0.0574 -0.0490  0.2070
  710TMC3     H10501   0.167   0.467   0.243 -0.0525 -0.0209  0.4126
  710TMC3    H110502   0.279   0.852   0.393 -0.3295 -0.7993  0.5715
  710TMC3    H210503   0.565   0.594   0.203  0.5129  0.3359  1.2764
  710TMC3    C710504   0.529   0.835   0.332  0.0774  0.6123 -0.1637
  710TMC3    C810505   0.403   0.422   0.121  0.4566 -0.1509 -0.3246
  710TMC3    O110506   0.495   0.922   0.414 -0.1091  0.0453 -0.2521
  710TMC3    O210507   0.522   0.404   0.109  0.3162  0.6644  0.0790
  711TMC3    C110508   0.536   1.373  14.919  0.0815 -0.4654  0.5956
  711TMC3    C210509   0.570   1.445  15.029 -0.0566  0.3282 -0.3834
  711TMC3    C310510   0.694   1.442  15.088 -0.4843 -0.0498 -0.0445
  711TMC3    C410511   0.622   1.291  14.865 -0.2129  0.4101  0.3634
  711TMC3    C510512   0.748   1.276  14.931 -0.3752 -0.5912 -0.4329
  711TMC3    C610513   0.794   1.354  15.038  0.3108 -0.0769 -0.4806
  711TMC3     C10514   0.405   1.323  14.912  0.4174 -0.0296  0.2162
  711TMC3     O10515   0.372   1.257  14.817  0.3316  0.0274  0.2856
  711TMC3     H10516   0.509   1.531  15.052 -0.4134  0.4046 -1.6126
  711TMC3    H110517   0.594   1.234  14.778 -0.1485 -0.8245  1.1529
  711TMC3    H210518   0.892   1.341  15.082  0.3491 -0.2710 -0.6246
  711TMC3    C710519   0.800   1.141  14.935  0.7850  0.2247  0.2532
  711TMC3    C810520   0.696   1.458  15.237 -0.3555 -0.0593  0.5578
  711TMC3    O110521   0.860   1.098  15.031  0.0223  0.6095  0.0401
  711TMC3    O210522   0.585   1.486  15.280  0.0568 -0.0182 -0.0213
  712MPD2     C10523   2.094   2.172  13.301 -0.0607  0.7832  0.4514
  712MPD2    C110524   1.984   2.230  13.241 -0.3352 -0.1388  0.2240
  712MPD2    C210525   2.001   2.353  13.177  0.4685 -0.7420  0.1441
  712MPD2    C310526   2.124   2.416  13.167 -0.3707 -0.3781 -0.0616
  712MPD2    C410527   2.232   2.354  13.227  0.2019 -0.4060 -0.5900
  712MPD2    C510528   2.214   2.239  13.299  0.2375  0.4085 -0.2092
  712MPD2     H10529   1.918   2.403  13.128  0.1760 -0.2113  1.1657
  712MPD2    H110530   2.334   2.385  13.206  0.7351 -1.7351  0.0567
  712MPD2    H210531   2.081   2.085  13.364  2.6601  0.2728  0.2963
  712MPD2    H310532   2.296   2.197  13.355 -1.4411 -0.6415  1.4328
  712MPD2     N10533   2.147   2.533  13.091 -0.4406 -0.3942  0.0347
  712MPD2    H510534   2.231   2.588  13.108 -0.1171 -1.1566  0.8968
  712MPD2    N110535   1.860   2.167  13.230  0.1020 -0.5713  0.0132
  712MPD2    H710536   1.797   2.213  13.164  2.8937  1.9001 -0.9220
  713TMC3    C110537   2.088   2.712  12.947  0.5563 -0.2260 -0.2766
  713TMC3    C210538   2.221   2.746  12.952  0.2079 -0.2752 -0.2928
  713TMC3    C310539   2.261   2.849  12.880  0.7327  0.1139 -0.3888
  713TMC3    C410540   1.986   2.782  12.882 -0.7280  0.2986  0.6203
  713TMC3    C510541   2.030   2.888  12.815  0.1407  0.0271 -0.1929
  713TMC3    C610542   2.169   2.916  12.803 -0.2042 -0.0338 -0.4229
  713TMC3     C10543   2.058   2.586  12.995 -0.2133  0.0847  0.5989
  713TMC3     O10544   1.949   2.548  12.955 -0.0198 -0.2256  0.1959
  713TMC3     H10545   2.297   2.676  12.986  1.3502  0.9253 -0.3792
  713TMC3    H110546   1.884   2.747  12.879  0.1208 -1.7705 -3.4536
  713TMC3    H210547   2.197   2.996  12.735 -0.1579  0.7784  0.5513
  713TMC3    C710548   1.937   2.957  12.722  0.0729  0.2986  0.3915
  713TMC3    C810549   2.396   2.897  12.885 -0.0089 -0.4959  0.5863
  713TMC3    O110550   1.976   3.035  12.637 -1.3788 -0.3215  0.0551
  713TMC3    O210551   2.442   2.948  12.788 -0.1474  0.4822  0.2664
  714MPD2     C10552   4.084   0.819   1.169  0.6049 -0.6300 -0.1683
  714MPD2    C110553   4.119   0.821   1.037 -0.3319  0.2193 -0.1135
  714MPD2    C210554   4.048   0.901   0.949 -0.2809 -0.5618 -0.2961
  714MPD2    C310555   3.932   0.969   0.994 -0.4380 -0.0182  0.1909
  714MPD2    C410556   3.895   0.952   1.124  0.0430 -0.9373 -0.2627
  714MPD2    C510557   3.978   0.891   1.211  0.6030 -0.1793  0.0264
  714MPD2     H10558   4.078   0.904   0.846 -1.6657  1.0048 -0.6584
  714MPD2    H110559   3.813   1.008   1.169  0.3855 -0.1951 -0.5623
  714MPD2    H210560   4.142   0.754   1.234 -0.0427 -0.8418  0.1995
  714MPD2    H310561   3.960   0.892   1.318  0.0802  0.7000 -0.0668
  714MPD2     N10562   3.861   1.055   0.901  0.0749  0.0250 -0.8468
  714MPD2    H510563   3.872   1.037   0.802  0.1557  2.6698 -1.3150
  714MPD2    N110564   4.244   0.760   1.007  0.3588 -0.3444 -0.3114
  714MPD2    H710565   4.301   0.738   1.088 -0.9452 -0.7165  0.4978
  715TMC3    C110566   4.436   0.732   0.885 -0.6033  0.8040  0.2655
  715TMC3    C210567   4.497   0.652   0.789  0.1628  0.0434 -0.0532
  715TMC3    C310568   4.631   0.674   0.773 -0.1582 -0.0938 -0.2622
  715TMC3    C410569   4.504   0.807   0.979 -0.0819  1.1599 -0.0303
  715TMC3    C510570   4.639   0.808   0.963  0.4554 -0.5488  0.6562
  715TMC3    C610571   4.703   0.761   0.855 -0.8082  0.6115  0.1659
  715TMC3     C10572   4.296   0.747   0.878 -0.1386  0.0010  0.0237
  715TMC3     O10573   4.241   0.716   0.775 -0.3321 -0.1100 -0.1302
  715TMC3     H10574   4.439   0.572   0.745 -0.4273  0.4307  0.0121
  715TMC3    H110575   4.461   0.883   1.043 -1.6316 -1.0106  1.5327
  715TMC3    H210576   0.088   0.775   0.850 -0.8877  0.9821 -0.5301
  715TMC3    C710577   4.718   0.870   1.072  0.2640 -0.7021  0.4411
  715TMC3    C810578   4.702   0.577   0.688  0.2526  0.1625 -0.1114
  715TMC3    O110579   0.108   0.904   1.045 -0.3796  0.0340 -0.9200
  715TMC3    O210580   4.649   0.472   0.651 -0.3133  0.2645  0.5905
  716MPD2     C10581   4.157   4.286   9.847  0.7448 -0.0175 -0.1384
  716MPD2    C110582   4.120   4.263   9.711 -0.3952 -0.0654  0.0885
  716MPD2    C210583   4.118   4.135   9.657 -0.5735 -0.2498 -0.7368
  716MPD2    C310584   4.154   4.031   9.740 -0.7814  0.6620  1.1523
  716MPD2    C410585   4.188   4.052   9.873  0.3839  0.2759  0.2028
  716MPD2    C510586   4.194   4.175   9.926  0.2194 -0.6514  0.0559
  716MPD2     H10587   4.088   4.122   9.554 -0.5985  1.0132 -0.8902
  716MPD2    H110588   4.218   3.971   9.938  0.0864  0.5707  0.7058
  716MPD2    H210589   4.167   4.385   9.891  0.5456 -0.4833  0.9503
  716MPD2    H310590   4.209   4.197  10.031 -0.6508  0.1783  0.0135
  716MPD2     N10591   4.114   3.899   9.695  0.0471 -0.2166  1.2323
  716MPD2    H510592   4.055   3.890   9.612  2.6581  1.3794 -0.7814
  716MPD2    N110593   4.082   4.379   9.639  0.1661  0.2248  0.3054
  716MPD2    H710594   4.072   4.467   9.688  1.0842  0.9135 -0.7628
  717TMC3    C110595   4.089   3.672   9.697 -0.6092 -0.3208 -0.1781
  717TMC3    C210596   4.067   3.670   9.560 -0.4208 -0.2406  0.3497
  717TMC3    C310597   4.060   3.542   9.504  0.1185 -0.2089 -0.2043
  717TMC3    C410598   4.102   3.555   9.773 -0.2862  0.0533 -0.0739
  717TMC3    C510599   4.104   3.437   9.703  0.1901  0.0954 -0.1996
  717TMC3    C610600   4.081   3.429   9.572  0.0356 -0.7393 -0.0400
  717TMC3     C10601   4.146   3.785   9.758 -0.0700  1.0104 -0.6152
  717TMC3     O10602   4.227   3.766   9.847 -0.0091 -0.1906 -0.4998
  717TMC3     H10603   4.070   3.755   9.493  1.3884  0.2098  0.9987
  717TMC3    H110604   4.146   3.558   9.872  1.0256 -0.7906 -0.6268
  717TMC3    H210605   4.057   3.332   9.530  0.2834 -0.6757 -0.3296
  717TMC3    C710606   4.083   3.308   9.768 -0.7714  0.6311 -0.8462
  717TMC3    C810607   3.987   3.524   9.382  0.0242  0.5948 -0.4346
  717TMC3    O110608   4.146   3.214   9.726 -0.0143  0.0783 -0.7147
  717TMC3    O210609   3.892   3.596   9.356 -0.7443 -0.4540  0.1844
  718MPD2     C10610   3.526   2.538  12.264  0.2070  0.4622  0.2604
  718MPD2    C110611   3.445   2.643  12.232  0.2531  0.5225 -0.2359
  718MPD2    C210612   3.344   2.679  12.316  0.0328  0.4855 -0.2485
  718MPD2    C310613   3.330   2.620  12.437 -0.3702  0.0281 -0.2954
  718MPD2    C410614   3.413   2.521  12.476  1.3310  0.3432 -0.1340
  718MPD2    C510615   3.507   2.480  12.386 -0.7306 -0.1972 -1.3180
  718MPD2     H10616   3.279   2.756  12.276 -0.3524  1.0795  1.5021
  718MPD2    H110617   3.408   2.470  12.571  0.5198 -1.1650 -0.9897
  718MPD2    H210618   3.602   2.497  12.198  0.2700  0.3949  0.3745
  718MPD2    H310619   3.557   2.389  12.417 -1.2615  0.3892  1.2469
  718MPD2     N10620   3.223   2.674  12.517 -0.4488  0.9247 -0.0335
  718MPD2    H510621   3.161   2.738  12.470 -0.4960  0.6882 -0.3011
  718MPD2    N110622   3.465   2.721  12.117 -0.3750 -0.4279 -0.3028
  718MPD2    H710623   3.410   2.806  12.112  1.6475  0.8825 -0.0425
  719TMC3    C110624   3.540   2.808  11.921 -0.3490 -0.5955  0.5657
  719TMC3    C210625   3.408   2.857  11.925  0.2850  0.2591 -0.0841
  719TMC3    C310626   3.385   2.989  11.934 -0.0693  1.3263  0.1670
  719TMC3    C410627   3.645   2.898  11.902 -0.4587  0.3073  0.3904
  719TMC3    C510628   3.614   3.032  11.893 -0.6447 -0.5655  0.4579
  719TMC3    C610629   3.486   3.078  11.917  0.3055  0.5228  1.1292
  719TMC3     C10630   3.558   2.703  12.019 -0.1744  0.0748  0.1345
  719TMC3     O10631   3.665   2.646  12.015  0.2116 -0.5429  0.3857
  719TMC3     H10632   3.332   2.781  11.919  1.1899 -0.6577  0.0078
  719TMC3    H110633   3.744   2.861  11.879 -0.3093 -1.4869  3.9214
  719TMC3    H210634   3.457   3.183  11.921  0.0958  0.4067  2.4698
  719TMC3    C710635   3.720   3.119  11.854 -0.7617  0.0523  0.8881
  719TMC3    C810636   3.281   3.008  12.036  0.0017  0.1132  0.2765
  719TMC3    O110637   3.811   3.064  11.784  0.5415  0.6967  0.0824
  719TMC3    O210638   3.251   2.901  12.092  0.2393 -0.4464 -0.0814
  720MPD2     C10639   1.974   3.792  13.851  0.1338  0.9686 -0.5963
  720MPD2    C110640   2.080   3.853  13.788  0.2463 -0.5427 -0.0272
  720MPD2    C210641   2.193   3.871  13.862 -0.8898  1.0904  0.8074
  720MPD2    C310642   2.196   3.827  13.992  0.7861  0.5224  0.6870
  720MPD2    C410643   2.080   3.778  14.056  0.3379  0.2968 -0.5249
  720MPD2    C510644   1.978   3.751  13.984  0.1029 -0.0717  0.2597
  720MPD2     H10645   2.279   3.920  13.816 -1.5434  1.7022  0.2265
  720MPD2    H110646   2.078   3.756  14.162  3.6310  1.2777 -0.2535
  720MPD2    H210647   1.883   3.775  13.795 -0.2103 -1.2406  0.5948
  720MPD2    H310648   1.896   3.707  14.039  0.0062  1.0476  1.0108
  720MPD2     N10649   2.324   3.815  14.058  0.3008 -0.5083  0.7245
  720MPD2    H510650   2.398   3.865  14.010 -0.0094  0.2693  1.0458
  720MPD2    N110651   2.053   3.887  13.654  0.7328 -0.4506 -0.0955
  720MPD2    H710652   1.961   3.889  13.610  0.1470  1.0076  1.1866
  721TMC3    C110653   2.491   3.780  14.227  0.4920 -0.8376  0.5853
  721TMC3    C210654   2.504   3.797  14.366  0.4109  0.4617  0.5688
  721TMC3    C310655   2.632   3.816  14.410  0.6051 -0.0429  1.0192
  721TMC3    C410656   2.588   3.788  14.137  0.3555  0.1313  0.6724
  721TMC3    C510657   2.714   3.796  14.192 -0.4861 -0.0557 -0.2153
  721TMC3    C610658   2.733   3.812  14.324 -0.6528 -0.3520  0.2521
  721TMC3     C10659   2.355   3.765  14.184 -0.1840  0.1425 -0.3239
  721TMC3     O10660   2.287   3.696  14.256 -0.0565  0.2679 -0.6056
  721TMC3     H10661   2.422   3.776  14.433 -1.5745  2.4939 -1.2091
  721TMC3    H110662   2.572   3.774  14.030 -1.1358 -0.5107  0.9953
  721TMC3    H210663   2.833   3.814  14.367 -1.6668 -0.3178  2.5986
  721TMC3    C710664   2.820   3.776  14.100 -0.1203  0.3981 -0.0238
  721TMC3    C810665   2.652   3.812  14.553 -0.1013  0.0589 -0.2513
  721TMC3    O110666   2.812   3.802  13.981  0.6068 -0.0737 -0.0097
  721TMC3    O210667   2.756   3.762  14.597 -0.0186  0.4893  0.4764
  722MPD2     C10668   0.637   2.721  12.982 -0.0431 -0.0385  0.4083
  722MPD2    C110669   0.634   2.837  12.911  0.2906  0.0596 -0.0624
  722MPD2    C210670   0.516   2.867  12.836 -0.0417 -0.4521 -0.2431
  722MPD2    C310671   0.417   2.778  12.827 -0.4153  0.7191  0.7944
  722MPD2    C410672   0.411   2.660  12.904  0.4485 -0.3870  0.2896
  722MPD2    C510673   0.524   2.639  12.981  0.5922 -0.3051  0.4015
  722MPD2     H10674   0.517   2.957  12.776  0.0595 -0.2701  0.0285
  722MPD2    H110675   0.329   2.589  12.895  0.7808 -0.7181 -0.1004
  722MPD2    H210676   0.726   2.702  13.042 -1.9995 -1.1880  2.9491
  722MPD2    H310677   0.529   2.550  13.043 -0.7841  0.4265  1.5702
  722MPD2     N10678   0.314   2.803  12.733  0.1603 -0.3439 -0.3847
  722MPD2    H510679   0.323   2.882  12.671  0.0825  1.5869  2.0825
  722MPD2    N110680   0.737   2.940  12.904 -0.0049 -0.2722 -0.3859
  722MPD2    H710681   0.720   3.027  12.854 -1.1966  0.9535  2.1743
  723TMC3    C110682   0.100   2.799  12.627 -0.1761  0.2511  0.6710
  723TMC3    C210683   0.013   2.711  12.562 -0.0901 -0.2722 -0.1648
  723TMC3    C310684   4.607   2.748  12.532 -0.1328  0.2930  0.5509
  723TMC3    C410685   0.057   2.930  12.642  0.4860  0.4619 -0.4102
  723TMC3    C510686   4.653   2.965  12.599  0.2852 -0.3589  0.0124
  723TMC3    C610687   4.564   2.880  12.542  0.1348 -0.6836  0.5183
  723TMC3     C10688   0.192   2.737  12.716 -0.1077  0.2783 -0.1542
  723TMC3     O10689   0.153   2.633  12.764 -0.0171  0.2530  0.3853
  723TMC3     H10690   0.041   2.608  12.548 -0.1730 -0.3237  0.0581
  723TMC3    H110691   0.131   2.998  12.682 -0.2045  0.0530  1.5421
  723TMC3    H210692   4.477   2.918  12.490  1.8802 -0.0633 -1.9699
  723TMC3    C710693   4.633   3.099  12.555 -0.5061  0.3547  0.6606
  723TMC3    C810694   4.536   2.675  12.434  0.2876 -0.5170 -1.1103
  723TMC3    O110695   4.554   3.126  12.468 -0.4397  0.2096 -0.7166
  723TMC3    O210696   4.442   2.727  12.379  0.2259  0.1690 -0.2244
  724TMC3    C110697   0.849   1.105   9.472  0.0992 -0.0699  0.2467
  724TMC3    C210698   0.737   1.183   9.427  0.4897  0.1776  0.6050
  724TMC3    C310699   0.726   1.310   9.470 -0.0969  0.3690 -0.3736
  724TMC3    C410700   0.935   1.152   9.565  0.1005  0.7454 -0.1007
  724TMC3    C510701   0.912   1.278   9.611  0.0634 -0.1886 -0.3515
  724TMC3    C610702   0.812   1.360   9.564 -0.3188  0.1245  0.2038
  724TMC3     C10703   0.841   0.960   9.448 -0.6031  0.7985 -0.0202
  724TMC3     O10704   0.753   0.928   9.369  0.0762  0.3183 -0.8118
  724TMC3     H10705   0.690   1.153   9.335  0.3185 -1.0315  1.0932
  724TMC3    H110706   1.024   1.097   9.594 -1.7306 -2.0519  0.2103
  724TMC3    H210707   0.800   1.460   9.605 -0.6155  0.4164 -0.5938
  724TMC3    C710708   0.980   1.325   9.731 -0.2288  0.5967 -0.2435
  724TMC3    C810709   0.629   1.397   9.407  0.4375  0.2723  0.4526
  724TMC3    O110710   1.009   1.444   9.739  0.1887  0.1325  0.2957
  724TMC3    O210711   0.534   1.338   9.360 -0.0596 -1.0286  0.2521
  725TMC3    C110712   2.525   4.413  12.507 -0.3207 -0.0907  0.2964
  725TMC3    C210713   2.443   4.457  12.412 -0.4371 -0.1235 -0.1687
  725TMC3    C310714   2.440   4.385  12.295  0.0571  0.5541 -0.1435
  725TMC3    C410715   2.614   4.310  12.493 -0.4916  0.1595  0.0352
  725TMC3    C510716   2.614   4.248  12.365  0.5870 -0.4500 -0.4196
  725TMC3    C610717   2.524   4.281  12.272 -0.6759 -0.4266 -0.5395
  725TMC3     C10718   2.527   4.484  12.629 -0.7150  0.6981  0.8616
  725TMC3     O10719   2.459   4.588  12.632  0.3183  0.4606  0.2116
  725TMC3     H10720   2.372   4.539  12.415 -0.2883 -0.0019  0.0353
  725TMC3    H110721   2.695   4.288  12.561  0.1558 -0.1081 -0.8170
  725TMC3    H210722   2.532   4.227  12.178  0.3138 -0.0842 -0.6548
  725TMC3    C710723   2.705   4.145  12.326  0.6507 -0.5370  0.6933
  725TMC3    C810724   2.345   4.431  12.186  1.1582  0.7402  0.2018
  725TMC3    O110725   2.657   4.058  12.254  0.0771  0.3488  0.2833
  725TMC3    O210726   2.236   4.476  12.211  0.0086 -0.2370  0.4290
  726MPD2     C10727   0.612   0.810  11.038  0.5665 -0.3006  0.0889
  726MPD2    C110728   0.551   0.928  11.010 -1.6933  0.0290  0.2443
  726MPD2    C210729   0.424   0.945  11.060  0.4998  0.4707  1.0045
  726MPD2    C310730   0.358   0.847  11.133 -0.3555 -0.0057  0.1483
  726MPD2    C410731   0.424   0.727  11.164 -0.1290 -0.5570  0.3354
  726MPD2    C510732   0.554   0.709  11.120 -0.0289  0.1525 -0.0889
  726MPD2     H10733   0.368   1.034  11.033  0.0713  0.0485  0.4852
  726MPD2    H110734   0.376   0.641  11.210 -3.6123  0.6162 -1.0509
  726MPD2    H210735   0.715   0.788  11.013  0.6009  1.5800 -1.4320
  726MPD2    H310736   0.613   0.623  11.150 -0.3724 -0.1066 -0.1653
  726MPD2     N10737   0.222   0.852  11.163  0.2112 -0.3317  0.3888
  726MPD2    H510738   0.181   0.777  11.219 -1.4396 -1.0372 -1.7120
  726MPD2    N110739   0.607   1.039  10.942  0.0198  0.4363  0.1367
  726MPD2    H710740   0.545   1.117  10.926 -0.1133  0.2903 -0.0649
  727TMC3    C110741   0.755   1.163  10.812  0.1250  0.3642 -0.0570
  727TMC3    C210742   0.880   1.222  10.811 -0.5964  0.4338 -0.3657
  727TMC3    C310743   0.887   1.341  10.740 -0.0502  0.4105 -0.1491
  727TMC3    C410744   0.659   1.199  10.721 -0.8482  0.4282  0.4384
  727TMC3    C510745   0.676   1.314  10.648 -0.2381  0.1745 -0.7888
  727TMC3    C610746   0.788   1.386  10.663 -0.4489 -0.3857 -0.0111
  727TMC3     C10747   0.736   1.056  10.907 -0.8259 -0.3855  0.7156
  727TMC3     O10748   0.830   0.993  10.947  0.0161 -0.0484 -0.4712
  727TMC3     H10749   0.951   1.195  10.888  0.8728 -1.5377 -2.4095
  727TMC3    H110750   0.573   1.137  10.701  0.8296 -1.3248 -1.3266
  727TMC3    H210751   0.810   1.465  10.592  3.3295  0.1206  1.7157
  727TMC3    C710752   0.562   1.350  10.558  0.6048 -0.2641 -0.9262
  727TMC3    C810753   1.017   1.395  10.715  0.3769 -0.4512  0.5426
  727TMC3    O110754   0.474   1.265  10.553 -0.2299  0.6176 -0.2698
  727TMC3    O210755   1.025   1.500  10.654 -0.7776 -0.1783  0.1621
  728TMC3    C110756   4.630   4.347  15.320  0.2534  0.5441  0.1234
  728TMC3    C210757   4.709   4.302  15.423  0.2472  0.0855 -0.4368
  728TMC3    C310758   0.107   4.370  15.453 -0.2481  0.6379 -0.2245
  728TMC3    C410759   4.654   4.465  15.256 -0.2960 -0.1528 -0.5048
  728TMC3    C510760   0.055   4.519  15.284  0.0448  0.8012 -0.2270
  728TMC3    C610761   0.144   4.480  15.380 -0.2698  0.1072  0.0786
  728TMC3     C10762   4.494   4.310  15.317 -0.5758 -0.6226  0.2852
  728TMC3     O10763   4.475   4.198  15.345 -0.3811  0.2398  0.4215
  728TMC3     H10764   4.669   4.218  15.479  1.2898  0.7174  1.2473
  728TMC3    H110765   4.604   4.502  15.168  0.5465 -1.4826 -1.5388
  728TMC3    H210766   0.228   4.541  15.410 -0.6964 -0.1739  1.8161
  728TMC3    C710767   0.075   4.650  15.230 -0.3099 -0.4797 -0.0529
  728TMC3    C810768   0.177   4.324  15.570  0.3563 -0.1413  0.3582
  728TMC3    O110769   0.018   0.020  15.285 -0.3395 -0.5612 -0.3340
  728TMC3    O210770   0.153   4.212  15.604 -0.0543  0.0732 -0.2096
  729MPD2     C10771   2.512   0.772  17.211 -0.3162  0.2016  1.1497
  729MPD2    C110772   2.431   0.866  17.156 -0.2789 -0.0532 -0.1669
  729MPD2    C210773   2.335   0.928  17.231 -0.2696 -1.0432 -0.0726
  729MPD2    C310774   2.332   0.903  17.371  0.3973  0.1944  0.2752
  729MPD2    C410775   2.412   0.800  17.423 -0.5731  0.3311 -0.1726
  729MPD2    C510776   2.501   0.739  17.344  0.3645  0.3228  0.1400
  729MPD2     H10777   2.270   0.991  17.172  1.8073  1.1755  0.0291
  729MPD2    H110778   2.408   0.762  17.525 -0.8668 -0.1354 -0.3576
  729MPD2    H210779   2.594   0.723  17.159  0.3791  0.4550  2.0214
  729MPD2    H310780   2.573   0.665  17.377  0.7199 -0.8272 -3.1833
  729MPD2     N10781   2.250   0.975  17.462 -0.0562 -0.2594 -0.4417
  729MPD2    H510782   2.258   0.962  17.562 -1.3177  2.0523 -0.0373
  729MPD2    N110783   2.459   0.887  17.017 -0.0386  0.1729  0.3676
  729MPD2    H710784   2.528   0.826  16.973  1.5459  1.2916  1.3445
  730TMC3    C110785   2.119   1.170  17.489  0.4005 -0.4995  0.1262
  730TMC3    C210786   2.221   1.233  17.546  0.6206 -0.2022 -0.4500
  730TMC3    C310787   2.225   1.373  17.552  0.1345  0.2484 -0.3911
  730TMC3    C410788   2.009   1.238  17.443 -0.0926  0.2382  0.1422
  730TMC3    C510789   2.012   1.382  17.458  0.7739  0.0600  0.3356
  730TMC3    C610790   2.113   1.447  17.520 -0.2216  0.5564 -0.3729
  730TMC3     C10791   2.151   1.056  17.411  0.3200 -0.6440 -0.0205
  730TMC3     O10792   2.098   1.063  17.300  0.3010 -0.8884  0.0603
  730TMC3     H10793   2.306   1.174  17.577  2.8296  2.4001 -1.6357
  730TMC3    H110794   1.926   1.192  17.390  1.3213  0.3266 -2.1856
  730TMC3    H210795   2.127   1.550  17.488  0.2370  0.6661  0.1958
  730TMC3    C710796   1.915   1.458  17.390 -0.3806  0.0773  0.0984
  730TMC3    C810797   2.355   1.440  17.579 -0.1187 -0.1838  0.8725
  730TMC3    O110798   1.855   1.405  17.300 -0.2424 -0.0293 -0.0530
  730TMC3    O210799   2.445   1.374  17.625  0.8111 -0.3154  0.0001
  731MPD2     C10800   2.133   4.053  11.967 -0.4478 -0.2669 -0.1063
  731MPD2    C110801   2.023   3.986  11.918  0.2747  0.8285 -0.3330
  731MPD2    C210802   1.911   3.970  11.997  0.0307  0.2639 -0.8033
  731MPD2    C310803   1.901   4.031  12.123  0.4023  0.2072 -0.4204
  731MPD2    C410804   2.014   4.100  12.164 -0.5669 -0.6886 -0.2428
  731MPD2    C510805   2.120   4.124  12.083 -0.1115 -0.9969  0.4228
  731MPD2     H10806   1.826   3.912  11.963  0.0402  0.8288 -1.7940
  731MPD2    H110807   2.017   4.140  12.264 -0.9022 -0.6439 -0.2503
  731MPD2    H210808   2.225   4.064  11.910  0.0511 -0.3827  0.6704
  731MPD2    H310809   2.203   4.186  12.114 -0.1564  0.5769 -2.5579
  731MPD2     N10810   1.793   3.994  12.206 -0.1717 -0.3417 -0.4846
  731MPD2    H510811   1.728   3.925  12.169  1.1550 -1.1938 -1.2149
  731MPD2    N110812   2.032   3.942  11.788  0.2176 -0.0199  0.2340
  731MPD2    H710813   2.118   3.967  11.740  0.9875 -0.1983  1.5189
  732TMC3    C110814   1.977   3.847  11.584 -0.1705 -0.5806  0.2091
  732TMC3    C210815   1.877   3.831  11.500  0.4714  0.3552 -0.1216
  732TMC3    C310816   1.889   3.771  11.374 -0.3050 -0.4217  0.0455
  732TMC3    C410817   2.101   3.798  11.548  0.0989 -0.0406  0.1086
  732TMC3    C510818   2.113   3.728  11.428 -0.7545 -0.1062  0.2060
  732TMC3    C610819   2.013   3.732  11.335 -0.1686  1.0703 -0.3251
  732TMC3     C10820   1.940   3.875  11.720  0.2810  0.3578 -0.4504
  732TMC3     O10821   1.820   3.861  11.743  0.1628  0.4837  0.1418
  732TMC3     H10822   1.786   3.887  11.521  0.0469 -0.3974  0.0454
  732TMC3    H110823   2.181   3.792  11.622 -1.5523  2.3208  2.0617
  732TMC3    H210824   2.017   3.672  11.244 -1.0577 -2.0800  1.7191
  732TMC3    C710825   2.239   3.687  11.377  0.1822  0.4231 -0.4322
  732TMC3    C810826   1.774   3.695  11.325 -0.5249  0.6372  0.0481
  732TMC3    O110827   2.232   3.649  11.260  0.1007 -0.1351  0.3482
  732TMC3    O210828   1.763   3.648  11.213  0.0838  0.4509  0.4204
  733TMC3    C110829   2.836   2.717  12.712  0.2423  0.4760  0.5880
  733TMC3    C210830   2.944   2.637  12.696 -0.4660 -0.0188  0.0827
  733TMC3    C310831   3.064   2.703  12.678  0.3171 -0.7783 -0.3362
  733TMC3    C410832   2.841   2.849  12.690  0.2472 -0.3407  0.8922
  733TMC3    C510833   2.958   2.904  12.656 -0.1330  0.1277 -0.0123
  733TMC3    C610834   3.070   2.837  12.647  0.1250 -0.6811 -0.4668
  733TMC3     C10835   2.704   2.658  12.710 -0.4269  0.6464 -0.2021
  733TMC3     O10836   2.610   2.719  12.663 -0.9962 -0.2439 -0.1895
  733TMC3     H10837   2.931   2.529  12.692  0.5102 -0.0400 -2.6547
  733TMC3    H110838   2.764   2.925  12.690  0.0979 -0.5077  3.1935
  733TMC3    H210839   3.165   2.886  12.628  0.3621 -0.4430  1.3909
  733TMC3    C710840   2.966   3.032  12.604  0.3329  0.4063  0.5141
  733TMC3    C810841   3.182   2.630  12.637  0.1074 -0.3637 -0.0386
  733TMC3    O110842   2.892   3.123  12.644  0.4606  0.1267  0.6390
  733TMC3    O210843   3.202   2.527  12.701 -0.0315  0.1546  0.0927
  734MPD2     C10844   0.259   0.110  12.337  0.2993  0.4053 -0.4058
  734MPD2    C110845   0.194   0.018  12.258  0.2664 -0.1518 -0.2903
  734MPD2    C210846   0.213   0.016  12.122  0.1185  0.3853 -0.1838
  734MPD2    C310847   0.271   0.123  12.059  0.2904  0.9009 -0.4815
  734MPD2    C410848   0.313   0.232  12.138 -0.1613 -0.9600 -0.1381
  734MPD2    C510849   0.318   0.218  12.275  0.3019  0.3513  0.5937
  734MPD2     H10850   0.168   4.660  12.062  1.3940 -0.7144  0.2956
  734MPD2    H110851   0.347   0.326  12.097 -0.5901 -1.0159 -0.6158
  734MPD2    H210852   0.250   0.109  12.445  2.1126  1.7036 -0.2351
  734MPD2    H310853   0.353   0.306  12.328 -1.0568  1.0068  0.3870
  734MPD2     N10854   0.270   0.127  11.920 -0.0428  0.0918  0.6222
  734MPD2    H510855   0.229   0.057  11.858  0.7052  1.1774 -1.0919
  734MPD2    N110856   0.118   4.644  12.329 -0.2371 -0.3397 -0.3163
  734MPD2    H710857   0.127   4.632  12.430 -1.0827  0.8733 -0.0964
  735TMC3    C110858   4.673   4.471  12.333 -0.9987  1.0258  0.0876
  735TMC3    C210859   4.555   4.438  12.268 -0.7345  0.0111  0.3466
  735TMC3    C310860   4.538   4.315  12.218  0.0829  0.4437  0.5190
  735TMC3    C410861   0.036   4.374  12.366  0.5489 -0.3946  0.2596
  735TMC3    C510862   0.016   4.245  12.329 -0.2542  0.2224 -0.0839
  735TMC3    C610863   4.635   4.220  12.239 -0.3986 -0.0160 -0.1796
  735TMC3     C10864   0.006   4.593  12.274 -0.4658 -0.2584 -0.1286
  735TMC3     O10865   4.669   4.635  12.176  0.3318  0.1254  0.1662
  735TMC3     H10866   4.483   4.517  12.249 -1.7851 -1.1460 -0.4728
  735TMC3    H110867   0.118   4.389  12.436  0.3494 -0.8151  0.5896
  735TMC3    H210868   4.619   4.122  12.196  1.1741  0.5447 -2.0808
  735TMC3    C710869   0.135   4.172  12.283  0.1297 -0.6294  0.0886
  735TMC3    C810870   4.489   4.317  12.084 -0.6637  0.3797 -0.4019
  735TMC3    O110871   0.247   4.218  12.313 -0.0960 -0.3502 -0.0441
  735TMC3    O210872   4.452   4.216  12.023 -0.1497 -1.0631 -0.0833
  736MPD2     C10873   0.194   3.831  12.191 -0.1090 -0.3154  0.0036
  736MPD2    C110874   0.222   3.962  12.190  0.1368 -0.0732  0.1903
  736MPD2    C210875   0.339   4.014  12.139 -0.6563  0.1099 -0.1593
  736MPD2    C310876   0.439   3.924  12.098  0.3045 -0.0598  0.0665
  736MPD2    C410877   0.414   3.791  12.115 -0.3837  0.4658  1.1397
  736MPD2    C510878   0.291   3.744  12.160  0.5026 -0.3289 -0.1096
  736MPD2     H10879   0.347   4.121  12.125 -0.9002  0.2900  1.0562
  736MPD2    H110880   0.485   3.716  12.085 -0.7467  1.2441 -1.7103
  736MPD2    H210881   0.100   3.792  12.228  0.2864 -0.7506  0.5567
  736MPD2    H310882   0.276   3.637  12.170 -0.6000 -0.3181 -1.6365
  736MPD2     N10883   0.555   3.960  12.026 -0.5768 -0.2066 -0.2462
  736MPD2    H510884   0.609   3.880  11.997  0.0243  0.6353 -1.4694
  736MPD2    N110885   0.123   4.045  12.247  0.3293  0.0741 -0.0930
  736MPD2    H710886   0.038   3.994  12.267  0.4415  0.3080  0.9683
  737TMC3    C110887   0.720   4.110  11.922  0.7061  0.0338 -0.1401
  737TMC3    C210888   0.748   4.236  11.881 -0.0392  0.5187 -0.2081
  737TMC3    C310889   0.844   4.249  11.783 -0.6823 -0.0572 -0.6365
  737TMC3    C410890   0.761   3.995  11.855 -0.0069 -0.1123 -0.1614
  737TMC3    C510891   0.849   4.018  11.748 -0.4775 -0.2746 -0.2479
  737TMC3    C610892   0.891   4.142  11.710 -0.4022 -0.1037  0.1984
  737TMC3     C10893   0.599   4.094  12.003 -1.0655 -0.5387 -0.1762
  737TMC3     O10894   0.542   4.198  12.037  0.1151 -0.1167 -0.5639
  737TMC3     H10895   0.723   4.322  11.942 -3.6743 -0.4091 -0.3867
  737TMC3    H110896   0.744   3.896  11.896  2.5388 -0.9388 -1.1288
  737TMC3    H210897   0.960   4.163  11.630 -1.3471  1.4932 -0.1999
  737TMC3    C710898   0.919   3.899  11.701 -0.4291 -0.2663 -0.9577
  737TMC3    C810899   0.871   4.382  11.740 -0.1065  0.0604 -0.4677
  737TMC3    O110900   0.906   3.801  11.767  0.4943 -0.5974 -0.2963
  737TMC3    O210901   0.862   4.480  11.816 -0.4824 -0.2010 -0.0437
  738MPD2     C10902   0.862   3.269  14.758 -0.6753 -0.2351 -0.5232
  738MPD2    C110903   0.886   3.179  14.858 -0.9006 -0.4521 -0.4678
  738MPD2    C210904   1.005   3.179  14.932 -0.5594 -0.0502 -0.3668
  738MPD2    C310905   1.104   3.272  14.900 -0.0232  0.4188  0.4986
  738MPD2    C410906   1.074   3.362  14.798 -0.5551  0.0943 -0.1410
  738MPD2    C510907   0.956   3.363  14.726  0.1146 -0.2188  0.8383
  738MPD2     H10908   1.020   3.102  15.007 -0.0709 -0.3433 -0.7668
  738MPD2    H110909   1.158   3.422  14.763 -1.9315  2.1040 -0.0161
  738MPD2    H210910   0.771   3.266  14.698 -0.0417  1.9424 -1.5878
  738MPD2    H310911   0.952   3.416  14.631  1.7925 -2.2940 -0.3827
  738MPD2     N10912   1.236   3.283  14.944 -0.1887  0.3600 -0.1567
  738MPD2    H510913   1.284   3.368  14.920 -1.3551  1.4657  1.4236
  738MPD2    N110914   0.785   3.094  14.897  0.7870  0.5183  0.1092
  738MPD2    H710915   0.795   3.067  14.994 -0.4845  0.1855  0.1481
  739TMC3    C110916   1.454   3.219  15.008  0.0234 -0.7828  0.7878
  739TMC3    C210917   1.487   3.337  14.936 -0.1752  0.1216 -0.1014
  739TMC3    C310918   1.573   3.325  14.831  0.8185 -0.3210  0.0487
  739TMC3    C410919   1.526   3.106  14.990 -0.5992 -0.1824  0.2909
  739TMC3    C510920   1.617   3.104  14.892  0.8292 -0.0525  0.8032
  739TMC3    C610921   1.635   3.205  14.806 -0.1794  0.5734 -0.2622
  739TMC3     C10922   1.308   3.188  15.012 -0.2422 -0.4386 -0.2783
  739TMC3     O10923   1.279   3.075  15.048  0.3489 -0.8237  0.3204
  739TMC3     H10924   1.438   3.431  14.960 -1.2640 -0.6656  0.7346
  739TMC3    H110925   1.482   3.013  15.025 -0.8737 -0.7381 -1.5520
  739TMC3    H210926   1.703   3.199  14.722  3.2615  2.6025  2.3526
  739TMC3    C710927   1.718   3.004  14.904 -0.2260  0.7104 -0.2546
  739TMC3    C810928   1.534   3.396  14.708  0.0689 -0.3389 -0.6210
  739TMC3    O110929   1.685   2.901  14.952  0.2156 -0.0890  0.1145
  739TMC3    O210930   1.417   3.400  14.671  0.7754 -0.1460  0.7611
  740TMC3    C110931   1.934   4.227  14.365  0.0926  0.1288  0.2005
  740TMC3    C210932   1.930   4.124  14.460 -0.3328  1.0468  0.0912
  740TMC3    C310933   2.017   4.025  14.434 -0.1381 -0.0660 -0.5595
  740TMC3    C410934   2.023   4.229  14.258 -0.0381 -0.2776 -0.0637
  740TMC3    C510935   2.108   4.124  14.246  0.0794 -0.2364  0.0144
  740TMC3    C610936   2.111   4.021  14.335 -0.3988 -0.3801 -0.8853
  740TMC3     C10937   1.870   4.356  14.391  0.3281  0.1134  0.0547
  740TMC3     O10938   1.892   4.443  14.310  0.0692 -0.0100 -0.7552
  740TMC3     H10939   1.859   4.125  14.541  1.4958  0.1534  1.7137
  740TMC3    H110940   2.018   4.301  14.178  0.9831 -0.4522 -0.2821
  740TMC3    H210941   2.184   3.941  14.324 -0.6039 -0.4833 -1.4606
  740TMC3    C710942   2.234   4.130  14.164  0.1645 -0.0435  0.0660
  740TMC3    C810943   2.025   3.927  14.541  0.1213  0.1456 -0.2352
  740TMC3    O110944   2.333   4.079  14.209  0.2642 -0.3953  0.5310
  740TMC3    O210945   2.122   3.860  14.553 -0.1993  0.0551 -0.2741
  741TMC3    C110946   1.382   3.908  14.533 -0.8905  0.1084  0.7844
  741TMC3    C210947   1.339   3.810  14.451 -0.0531 -0.0286  0.9063
  741TMC3    C310948   1.286   3.699  14.511  0.2720  0.4902 -0.7514
  741TMC3    C410949   1.377   3.900  14.671 -0.0148  0.3084 -0.2927
  741TMC3    C510950   1.337   3.781  14.728 -0.3433 -0.1354 -0.0281
  741TMC3    C610951   1.288   3.679  14.651  0.1497 -0.1142 -0.5550
  741TMC3     C10952   1.462   4.019  14.496  0.2512 -0.3045 -0.2781
  741TMC3     O10953   1.578   3.996  14.463 -0.7469 -0.2327 -0.5877
  741TMC3     H10954   1.346   3.828  14.344 -0.2002 -1.7440  0.6083
  741TMC3    H110955   1.410   3.990  14.723 -2.2260  0.6617  0.5114
  741TMC3    H210956   1.238   3.598  14.704 -0.2422  0.0700 -0.6441
  741TMC3    C710957   1.314   3.773  14.872 -0.3302 -0.5813 -0.0930
  741TMC3    C810958   1.201   3.615  14.438  0.0996  0.3773  0.5225
  741TMC3    O110959   1.250   3.679  14.922  0.6424  0.2720 -0.4952
  741TMC3    O210960   1.163   3.657  14.330  0.1337  0.3682  0.4871
  742TMC3    C110961   1.413   2.142  14.853  0.0828 -0.5394 -0.4657
  742TMC3    C210962   1.295   2.094  14.816 -0.0958  0.2281  0.5119
  742TMC3    C310963   1.282   2.054  14.684 -0.0007  0.2850 -1.0010
  742TMC3    C410964   1.528   2.134  14.774  0.3164  0.6042  0.4157
  742TMC3    C510965   1.507   2.079  14.649 -0.6850  0.0394  0.1351
  742TMC3    C610966   1.391   2.039  14.602 -0.3046  0.1186  0.6179
  742TMC3     C10967   1.430   2.193  14.986  0.1341 -0.2669  0.0205
  742TMC3     O10968   1.329   2.208  15.049  0.5177 -0.2840  0.1864
  742TMC3     H10969   1.206   2.123  14.871  0.1184 -1.2986  1.6394
  742TMC3    H110970   1.624   2.175  14.803  1.1636 -0.2633 -1.1918
  742TMC3    H210971   1.381   2.010  14.498  1.0064  1.9863 -0.0361
  742TMC3    C710972   1.615   2.121  14.555  0.5954  0.2595  0.0065
  742TMC3    C810973   1.165   2.058  14.614  0.2955  0.0926  0.1086
  742TMC3    O110974   1.652   2.234  14.577 -0.2290 -0.1410  0.0717
  742TMC3    O210975   1.158   2.037  14.493  0.0077  0.2092 -0.1451
  743MPD2     C10976   0.359   2.868   1.014 -0.3818  0.3234 -0.3800
  743MPD2    C110977   0.384   2.986   1.078 -0.5474  0.4317  0.7027
  743MPD2    C210978   0.510   3.011   1.119 -0.0694 -0.7007 -0.4394
  743MPD2    C310979   0.612   2.916   1.101  0.4843  0.7768 -0.7570
  743MPD2    C410980   0.585   2.805   1.022 -0.8493  0.6633 -0.1316
  743MPD2    C510981   0.456   2.780   0.976  0.2144  0.6882  0.1319
  743MPD2     H10982   0.542   3.099   1.174 -0.5842 -1.0607  0.4287
  743MPD2    H110983   0.660   2.732   0.996 -1.3674  0.3337 -0.6955
  743MPD2    H210984   0.265   2.845   0.965 -0.3534 -1.3626  0.3490
  743MPD2    H310985   0.437   2.690   0.919  0.6435  0.8872 -0.3328
  743MPD2     N10986   0.747   2.948   1.136 -0.9184  0.6616 -0.3626
  743MPD2    H510987   0.760   3.030   1.195  0.1179  0.9672 -1.0146
  743MPD2    N110988   0.274   3.074   1.093  0.3958  0.5075 -0.0227
  743MPD2    H710989   0.183   3.037   1.066  0.6415 -0.0266 -0.1103
  744TMC3    C110990   0.163   3.281   1.154 -0.0837  0.0111  0.0517
  744TMC3    C210991   0.176   3.390   1.236  0.1902  0.3605 -0.0117
  744TMC3    C310992   0.079   3.488   1.224  0.5367 -0.4002 -0.0595
  744TMC3    C410993   0.052   3.265   1.069 -0.0164 -0.0636 -0.4603
  744TMC3    C510994   4.671   3.359   1.070 -0.0162  0.2356  0.0528
  744TMC3    C610995   4.693   3.473   1.137 -0.5080  0.0357  0.1549
  744TMC3     C10996   0.282   3.201   1.152  0.4953 -0.4847 -0.5409
  744TMC3     O10997   0.382   3.261   1.185 -0.1876 -0.0013 -0.0811
  744TMC3     H10998   0.258   3.399   1.306 -1.8532  2.0490  2.1448
  744TMC3    H110999   0.045   3.174   1.009 -3.9617  1.3446 -2.1489
  744TMC3    H211000   4.616   3.548   1.135 -0.2309  0.3229  0.3005
  744TMC3    C711001   4.588   3.366   0.949 -0.4675  0.4755  0.1572
  744TMC3    C811002   0.108   3.624   1.266  0.0142 -0.7561 -0.9465
  744TMC3    O111003   4.522   3.467   0.943  0.3874 -0.4040 -0.6270
  744TMC3    O211004   0.030   3.719   1.260 -0.4623 -0.2251  0.2390
  745TMC3    C111005   1.672   2.060  13.311  0.0020  0.0465  0.0504
  745TMC3    C211006   1.607   2.054  13.432 -0.3910 -0.3810  0.3845
  745TMC3    C311007   1.471   2.050  13.420 -0.2233  0.1382  1.0744
  745TMC3    C411008   1.618   2.047  13.187 -0.3221  0.3759  0.0286
  745TMC3    C511009   1.480   2.043  13.184  0.2898 -0.2447 -1.1664
  745TMC3    C611010   1.406   2.046  13.301 -0.4797  0.7956 -0.0145
  745TMC3     C11011   1.811   2.077  13.325  0.4956 -0.0835  0.0968
  745TMC3     O11012   1.866   2.038  13.429 -0.2318 -0.0005 -0.6140
  745TMC3     H11013   1.658   2.045  13.527  1.9323 -0.1382 -0.8318
  745TMC3    H111014   1.689   2.045  13.106 -0.7464 -2.1872 -0.3033
  745TMC3    H211015   1.299   2.044  13.284 -0.5087  0.9068  0.1572
  745TMC3    C711016   1.411   2.044  13.057 -0.1125 -0.1776 -0.4453
  745TMC3    C811017   1.396   2.099  13.531  0.2745  0.5247  0.4122
  745TMC3    O111018   1.293   2.016  13.046  0.2288 -0.1107  0.1905
  745TMC3    O211019   1.276   2.098  13.516  0.4819 -0.2544  0.2952
  746TMC3    C111020   4.111   4.167  10.879 -0.0808  0.4359 -0.1820
  746TMC3    C211021   4.214   4.185  10.789  0.3253 -0.0484 -0.4834
  746TMC3    C311022   4.250   4.078  10.707  0.0007 -0.4069 -0.8360
  746TMC3    C411023   4.057   4.042  10.895  0.0755  0.0416 -0.2266
  746TMC3    C511024   4.092   3.939  10.810 -1.2953 -0.2053  0.4721
  746TMC3    C611025   4.183   3.955  10.702 -0.2899  0.6552 -0.6543
  746TMC3     C11026   4.068   4.277  10.965  0.7844  0.1540 -0.1328
  746TMC3     O11027   4.002   4.242  11.060 -0.9518 -0.0546  0.4787
  746TMC3     H11028   4.269   4.276  10.808 -0.9852  0.5257  0.6050
  746TMC3    H111029   3.989   4.028  10.979  3.5973 -2.4287  2.2119
  746TMC3    H211030   4.208   3.875  10.634  0.5838  0.3290  0.0561
  746TMC3    C711031   3.987   3.841  10.787 -0.1240  0.7077  0.2448
  746TMC3    C811032   4.384   4.066  10.654 -0.2792  0.4677  0.5602
  746TMC3    O111033   3.965   3.802  10.674 -0.0821  0.1928  0.2160
  746TMC3    O211034   4.417   3.971  10.585 -0.0706 -0.2616 -0.2140
  747TMC3    C111035   1.403   3.863  10.767 -0.2587 -0.2296  0.8361
  747TMC3    C211036   1.325   3.805  10.859  0.3647  0.1266  0.0619
  747TMC3    C311037   1.362   3.810  10.992  0.0705  0.1944 -0.7337
  747TMC3    C411038   1.522   3.922  10.805 -0.7061 -0.2397  0.1325
  747TMC3    C511039   1.546   3.926  10.939  0.3524 -0.7408 -0.3150
  747TMC3    C611040   1.468   3.880  11.043 -0.5356 -0.9178 -0.3530
  747TMC3     C11041   1.336   3.904  10.640  0.4941  0.3301 -0.3345
  747TMC3     O11042   1.218   3.927  10.649  0.5838  0.6244  0.0454
  747TMC3     H11043   1.231   3.762  10.829  1.0061 -1.4748  0.3305
  747TMC3    H111044   1.587   3.968  10.731  0.7267 -1.7437  0.4514
  747TMC3    H211045   1.498   3.877  11.147 -3.2806  3.2264  0.5522
  747TMC3    C711046   1.691   3.946  10.979  0.1652 -0.4684 -0.4422
  747TMC3    C811047   1.288   3.732  11.081 -0.4788 -0.1833  0.5679
  747TMC3    O111048   1.703   4.016  11.080 -0.5122  0.4825  0.0394
  747TMC3    O211049   1.253   3.622  11.039  0.3473  0.2679  0.4614
  748MPD2     C11050   2.793   0.957   0.990  0.3817  0.1507  0.0999
  748MPD2    C111051   2.775   0.821   1.011  0.0166  0.7566 -0.1645
  748MPD2    C211052   2.885   0.739   0.997 -1.5897 -0.9254 -0.4470
  748MPD2    C311053   3.010   0.784   0.951  0.3492 -0.5046 -0.5262
  748MPD2    C411054   3.022   0.918   0.932 -0.1598  0.7633 -0.1199
  748MPD2    C511055   2.918   1.003   0.968  0.7032  0.0378 -0.8906
  748MPD2     H11056   2.883   0.634   1.025 -2.4784 -0.6709  0.4559
  748MPD2    H111057   3.118   0.961   0.906 -0.1228 -0.2593 -1.6875
  748MPD2    H211058   2.713   1.031   0.997  1.5766  1.3185  1.3816
  748MPD2    H311059   2.932   1.110   0.965 -0.6689  0.2459  0.1301
  748MPD2     N11060   3.119   0.694   0.944 -0.0727 -0.8354 -1.1248
  748MPD2    H511061   3.096   0.596   0.958  0.4116 -1.0319 -1.6912
  748MPD2    N111062   2.643   0.776   1.031 -0.2478  0.1802  0.5814
  748MPD2    H711063   2.573   0.844   1.056  1.1288  1.5572  0.6807
  749TMC3    C111064   3.307   0.596   0.874  0.3513 -0.4135  0.4346
  749TMC3    C211065   3.336   0.532   0.989 -0.9525 -0.0368 -0.1736
  749TMC3    C311066   3.403   0.420   0.966  0.7469  0.2630  0.6074
  749TMC3    C411067   3.347   0.556   0.746 -0.3188 -0.4958  0.0823
  749TMC3    C511068   3.409   0.435   0.728 -0.4053  0.1230  1.0286
  749TMC3    C611069   3.437   0.363   0.844  0.7352  1.0260  0.2010
  749TMC3     C11070   3.238   0.718   0.876 -0.3722 -0.2000 -0.4094
  749TMC3     O11071   3.273   0.820   0.819  0.4958  0.1538 -0.3560
  749TMC3     H11072   3.309   0.572   1.086 -1.2011 -2.4610  0.7501
  749TMC3    H111073   3.333   0.614   0.655  1.6076  1.4387  1.0309
  749TMC3    H211074   3.485   0.266   0.847 -0.5091  0.4321  1.1124
  749TMC3    C711075   3.501   0.412   0.609  0.1595  0.1753 -0.4740
  749TMC3    C811076   3.472   0.377   1.088  0.0751  0.0752  1.2180
  749TMC3    O111077   3.515   0.506   0.536 -0.7050  0.6420 -0.9008
  749TMC3    O211078   3.419   0.419   1.192  0.2816 -0.4048  0.7116
  750MPD2     C11079   3.906   1.115  11.380 -0.2011 -0.0426  0.3424
  750MPD2    C111080   3.809   1.021  11.423 -0.2413 -0.0225  0.2920
  750MPD2    C211081   3.789   0.902  11.346 -0.0219  0.0368 -0.3658
  750MPD2    C311082   3.863   0.896  11.227  0.0285 -0.3478  0.0045
  750MPD2    C411083   3.957   0.984  11.190 -0.4146 -0.0167 -0.1988
  750MPD2    C511084   3.977   1.101  11.261 -0.2293 -0.0626 -0.4623
  750MPD2     H11085   3.716   0.828  11.377 -0.5558  0.7889  0.1896
  750MPD2    H111086   4.014   0.963  11.100  2.7621  2.6749  1.2031
  750MPD2    H211087   3.913   1.215  11.423  2.0547 -0.2655  0.5394
  750MPD2    H311088   4.052   1.168  11.220  1.1531 -0.8122  0.8621
  750MPD2     N11089   3.858   0.787  11.141 -0.4162 -0.3116 -0.1621
  750MPD2    H511090   3.924   0.792  11.064 -0.7503  1.7696 -0.3244
  750MPD2    N111091   3.751   1.053  11.548 -0.0369 -0.4584 -0.1117
  750MPD2    H711092   3.801   1.129  11.594  1.7961 -1.5289 -0.3369
  751TMC3    C111093   3.777   0.606  11.011  0.3498  0.0502 -0.6614
  751TMC3    C211094   3.711   0.494  11.003 -0.2869 -0.3450 -0.5299
  751TMC3    C311095   3.721   0.427  10.882  0.9069  0.0741  0.5374
  751TMC3    C411096   3.846   0.662  10.904  0.1905  0.6176 -0.1032
  751TMC3    C511097   3.850   0.595  10.785 -0.1586  0.3140  0.0682
  751TMC3    C611098   3.791   0.474  10.773  0.8237  0.9421  0.1918
  751TMC3     C11099   3.768   0.686  11.138  0.7291 -0.4389 -0.5247
  751TMC3     O11100   3.682   0.661  11.223  0.7264  0.3492  0.0620
  751TMC3     H11101   3.660   0.446  11.086 -0.0935  2.3610  1.1337
  751TMC3    H111102   3.910   0.749  10.906 -2.1177  2.3080  1.0847
  751TMC3    H211103   3.780   0.411  10.685 -2.2627  1.9645 -0.1372
  751TMC3    C711104   3.907   0.660  10.670  0.4229  0.1768 -0.5002
  751TMC3    C811105   3.711   0.283  10.882  0.2787  0.5312  0.8062
  751TMC3    O111106   3.935   0.777  10.675 -0.1429 -0.4365  0.5175
  751TMC3    O211107   3.800   0.227  10.823 -0.0724 -0.2847 -0.1370
  752TMC3    C111108   2.133   4.701  16.755 -0.8265  0.2361  0.4032
  752TMC3    C211109   2.066   4.584  16.714 -0.1400  0.5539  0.6104
  752TMC3    C311110   1.962   4.537  16.787  0.3846  0.9025  0.5805
  752TMC3    C411111   2.113   0.032  16.879  0.7871 -0.4997 -0.3266
  752TMC3    C511112   2.007   4.709  16.946 -0.0426  0.7401  0.1111
  752TMC3    C611113   1.929   4.602  16.903  0.5284 -0.0481 -0.4976
  752TMC3     C11114   2.246   0.025  16.678 -0.7810  0.1976 -0.0916
  752TMC3     O11115   2.284   4.677  16.582  0.1362 -0.4617  0.5847
  752TMC3     H11116   2.091   4.539  16.619  0.1380  2.0927 -0.0352
  752TMC3    H111117   2.189   0.100  16.915 -0.6410  0.8900  0.1153
  752TMC3    H211118   1.841   4.569  16.956 -0.1400 -1.2973 -2.3999
  752TMC3    C711119   1.982   0.034  17.083  0.0101 -0.4252  0.3540
  752TMC3    C811120   1.879   4.429  16.739  0.1770 -0.2283 -0.0819
  752TMC3    O111121   1.907   4.697  17.160 -0.5561 -0.0570 -0.3493
  752TMC3    O211122   1.835   4.344  16.817  0.0519 -0.1131 -0.2488
  753TMC3    C111123   4.484   1.744  13.260 -0.5202 -1.1071 -0.2372
  753TMC3    C211124   4.475   1.770  13.399 -0.1829 -0.2804 -0.4488
  753TMC3    C311125   4.428   1.670  13.483 -0.5523  0.0170  0.4859
  753TMC3    C411126   4.457   1.615  13.208 -0.3053  0.4283  0.0211
  753TMC3    C511127   4.401   1.527  13.293 -0.4229  0.1733  0.3042
  753TMC3    C611128   4.385   1.548  13.431  0.2680  0.9276  0.4709
  753TMC3     C11129   4.480   1.859  13.176 -0.0116  0.0813 -0.0915
  753TMC3     O11130   4.425   1.853  13.065  0.1422  0.7065  0.5738
  753TMC3     H11131   4.479   1.873  13.434 -0.0770  0.6474 -3.1504
  753TMC3    H111132   4.466   1.598  13.102 -0.5535  0.4951 -0.0116
  753TMC3    H211133   4.353   1.471  13.500 -0.9668  1.1613  0.1537
  753TMC3    C711134   4.398   1.385  13.254  0.5275  0.2547  0.1466
  753TMC3    C811135   4.467   1.666  13.626 -0.4158  0.0645 -0.7127
  753TMC3    O111136   4.300   1.318  13.286  0.2190  0.6035  0.3086
  753TMC3    O211137   4.446   1.561  13.680 -0.1079 -0.8167  0.5029
  754MPD2     C11138   3.340   0.605  13.507 -0.1624  0.4527  0.4369
  754MPD2    C111139   3.292   0.482  13.499  0.3604  0.4166 -0.3139
  754MPD2    C211140   3.207   0.449  13.391  0.4932  0.1650 -0.1497
  754MPD2    C311141   3.155   0.548  13.306 -0.0575 -0.0092 -0.0801
  754MPD2    C411142   3.187   0.681  13.336 -0.3830 -0.1345 -0.7281
  754MPD2    C511143   3.286   0.704  13.428  0.2483  0.5881 -0.8174
  754MPD2     H11144   3.175   0.347  13.373 -0.2294  0.3028  0.3623
  754MPD2    H111145   3.147   0.760  13.274  1.0542  0.1550 -1.3039
  754MPD2    H211146   3.428   0.626  13.567 -0.6948 -1.3647  1.8507
  754MPD2    H311147   3.338   0.800  13.430 -1.8762  1.7605 -1.4305
  754MPD2     N11148   3.060   0.521  13.208  0.1967  0.2963 -0.4965
  754MPD2    H511149   3.018   0.600  13.160 -1.0302 -0.9072 -1.4176
  754MPD2    N111150   3.329   0.389  13.600 -0.0747 -0.2035 -0.0040
  754MPD2    H711151   3.414   0.402  13.653  1.2951 -0.5215 -2.1605
  755MPD2     C11152   2.621   1.135  12.806  0.5267  0.3300  0.3482
  755MPD2    C111153   2.522   1.057  12.859  0.1951  0.0788  0.1792
  755MPD2    C211154   2.561   0.931  12.900 -0.3242  0.1190 -0.5687
  755MPD2    C311155   2.690   0.879  12.885 -0.2769 -0.6755  0.6385
  755MPD2    C411156   2.784   0.960  12.833  0.7280  0.1024  0.5005
  755MPD2    C511157   2.744   1.082  12.788  0.5074  0.2082 -0.0038
  755MPD2     H11158   2.488   0.864  12.944 -0.1581 -0.3203 -0.9687
  755MPD2    H111159   2.888   0.931  12.827  0.3893 -0.6546 -1.7101
  755MPD2    H211160   2.599   1.237  12.776  0.9212 -0.0498 -1.2078
  755MPD2    H311161   2.827   1.142  12.752  1.9868 -2.1271 -0.4751
  755MPD2     N11162   2.739   0.750  12.941 -0.1297 -0.7134  0.2995
  755MPD2    H511163   2.836   0.739  12.968  0.2211  2.8913  0.4740
  755MPD2    N111164   2.397   1.115  12.868  0.1263  0.2615 -0.2943
  755MPD2    H711165   2.384   1.214  12.850  0.2290  0.0685 -1.4257
  756MPD2     C11166   3.838   1.966   9.806 -0.3703 -0.1213  0.1166
  756MPD2    C111167   3.770   1.856   9.853 -0.2167  0.7937 -0.1984
  756MPD2    C211168   3.681   1.803   9.767  0.0237  0.5583  0.3583
  756MPD2    C311169   3.658   1.849   9.634  0.2714  0.2586 -0.1404
  756MPD2    C411170   3.728   1.962   9.593 -0.2272 -0.3685  0.2949
  756MPD2    C511171   3.809   2.019   9.684 -0.0349 -0.2560 -0.7216
  756MPD2     H11172   3.616   1.728   9.810  1.5058 -0.2884  1.1340
  756MPD2    H111173   3.706   2.005   9.496  2.0549 -2.5013 -1.1668
  756MPD2    H211174   3.907   2.018   9.871 -0.7525 -0.9137  1.1681
  756MPD2    H311175   3.865   2.104   9.647  1.8293 -0.9105  0.5732
  756MPD2     N11176   3.563   1.782   9.558  0.0105 -0.1692 -0.3504
  756MPD2    H511177   3.528   1.694   9.595  3.2121 -0.6977  1.3822
  756MPD2    N111178   3.771   1.813   9.988  0.1483  0.0625 -0.3967
  756MPD2    H711179   3.706   1.737  10.004  0.4381  0.4474  2.5983
  757MPD2     C11180   2.612   1.594   9.195  0.4983 -0.2430 -0.0392
  757MPD2    C111181   2.664   1.515   9.298 -0.6142  0.4990  0.9150
  757MPD2    C211182   2.792   1.525   9.341 -0.1346 -0.3338  0.3571
  757MPD2    C311183   2.875   1.613   9.275  0.2381 -0.4048  0.8086
  757MPD2    C411184   2.819   1.703   9.182 -0.1664  0.9498  0.6262
  757MPD2    C511185   2.691   1.688   9.139 -0.0513 -0.6263  0.0629
  757MPD2     H11186   2.824   1.458   9.421  0.5171  0.9467  1.1609
  757MPD2    H111187   2.871   1.777   9.122  0.3041 -0.2208 -0.4290
  757MPD2    H211188   2.515   1.583   9.148 -0.0747  2.1090  0.5840
  757MPD2    H311189   2.650   1.751   9.060 -1.1584 -0.4750  0.7524
  757MPD2     N11190   3.015   1.611   9.306 -0.8303  0.3931  0.1677
  757MPD2    H511191   3.035   1.536   9.372  0.4030  0.1863 -0.4328
  757MPD2    N111192   2.566   1.432   9.367  0.3962 -0.0489 -0.2873
  757MPD2    H711193   2.471   1.440   9.332  0.2643  2.3278  0.5733
  758MPD2     C11194   3.577   0.558  15.496 -0.2541 -0.1115  0.4056
  758MPD2    C111195   3.647   0.474  15.570  0.1708  0.4089 -0.9813
  758MPD2    C211196   3.593   0.421  15.685 -0.3610  0.2198 -0.4344
  758MPD2    C311197   3.465   0.444  15.725  0.5633  0.5242  0.1795
  758MPD2    C411198   3.395   0.538  15.646  0.0570 -0.2989 -0.4553
  758MPD2    C511199   3.455   0.601  15.538  0.0440  0.2851 -0.4917
  758MPD2     H11200   3.657   0.354  15.742 -1.9247  1.0292  2.2684
  758MPD2    H111201   3.300   0.576  15.682  0.1956 -0.5861  0.2253
  758MPD2    H211202   3.615   0.601  15.404 -0.2005  0.1738  0.5621
  758MPD2    H311203   3.404   0.669  15.470 -1.3013  0.9069  1.1286
  758MPD2     N11204   3.412   0.392  15.844  0.3388 -0.5749  0.3537
  758MPD2    H511205   3.316   0.415  15.866 -0.4549 -2.5215 -1.0931
  758MPD2    N111206   3.779   0.448  15.528 -0.7964  0.2454 -0.2683
  758MPD2    H711207   3.811   0.504  15.450 -1.0087 -0.7625 -1.0816
  759MPD2     C11208   2.484   3.874   9.804  0.5465 -0.4232  0.0925
  759MPD2    C111209   2.367   3.833   9.744  0.5443  0.0045  0.2503
  759MPD2    C211210   2.357   3.858   9.604 -0.1287  0.0949 -0.0972
  759MPD2    C311211   2.458   3.919   9.527 -0.0339  0.1945 -0.3926
  759MPD2    C411212   2.575   3.959   9.595 -0.1892  0.2042 -0.1266
  759MPD2    C511213   2.585   3.941   9.732 -0.2552  0.7393 -0.2946
  759MPD2     H11214   2.265   3.831   9.553  0.1371  3.5250 -2.3899
  759MPD2    H111215   2.653   4.010   9.539 -0.9704  1.5851  0.0354
  759MPD2    H211216   2.504   3.856   9.909  0.5083  1.0528  0.3435
  759MPD2    H311217   2.675   3.970   9.784  1.5817 -3.3234 -1.2146
  759MPD2     N11218   2.449   3.948   9.388  0.3089  0.2093  0.5588
  759MPD2    H511219   2.525   3.999   9.345  1.6886 -2.3313 -0.0390
  759MPD2    N111220   2.267   3.761   9.807  0.2437  0.5962 -0.1628
  759MPD2    H711221   2.191   3.743   9.742 -0.0162  1.3510 -0.0701
  760MPD2     C11222   2.719   0.498  12.085 -1.0035 -0.2242 -0.1776
  760MPD2    C111223   2.665   0.588  11.999  0.0279  0.0085  0.4295
  760MPD2    C211224   2.537   0.569  11.944  0.5637 -0.3052  0.9789
  760MPD2    C311225   2.459   0.465  11.988  0.1486 -0.0478  0.6651
  760MPD2    C411226   2.514   0.385  12.083 -0.5363  1.1817  0.7124
  760MPD2    C511227   2.640   0.395  12.130  0.0783 -0.5333  1.0942
  760MPD2     H11228   2.502   0.651  11.883 -0.2194 -1.7139 -0.4851
  760MPD2    H111229   2.452   0.315  12.137 -0.6396  0.7484  0.0379
  760MPD2    H211230   2.816   0.511  12.132 -1.5169 -0.8941  1.0663
  760MPD2    H311231   2.672   0.322  12.203 -2.8209 -3.2328 -0.3156
  760MPD2     N11232   2.330   0.439  11.938  0.5168 -0.4863 -0.1260
  760MPD2    H511233   2.282   0.357  11.973  0.6514 -0.2687  0.5711
  760MPD2    N111234   2.734   0.712  11.970  0.1819  0.6262  0.5669
  760MPD2    H711235   2.688   0.775  11.905 -0.7756 -1.5576 -0.8854
  761MPD2     C11236   3.570   4.563  11.098 -0.2788  0.0443 -0.8588
  761MPD2    C111237   3.649   4.592  10.985  0.1056  0.0769 -0.3581
  761MPD2    C211238   3.664   4.722  10.941  0.2188 -0.1770 -0.9744
  761MPD2    C311239   3.613   0.102  11.012 -0.0623  0.5029 -0.1591
  761MPD2    C411240   3.535   0.075  11.121 -0.1480  0.4078  0.4403
  761MPD2    C511241   3.515   4.669  11.169  1.1307  0.9289  0.0855
  761MPD2     H11242   3.718   0.013  10.848  0.9460 -1.5118 -0.7491
  761MPD2    H111243   3.488   0.161  11.168  0.0295  0.3007  0.8158
  761MPD2    H211244   3.568   4.466  11.145  0.3181  0.1245 -0.6585
  761MPD2    H311245   3.473   4.661  11.268 -1.2192 -0.9516 -1.0646
  761MPD2     N11246   3.625   0.237  10.976 -0.5378  0.3350 -0.0842
  761MPD2    H511247   3.561   0.299  11.024  0.1014  1.3074 -0.4766
  761MPD2    N111248   3.699   4.485  10.899  0.1189  0.0295 -0.2930
  761MPD2    H711249   3.682   4.394  10.941 -0.8223  0.4882  0.3196
  762MPD2     C11250   4.051   3.860  10.320 -0.7638  0.2647  0.3639
  762MPD2    C111251   4.082   3.993  10.348  0.0439 -0.3486  0.2322
  762MPD2    C211252   4.198   4.049  10.296  0.4326  0.9499 -0.3899
  762MPD2    C311253   4.274   3.969  10.207  0.0737 -0.3354 -0.2281
  762MPD2    C411254   4.241   3.842  10.176  0.6198 -0.0808  0.2148
  762MPD2    C511255   4.128   3.796  10.225  0.2577  0.0081 -0.1434
  762MPD2     H11256   4.233   4.148  10.321 -1.0462  1.0722  1.1738
  762MPD2    H111257   4.297   3.780  10.107  0.8071 -0.3158  0.5760
  762MPD2    H211258   3.967   3.804  10.359 -2.8550  1.7601 -2.0361
  762MPD2    H311259   4.104   3.695  10.194 -1.4672  0.0940  0.8881
  762MPD2     N11260   4.395   4.030  10.166 -0.6537  0.5657  0.3903
  762MPD2    H511261   4.407   4.121  10.209 -0.2869  0.1972  1.0665
  762MPD2    N111262   3.983   4.055  10.429 -0.4514  0.2626  0.8651
  762MPD2    H711263   3.919   3.982  10.460 -1.5572  0.8430 -0.0264
  763MPD2     C11264   0.855   0.427  16.237  0.6463  0.5379  0.1287
  763MPD2    C111265   0.765   0.510  16.162  0.1999  0.0322 -0.2875
  763MPD2    C211266   0.765   0.647  16.193 -0.1627  0.6025 -0.0596
  763MPD2    C311267   0.848   0.697  16.290  0.1757  0.5248 -0.1203
  763MPD2    C411268   0.936   0.612  16.359 -0.1134  0.6084  0.2762
  763MPD2    C511269   0.937   0.475  16.329 -0.5310 -0.1184  1.0189
  763MPD2     H11270   0.704   0.715  16.135 -1.6089 -0.3556  0.3153
  763MPD2    H111271   1.004   0.648  16.436 -0.8608  1.7562  0.4015
  763MPD2    H211272   0.847   0.320  16.217 -1.4823  1.0252 -1.7165
  763MPD2    H311273   0.996   0.404  16.387  1.6317 -0.5926 -1.7523
  763MPD2     N11274   0.845   0.832  16.327 -0.4601 -0.0316  0.2562
  763MPD2    H511275   0.927   0.862  16.379 -0.0764  1.7352 -1.3584
  763MPD2    N111276   0.683   0.463  16.051 -0.0763 -0.3120  0.3840
  763MPD2    H711277   0.627   0.526  15.995  0.2087 -1.9999 -1.8233
  764MPD2     C11278   3.050   1.649  17.139 -0.2930 -0.0730 -0.4390
  764MPD2    C111279   2.976   1.768  17.146  0.4488 -0.4454  0.3875
  764MPD2    C211280   2.966   1.822  17.270 -0.9303  0.1860  0.0906
  764MPD2    C311281   3.025   1.776  17.390  0.2388  0.4681 -0.1815
  764MPD2    C411282   3.086   1.653  17.375  1.4811 -0.0627 -0.5059
  764MPD2    C511283   3.107   1.594  17.251 -0.0803  0.0151  0.4528
  764MPD2     H11284   2.912   1.916  17.279 -1.2527  0.0483 -0.4422
  764MPD2    H111285   3.136   1.602  17.457  1.0148  1.3614  0.6686
  764MPD2    H211286   3.059   1.593  17.047  0.1823 -1.7755  0.6302
  764MPD2    H311287   3.170   1.505  17.246 -0.0576  0.1264 -1.3930
  764MPD2     N11288   3.027   1.856  17.506  0.3102 -1.2104 -0.0769
  764MPD2    H511289   2.989   1.951  17.503  1.4088 -0.7738 -0.0166
  764MPD2    N111290   2.912   1.817  17.027 -0.3887 -0.3477  0.0832
  764MPD2    H711291   2.941   1.781  16.937 -1.1201 -0.0587 -0.2666
  765MPD2     C11292   3.077   3.888  15.392 -0.2540  0.0696 -0.3858
  765MPD2    C111293   3.131   4.017  15.388  0.6428  0.2149  0.3826
  765MPD2    C211294   3.260   4.037  15.338 -0.1943  0.3130 -0.0658
  765MPD2    C311295   3.327   3.926  15.284 -0.4075 -0.3748 -0.1373
  765MPD2    C411296   3.273   3.800  15.291  0.0567 -0.6428 -0.1601
  765MPD2    C511297   3.153   3.781  15.347 -0.4876  0.3882 -0.3270
  765MPD2     H11298   3.290   4.139  15.319  1.4665  0.2077  1.9981
  765MPD2    H111299   3.338   3.719  15.260  1.9155  0.5735  0.5129
  765MPD2    H211300   2.979   3.868  15.433 -0.2578  0.5898 -0.1379
  765MPD2    H311301   3.110   3.682  15.357  1.2116 -0.3058 -0.0448
  765MPD2     N11302   3.454   3.950  15.227 -0.1555 -0.0679  0.1494
  765MPD2    H511303   3.485   4.046  15.235  0.4691 -0.3050  0.5931
  765MPD2    N111304   3.051   4.128  15.427  0.0949  0.2418 -0.2343
  765MPD2    H711305   2.956   4.093  15.437  0.5870 -0.7926  0.7280
  766MPD2     C11306   2.534   4.283  15.044 -0.4957 -0.2328 -0.5350
  766MPD2    C111307   2.668   4.322  15.060  0.1410  0.5423 -0.3921
  766MPD2    C211308   2.748   4.326  14.951 -0.0811  0.7835  0.2513
  766MPD2    C311309   2.699   4.310  14.820  0.7709  0.0211 -0.4881
  766MPD2    C411310   2.571   4.266  14.804  0.4297 -0.0877 -0.1708
  766MPD2    C511311   2.492   4.252  14.914  0.0919 -0.8036 -0.2619
  766MPD2     H11312   2.845   4.371  14.969  0.1053 -0.0457  1.3165
  766MPD2    H111313   2.538   4.219  14.713 -0.7754 -2.5733  1.5500
  766MPD2    H211314   2.473   4.286  15.134  0.4733 -1.8012  0.1711
  766MPD2    H311315   2.391   4.215  14.902  0.3273 -0.7083 -2.5072
  766MPD2     N11316   2.771   4.341  14.707 -0.3097  0.0009  0.3443
  766MPD2    H511317   2.723   4.327  14.619 -0.0545 -0.5679  0.2935
  766MPD2    N111318   2.727   4.352  15.184  0.1006 -0.1128  0.0153
  766MPD2    H711319   2.826   4.375  15.186  0.1826 -0.8818  3.7094
  767MPD2     C11320   2.326   4.549  14.810  0.2643  0.2522  0.0764
  767MPD2    C111321   2.443   4.601  14.755 -0.4459  0.3444 -0.0179
  767MPD2    C211322   2.467   4.580  14.619 -0.1217 -0.0122  0.3674
  767MPD2    C311323   2.371   4.525  14.538 -0.5989  0.3062  0.4402
  767MPD2    C411324   2.259   4.467  14.588  0.4407 -0.2024 -0.0239
  767MPD2    C511325   2.239   4.484  14.721  0.7149 -0.0744  0.2864
  767MPD2     H11326   2.557   4.616  14.571  0.0131  0.5055  1.0058
  767MPD2    H111327   2.181   4.418  14.531  0.5380  1.2177 -1.3621
  767MPD2    H211328   2.298   4.556  14.914 -0.3662 -0.5121 -0.0394
  767MPD2    H311329   2.144   4.445  14.754  1.4653  0.2338  2.7694
  767MPD2     N11330   2.402   4.531  14.398 -0.5084 -0.0288 -0.2147
  767MPD2    H511331   2.500   4.548  14.378 -0.6474  1.4243  0.3181
  767MPD2    N111332   2.538   4.660  14.841 -0.1034  0.7507 -0.4326
  767MPD2    H711333   2.517   4.656  14.940  0.9446  1.0517 -0.2024
  768MPD2     C11334   3.708   2.795  10.509 -0.0093  0.1655 -0.0040
  768MPD2    C111335   3.740   2.923  10.549  0.6041 -0.8936  0.3074
  768MPD2    C211336   3.862   2.953  10.610  0.1811  0.1537 -0.2464
  768MPD2    C311337   3.955   2.852  10.613 -0.2137 -0.0598  0.0671
  768MPD2    C411338   3.922   2.723  10.574 -0.2899 -0.6081 -0.1592
  768MPD2    C511339   3.802   2.695  10.524  0.3882  0.7724 -0.1561
  768MPD2     H11340   3.879   3.055  10.642  0.4289  0.1232 -0.2884
  768MPD2    H111341   3.993   2.643  10.592 -2.0903 -2.4059 -1.0953
  768MPD2    H211342   3.612   2.765  10.468  0.0563  2.7889 -2.0154
  768MPD2    H311343   3.783   2.594  10.488 -0.0967 -0.3068  3.1201
  768MPD2     N11344   4.084   2.882  10.659  0.0651 -0.3332  0.2552
  768MPD2    H511345   4.154   2.811  10.642 -1.4862 -1.6477 -0.7565
  768MPD2    N111346   3.651   3.030  10.534 -0.1884  0.2851 -0.7015
  768MPD2    H711347   3.685   3.118  10.571 -2.0638  1.0659 -0.7831
  769MPD2     C11348   4.417   1.118  14.777  0.5880  0.3662 -0.1627
  769MPD2    C111349   4.324   1.124  14.876 -0.3817 -0.3224 -0.1097
  769MPD2    C211350   4.352   1.191  14.991  0.9701 -0.0495  0.7676
  769MPD2    C311351   4.474   1.264  14.999 -0.8194 -0.3786  0.2835
  769MPD2    C411352   4.569   1.258  14.889  0.4494 -0.1951  0.4673
  769MPD2    C511353   4.538   1.180  14.781 -0.0488  0.0707 -0.8727
  769MPD2     H11354   4.284   1.210  15.073  2.7145  1.2945  1.9030
  769MPD2    H111355   4.658   1.319  14.879  1.0234 -0.6837  2.5724
  769MPD2    H211356   4.388   1.065  14.687  1.1269  0.5447 -0.4368
  769MPD2    H311357   4.609   1.183  14.700  0.1920 -0.9680 -0.7043
  769MPD2     N11358   4.503   1.341  15.114  0.4400  0.3017 -0.2315
  769MPD2    H511359   4.460   1.308  15.200  0.7509  0.7958  0.1124
  769MPD2    N111360   4.191   1.069  14.859 -0.3619  0.1097  0.1700
  769MPD2    H711361   4.167   1.036  14.765 -3.6399  0.1706  0.9780
  770MPD2     C11362   3.669   0.217  15.008  0.5693  0.2132 -0.2923
  770MPD2    C111363   3.689   0.241  14.872 -0.1777  0.7084  0.1302
  770MPD2    C211364   3.699   0.371  14.829  0.5783  0.2358 -0.3412
  770MPD2    C311365   3.698   0.477  14.922  0.6931  0.0678  0.1741
  770MPD2    C411366   3.674   0.448  15.052  0.2819 -0.1563 -0.2294
  770MPD2    C511367   3.660   0.317  15.096  0.6301  0.4415 -0.1482
  770MPD2     H11368   3.721   0.393  14.725  1.2308  1.2137  0.0018
  770MPD2    H111369   3.681   0.522  15.130 -0.7862 -2.2681  1.8771
  770MPD2    H211370   3.649   0.114  15.036  2.6992 -0.1485 -0.0782
  770MPD2    H311371   3.646   0.298  15.202  0.7598 -0.5781 -0.3135
  770MPD2     N11372   3.734   0.605  14.875 -0.0078  0.5355 -0.3654
  770MPD2    H511373   3.750   0.623  14.776 -1.7966  0.9447 -0.5934
  770MPD2    N111374   3.692   0.123  14.784 -0.1062 -0.6368 -0.5811
  770MPD2    H711375   3.688   0.032  14.828  1.6545  0.0808  1.0432
  771MPD2     C11376   0.581   3.753  13.647  0.0159 -0.4344  0.1749
  771MPD2    C111377   0.565   3.882  13.604  0.3615  0.1907 -0.4492
  771MPD2    C211378   0.517   3.906  13.481 -0.1015  0.6210 -0.8301
  771MPD2    C311379   0.474   3.804  13.397  0.3950 -0.0191 -0.3800
  771MPD2    C411380   0.472   3.676  13.450 -0.8766 -0.1255  0.2055
  771MPD2    C511381   0.523   3.654  13.577  0.2605 -0.9733  0.1627
  771MPD2     H11382   0.495   4.010  13.458  2.5577  1.3852  0.0242
  771MPD2    H111383   0.416   3.595  13.406  1.1667  0.2972 -3.2211
  771MPD2    H211384   0.609   3.734  13.750 -0.5910 -2.7693 -0.0711
  771MPD2    H311385   0.521   3.553  13.617 -1.7515 -0.8608  0.3629
  771MPD2     N11386   0.409   3.841  13.278  0.1396 -0.6726 -0.2595
  771MPD2    H511387   0.401   3.940  13.260 -1.4845 -0.9724 -1.1795
  771MPD2    N111388   0.618   3.993  13.682  0.0780 -0.4277 -0.2575
  771MPD2    H711389   0.598   4.086  13.647 -0.6939 -0.4341  0.1705
  772MPD2     C11390   0.274   4.524  13.958 -0.3016  0.2378 -0.2034
  772MPD2    C111391   0.290   4.428  13.858 -0.3133  0.3639  0.3007
  772MPD2    C211392   0.174   4.401  13.782 -0.3319  0.4508  0.0665
  772MPD2    C311393   0.046   4.456  13.804  0.0376  0.0484 -0.7348
  772MPD2    C411394   0.034   4.537  13.919 -0.1244  0.7101 -0.3327
  772MPD2    C511395   0.146   4.566  13.995 -0.2036  0.2045 -0.1597
  772MPD2     H11396   0.182   4.330  13.701  2.4845  1.7264 -0.7740
  772MPD2    H111397   4.666   4.587  13.951 -0.8142 -0.9512  0.3132
  772MPD2    H211398   0.357   4.551  14.022  0.8276 -0.5891 -1.3009
  772MPD2    H311399   0.131   4.615  14.090 -0.7058 -0.6838  0.2166
  772MPD2     N11400   4.651   4.433  13.736 -0.1451  0.6910  0.2641
  772MPD2    H511401   4.568   4.486  13.758 -0.8173 -0.7533  1.1752
  772MPD2    N111402   0.411   4.369  13.827  0.4797 -0.0515  0.2578
  772MPD2    H711403   0.401   4.294  13.759  0.4674 -0.6986  0.9740
  773MPD2     C11404   4.004   0.525  16.813 -0.3534 -0.4184  0.4489
  773MPD2    C111405   3.925   0.453  16.902  0.2434  0.4913  0.1797
  773MPD2    C211406   3.959   0.448  17.035 -0.3708  0.7676 -0.7483
  773MPD2    C311407   4.071   0.514  17.075  0.3741  0.3256  0.2202
  773MPD2    C411408   4.157   0.574  16.992  0.0313 -0.3383  0.0470
  773MPD2    C511409   4.125   0.578  16.862 -0.8325 -0.1167  0.4086
  773MPD2     H11410   3.895   0.394  17.104 -0.5094  2.8218  0.7335
  773MPD2    H111411   4.236   0.638  17.029  2.3501 -3.1621 -0.0068
  773MPD2    H211412   3.980   0.534  16.707  0.6183 -1.0213  0.1804
  773MPD2    H311413   4.195   0.624  16.793  1.6160 -1.5182  1.9485
  773MPD2     N11414   4.101   0.499  17.215 -0.3843  0.4483  0.1984
  773MPD2    H511415   4.038   0.447  17.275 -0.5086 -0.8254 -1.0618
  773MPD2    N111416   3.796   0.404  16.869 -0.4989  0.3927  0.3058
  773MPD2    H711417   3.746   0.357  16.944  1.3889 -0.6537  0.9218
  774MPD2     C11418   2.855   4.214  13.545 -0.3236  0.0931  0.2019
  774MPD2    C111419   2.987   4.254  13.558  0.4600  0.0827  0.2118
  774MPD2    C211420   3.014   4.386  13.553  0.6225  0.2642 -0.0238
  774MPD2    C311421   2.916   4.483  13.536 -0.4442  0.3091  0.2402
  774MPD2    C411422   2.784   4.442  13.519 -0.7150  0.4667  0.6896
  774MPD2    C511423   2.752   4.309  13.531 -0.5050 -0.6025  0.0484
  774MPD2     H11424   3.115   4.424  13.560 -0.0942  2.7290 -3.0274
  774MPD2    H111425   2.695   4.504  13.521 -0.8609  0.2727  0.1126
  774MPD2    H211426   2.832   4.109  13.560 -0.7912  0.1113 -0.3811
  774MPD2    H311427   2.646   4.289  13.529 -0.2511 -1.9137 -0.1196
  774MPD2     N11428   2.952   4.624  13.548 -0.2362  0.3612 -0.4652
  774MPD2    H511429   3.033   4.642  13.607 -0.3102 -0.7586 -0.0129
  774MPD2    N111430   3.095   4.161  13.577 -0.2101  0.1064 -0.7582
  774MPD2    H711431   3.070   4.066  13.604  2.7538 -0.5556 -0.4139
  775MPD2     C11432   0.211   1.246  15.654 -0.1462  1.0937  0.4610
  775MPD2    C111433   0.161   1.371  15.679 -0.6995  0.6245 -0.3030
  775MPD2    C211434   0.221   1.485  15.632 -0.0390  0.1625  0.2908
  775MPD2    C311435   0.327   1.474  15.548 -0.8582 -0.2293  0.5116
  775MPD2    C411436   0.367   1.348  15.513  0.0301  0.1885 -0.2441
  775MPD2    C511437   0.313   1.228  15.563 -0.3101 -0.0360  0.0747
  775MPD2     H11438   0.191   1.586  15.658 -2.6467 -1.1358  2.2311
  775MPD2    H111439   0.454   1.326  15.453 -0.2190 -3.2669  0.6862
  775MPD2    H211440   0.170   1.152  15.689 -0.0406  0.5851 -0.7746
  775MPD2    H311441   0.355   1.132  15.535  0.4791  0.5030 -0.6108
  775MPD2     N11442   0.390   1.584  15.495 -0.0325 -0.0250  0.0749
  775MPD2    H511443   0.448   1.561  15.415 -0.9481 -2.6962  0.1810
  775MPD2    N111444   0.051   1.375  15.768  0.3410  0.3655  0.3252
  775MPD2    H711445   0.002   1.289  15.788  0.8539 -0.1481 -0.6604
  776MPD2     C11446   3.180   1.502  11.887  0.7347  0.1382  0.0907
  776MPD2    C111447   3.306   1.518  11.839 -0.0957 -0.3638 -0.4952
  776MPD2    C211448   3.342   1.643  11.798 -0.1822  0.1657  0.6325
  776MPD2    C311449   3.256   1.752  11.779 -0.3940  0.2233 -0.1806
  776MPD2    C411450   3.120   1.724  11.807  0.1404  0.5563  0.2748
  776MPD2    C511451   3.094   1.603  11.865 -0.0034  0.0107  0.1952
  776MPD2     H11452   3.447   1.652  11.770 -0.6227  0.7057 -0.8351
  776MPD2    H111453   3.046   1.801  11.790 -0.0624  0.4864  0.8361
  776MPD2    H211454   3.158   1.418  11.950  0.8307  0.7917  0.9918
  776MPD2    H311455   2.989   1.589  11.890 -0.3101  2.5983  0.4353
  776MPD2     N11456   3.305   1.876  11.738  0.1976 -0.2185 -1.0512
  776MPD2    H511457   3.404   1.879  11.719  0.2392 -2.6110 -1.2099
  776MPD2    N111458   3.400   1.415  11.863  0.2114 -0.5053 -0.0297
  776MPD2    H711459   3.366   1.338  11.918 -1.4635  0.4491  0.2833
  777MPD2     C11460   4.595   4.514   0.498 -0.4565 -0.5590  0.0615
  777MPD2    C111461   4.471   4.479   0.548  0.0920 -0.2981  0.5961
  777MPD2    C211462   4.407   4.364   0.508  0.2343 -0.2586  0.4632
  777MPD2    C311463   4.482   4.271   0.426  0.6633  0.8096 -0.3474
  777MPD2    C411464   4.616   4.306   0.386  0.2222  0.3538 -0.3022
  777MPD2    C511465   4.669   4.427   0.430  0.6493  0.7837 -0.0990
  777MPD2     H11466   4.304   4.340   0.529 -0.2007  0.1983 -1.2316
  777MPD2    H111467   4.674   4.260   0.306  0.9264  2.3739 -0.9332
  777MPD2    H211468   4.643   4.606   0.530 -1.2128 -0.5777  1.2728
  777MPD2    H311469   0.038   4.469   0.392  0.3541 -0.3726 -2.0751
  777MPD2     N11470   4.423   4.148   0.392 -0.7507 -0.0916 -0.5576
  777MPD2    H511471   4.323   4.137   0.406 -1.0921  1.2973 -1.8302
  777MPD2    N111472   4.417   4.559   0.653  0.7428 -0.1406  0.3319
  777MPD2    H711473   4.473   4.642   0.668 -0.7575  0.4694  2.4559
  778MPD2     C11474   0.674   4.204  14.904  0.3398 -0.6565  0.4084
  778MPD2    C111475   0.667   4.114  14.796  0.7105 -0.3269 -0.4679
  778MPD2    C211476   0.747   4.142  14.681  0.1845  0.0689  0.4843
  778MPD2    C311477   0.822   4.260  14.672  0.4637  0.5837 -1.0575
  778MPD2    C411478   0.823   4.352  14.784  0.1133  0.2477 -0.7057
  778MPD2    C511479   0.746   4.318  14.891 -0.0993 -0.0622  0.4966
  778MPD2     H11480   0.750   4.074  14.596 -1.9706  2.3671 -1.4373
  778MPD2    H111481   0.887   4.439  14.785 -0.8595  0.9532  1.1205
  778MPD2    H211482   0.627   4.181  14.999 -1.6594  0.6981 -0.2342
  778MPD2    H311483   0.730   4.389  14.971  0.6966  0.7419 -0.0678
  778MPD2     N11484   0.906   4.275  14.555  0.3893  0.1355 -0.1569
  778MPD2    H511485   0.907   4.196  14.492  1.3407 -0.7395  0.9433
  778MPD2    N111486   0.581   3.995  14.799 -0.2911 -0.0563  0.5885
  778MPD2    H711487   0.586   3.935  14.718 -3.8076  2.4746 -1.4947
  779MPD2     C11488   0.420   2.795  13.675  0.6351 -0.0457 -0.7091
  779MPD2    C111489   0.397   2.806  13.811  1.2018 -0.6363  0.3960
  779MPD2    C211490   0.431   2.923  13.873 -0.0598 -0.2451  0.4597
  779MPD2    C311491   0.475   3.036  13.810  0.4216 -0.5581  0.4227
  779MPD2    C411492   0.484   3.021  13.673 -0.4644 -0.2725 -0.1060
  779MPD2    C511493   0.463   2.907  13.605  0.7335  0.0404 -0.0450
  779MPD2     H11494   0.406   2.931  13.978  0.5645 -3.2280  0.8265
  779MPD2    H111495   0.496   3.108  13.609 -1.4392 -0.7586 -0.9447
  779MPD2    H211496   0.387   2.705  13.625  1.4399 -1.2736  0.9595
  779MPD2    H311497   0.482   2.906  13.499 -0.0925 -0.7737 -0.1875
  779MPD2     N11498   0.502   3.157  13.874 -0.1313  0.5770 -0.3633
  779MPD2    H511499   0.536   3.157  13.970 -0.7308 -1.1332 -0.1513
  779MPD2    N111500   0.341   2.696  13.893 -0.4164 -0.0042 -0.2191
  779MPD2    H711501   0.352   2.701  13.993  0.6875 -0.8506 -0.3032
  780MPD2     C11502   3.839   3.174   0.591  0.3058  0.5497  0.1562
  780MPD2    C111503   3.971   3.126   0.618  0.0062  0.0357 -0.0543
  780MPD2    C211504   4.047   3.081   0.511 -0.1048 -0.6483  0.3195
  780MPD2    C311505   3.993   3.086   0.388  0.2348 -0.0613  0.2702
  780MPD2    C411506   3.867   3.144   0.365  0.2427  0.1033 -0.6039
  780MPD2    C511507   3.794   3.197   0.465  0.3122  0.4396  0.1902
  780MPD2     H11508   4.143   3.036   0.533  0.3208 -0.9730 -2.2157
  780MPD2    H111509   3.828   3.146   0.264  1.8662 -2.0565 -1.2933
  780MPD2    H211510   3.780   3.210   0.674 -0.3649  1.6033 -0.7739
  780MPD2    H311511   3.702   3.251   0.444 -0.0349 -0.0343  0.4906
  780MPD2     N11512   4.066   3.031   0.284  0.2304  0.4825 -0.1061
  780MPD2    H511513   4.163   3.009   0.302 -0.5149 -0.1891  3.1214
  780MPD2    N111514   4.025   3.129   0.744 -0.2383 -0.1103 -0.2174
  780MPD2    H711515   3.961   3.144   0.821 -2.5832 -0.1556 -2.1500
  781MPD2     C11516   1.865   4.477  11.707  0.7401 -0.3337 -0.6149
  781MPD2    C111517   1.944   4.405  11.790  0.3177  0.6333 -0.2708
  781MPD2    C211518   2.043   4.328  11.729 -0.0184  0.0613  0.1956
  781MPD2    C311519   2.048   4.311  11.591 -0.6702  0.6909  0.3401
  781MPD2    C411520   1.962   4.388  11.514 -0.5762  0.4895  0.1760
  781MPD2    C511521   1.877   4.475  11.574  0.8772  0.0338  0.2452
  781MPD2     H11522   2.104   4.266  11.793 -2.0090 -1.0593  1.0192
  781MPD2    H111523   1.952   4.387  11.406 -0.4829  1.6276  0.1477
  781MPD2    H211524   1.794   4.555  11.732 -0.1915 -1.1216 -0.8143
  781MPD2    H311525   1.805   4.527  11.511  1.8717  0.8100 -0.2493
  781MPD2     N11526   2.143   4.229  11.528  0.2284 -0.2665 -0.3865
  781MPD2    H511527   2.134   4.239  11.427  0.4348  1.6970 -0.2190
  781MPD2    N111528   1.928   4.403  11.932 -0.7011  0.6707 -0.3195
  781MPD2    H711529   1.985   4.344  11.993 -1.2932  1.1295  0.6739
  782MPD2     C11530   4.166   1.220  10.651  0.4142 -0.2406  0.0148
  782MPD2    C111531   4.299   1.206  10.625  0.3408 -0.1930 -0.8190
  782MPD2    C211532   4.380   1.163  10.726 -0.5085  0.0215 -0.4173
  782MPD2    C311533   4.329   1.133  10.855 -0.0475  0.2149 -0.0622
  782MPD2    C411534   4.198   1.151  10.878  0.1241 -0.6073 -0.7989
  782MPD2    C511535   4.118   1.195  10.779  0.1029  0.1158 -0.2480
  782MPD2     H11536   4.482   1.129  10.712 -0.0941  1.3434 -0.6008
  782MPD2    H111537   4.148   1.143  10.974  1.9715 -0.8470  0.1382
  782MPD2    H211538   4.101   1.268  10.578  0.9569  0.5525  0.0465
  782MPD2    H311539   4.014   1.208  10.806  0.5276  2.2059  0.4580
  782MPD2     N11540   4.430   1.096  10.944  0.3336  0.2801  0.1071
  782MPD2    H511541   4.513   1.052  10.905  0.2261  2.1080 -2.1680
  782MPD2    N111542   4.343   1.203  10.489 -0.0930 -0.2062  0.4732
  782MPD2    H711543   4.271   1.229  10.423  1.4815  0.6199 -0.9187
  783MPD2     C11544   3.908   0.538  10.315 -0.2395  0.7065  0.3206
  783MPD2    C111545   3.946   0.620  10.422 -0.4746 -0.0230  0.7898
  783MPD2    C211546   4.022   0.727  10.397  0.8534 -0.0121 -0.0002
  783MPD2    C311547   4.082   0.748  10.276 -0.5905  0.2281 -0.1420
  783MPD2    C411548   4.033   0.673  10.165  0.0522 -0.2244 -0.5687
  783MPD2    C511549   3.955   0.569  10.187 -0.1528  0.8162 -0.6177
  783MPD2     H11550   4.045   0.795  10.478  1.1307 -1.6737  1.3091
  783MPD2    H111551   4.058   0.706  10.065 -0.9653  0.5098 -0.5781
  783MPD2    H211552   3.832   0.461  10.324 -0.0817  0.7269  1.8875
  783MPD2    H311553   3.915   0.508  10.106  0.8646 -0.7460  0.0472
  783MPD2     N11554   4.194   0.838  10.264 -0.2350 -0.2959  0.5852
  783MPD2    H511555   4.218   0.878  10.355  2.7575 -0.1739 -0.2487
  783MPD2    N111556   3.900   0.584  10.551 -0.1740 -0.1118 -0.3562
  783MPD2    H711557   3.874   0.486  10.560 -0.1490 -0.1079 -0.2373
  784MPD2     C11558   2.250   0.879   0.450  1.4102 -0.0517 -0.0593
  784MPD2    C111559   2.277   0.988   0.534 -0.0054 -1.0128 -0.0001
  784MPD2    C211560   2.193   1.090   0.547 -1.1049  0.6326  0.5519
  784MPD2    C311561   2.075   1.102   0.479 -0.0693 -0.1372  0.3784
  784MPD2    C411562   2.032   0.994   0.400  0.9345  0.4311  0.1829
  784MPD2    C511563   2.128   0.892   0.381  1.0370  0.4722 -1.1167
  784MPD2     H11564   2.226   1.170   0.612 -0.3101 -1.0828  2.2762
  784MPD2    H111565   1.937   0.979   0.349  1.3282  0.8926 -0.6866
  784MPD2    H211566   2.310   0.794   0.420  3.0371  0.8470  0.6475
  784MPD2    H311567   2.099   0.805   0.324 -0.4425 -1.1249  2.0320
  784MPD2     N11568   2.002   1.217   0.490 -0.1744 -0.0435 -0.8295
  784MPD2    H511569   2.036   1.289   0.552  0.8394  0.0165 -1.4577
  784MPD2    N111570   2.398   0.996   0.604 -0.1432  0.9160 -0.0486
  784MPD2    H711571   2.408   1.078   0.664 -0.5070  0.0593  1.1702
  785MPD2     C11572   2.322   4.195  10.083 -0.1936  0.6206 -0.3408
  785MPD2    C111573   2.238   4.221  10.190 -0.3107  0.5385 -0.3841
  785MPD2    C211574   2.119   4.150  10.206  0.2248 -0.1778  0.4446
  785MPD2    C311575   2.065   4.065  10.109 -0.0873 -0.5183  1.0107
  785MPD2    C411576   2.150   4.050  10.002 -0.3960 -0.2593 -0.2497
  785MPD2    C511577   2.278   4.109   9.990  0.4114  0.5165 -0.0395
  785MPD2     H11578   2.059   4.161  10.296 -0.8479  2.9663 -0.6288
  785MPD2    H111579   2.117   3.995   9.914 -0.5380  0.5767 -0.7202
  785MPD2    H211580   2.409   4.259  10.083 -0.6732  1.2684 -0.8445
  785MPD2    H311581   2.341   4.110   9.902 -0.5204 -0.6834 -0.7318
  785MPD2     N11582   1.939   4.000  10.133  1.0248  0.1783  0.1047
  785MPD2    H511583   1.883   4.029  10.212  1.9034  1.7334  0.1545
  785MPD2    N111584   2.281   4.319  10.274  0.3316  0.0994 -0.7753
  785MPD2    H711585   2.368   4.367  10.255  0.6775  0.7576  2.4223
  786MPD2     C11586   0.647   2.046  14.604  0.1076  0.3475  0.5267
  786MPD2    C111587   0.735   2.028  14.501 -0.6091 -0.0711 -0.4406
  786MPD2    C211588   0.875   2.026  14.529  0.4378 -0.8682 -0.2341
  786MPD2    C311589   0.920   2.039  14.659 -0.4670 -0.2736  1.0260
  786MPD2    C411590   0.825   2.062  14.759  0.1736 -0.6181 -0.0889
  786MPD2    C511591   0.692   2.069  14.732 -0.2304 -0.4274  0.1417
  786MPD2     H11592   0.941   2.008  14.445  2.0196 -2.9496  1.4648
  786MPD2    H111593   0.858   2.074  14.862  0.5759 -2.5557  0.0030
  786MPD2    H211594   0.541   2.024  14.601  0.2195 -0.2407  0.9101
  786MPD2    H311595   0.619   2.069  14.812  0.6020 -1.3480  0.8916
  786MPD2     N11596   1.054   2.053  14.701 -0.2285  0.6162  0.2039
  786MPD2    H511597   1.072   2.057  14.801  0.7584 -2.5034  0.1260
  786MPD2    N111598   0.695   1.994  14.369  0.5772  0.1086 -0.0952
  786MPD2    H711599   0.767   1.951  14.313  0.1955 -0.5543 -0.0688
  787MPD2     C11600   1.223   1.935  13.999 -0.1156 -0.3813 -0.7995
  787MPD2    C111601   1.138   1.849  14.069  0.5311  0.0566 -0.3116
  787MPD2    C211602   1.196   1.765  14.163 -0.1052 -0.3423 -0.2787
  787MPD2    C311603   1.328   1.769  14.202 -0.8524  0.1575 -0.2280
  787MPD2    C411604   1.405   1.865  14.140  0.0671  0.0022 -0.2251
  787MPD2    C511605   1.355   1.942  14.036 -0.7549  0.1222 -0.0157
  787MPD2     H11606   1.134   1.681  14.191 -1.2231  1.1008  1.5704
  787MPD2    H111607   1.509   1.884  14.163 -0.3968  2.3754 -0.0805
  787MPD2    H211608   1.197   1.995  13.913 -2.8528  0.4811  0.6563
  787MPD2    H311609   1.420   2.011  13.983  0.5682 -0.2297  1.1629
  787MPD2     N11610   1.372   1.663  14.285 -0.1402 -0.0692 -0.0864
  787MPD2    H511611   1.331   1.572  14.267 -1.6468  0.5818  0.0293
  787MPD2    N111612   1.004   1.845  14.045  0.4194  0.1897 -0.2873
  787MPD2    H711613   0.969   1.905  13.971 -1.0385  0.4015  0.5706
  788MPD2     C11614   2.951   4.594   0.375 -0.1877  0.7717  0.3642
  788MPD2    C111615   2.961   4.512   0.265  0.8137 -0.0957 -0.1276
  788MPD2    C211616   2.960   4.570   0.134  0.0880 -0.3242 -0.2412
  788MPD2    C311617   2.956   4.711   0.120  0.9178 -0.1189  0.3600
  788MPD2    C411618   2.974   0.056   0.236  0.5918 -0.1595 -0.1262
  788MPD2    C511619   2.969   0.002   0.362  0.1572  0.0155 -0.2035
  788MPD2     H11620   2.961   4.504   0.048  0.4117  0.4284 -0.8113
  788MPD2    H111621   2.976   0.164   0.236 -2.4252 -0.1200 -2.7367
  788MPD2    H211622   2.932   4.557   0.475 -0.7650  2.5514  0.8968
  788MPD2    H311623   2.970   0.065   0.451 -0.9987  0.4377 -0.4851
  788MPD2     N11624   2.934   0.053  17.691  0.0504  0.0762  0.5696
  788MPD2    H511625   2.892   0.146  17.689  0.4240  0.2672  1.6911
  788MPD2    N111626   2.949   4.382   0.285  0.3063 -0.3595  0.8391
  788MPD2    H711627   2.916   4.360   0.379  1.1836 -3.4048  0.4468
  789MPD2     C11628   2.589   0.027  15.736  0.5033  0.4588 -1.1123
  789MPD2    C111629   2.583   4.671  15.853 -0.3126 -0.3196 -0.6149
  789MPD2    C211630   2.469   4.682  15.933  0.1918 -0.5693 -0.1212
  789MPD2    C311631   2.371   0.050  15.905  0.0627  0.1415 -0.0840
  789MPD2    C411632   2.378   0.123  15.792 -0.7268 -0.7326  0.4063
  789MPD2    C511633   2.481   0.107  15.708 -0.3606 -0.1732 -0.2575
  789MPD2     H11634   2.464   4.625  16.025 -2.3253 -0.9320 -0.4851
  789MPD2    H111635   2.302   0.198  15.771 -0.3361 -0.9760 -1.9324
  789MPD2    H211636   2.664   0.014  15.659  1.3371  0.0428 -0.2274
  789MPD2    H311637   2.481   0.177  15.625 -0.0200  0.4245  0.2407
  789MPD2     N11638   2.272   0.081  15.996 -0.2683 -0.0438 -0.1281
  789MPD2    H511639   2.235   0.174  15.979 -0.3978  0.0010  0.3901
  789MPD2    N111640   2.688   4.585  15.887  0.4102  0.0705 -0.4518
  789MPD2    H711641   2.668   4.515  15.958 -2.0691  0.1487 -1.0694
  790MPD2     C11642   3.585   1.672  13.822  0.4890  0.4203 -0.3325
  790MPD2    C111643   3.666   1.567  13.778  0.0232 -0.1082 -0.1925
  790MPD2    C211644   3.697   1.566  13.639  0.6927 -0.1550  1.1972
  790MPD2    C311645   3.632   1.653  13.558  0.3771 -0.3697  0.5757
  790MPD2    C411646   3.544   1.745  13.609 -0.0581  0.8459 -0.2031
  790MPD2    C511647   3.516   1.755  13.735  0.2819  0.7657 -0.4841
  790MPD2     H11648   3.765   1.490  13.603  0.9583  1.3789 -1.5053
  790MPD2    H111649   3.479   1.805  13.545 -0.1499  1.2744  0.2956
  790MPD2    H211650   3.568   1.684  13.928  1.4687  0.4143 -0.1721
  790MPD2    H311651   3.450   1.830  13.777 -0.3193 -1.3219  2.3140
  790MPD2     N11652   3.663   1.649  13.418 -0.2152 -0.6309 -0.5191
  790MPD2    H511653   3.735   1.584  13.388 -0.4883  0.2689 -3.1263
  790MPD2    N111654   3.730   1.483  13.874 -0.1457 -0.3858 -0.3231
  790MPD2    H711655   3.699   1.503  13.968  1.1910 -2.7319  0.6121
  791MPD2     C11656   3.223   1.487  12.874 -0.0494 -0.4760  0.4797
  791MPD2    C111657   3.356   1.469  12.849 -0.5027 -0.0661 -0.5847
  791MPD2    C211658   3.391   1.347  12.787  0.2600  0.7988  0.4963
  791MPD2    C311659   3.300   1.247  12.755  0.6932 -0.1909  0.3138
  791MPD2    C411660   3.171   1.270  12.783 -0.4073 -0.0708 -0.2821
  791MPD2    C511661   3.138   1.389  12.845  0.3509  0.0355 -0.1406
  791MPD2     H11662   3.495   1.326  12.767 -0.0961  1.5871 -2.2215
  791MPD2    H111663   3.096   1.192  12.775 -2.0475  1.4279  0.4460
  791MPD2    H211664   3.183   1.569  12.933  1.0188  0.3622  0.0590
  791MPD2    H311665   3.034   1.399  12.873  0.2775  1.4201 -0.8795
  791MPD2     N11666   3.342   1.132  12.696 -0.7513 -0.2697  0.0965
  791MPD2    H511667   3.443   1.119  12.688 -1.2277 -3.3797 -1.1000
  791MPD2    N111668   3.444   1.568  12.890 -0.3428 -0.0782  0.1343
  791MPD2    H711669   3.413   1.647  12.945 -0.5389 -1.1491  1.5709
  792MPD2     C11670   4.093   1.627  11.550 -0.7430 -0.4481 -0.1302
  792MPD2    C111671   4.043   1.669  11.424  0.4365 -0.9353  0.6026
  792MPD2    C211672   3.910   1.693  11.400  0.2127  0.1990 -0.3846
  792MPD2    C311673   3.819   1.653  11.495  0.2939  0.2135 -0.4523
  792MPD2    C411674   3.867   1.610  11.620  0.2651  0.9201 -0.4820
  792MPD2    C511675   4.000   1.595  11.647  0.2565 -0.8008  0.4095
  792MPD2     H11676   3.874   1.716  11.300 -0.4900  0.0600 -0.1664
  792MPD2    H111677   3.802   1.579  11.701 -2.4005  2.4725 -2.0306
  792MPD2    H211678   4.199   1.618  11.569 -0.1847  2.4597 -1.8290
  792MPD2    H311679   4.026   1.568  11.749  1.2677 -1.5546 -0.0530
  792MPD2     N11680   3.680   1.656  11.480  0.4276 -0.2713  0.3490
  792MPD2    H511681   3.630   1.608  11.554  0.1983  2.0806  1.6849
  792MPD2    N111682   4.147   1.687  11.322 -0.1382  0.4497  0.0497
  792MPD2    H711683   4.244   1.688  11.354 -0.1073  0.1246 -0.0325
  793MPD2     C11684   3.334   1.675  10.575  0.2994  0.3248  0.1677
  793MPD2    C111685   3.456   1.671  10.645  0.2154 -0.0483 -0.0546
  793MPD2    C211686   3.460   1.655  10.782 -0.3479 -0.3154  0.3466
  793MPD2    C311687   3.338   1.653  10.852 -0.2951  0.9158 -0.3322
  793MPD2    C411688   3.227   1.668  10.789 -0.8976  0.2421  0.2926
  793MPD2    C511689   3.216   1.674  10.654 -0.5694  0.1448  0.1207
  793MPD2     H11690   3.557   1.660  10.831 -0.2685  0.1150  0.1428
  793MPD2    H111691   3.132   1.673  10.840 -0.9765  2.5470 -0.0523
  793MPD2    H211692   3.321   1.695  10.470 -1.6186 -0.8899  0.1713
  793MPD2    H311693   3.120   1.693  10.609 -1.1013  2.0035  2.0072
  793MPD2     N11694   3.351   1.645  10.995 -0.6331 -0.3757  0.0377
  793MPD2    H511695   3.442   1.626  11.036 -0.9386 -4.2085 -1.0869
  793MPD2    N111696   3.577   1.695  10.577 -0.1085  0.0422  0.1592
  793MPD2    H711697   3.665   1.670  10.621  0.5837  1.1274 -0.5892
  794MPD2     C11698   3.148   0.466  16.349  0.0527 -0.2277  0.0828
  794MPD2    C111699   3.206   0.570  16.419 -1.2730 -0.1488  0.2249
  794MPD2    C211700   3.214   0.692  16.351  0.1663 -0.0059 -0.0711
  794MPD2    C311701   3.137   0.713  16.232  0.0233  0.1753  0.9446
  794MPD2    C411702   3.063   0.612  16.184  0.3175 -0.1724  0.4879
  794MPD2    C511703   3.074   0.486  16.236  0.4375 -0.1612 -0.0096
  794MPD2     H11704   3.267   0.774  16.399  0.9200 -0.6581  0.2269
  794MPD2    H111705   2.987   0.628  16.108  0.9851  1.9268  0.2768
  794MPD2    H211706   3.158   0.362  16.379 -0.4979  0.3148  2.0962
  794MPD2    H311707   3.038   0.400  16.181 -1.0782 -1.4194  2.9503
  794MPD2     N11708   3.104   0.845  16.181  0.2340  0.2334 -0.5042
  794MPD2    H511709   3.056   0.857  16.093 -2.5159 -0.3100  0.9266
  794MPD2    N111710   3.282   0.555  16.536 -0.6013 -0.2026  0.3524
  794MPD2    H711711   3.342   0.626  16.576  0.6011 -2.2395  2.2321
  795MPD2     C11712   1.464   3.110  12.576  0.1872  0.0378  0.1186
  795MPD2    C111713   1.460   3.052  12.696  0.4166 -0.3376 -0.6461
  795MPD2    C211714   1.571   2.999  12.761 -0.3709 -0.5452  0.2190
  795MPD2    C311715   1.688   3.003  12.693  0.2337  0.2012  0.2712
  795MPD2    C411716   1.696   3.052  12.568 -0.2405 -0.2042  0.4899
  795MPD2    C511717   1.587   3.114  12.511 -0.0408 -0.8303 -0.4419
  795MPD2     H11718   1.561   2.964  12.862  1.9040 -0.5608  0.4311
  795MPD2    H111719   1.792   3.047  12.519 -0.1567 -0.2886  0.6638
  795MPD2    H211720   1.380   3.157  12.526 -0.6724  0.2275  1.7560
  795MPD2    H311721   1.599   3.166  12.416  1.2955 -1.9176 -0.8748
  795MPD2     N11722   1.803   2.942  12.760  0.0940 -0.7293  0.4119
  795MPD2    H511723   1.795   2.900  12.852 -0.3072  1.8370  1.5498
  795MPD2    N111724   1.340   3.059  12.775  0.0538 -0.0981 -0.0776
  795MPD2    H711725   1.345   3.032  12.873  0.8901 -0.0544 -0.1063
  796MPD2     C11726   0.957   4.480  15.911 -0.0028  0.4910  0.1848
  796MPD2    C111727   1.014   4.513  16.031  0.5538 -0.5520  0.1507
  796MPD2    C211728   1.065   4.641  16.058  0.2872 -0.6492  0.4635
  796MPD2    C311729   1.046   0.016  15.967  0.4645  0.6754  0.7239
  796MPD2    C411730   0.985   4.713  15.843  0.2953 -0.5035  0.1181
  796MPD2    C511731   0.950   4.583  15.820  0.7043  0.3209  0.0888
  796MPD2     H11732   1.110   4.658  16.154  1.0747 -0.3525  0.0390
  796MPD2    H111733   0.979   0.061  15.761 -0.2508  0.9443  1.3882
  796MPD2    H211734   0.918   4.382  15.889  1.2399 -0.1731  0.9165
  796MPD2    H311735   0.910   4.561  15.721 -0.8744  1.9043  0.3900
  796MPD2     N11736   1.082   0.148  16.007  1.4244  0.3235 -0.3862
  796MPD2    H511737   1.111   0.152  16.104 -1.2904 -3.0773  0.5763
  796MPD2    N111738   1.023   4.402  16.119  0.1979  0.0627 -0.2775
  796MPD2    H711739   0.950   4.331  16.117  2.5313 -2.2991 -0.7676
  797MPD2     C11740   1.997   3.408  16.896 -0.3879 -0.4711  0.2119
  797MPD2    C111741   2.069   3.481  16.992  0.2394 -0.0930  0.0555
  797MPD2    C211742   1.996   3.559  17.080 -0.6037 -0.8416  0.5501
  797MPD2    C311743   1.857   3.562  17.075 -0.3882 -0.4162 -0.4777
  797MPD2    C411744   1.783   3.478  16.990  0.1164  0.4125  0.8658
  797MPD2    C511745   1.861   3.407  16.908 -0.6401  0.3344  0.7923
  797MPD2     H11746   2.050   3.632  17.140 -3.4429  0.7648  1.1687
  797MPD2    H111747   1.676   3.483  16.971  0.4775 -2.3570 -1.8374
  797MPD2    H211748   2.041   3.341  16.824  0.0293  0.6364 -0.5665
  797MPD2    H311749   1.812   3.346  16.833 -0.4241  0.8124  0.2538
  797MPD2     N11750   1.804   3.670  17.152  0.4599  0.4875  0.1185
  797MPD2    H511751   1.871   3.727  17.203 -0.8036  0.1356  2.2006
  797MPD2    N111752   2.206   3.505  16.978  0.9399  0.2047  0.1876
  797MPD2    H711753   2.247   3.573  17.042  1.0479  0.5566 -0.2553
  798MPD2     C11754   2.236   4.214  17.279  0.5809 -0.0893 -0.0014
  798MPD2    C111755   2.170   4.092  17.275  0.4149  0.3067 -0.5868
  798MPD2    C211756   2.237   3.981  17.222  0.2951 -0.1140 -0.1661
  798MPD2    C311757   2.365   3.985  17.174 -0.1182 -0.1040 -0.1197
  798MPD2    C411758   2.437   4.105  17.183  0.2569  0.0284 -0.1760
  798MPD2    C511759   2.368   4.222  17.233  0.1821  0.0231 -0.9253
  798MPD2     H11760   2.178   3.893  17.202 -0.7140  0.4941  0.1750
  798MPD2    H111761   2.538   4.113  17.143 -0.8514  1.4711 -2.6955
  798MPD2    H211762   2.190   4.309  17.305 -4.1064 -1.4635 -3.2898
  798MPD2    H311763   2.414   4.320  17.237  0.1436  0.0992 -2.3198
  798MPD2     N11764   2.409   3.870  17.108  0.1219  0.0437  0.0425
  798MPD2    H511765   2.354   3.786  17.122 -0.9762  0.8523  0.5607
  798MPD2    N111766   2.036   4.077  17.310  0.3190 -0.0738  0.1220
  798MPD2    H711767   1.975   4.158  17.310  0.7142  0.2263  0.7276
  799MPD2     C11768   1.145   1.288  14.743 -0.2968  0.3518  0.5509
  799MPD2    C111769   1.070   1.180  14.686  0.3872 -0.6468 -0.3705
  799MPD2    C211770   0.971   1.217  14.595 -0.7411  0.9549 -0.3047
  799MPD2    C311771   0.952   1.347  14.557  0.5530  0.7411  0.0380
  799MPD2    C411772   1.026   1.448  14.608 -0.7682  0.0271 -0.4132
  799MPD2    C511773   1.122   1.415  14.700  0.4693  0.5246 -0.0517
  799MPD2     H11774   0.915   1.138  14.545 -0.3767 -0.7063  1.8887
  799MPD2    H111775   1.019   1.553  14.582  2.0230 -0.3468 -2.7775
  799MPD2    H211776   1.223   1.277  14.818  1.0786 -2.5109 -1.3181
  799MPD2    H311777   1.175   1.500  14.743  1.9468  0.3096 -1.4610
  799MPD2     N11778   0.850   1.382  14.461  0.3499 -0.8305 -0.8584
  799MPD2    H511779   0.848   1.476  14.423  1.9597 -1.1514 -1.7318
  799MPD2    N111780   1.083   1.037  14.704  0.3159  0.4970 -0.5175
  799MPD2    H711781   1.031   0.976  14.642  0.4466  0.9011 -1.0253
  800MPD2     C11782   1.378   2.448  13.903 -0.3841 -0.2083  0.2183
  800MPD2    C111783   1.493   2.477  13.837 -0.2437  0.2211  0.0384
  800MPD2    C211784   1.525   2.395  13.728  0.6375 -0.0852  0.8022
  800MPD2    C311785   1.438   2.290  13.689  0.3085  0.0021  0.3653
  800MPD2    C411786   1.322   2.268  13.754  0.0682  0.4056  0.2352
  800MPD2    C511787   1.292   2.351  13.858  0.8142 -0.3381 -0.2752
  800MPD2     H11788   1.613   2.413  13.667 -0.4666  1.5674 -0.3307
  800MPD2    H111789   1.253   2.188  13.729 -1.5053  1.9472 -0.3084
  800MPD2    H211790   1.351   2.495  13.996 -3.2528 -2.4538  0.5487
  800MPD2    H311791   1.198   2.328  13.907  1.2009 -0.9605  0.1838
  800MPD2     N11792   1.475   2.201  13.583 -0.0624  0.5151  0.0507
  800MPD2    H511793   1.570   2.219  13.551 -0.4899  0.1835 -1.4223
  800MPD2    N111794   1.582   2.565  13.900  0.6273 -0.2699 -0.0339
  800MPD2    H711795   1.552   2.619  13.981 -2.8619 -2.1209 -0.1061
  801MPD2     C11796   1.573   3.086  14.401 -0.3116  0.1636  0.1999
  801MPD2    C111797   1.544   2.964  14.334  0.1136 -0.2328  0.1456
  801MPD2    C211798   1.433   2.898  14.364  0.3082  0.2214 -0.2322
  801MPD2    C311799   1.367   2.923  14.483 -0.3103 -0.6005  0.0081
  801MPD2    C411800   1.401   3.031  14.558 -0.0100  0.0797  0.2260
  801MPD2    C511801   1.501   3.112  14.512 -0.9870 -0.2608  0.1819
  801MPD2     H11802   1.412   2.814  14.298  1.9268  0.0103 -0.4764
  801MPD2    H111803   1.356   3.064  14.652 -0.0596 -2.4366  1.0820
  801MPD2    H211804   1.652   3.151  14.365 -1.0031  1.5205  1.1279
  801MPD2    H311805   1.537   3.199  14.565 -0.1765 -0.0857 -0.6534
  801MPD2     N11806   1.247   2.850  14.517  0.4437 -0.0701 -0.0498
  801MPD2    H511807   1.204   2.881  14.603 -1.1196 -1.9671 -0.1679
  801MPD2    N111808   1.613   2.915  14.223 -0.1261 -0.5780 -0.6711
  801MPD2    H711809   1.573   2.829  14.187 -2.2037  0.5778 -1.1596
  802MPD2     C11810   0.689   2.267  17.475 -0.3055  0.3484  0.0750
  802MPD2    C111811   0.715   2.396  17.447 -0.1115  1.0699 -0.2216
  802MPD2    C211812   0.762   2.442  17.324 -0.1399  0.2375 -0.7481
  802MPD2    C311813   0.781   2.344  17.226  0.1328  0.4123 -0.0450
  802MPD2    C411814   0.737   2.214  17.245  0.0886  0.0799 -0.4175
  802MPD2    C511815   0.700   2.177  17.372  0.2827 -0.8783 -0.0295
  802MPD2     H11816   0.782   2.547  17.309  1.0271  0.0494 -0.4987
  802MPD2    H111817   0.743   2.143  17.163 -1.4577 -0.3691 -0.1313
  802MPD2    H211818   0.697   2.231  17.577  0.4011 -1.0820 -0.4892
  802MPD2    H311819   0.676   2.077  17.407 -1.6453 -0.5642 -0.4722
  802MPD2     N11820   0.837   2.381  17.100 -0.1512 -0.1055 -0.6121
  802MPD2    H511821   0.854   2.310  17.029  0.1110 -1.1993  0.5417
  802MPD2    N111822   0.704   2.496  17.546 -0.1039  0.4273 -0.1230
  802MPD2    H711823   0.749   2.582  17.519 -1.0073  1.0394  0.3109
  803MPD2     C11824   2.663   1.488  11.929  0.6139  0.0930  0.1950
  803MPD2    C111825   2.688   1.447  12.064  0.3386  0.8583 -0.6132
  803MPD2    C211826   2.628   1.329  12.103  0.6410 -0.1013  0.0296
  803MPD2    C311827   2.558   1.241  12.014  0.3374  0.6244  0.2729
  803MPD2    C411828   2.541   1.279  11.885  0.5212  0.0971  0.5729
  803MPD2    C511829   2.582   1.407  11.853 -0.5496 -0.1473  0.4841
  803MPD2     H11830   2.613   1.300  12.206  0.0675 -0.6601 -0.2097
  803MPD2    H111831   2.491   1.218  11.811  2.2988  1.5581 -1.8185
  803MPD2    H211832   2.720   1.571  11.890  1.5022 -1.5990 -2.1618
  803MPD2    H311833   2.575   1.432  11.747  0.5323  2.4410  1.0173
  803MPD2     N11834   2.503   1.115  12.046 -0.2955  0.3357 -0.0017
  803MPD2    H511835   2.435   1.071  11.985  0.3113 -0.2286 -0.2709
  803MPD2    N111836   2.759   1.520  12.158 -0.1767 -0.1985  0.3090
  803MPD2    H711837   2.778   1.476  12.248 -1.0075  0.7701  0.9496
  804MPD2     C11838   1.311   2.662  16.632  0.0839  0.6554 -0.4611
  804MPD2    C111839   1.345   2.612  16.755  0.1939 -0.4444 -0.2058
  804MPD2    C211840   1.427   2.690  16.826  0.2764 -0.8508 -0.2761
  804MPD2    C311841   1.462   2.817  16.793  0.3393 -0.0172  0.2449
  804MPD2    C411842   1.420   2.873  16.672 -0.4152  0.4227 -0.3445
  804MPD2    C511843   1.356   2.789  16.588 -1.0206  0.3270  0.3300
  804MPD2     H11844   1.458   2.637  16.915 -0.8685  1.0921  1.2697
  804MPD2    H111845   1.438   2.977  16.650  2.8454 -0.0532  0.0361
  804MPD2    H211846   1.245   2.608  16.565  0.8085 -2.6710  1.5238
  804MPD2    H311847   1.327   2.834  16.494 -0.8909  0.5815  0.4112
  804MPD2     N11848   1.536   2.899  16.882 -0.5680  0.5900  0.3839
  804MPD2    H511849   1.563   2.987  16.840 -0.0296  0.3395  0.2140
  804MPD2    N111850   1.310   2.488  16.809 -0.2362 -0.5881 -0.6495
  804MPD2    H711851   1.341   2.463  16.902  1.0349  3.3889  0.0143
  805MPD2     C11852   0.754   1.432  15.524  0.0755 -0.1428 -0.1099
  805MPD2    C111853   0.847   1.435  15.425 -0.2066  0.1940  0.4767
  805MPD2    C211854   0.976   1.421  15.460  0.2505  0.1466 -0.1509
  805MPD2    C311855   1.015   1.409  15.592  0.0352 -0.1460  0.7175
  805MPD2    C411856   0.919   1.416  15.692  0.1605 -0.2504  0.4016
  805MPD2    C511857   0.790   1.416  15.653 -0.0673  0.2728  0.6110
  805MPD2     H11858   1.052   1.424  15.382 -0.7455 -0.0638 -1.1321
  805MPD2    H111859   0.929   1.413  15.800  1.1357 -0.9959  0.2816
  805MPD2    H211860   0.647   1.429  15.506  0.2955  0.0944 -1.4874
  805MPD2    H311861   0.717   1.435  15.731 -1.7277 -1.1286 -0.6288
  805MPD2     N11862   1.156   1.411  15.611 -0.3190 -0.2877  0.6749
  805MPD2    H511863   1.219   1.415  15.531 -1.2630 -0.0399 -0.0529
  805MPD2    N111864   0.819   1.445  15.289  0.7593 -0.5388  0.9626
  805MPD2    H711865   0.900   1.455  15.228 -0.4862 -0.3119 -0.6472
  806MPD2     C11866   1.643   0.705   0.421  0.4011  0.1590 -0.5565
  806MPD2    C111867   1.654   0.824   0.478  0.0414 -0.1343  0.2374
  806MPD2    C211868   1.568   0.927   0.438 -0.6413  0.2081  0.0802
  806MPD2    C311869   1.474   0.913   0.337  0.0547 -0.3002 -0.1056
  806MPD2    C411870   1.470   0.788   0.281  0.6858  0.5546  0.6015
  806MPD2    C511871   1.553   0.685   0.317  0.0454 -0.0406  0.4828
  806MPD2     H11872   1.578   1.026   0.481 -0.1509  0.0458  0.3428
  806MPD2    H111873   1.402   0.766   0.200  0.9219  4.3230 -0.6125
  806MPD2    H211874   1.706   0.622   0.450  1.9123  0.9220 -1.7015
  806MPD2    H311875   1.554   0.594   0.256 -0.8118 -0.2861  0.8308
  806MPD2     N11876   1.393   1.024   0.294  0.0812 -0.7194  0.2727
  806MPD2    H511877   1.406   1.112   0.343  1.6409 -1.5528  1.3384
  806MPD2    N111878   1.758   0.834   0.577 -0.4307  0.0163  0.0642
  806MPD2    H711879   1.801   0.745   0.600 -0.3395 -0.0069 -0.2035
  807MPD2     C11880   1.911   1.252   1.303  0.6420 -0.3507 -0.0553
  807MPD2    C111881   1.817   1.175   1.234  0.3472  0.2463  0.4596
  807MPD2    C211882   1.689   1.159   1.284  0.2316 -0.0991 -1.3394
  807MPD2    C311883   1.650   1.225   1.394  0.9263  0.0369 -0.4805
  807MPD2    C411884   1.745   1.306   1.458 -0.1120  0.1880  0.1279
  807MPD2    C511885   1.878   1.311   1.422  0.6790  0.1857  0.1401
  807MPD2     H11886   1.619   1.097   1.230 -0.3679 -0.2017 -0.4285
  807MPD2    H111887   1.718   1.355   1.551 -0.0151 -1.1024  0.8339
  807MPD2    H211888   2.009   1.267   1.260  0.0598 -0.1771 -1.3271
  807MPD2    H311889   1.945   1.368   1.485  0.6987 -1.9171  2.0011
  807MPD2     N11890   1.514   1.205   1.426  0.2924 -0.0488 -0.1043
  807MPD2    H511891   1.473   1.125   1.379 -0.0203 -0.6486  1.1851
  807MPD2    N111892   1.859   1.100   1.123 -0.9755  0.2234 -0.0450
  807MPD2    H711893   1.785   1.042   1.085 -1.6403  0.6633  0.5753
  808MPD2     C11894   1.356   2.475   9.448 -0.0164  0.5047  0.7258
  808MPD2    C111895   1.291   2.525   9.328  0.7135 -0.8828 -0.0438
  808MPD2    C211896   1.318   2.655   9.298  0.3324 -0.4902  0.5797
  808MPD2    C311897   1.403   2.735   9.372 -0.8951  0.0511  0.1051
  808MPD2    C411898   1.462   2.686   9.485 -0.4099 -0.3198 -0.1943
  808MPD2    C511899   1.448   2.553   9.513  1.4872 -0.9249  0.8624
  808MPD2     H11900   1.263   2.697   9.215 -0.0154 -1.4061  0.3374
  808MPD2    H111901   1.520   2.740   9.559 -1.1631  2.0629 -1.3304
  808MPD2    H211902   1.340   2.379   9.496 -0.4860  0.7976  1.1451
  808MPD2    H311903   1.490   2.525   9.609  1.2939  0.4081  1.3385
  808MPD2     N11904   1.447   2.862   9.340 -1.1997 -0.3348 -0.1921
  808MPD2    H511905   1.515   2.903   9.404  0.2344 -2.3592 -0.4235
  808MPD2    N111906   1.213   2.446   9.239  0.3419  0.0931 -0.1640
  808MPD2    H711907   1.168   2.490   9.159 -1.2309  0.4729  0.9190
  809MPD2     C11908   2.170   3.280   8.777 -0.5229 -0.7895 -0.8374
  809MPD2    C111909   2.125   3.158   8.809 -1.3121 -0.5657  0.5251
  809MPD2    C211910   2.002   3.148   8.872  0.0839  0.4874  0.2987
  809MPD2    C311911   1.925   3.259   8.891 -0.3977 -0.2146  0.6391
  809MPD2    C411912   1.974   3.387   8.861 -0.1632  0.2977 -0.4010
  809MPD2    C511913   2.092   3.393   8.800 -0.1051  0.4341 -0.3219
  809MPD2     H11914   1.967   3.051   8.904  3.6312 -0.0948  2.3592
  809MPD2    H111915   1.906   3.471   8.870  0.4326  0.9791 -2.3193
  809MPD2    H211916   2.271   3.297   8.743 -0.6055  0.7009 -0.3562
  809MPD2    H311917   2.132   3.491   8.778  0.3444  0.4465  0.5383
  809MPD2     N11918   1.798   3.260   8.947 -0.2615  0.0041 -0.3365
  809MPD2    H511919   1.755   3.349   8.967 -0.7703 -0.2929 -0.0975
  809MPD2    N111920   2.210   3.048   8.815  0.1406 -0.5178 -0.7814
  809MPD2    H711921   2.195   2.967   8.874  0.2812 -0.6386 -0.9098
  810MPD2     C11922   1.239   1.893   9.924  0.3320  0.3316  0.6418
  810MPD2    C111923   1.196   1.815  10.031  0.0104 -0.1533 -0.1439
  810MPD2    C211924   1.254   1.843  10.149  0.9753 -0.3505 -0.7107
  810MPD2    C311925   1.372   1.915  10.149 -0.1069  0.9383 -0.6305
  810MPD2    C411926   1.420   1.978  10.034  0.3839 -0.6345 -0.7963
  810MPD2    C511927   1.344   1.972   9.922 -0.2491 -0.1552 -0.4078
  810MPD2     H11928   1.218   1.824  10.250  0.0388 -1.6402 -1.2871
  810MPD2    H111929   1.503   2.048  10.036  0.9542 -1.3714  1.2938
  810MPD2    H211930   1.175   1.893   9.836  2.3368 -1.3943 -0.7871
  810MPD2    H311931   1.358   2.041   9.839  0.5961 -1.5710 -1.4372
  810MPD2     N11932   1.451   1.903  10.262  0.0662  0.4690 -0.3920
  810MPD2    H511933   1.415   1.845  10.338  0.5210 -0.2632 -0.7328
  810MPD2    N111934   1.075   1.737  10.038  0.1851 -0.4706 -1.0558
  810MPD2    H711935   1.024   1.733   9.951 -0.2615  0.1412 -0.8284
  811MPD2     C11936   0.302   1.527   9.859  0.1802 -0.3695  0.6234
  811MPD2    C111937   0.427   1.587   9.864  0.6805 -0.1526  0.2204
  811MPD2    C211938   0.436   1.725   9.852  0.2825 -0.2279 -0.8677
  811MPD2    C311939   0.330   1.808   9.830  0.1867  0.6436 -0.2493
  811MPD2    C411940   0.208   1.746   9.808  0.0248 -0.4540  0.0353
  811MPD2    C511941   0.192   1.612   9.829  0.2318 -0.5393 -0.1806
  811MPD2     H11942   0.536   1.767   9.853 -0.3307  1.2508 -0.7886
  811MPD2    H111943   0.116   1.803   9.799 -0.2680 -0.9090  0.1807
  811MPD2    H211944   0.291   1.419   9.864 -0.3976 -0.3247  0.3409
  811MPD2    H311945   0.091   1.574   9.822 -0.0167 -0.0265  0.6971
  811MPD2     N11946   0.351   1.942   9.824 -0.5570 -0.0608  0.1870
  811MPD2    H511947   0.447   1.977   9.826 -0.2212 -0.8919 -0.8369
  811MPD2    N111948   0.538   1.502   9.888 -0.4000 -0.5983 -0.2951
  811MPD2    H711949   0.517   1.405   9.912  1.7557 -0.4370  2.2179
  812MPD2     C11950   3.978   1.637  12.396 -0.5131  0.4992 -0.3680
  812MPD2    C111951   4.093   1.585  12.343 -0.1070  0.4274  0.2698
  812MPD2    C211952   4.161   1.493  12.425  0.3711  0.5662  0.1177
  812MPD2    C311953   4.112   1.444  12.541 -0.1448 -0.5746 -0.6508
  812MPD2    C411954   3.993   1.497  12.590 -0.0469  0.6078 -0.0957
  812MPD2    C511955   3.925   1.595  12.515 -0.3952 -0.0947  0.6411
  812MPD2     H11956   4.257   1.467  12.383 -0.5197  0.6252 -1.9811
  812MPD2    H111957   3.940   1.472  12.681  2.8942 -0.5043  1.2819
  812MPD2    H211958   3.931   1.716  12.339 -0.0089 -0.2319 -1.7845
  812MPD2    H311959   3.830   1.627  12.556 -0.4234 -0.0532  0.5432
  812MPD2     N11960   4.189   1.348  12.613 -0.1235 -0.1697  0.1863
  812MPD2    H511961   4.273   1.314  12.567 -0.7441 -1.0858 -0.2734
  812MPD2    N111962   4.147   1.645  12.224 -0.7207  0.4083  1.6268
  812MPD2    H711963   4.092   1.721  12.184  1.3242  1.2164  0.3553
  813MPD2     C11964   4.074   3.214  12.412  0.0889 -0.6903  0.2450
  813MPD2    C111965   4.053   3.337  12.466  0.1532 -0.2413  0.3645
  813MPD2    C211966   3.951   3.358  12.554  0.0855  0.3251 -0.2752
  813MPD2    C311967   3.865   3.259  12.595  0.7623  0.0528 -0.3472
  813MPD2    C411968   3.888   3.134  12.544 -0.2239 -0.1303 -0.2514
  813MPD2    C511969   3.993   3.113  12.452  0.1370  0.6162  0.3849
  813MPD2     H11970   3.939   3.453  12.605  1.9069 -1.0605  2.7217
  813MPD2    H111971   3.821   3.053  12.567 -0.7450  0.1543 -0.7713
  813MPD2    H211972   4.156   3.193  12.344 -0.0161 -0.7069  0.1218
  813MPD2    H311973   4.012   3.012  12.417 -0.1790  0.3759  0.8945
  813MPD2     N11974   3.781   3.296  12.699  0.3315 -0.1519  0.6350
  813MPD2    H511975   3.780   3.388  12.743 -1.0316  0.7209 -1.1831
  813MPD2    N111976   4.155   3.439  12.448 -0.6417 -0.5562 -0.2137
  813MPD2    H711977   4.242   3.409  12.405  0.5788  0.8043  1.3316
  814MPD2     C11978   4.362   4.676  12.396 -0.0395 -0.7023 -0.1452
  814MPD2    C111979   4.381   0.047  12.296  1.2119  0.5317 -0.1263
  814MPD2    C211980   4.469   0.152  12.314 -0.4718  0.5116 -0.2466
  814MPD2    C311981   4.551   0.148  12.428 -0.2775  0.0763 -0.3392
  814MPD2    C411982   4.532   0.048  12.528 -0.2367 -0.4813  0.3862
  814MPD2    C511983   4.433   4.682  12.511  0.6632 -0.2791  0.0411
  814MPD2     H11984   4.482   0.219  12.231 -2.9784  0.9248 -0.2809
  814MPD2    H111985   4.591   0.046  12.619  0.5680 -1.4827 -0.1589
  814MPD2    H211986   4.290   4.595  12.391 -2.3570  1.3030  0.4157
  814MPD2    H311987   4.416   4.609  12.589  0.2734 -1.6964 -1.3572
  814MPD2     N11988   4.651   0.242  12.454 -0.3029 -0.6881 -0.9010
  814MPD2    H511989   4.694   0.247  12.546  0.0836  2.0041 -1.2417
  814MPD2    N111990   4.319   0.052  12.171  0.0678 -0.5578  0.5640
  814MPD2    H711991   4.335   0.137  12.118 -1.6110 -0.4855  0.1697
  815MPD2     C11992   0.359   3.565  11.254  0.4739 -0.0900 -0.5474
  815MPD2    C111993   0.328   3.435  11.290 -0.7555 -1.0264  0.1147
  815MPD2    C211994   0.229   3.416  11.383  0.5640  0.3732  0.5141
  815MPD2    C311995   0.157   3.518  11.443  0.1883  0.2104  0.6639
  815MPD2    C411996   0.185   3.646  11.405 -0.1065 -0.3554 -0.4858
  815MPD2    C511997   0.288   3.663  11.314 -0.1596 -0.3611 -0.0175
  815MPD2     H11998   0.211   3.319  11.429  1.3774 -0.0735 -0.1136
  815MPD2    H111999   0.132   3.737  11.433 -1.0934 -0.7791 -0.9779
  815MPD2    H212000   0.442   3.584  11.188  2.9911 -1.1787  2.2811
  815MPD2    H312001   0.320   3.760  11.279 -1.0099 -0.5924 -1.4423
  815MPD2     N12002   0.062   3.476  11.540 -0.0525 -0.1542 -0.5799
  815MPD2    H512003   0.043   3.379  11.562 -2.0634  0.5381  0.7638
  815MPD2    N112004   0.394   3.328  11.225 -0.4137  0.2707  0.6966
  815MPD2    H712005   0.454   3.345  11.145 -0.7218 -2.1286 -0.0683
  816MPD2     C12006   4.227   2.127  17.019  0.1432  0.3139 -0.6429
  816MPD2    C112007   4.302   2.234  16.989 -0.6332 -0.1147  0.1565
  816MPD2    C212008   4.425   2.213  16.933  0.4058 -0.4491  0.4132
  816MPD2    C312009   4.480   2.089  16.919  0.2173 -0.4061 -0.1989
  816MPD2    C412010   4.406   1.976  16.961 -0.3353 -0.4264  0.2599
  816MPD2    C512011   4.276   1.995  16.999 -0.1363  0.1421  0.1491
  816MPD2     H12012   4.487   2.299  16.910  0.1661 -0.1508  0.8970
  816MPD2    H112013   4.437   1.873  16.946 -0.6503 -0.2827 -1.3806
  816MPD2    H212014   4.124   2.136  17.051 -0.5888 -1.4226 -2.5491
  816MPD2    H312015   4.212   1.911  17.022 -0.1084 -0.8011 -3.1474
  816MPD2     N12016   4.608   2.083  16.866 -0.1745 -0.2933  0.3629
  816MPD2    H512017   4.644   2.170  16.829 -2.7868 -0.3094 -2.2440
  816MPD2    N112018   4.241   2.354  17.017  0.5544  0.6187 -0.3879
  816MPD2    H712019   4.142   2.364  17.033  0.1839 -2.0868 -0.8880
  817MPD2     C12020   4.472   4.427   9.681  0.0821  0.0617 -0.1673
  817MPD2    C112021   4.427   4.369   9.561 -0.2678 -0.8031  0.7353
  817MPD2    C212022   4.371   4.445   9.466 -0.1602  0.1404 -0.1618
  817MPD2    C312023   4.364   4.581   9.483  0.1918 -0.4862  0.1080
  817MPD2    C412024   4.415   4.642   9.600  0.3823  0.5104  0.6392
  817MPD2    C512025   4.463   4.564   9.698 -0.0591  0.0759  0.5658
  817MPD2     H12026   4.331   4.400   9.376 -1.1440  1.2397 -0.2787
  817MPD2    H112027   4.407   0.027   9.612  1.5067  0.5844  0.6536
  817MPD2    H212028   4.518   4.369   9.760 -0.7355 -1.4067 -0.7691
  817MPD2    H312029   4.499   4.610   9.789 -2.3011  2.8500  0.0617
  817MPD2     N12030   4.327   4.653   9.369 -0.7446  0.5019  0.1549
  817MPD2    H512031   4.313   4.604   9.282 -0.4881  0.6952  0.0043
  817MPD2    N112032   4.431   4.228   9.537 -0.2422  0.0547 -0.2678
  817MPD2    H712033   4.373   4.190   9.463 -1.5289 -1.4437  1.4933
  818MPD2     C12034   3.349   4.195   9.496  0.2279  0.4920  0.1101
  818MPD2    C112035   3.418   4.082   9.500 -0.1452  0.4916  0.3095
  818MPD2    C212036   3.356   3.971   9.462  0.1813  0.2122  0.2414
  818MPD2    C312037   3.223   3.965   9.420  0.3241 -0.7259  0.5361
  818MPD2    C412038   3.153   4.087   9.415 -0.0399 -0.0384  0.7497
  818MPD2    C512039   3.216   4.194   9.452 -0.3090  1.1960  0.2773
  818MPD2     H12040   3.408   3.876   9.462 -2.0354 -1.0076  0.8248
  818MPD2    H112041   3.052   4.096   9.376  0.3868 -1.1959 -0.6129
  818MPD2    H212042   3.387   4.282   9.549 -1.1889  1.2060 -0.0562
  818MPD2    H312043   3.155   4.283   9.465  0.9083  2.0693  0.0173
  818MPD2     N12044   3.151   3.850   9.374  0.0969 -0.4991  0.3465
  818MPD2    H512045   3.051   3.863   9.369  0.2147  0.0957 -0.4988
  818MPD2    N112046   3.545   4.071   9.555  0.3449 -0.3998 -0.6653
  818MPD2    H712047   3.586   3.978   9.552 -0.0243 -0.5305 -1.6688
  819MPD2     C12048   1.144   0.868  15.579 -0.1352  0.0747  0.3120
  819MPD2    C112049   1.203   0.745  15.568  0.9474  1.0958  0.0911
  819MPD2    C212050   1.332   0.731  15.612  0.4194 -0.0825  0.7568
  819MPD2    C312051   1.395   0.836  15.686  0.5491 -0.1146 -0.0139
  819MPD2    C412052   1.324   0.958  15.707  0.4468  0.0110  0.1709
  819MPD2    C512053   1.207   0.973  15.645  0.2656  0.3352  0.4121
  819MPD2     H12054   1.390   0.649  15.573 -0.2088 -0.6744  1.0685
  819MPD2    H112055   1.369   1.038  15.765 -1.6139  0.2870  1.4053
  819MPD2    H212056   1.048   0.890  15.533 -0.1682 -1.4555 -0.3399
  819MPD2    H312057   1.152   1.064  15.664  0.4134  0.2909  1.0304
  819MPD2     N12058   1.528   0.814  15.727  0.4269  0.1177 -0.9871
  819MPD2    H512059   1.582   0.743  15.680 -1.4459 -0.4041 -2.3219
  819MPD2    N112060   1.131   0.653  15.498 -0.2478 -0.0573 -0.1142
  819MPD2    H712061   1.043   0.691  15.466 -1.3238 -2.1745  0.2746
  820MPD2     C12062   0.761   0.886  14.671 -0.1066  0.0253  0.2137
  820MPD2    C112063   0.801   0.931  14.797 -0.4119  0.1546 -0.0724
  820MPD2    C212064   0.852   0.843  14.891 -0.0895 -0.6945  0.2967
  820MPD2    C312065   0.848   0.705  14.859 -0.4908  0.2226  0.3282
  820MPD2    C412066   0.804   0.657  14.738  0.0018 -0.2221  0.5931
  820MPD2    C512067   0.757   0.749  14.649  0.4984  0.8754 -0.3255
  820MPD2     H12068   0.872   0.885  14.989  1.1633  0.4420 -0.4444
  820MPD2    H112069   0.800   0.552  14.713  1.1536 -0.1211  0.0320
  820MPD2    H212070   0.705   0.952  14.606 -0.6912 -1.4314 -0.7634
  820MPD2    H312071   0.712   0.715  14.556 -0.0810  0.9830 -0.0853
  820MPD2     N12072   0.892   0.607  14.954 -0.2177  0.5078 -0.4207
  820MPD2    H512073   0.891   0.511  14.920 -0.6524 -0.1944  1.5572
  820MPD2    N112074   0.773   1.068  14.820 -0.1117 -0.6249 -0.1039
  820MPD2    H712075   0.724   1.120  14.748  0.6081  0.0019 -0.1467
  821MPD2     C12076   1.368   2.055  12.745 -0.4781  0.1114 -0.0085
  821MPD2    C112077   1.467   2.121  12.818  0.9250  0.2335 -0.6351
  821MPD2    C212078   1.558   2.200  12.758 -0.2200 -0.2856  0.1474
  821MPD2    C312079   1.557   2.212  12.618 -0.0713 -0.3984  0.1491
  821MPD2    C412080   1.454   2.150  12.550  0.1533 -0.2292 -0.1893
  821MPD2    C512081   1.364   2.065  12.613 -0.7770 -0.0488  0.4199
  821MPD2     H12082   1.628   2.242  12.829 -1.5606  1.0055  0.6901
  821MPD2    H112083   1.441   2.152  12.442  2.4209 -1.0210 -0.4622
  821MPD2    H212084   1.297   1.988  12.792 -0.6435  0.5037  0.3060
  821MPD2    H312085   1.300   1.998  12.556  0.8362 -0.9049 -0.4076
  821MPD2     N12086   1.661   2.275  12.547  0.3642 -0.0302  0.0391
  821MPD2    H512087   1.647   2.269  12.446 -2.0162 -0.9234  0.4168
  821MPD2    N112088   1.493   2.099  12.958 -0.1134 -0.0676 -0.3895
  821MPD2    H712089   1.581   2.140  12.986  1.0601 -1.7737 -1.5606
  822MPD2     C12090   2.211   1.873  15.510 -0.1141  0.2612  0.3145
  822MPD2    C112091   2.183   1.857  15.646 -0.4216  0.1439  0.5333
  822MPD2    C212092   2.108   1.957  15.704 -0.1113  0.6351  0.6691
  822MPD2    C312093   2.057   2.066  15.637 -0.0043 -0.0712  0.3730
  822MPD2    C412094   2.091   2.084  15.505  0.0990 -0.8347 -0.3346
  822MPD2    C512095   2.159   1.981  15.441 -0.1695 -0.5959 -0.1961
  822MPD2     H12096   2.099   1.950  15.812 -0.4578  2.2253  0.7515
  822MPD2    H112097   2.052   2.165  15.444  0.3193 -1.6804 -1.5965
  822MPD2    H212098   2.278   1.806  15.459  2.6688  0.8709  3.2279
  822MPD2    H312099   2.191   1.989  15.338  0.6625  2.3623  0.2950
  822MPD2     N12100   1.979   2.163  15.706  0.0857  0.3912  0.0797
  822MPD2    H512101   1.933   2.142  15.794  1.0104 -0.2471  0.4097
  822MPD2    N112102   2.228   1.748  15.728  0.1889  0.2919  0.1785
  822MPD2    H712103   2.215   1.753  15.828 -0.9108 -0.2666  0.0696
  823MPD2     C12104   1.490   2.418  16.297 -0.3350  0.0122  0.0816
  823MPD2    C112105   1.550   2.313  16.234 -0.3044 -0.6391 -0.0246
  823MPD2    C212106   1.621   2.213  16.304  0.4141 -0.5686 -0.0036
  823MPD2    C312107   1.615   2.217  16.442  0.7821  0.4958  0.7704
  823MPD2    C412108   1.538   2.316  16.508  0.5772 -0.2796 -0.6902
  823MPD2    C512109   1.478   2.415  16.435 -0.4986 -0.1184 -0.2898
  823MPD2     H12110   1.672   2.129  16.256  0.9959 -0.3761  0.2708
  823MPD2    H112111   1.542   2.307  16.616 -1.7112  1.1361 -0.4906
  823MPD2    H212112   1.462   2.506  16.241  1.3495  0.7440  0.4008
  823MPD2    H312113   1.431   2.501  16.481  0.4095  1.3682 -2.1853
  823MPD2     N12114   1.688   2.130  16.529  0.1676 -0.2493  0.1975
  823MPD2    H512115   1.676   2.130  16.629 -2.5655  0.4893 -0.1491
  823MPD2    N112116   1.562   2.337  16.096 -0.7554 -0.3486 -0.0315
  823MPD2    H712117   1.507   2.409  16.051  2.4472  2.8303  1.1300
  824MPD2     C12118   2.742   1.011  16.000 -0.5231 -0.2846  0.0978
  824MPD2    C112119   2.733   1.090  15.887 -1.1837  0.1893  0.1922
  824MPD2    C212120   2.800   1.055  15.775 -0.1598  0.0946  0.0171
  824MPD2    C312121   2.893   0.952  15.777 -0.4074  0.1595  0.0449
  824MPD2    C412122   2.900   0.872  15.888 -0.0424  0.5409 -1.0086
  824MPD2    C512123   2.821   0.897  16.000 -0.0697 -0.5281 -0.5737
  824MPD2     H12124   2.785   1.115  15.686 -5.2814 -0.2601  0.6293
  824MPD2    H112125   2.958   0.780  15.885 -0.6695  0.1329 -0.6653
  824MPD2    H212126   2.692   1.038  16.092  0.3702 -1.3143  0.8843
  824MPD2    H312127   2.817   0.827  16.083  1.8904 -2.1379 -1.8224
  824MPD2     N12128   2.963   0.922  15.656  0.4155 -0.1644  0.8947
  824MPD2    H512129   2.943   0.976  15.573  0.5147 -0.2921  0.7876
  824MPD2    N112130   2.658   1.210  15.905 -0.1252  0.3299 -0.2712
  824MPD2    H712131   2.631   1.228  16.001  0.2463 -1.1220  0.0906
  825MPD2     C12132   3.489   1.053  15.006  0.8539 -0.1198 -0.2190
  825MPD2    C112133   3.380   1.090  15.074  0.2344 -0.2118 -1.0059
  825MPD2    C212134   3.327   1.222  15.065  0.7595  0.6345  0.5555
  825MPD2    C312135   3.381   1.308  14.969 -0.1004 -0.1357  0.3277
  825MPD2    C412136   3.490   1.266  14.894  0.7653 -0.4426 -0.1739
  825MPD2    C512137   3.540   1.141  14.918 -0.5121 -0.5816  0.4008
  825MPD2     H12138   3.242   1.247  15.128  0.3918 -0.9442  0.7058
  825MPD2    H112139   3.544   1.332  14.827  1.0031 -2.6738 -2.1904
  825MPD2    H212140   3.537   0.956  15.014  0.9255 -0.2026 -1.5598
  825MPD2    H312141   3.632   1.109  14.870  0.5805  1.0301  1.4126
  825MPD2     N12142   3.336   1.441  14.952 -0.2908  0.2359 -0.8960
  825MPD2    H512143   3.385   1.503  14.889  1.1684  0.9166  0.9164
  825MPD2    N112144   3.314   0.993  15.160 -0.0376  0.9349 -0.1994
  825MPD2    H712145   3.359   0.902  15.156  1.8596  1.9021 -0.7932
  826MPD2     C12146   3.131   1.900  13.758  0.9712 -0.6417 -0.0279
  826MPD2    C112147   3.076   1.808  13.676 -0.2832 -0.6433 -0.1046
  826MPD2    C212148   2.997   1.855  13.568 -0.9183  0.3056  0.4258
  826MPD2    C312149   2.980   1.991  13.547 -0.3493  0.3565  0.7048
  826MPD2    C412150   3.045   2.080  13.632 -0.1746 -0.2552  0.1642
  826MPD2    C512151   3.111   2.036  13.745 -0.0691 -0.6467 -0.0238
  826MPD2     H12152   2.934   1.786  13.512 -0.4032 -1.0665  1.5130
  826MPD2    H112153   3.037   2.187  13.616 -1.5234 -0.4857 -0.6857
  826MPD2    H212154   3.185   1.862  13.843 -1.0710  0.4564  1.7600
  826MPD2    H312155   3.158   2.112  13.806  0.4335 -0.4016 -0.7216
  826MPD2     N12156   2.915   2.043  13.433  0.4657 -0.2027  0.1261
  826MPD2    H512157   2.924   2.143  13.418  1.0345 -0.1140  1.0818
  826MPD2    N112158   3.109   1.669  13.703 -0.0912 -0.5679 -0.5759
  826MPD2    H712159   3.161   1.659  13.789 -0.5568  1.5008 -0.0363
  827MPD2     C12160   3.813   2.376   9.838  0.1314 -0.7803 -0.7324
  827MPD2    C112161   3.792   2.318   9.960 -0.1058  0.1864 -0.0148
  827MPD2    C212162   3.681   2.246   9.974 -0.1293  0.4488  0.2220
  827MPD2    C312163   3.598   2.216   9.868 -0.9963  0.6041 -0.3312
  827MPD2    C412164   3.622   2.265   9.745 -0.3586 -0.8927 -0.6629
  827MPD2    C512165   3.737   2.348   9.730 -0.0207  0.1134 -0.1373
  827MPD2     H12166   3.646   2.198  10.065 -0.6281 -0.8155 -0.6296
  827MPD2    H112167   3.560   2.257   9.656 -1.4878 -1.0660  0.1296
  827MPD2    H212168   3.892   2.448   9.827 -0.7820  0.7252  2.6222
  827MPD2    H312169   3.740   2.399   9.635  0.4694  2.4481  1.1388
  827MPD2     N12170   3.486   2.137   9.900  0.0745  0.3465 -0.6734
  827MPD2    H512171   3.482   2.103   9.995  0.4585 -1.0796 -1.1713
  827MPD2    N112172   3.873   2.355  10.071 -0.4772 -0.2514 -0.1640
  827MPD2    H712173   3.956   2.409  10.048 -0.5668  0.9305  2.2820
  828MPD2     C12174   2.165   2.170  12.181 -0.2866 -0.0845 -0.1911
  828MPD2    C112175   2.155   2.163  12.044  0.5842  0.4800 -0.4621
  828MPD2    C212176   2.270   2.146  11.967 -0.5197 -0.0262 -0.1280
  828MPD2    C312177   2.391   2.123  12.025  0.1298  0.0530 -0.0083
  828MPD2    C412178   2.402   2.131  12.165  0.2816  0.0543  0.0477
  828MPD2    C512179   2.288   2.150  12.241  0.2830  0.1595  0.4229
  828MPD2     H12180   2.254   2.153  11.860  0.8321  1.1905 -0.2391
  828MPD2    H112181   2.499   2.114  12.210  0.4012 -0.8113 -0.5386
  828MPD2    H212182   2.081   2.178  12.249  0.6982  1.8536  0.7819
  828MPD2    H312183   2.294   2.143  12.349  0.4410 -1.6554  0.3111
  828MPD2     N12184   2.505   2.095  11.956  0.7890  0.2891 -0.5018
  828MPD2    H512185   2.588   2.076  12.011 -0.8668 -0.3591  1.7858
  828MPD2    N112186   2.033   2.182  11.979  0.7498 -0.0944 -0.1225
  828MPD2    H712187   2.036   2.192  11.878 -2.6118  0.0621 -0.2055
  829MPD2     C12188   1.981   2.626  11.254 -0.4564  0.5828 -0.4343
  829MPD2    C112189   1.844   2.630  11.283  0.7277 -0.3143  0.4782
  829MPD2    C212190   1.790   2.555  11.388  0.3814  0.4933 -0.1983
  829MPD2    C312191   1.878   2.480  11.466  0.3770 -0.3670 -0.2000
  829MPD2    C412192   2.011   2.481  11.431  0.3498  0.5053  0.1231
  829MPD2    C512193   2.066   2.553  11.325  0.7007  0.9389 -0.1053
  829MPD2     H12194   1.684   2.570  11.409 -0.3719 -3.6079 -1.0421
  829MPD2    H112195   2.077   2.414  11.485  1.3537  3.3201  2.4107
  829MPD2    H212196   2.023   2.696  11.183  1.2333 -0.7995 -0.7762
  829MPD2    H312197   2.174   2.541  11.316 -0.0513 -3.6845 -2.9649
  829MPD2     N12198   1.846   2.411  11.581 -0.2021 -0.0178  0.5190
  829MPD2    H512199   1.914   2.362  11.637 -1.5629 -1.9388  0.4907
  829MPD2    N112200   1.769   2.720  11.209 -0.1311  0.9767 -0.1311
  829MPD2    H712201   1.812   2.754  11.124 -1.5747  2.4453 -0.2608
  830MPD2     C12202   2.257   0.528  15.623 -0.2342 -0.3595 -0.0863
  830MPD2    C112203   2.186   0.620  15.544 -0.0726  0.5392 -0.7519
  830MPD2    C212204   2.220   0.641  15.416 -0.0949 -0.3788  0.7691
  830MPD2    C312205   2.329   0.574  15.360  0.0047  0.4097 -1.2972
  830MPD2    C412206   2.401   0.495  15.444 -0.1682 -0.2618  0.5252
  830MPD2    C512207   2.374   0.475  15.573  0.2643  0.5659  1.0282
  830MPD2     H12208   2.173   0.718  15.355 -1.3265 -0.1350  2.0289
  830MPD2    H112209   2.493   0.451  15.407 -0.3063 -1.2448  1.3667
  830MPD2    H212210   2.229   0.503  15.725  1.2932 -0.0287  0.4124
  830MPD2    H312211   2.434   0.414  15.640  1.1341  0.5237  0.2014
  830MPD2     N12212   2.382   0.593  15.233 -0.2190 -0.5951  0.0753
  830MPD2    H512213   2.481   0.572  15.224 -0.3082 -1.2007  0.4882
  830MPD2    N112214   2.093   0.698  15.614 -0.4219  0.1373  0.0435
  830MPD2    H712215   2.101   0.686  15.715 -1.3957 -0.7307  0.0161
  831MPD2     C12216   2.182   2.290  15.972  0.1558 -0.0587  0.1905
  831MPD2    C112217   2.233   2.177  15.944 -0.3021 -0.8307  0.0207
  831MPD2    C212218   2.181   2.064  16.006  0.2767 -0.5685  0.1397
  831MPD2    C312219   2.060   2.071  16.083 -0.1971 -0.3831 -0.7470
  831MPD2    C412220   2.005   2.190  16.103 -0.3657  0.4450  0.7959
  831MPD2    C512221   2.076   2.299  16.055 -0.3884 -0.4292 -0.1745
  831MPD2     H12222   2.227   1.971  15.977 -2.2302 -0.6174 -3.6166
  831MPD2    H112223   1.912   2.203  16.159 -1.1150 -1.6545  0.0381
  831MPD2    H212224   2.220   2.380  15.924  2.0726 -1.1483 -0.3401
  831MPD2    H312225   2.028   2.395  16.068  0.1595 -0.5039  2.4544
  831MPD2     N12226   1.989   1.958  16.124  0.3718  0.3190 -0.3010
  831MPD2    H512227   1.906   1.977  16.180 -0.8622 -0.5489 -1.8379
  831MPD2    N112228   2.337   2.180  15.849  0.0137 -0.4402  0.2957
  831MPD2    H712229   2.361   2.264  15.798 -3.9285  1.0358  0.8879
  832MPD2     C12230   0.369   3.275  16.807 -0.4663 -0.4879 -0.2455
  832MPD2    C112231   0.370   3.416  16.810  0.1383 -0.5313  0.4814
  832MPD2    C212232   0.257   3.476  16.755  0.0995  0.1792  0.0317
  832MPD2    C312233   0.154   3.400  16.691  0.1038  0.4957 -0.7640
  832MPD2    C412234   0.169   3.267  16.672  0.1303  0.2993 -0.3814
  832MPD2    C512235   0.271   3.203  16.739  0.2598  0.4631 -0.3794
  832MPD2     H12236   0.249   3.583  16.765  1.3210  0.4402 -1.7674
  832MPD2    H112237   0.089   3.218  16.618  0.2206 -0.6552  0.3323
  832MPD2    H212238   0.457   3.215  16.827  0.3105  0.5665 -0.4946
  832MPD2    H312239   0.289   3.096  16.737  1.6834  0.6818  0.6400
  832MPD2     N12240   0.030   3.452  16.644  0.2124  0.3391 -0.6376
  832MPD2    H512241   4.694   3.384  16.597  0.8233 -0.8077  0.2455
  832MPD2    N112242   0.476   3.475  16.878 -0.9829 -0.0313 -0.1781
  832MPD2    H712243   0.556   3.415  16.898 -0.7226 -0.1884 -1.7133
  833MPD2     C12244   3.114   0.010  11.900 -0.2923 -0.4558  0.5180
  833MPD2    C112245   3.047   0.071  11.796 -0.0780 -0.0593  0.2218
  833MPD2    C212246   3.083   0.031  11.667 -0.6934 -0.1835  0.1403
  833MPD2    C312247   3.176   4.650  11.646  0.9575  0.5260 -0.1771
  833MPD2    C412248   3.234   4.590  11.752  0.0167 -0.1239 -0.2398
  833MPD2    C512249   3.191   4.628  11.876 -0.7296 -0.1396  0.8543
  833MPD2     H12250   3.023   0.071  11.585 -1.1243 -1.0401  0.0347
  833MPD2    H112251   3.303   4.506  11.747  1.0735  0.6997  0.5252
  833MPD2    H212252   3.095   0.035  12.004  0.7667  2.0788  0.1260
  833MPD2    H312253   3.242   4.573  11.954  0.9829 -0.1972 -0.2833
  833MPD2     N12254   3.202   4.603  11.519 -0.2347 -0.0081  0.3434
  833MPD2    H512255   3.256   4.518  11.532  1.7114  1.4752  2.0958
  833MPD2    N112256   2.947   0.169  11.820  0.4709  0.0097 -0.0683
  833MPD2    H712257   2.917   0.181  11.916 -1.0671  0.6293 -0.6079
  834MPD2     C12258   3.077   3.759  11.078  0.9213 -0.0398 -0.4050
  834MPD2    C112259   3.062   3.850  10.982 -0.1080 -0.6612  0.3506
  834MPD2    C212260   3.041   3.982  11.012  0.0830  0.2069 -0.2894
  834MPD2    C312261   3.028   4.024  11.139 -0.7112 -0.0026  0.4181
  834MPD2    C412262   3.032   3.930  11.240  0.1496 -0.5670 -0.3583
  834MPD2    C512263   3.062   3.799  11.206 -0.3743 -0.0677 -0.6376
  834MPD2     H12264   3.035   4.054  10.932  0.9732 -0.1493 -0.6786
  834MPD2    H112265   3.008   3.954  11.344 -1.9306  1.0179 -1.1895
  834MPD2    H212266   3.102   3.655  11.058 -1.8201 -0.5364 -1.1482
  834MPD2    H312267   3.070   3.730  11.289 -2.8884 -0.2116 -0.5143
  834MPD2     N12268   3.010   4.157  11.160 -0.1821  0.3827  0.0452
  834MPD2    H512269   3.014   4.220  11.080  4.5968  1.4109  1.1032
  834MPD2    N112270   3.076   3.806  10.843  0.3610 -0.3900 -1.1907
  834MPD2    H712271   3.087   3.706  10.833  0.7542 -0.5096  0.4076
  835MPD2     C12272   2.689   2.656  10.989  0.0503  0.4813  0.2949
  835MPD2    C112273   2.643   2.762  10.919 -0.0991 -0.6739  0.4281
  835MPD2    C212274   2.626   2.884  10.985  0.3048  0.1308 -0.1359
  835MPD2    C312275   2.654   2.892  11.124 -0.6108 -0.2408  0.3905
  835MPD2    C412276   2.691   2.778  11.186  0.0082  0.5111 -0.0405
  835MPD2    C512277   2.704   2.660  11.120 -0.0583 -0.9724 -0.1286
  835MPD2     H12278   2.575   2.971  10.945 -0.8534 -0.7033 -0.4723
  835MPD2    H112279   2.697   2.781  11.294 -0.0213  0.1762 -0.0302
  835MPD2    H212280   2.688   2.553  10.955 -1.0633  0.0509  1.6088
  835MPD2    H312281   2.737   2.566  11.163 -0.7001 -0.9244  0.4636
  835MPD2     N12282   2.645   3.011  11.196 -0.0085  0.1147 -0.3354
  835MPD2    H512283   2.686   2.994  11.287  1.8736 -1.4625 -1.4670
  835MPD2    N112284   2.614   2.763  10.785  0.4793  0.8050  0.3722
  835MPD2    H712285   2.566   2.845  10.749 -1.4602  0.2710  1.7059
  836MPD2     C12286   1.952   3.348  11.170 -0.1812  0.5919 -0.1088
  836MPD2    C112287   2.022   3.292  11.277  0.2536  0.5676 -0.2099
  836MPD2    C212288   1.948   3.208  11.358 -0.3080 -0.2054  0.0833
  836MPD2    C312289   1.814   3.188  11.339 -0.0258 -0.4358 -0.7033
  836MPD2    C412290   1.747   3.244  11.234  0.0486 -0.4110 -0.1205
  836MPD2    C512291   1.821   3.321  11.153 -0.1998  0.2179 -0.2946
  836MPD2     H12292   1.989   3.157  11.444 -1.0441  0.4595  0.8352
  836MPD2    H112293   1.641   3.238  11.208 -0.4121  1.3159  1.3983
  836MPD2    H212294   1.995   3.422  11.103  1.3069  0.6861  0.9340
  836MPD2    H312295   1.778   3.389  11.080  1.5035  1.2089 -0.3521
  836MPD2     N12296   1.747   3.104  11.429 -0.0117 -0.1038 -0.2030
  836MPD2    H512297   1.806   3.066  11.503 -0.3204 -2.2330 -1.0416
  836MPD2    N112298   2.162   3.334  11.287 -0.5772 -0.3534  0.2348
  836MPD2    H712299   2.200   3.377  11.203  1.8431  1.5484  2.3003
  837MPD2     C12300   0.854   2.518   9.941  0.2832 -0.5739  0.1759
  837MPD2    C112301   0.764   2.558   9.842  0.0576 -0.4676 -0.0361
  837MPD2    C212302   0.757   2.688   9.810 -0.7687 -0.4196 -0.0342
  837MPD2    C312303   0.842   2.787   9.867 -0.4662 -0.5764 -0.1089
  837MPD2    C412304   0.943   2.746   9.946  0.3272 -0.2048  0.4517
  837MPD2    C512305   0.941   2.616   9.983  0.6526  0.6037  0.7654
  837MPD2     H12306   0.681   2.724   9.741  1.2958  1.5881 -1.2439
  837MPD2    H112307   0.999   2.807  10.016 -1.3925  1.0281  0.7448
  837MPD2    H212308   0.877   2.422   9.984  1.0153  0.8102  2.8612
  837MPD2    H312309   1.026   2.585  10.042  0.2200  0.3602  1.2605
  837MPD2     N12310   0.800   2.916   9.849  0.9025  0.1639 -0.2809
  837MPD2    H512311   0.724   2.926   9.782  1.2748  0.8958 -0.5974
  837MPD2    N112312   0.671   2.478   9.780  0.0321  0.1523 -0.3028
  837MPD2    H712313   0.649   2.512   9.686  3.1879 -0.5417 -1.2781
  838MPD2     C12314   3.718   0.633  11.777 -0.3863 -0.5900 -0.2768
  838MPD2    C112315   3.725   0.617  11.911  0.2970 -0.0262  0.3291
  838MPD2    C212316   3.662   0.504  11.966  1.4982  0.0977 -0.7136
  838MPD2    C312317   3.586   0.415  11.895 -0.0163 -1.0693 -0.5239
  838MPD2    C412318   3.572   0.443  11.763 -0.0412 -0.3914  0.3929
  838MPD2    C512319   3.642   0.543  11.701  0.1508  0.0908  0.1574
  838MPD2     H12320   3.666   0.491  12.073  0.9079  1.8389 -0.4759
  838MPD2    H112321   3.498   0.385  11.708 -2.1206  1.5814  1.1372
  838MPD2    H212322   3.773   0.711  11.725  0.1334 -1.3680 -0.8831
  838MPD2    H312323   3.621   0.561  11.596  0.9498 -0.1440 -0.0419
  838MPD2     N12324   3.508   0.322  11.967  0.7327 -0.4379  0.3393
  838MPD2    H512325   3.511   0.320  12.068  0.2400 -1.6338  0.3326
  838MPD2    N112326   3.796   0.712  11.994 -0.1966 -0.0247 -0.5124
  838MPD2    H712327   3.802   0.673  12.087  2.5778 -0.7367 -0.9754
  839MPD2     C12328   3.902   0.096  12.062  0.2802 -0.2646  0.2309
  839MPD2    C112329   3.883   0.183  11.953 -0.0431 -0.4001  0.0571
  839MPD2    C212330   3.927   0.312  11.967  0.1763  0.3643 -0.1556
  839MPD2    C312331   4.006   0.355  12.073  0.0055 -0.0008 -0.1512
  839MPD2    C412332   4.031   0.263  12.172 -0.2531  0.1179 -0.3681
  839MPD2    C512333   3.976   0.138  12.169  0.0406 -0.2708 -0.1739
  839MPD2     H12334   3.909   0.377  11.882  0.1847 -1.6396 -1.6914
  839MPD2    H112335   4.085   0.289  12.263 -1.3706  0.1514  0.2806
  839MPD2    H212336   3.855   4.721  12.069  0.2358 -0.2430  0.2335
  839MPD2    H312337   3.982   0.072  12.254 -1.6105  4.0901  3.3029
  839MPD2     N12338   4.043   0.493  12.086  0.2599 -0.2690 -0.0056
  839MPD2    H512339   4.019   0.552  12.006 -1.9906  1.2746  1.8013
  839MPD2    N112340   3.802   0.144  11.842  0.1675  0.6567 -0.0624
  839MPD2    H712341   3.802   0.206  11.762 -1.9522  0.0337 -0.5394
  840MPD2     C12342   4.259   2.799   9.993 -1.1363  0.4101 -1.0632
  840MPD2    C112343   4.269   2.772  10.122  0.4648  0.4732  0.7455
  840MPD2    C212344   4.310   2.867  10.209 -0.1509 -0.1498 -0.0099
  840MPD2    C312345   4.348   2.994  10.165  0.2324 -0.4201  0.2133
  840MPD2    C412346   4.336   3.018  10.024  0.3920 -0.0180  0.5974
  840MPD2    C512347   4.294   2.921   9.939 -0.2111 -0.5232  0.3416
  840MPD2     H12348   4.316   2.848  10.315  0.3514 -0.9438 -0.1762
  840MPD2    H112349   4.361   3.116   9.987  0.3490  0.5501  2.0954
  840MPD2    H212350   4.218   2.722   9.928  0.2734 -0.5091 -0.8458
  840MPD2    H312351   4.287   2.953   9.836  0.1465  1.1642  0.8266
  840MPD2     N12352   4.401   3.097  10.253 -0.0898 -0.2616 -0.1091
  840MPD2    H512353   4.409   3.193  10.222  0.9407 -0.6316 -0.9793
  840MPD2    N112354   4.233   2.642  10.163  0.1415  0.1240  0.2689
  840MPD2    H712355   4.190   2.578  10.097 -1.8590  1.7202  0.0356
  841MPD2     C12356   3.854   2.847  14.602 -0.4652 -0.1705  1.0105
  841MPD2    C112357   3.926   2.748  14.534 -0.2675  0.0262 -0.4040
  841MPD2    C212358   4.025   2.789  14.451  0.6185  0.7843 -0.2176
  841MPD2    C312359   4.060   2.916  14.437  0.3007 -0.7517 -1.0357
  841MPD2    C412360   3.996   3.013  14.500  0.0694 -0.4046  0.1610
  841MPD2    C512361   3.888   2.976  14.579 -0.6108  0.0552  0.4243
  841MPD2     H12362   4.072   2.713  14.389 -1.0822 -0.4528  0.0111
  841MPD2    H112363   4.026   3.116  14.483 -1.4460  0.0669  0.2948
  841MPD2    H212364   3.771   2.811  14.662 -1.3981 -0.5310 -0.4930
  841MPD2    H312365   3.830   3.045  14.639  0.6523 -0.3687  2.1109
  841MPD2     N12366   4.167   2.943  14.346 -0.2293 -0.7094 -0.0232
  841MPD2    H512367   4.203   2.861  14.298 -0.1614 -0.0008 -1.1865
  841MPD2    N112368   3.906   2.608  14.539  0.2889  0.4628 -0.1011
  841MPD2    H712369   3.965   2.548  14.481  0.6480  2.5733 -1.9000
  842MPD2     C12370   4.263   4.032  16.161  0.7053  0.4286  0.0372
  842MPD2    C112371   4.184   3.937  16.227 -0.1285  0.1233 -0.4511
  842MPD2    C212372   4.205   3.910  16.364  0.0166 -0.6728  0.3377
  842MPD2    C312373   4.314   3.971  16.426 -0.1195  0.0460 -0.0373
  842MPD2    C412374   4.381   4.070  16.369 -0.1905  0.2498 -0.1095
  842MPD2    C512375   4.358   4.104  16.234  0.1662 -0.6918  0.2245
  842MPD2     H12376   4.147   3.828  16.404 -0.0531 -0.7732  0.0301
  842MPD2    H112377   4.459   4.128  16.417 -0.3291  0.9546 -0.7327
  842MPD2    H212378   4.245   4.061  16.058  3.0116 -0.2403 -0.5440
  842MPD2    H312379   4.421   4.180  16.188 -2.6958  0.4411 -1.7934
  842MPD2     N12380   4.331   3.953  16.564  0.3005 -0.1735 -0.2451
  842MPD2    H512381   4.411   4.002  16.603  0.8962 -1.9656  0.7792
  842MPD2    N112382   4.090   3.869  16.141  0.2904 -0.5106  0.6654
  842MPD2    H712383   4.086   3.889  16.041  2.0709  2.0605  1.0974
  843MPD2     C12384   1.540   3.615  17.678 -0.0760 -0.0679  0.0169
  843MPD2    C112385   1.554   3.738  17.620  0.7606 -0.1111 -0.8726
  843MPD2    C212386   1.673   3.802  17.633  0.3808 -0.1072 -0.0068
  843MPD2    C312387   1.786   3.745   0.003  0.1152  1.2704 -0.7210
  843MPD2    C412388   1.780   3.619   0.044 -0.4923 -0.5913  0.0829
  843MPD2    C512389   1.658   3.563   0.035 -0.4447  0.4873 -0.4914
  843MPD2     H12390   1.680   3.902  17.591 -0.4970 -0.4104 -0.8799
  843MPD2    H112391   1.868   3.579   0.091 -0.6261 -1.0811 -0.0879
  843MPD2    H212392   1.449   3.557  17.668 -1.1028  1.4428  0.7791
  843MPD2    H312393   1.661   3.464   0.079  0.7187  0.7911  0.1297
  843MPD2     N12394   1.899   3.822   0.030  0.6275 -0.1327  0.1291
  843MPD2    H512395   1.987   3.773   0.046  0.6116  0.1159  0.9897
  843MPD2    N112396   1.435   3.796  17.584 -0.2920 -0.2526 -0.2180
  843MPD2    H712397   1.357   3.731  17.587  0.7878 -1.6027 -1.7075
  844MPD2     C12398   0.163   3.269  16.247 -0.2539  0.6016 -0.4449
  844MPD2    C112399   0.290   3.218  16.220 -0.3918  0.3168 -0.0735
  844MPD2    C212400   0.399   3.282  16.270  0.1195 -0.2691  0.3328
  844MPD2    C312401   0.381   3.404  16.331 -0.0649 -0.1377 -0.1839
  844MPD2    C412402   0.258   3.455  16.359 -0.2401  0.1842  0.1913
  844MPD2    C512403   0.148   3.387  16.318 -0.0354 -0.3845 -0.2241
  844MPD2     H12404   0.502   3.248  16.268 -0.3068 -1.4646 -1.5774
  844MPD2    H112405   0.238   3.542  16.421 -1.6693  1.5846 -2.2317
  844MPD2    H212406   0.074   3.215  16.218 -0.9587  2.3373 -1.5363
  844MPD2    H312407   0.052   3.426  16.352  0.0796 -0.3047  0.0101
  844MPD2     N12408   0.502   3.450  16.393 -0.3559  0.5312 -0.3275
  844MPD2    H512409   0.592   3.408  16.371 -0.2429 -0.0359  1.1765
  844MPD2    N112410   0.317   3.092  16.158 -0.0281 -0.4528 -0.1528
  844MPD2    H712411   0.412   3.058  16.154 -0.0709 -0.5622 -0.2652
  845MPD2     C12412   0.857   4.303  16.806 -0.7887  0.3304 -0.3926
  845MPD2    C112413   0.727   4.262  16.775 -0.0368 -0.1324  0.2856
  845MPD2    C212414   0.722   4.140  16.720 -0.1727 -0.7334 -0.8772
  845MPD2    C312415   0.819   4.047  16.720 -0.1303 -0.3518  0.0681
  845MPD2    C412416   0.947   4.089  16.768 -0.2217 -0.3069 -0.2076
  845MPD2    C512417   0.964   4.219  16.800  0.0114 -0.3466  0.4756
  845MPD2     H12418   0.622   4.109  16.694 -0.8503 -0.2436  1.1856
  845MPD2    H112419   1.030   4.020  16.776 -0.4848 -0.9323 -2.9090
  845MPD2    H212420   0.876   4.401  16.850 -1.2169  1.7521 -3.3979
  845MPD2    H312421   1.055   4.255  16.845  0.2065  1.1267 -1.1216
  845MPD2     N12422   0.781   3.917  16.681  0.0377  0.6801  0.5902
  845MPD2    H512423   0.682   3.902  16.662 -0.3190 -1.0497  3.7757
  845MPD2    N112424   0.612   4.337  16.762  0.4509  0.5703  0.2204
  845MPD2    H712425   0.531   4.292  16.721 -0.4671  0.2482  2.3956
  846MPD2     C12426   2.463   4.142  13.714  0.2483 -0.5593  0.1677
  846MPD2    C112427   2.339   4.206  13.697  0.1550 -0.9244  0.9472
  846MPD2    C212428   2.266   4.238  13.813  0.5923 -0.6636 -0.2464
  846MPD2    C312429   2.302   4.174  13.934 -0.5050 -0.4136 -0.3411
  846MPD2    C412430   2.419   4.097  13.940  0.0073  0.1922 -0.3433
  846MPD2    C512431   2.508   4.090  13.834 -1.0009  0.2548 -0.7055
  846MPD2     H12432   2.167   4.282  13.804  0.9013  0.0608 -0.0557
  846MPD2    H112433   2.463   4.069  14.035 -0.5114  0.6674  0.0356
  846MPD2    H212434   2.528   4.124  13.628  0.6655 -0.6885  0.5080
  846MPD2    H312435   2.598   4.031  13.836 -0.3403  1.3014  0.1310
  846MPD2     N12436   2.214   4.184  14.039 -0.2045  0.3221  0.8360
  846MPD2    H512437   2.125   4.225  14.013 -0.0263  0.3053  0.2028
  846MPD2    N112438   2.300   4.262  13.575  0.1119 -0.3233  0.0559
  846MPD2    H712439   2.218   4.322  13.583 -0.1207 -0.2116 -3.1090
  847MPD2     C12440   1.898   0.221  14.105  0.5390 -0.1691 -0.3861
  847MPD2    C112441   2.002   0.307  14.093 -0.4546  0.9481  0.2384
  847MPD2    C212442   2.107   0.295  14.180  0.0243  0.8401  0.7771
  847MPD2    C312443   2.118   0.206  14.279 -0.6612  0.4639  1.1510
  847MPD2    C412444   2.013   0.125  14.296  0.1400  0.0613  0.0043
  847MPD2    C512445   1.902   0.134  14.211  0.2351 -0.4714 -0.3583
  847MPD2     H12446   2.189   0.365  14.169 -0.6075  1.7610  1.9102
  847MPD2    H112447   2.012   0.046  14.370 -0.8597  0.8176  0.8031
  847MPD2    H212448   1.809   0.216  14.042  0.7334  3.7282 -0.9564
  847MPD2    H312449   1.812   0.079  14.234 -0.1426  0.0561 -0.5909
  847MPD2     N12450   2.233   0.207  14.356 -0.6629 -0.1225  0.5461
  847MPD2    H512451   2.307   0.268  14.324  0.8052 -1.4643  1.3593
  847MPD2    N112452   2.013   0.404  13.995 -0.1071  0.6093 -0.3350
  847MPD2    H712453   2.107   0.438  13.980  1.8455 -4.1209  0.9641
  848MPD2     C12454   4.372   3.671  15.994 -0.3328 -0.3632 -0.2938
  848MPD2    C112455   4.453   3.742  16.082  0.3253  0.7915 -0.0242
  848MPD2    C212456   4.524   3.856  16.030 -0.5249 -0.7052  0.0479
  848MPD2    C312457   4.504   3.899  15.899 -0.4309 -0.2738  0.3893
  848MPD2    C412458   4.422   3.826  15.821 -0.6411 -0.1131 -0.2724
  848MPD2    C512459   4.362   3.712  15.864  0.3192 -0.0679  0.2517
  848MPD2     H12460   4.587   3.914  16.097 -1.0067  2.2844 -2.0910
  848MPD2    H112461   4.405   3.860  15.720 -0.5492  0.9122  0.0615
  848MPD2    H212462   4.326   3.577  16.022 -2.8792  1.8207  2.7765
  848MPD2    H312463   4.308   3.656  15.789 -0.2846  1.9609 -0.8150
  848MPD2     N12464   4.548   4.017  15.840 -0.1301  0.7337  0.3221
  848MPD2    H512465   4.523   4.039  15.744  3.0228 -2.7885 -1.3223
  848MPD2    N112466   4.471   3.721  16.225 -0.6396 -0.2657  0.2098
  848MPD2    H712467   4.541   3.774  16.276  0.4620 -2.4421  0.9596
  849MPD2     C12468   3.984   3.586  14.009 -0.4826 -0.4333 -0.1192
  849MPD2    C112469   4.098   3.603  13.924 -0.1501  0.1708  0.8788
  849MPD2    C212470   4.220   3.566  13.969  0.5219 -0.5263  0.7618
  849MPD2    C312471   4.241   3.520  14.096  0.3918  0.9238 -0.5767
  849MPD2    C412472   4.134   3.503  14.175  0.2787 -0.0436 -0.0456
  849MPD2    C512473   4.003   3.526  14.130 -0.2249 -0.6196 -0.3975
  849MPD2     H12474   4.299   3.586  13.896 -0.0367 -1.4058 -0.0701
  849MPD2    H112475   4.146   3.468  14.277 -2.4088  0.2617  0.3696
  849MPD2    H212476   3.883   3.613  13.979  0.5096  2.0028 -1.3078
  849MPD2    H312477   3.921   3.511  14.200  0.4078  0.2319  0.5276
  849MPD2     N12478   4.374   3.495  14.139 -0.6528  0.7605  0.0087
  849MPD2    H512479   4.446   3.509  14.069 -1.4313  0.5819 -0.8196
  849MPD2    N112480   4.095   3.672  13.800  0.1681  0.4283  0.3715
  849MPD2    H712481   4.185   3.690  13.758 -0.7982 -1.7203 -2.5272
  850MPD2     C12482   2.697   1.181  14.073  0.7136  0.6147 -0.1175
  850MPD2    C112483   2.644   1.291  14.129 -0.1697  0.2958 -0.1762
  850MPD2    C212484   2.701   1.358  14.236  0.4559 -0.1591 -0.3185
  850MPD2    C312485   2.819   1.304  14.292 -0.5746 -0.4773  1.0437
  850MPD2    C412486   2.877   1.198  14.233 -0.0815  0.3017  0.7894
  850MPD2    C512487   2.812   1.130  14.128 -0.1646  0.8860  0.2542
  850MPD2     H12488   2.642   1.439  14.276 -2.3922 -2.3941  0.0516
  850MPD2    H112489   2.964   1.150  14.277  1.1730  2.7282  0.9606
  850MPD2    H212490   2.637   1.125  14.003  1.3765 -0.5102  0.2048
  850MPD2    H312491   2.854   1.042  14.080 -1.4822  1.6700 -2.3302
  850MPD2     N12492   2.874   1.350  14.417  0.4064  0.1655  0.0759
  850MPD2    H512493   2.968   1.319  14.443  0.5824 -0.6483 -1.4984
  850MPD2    N112494   2.519   1.337  14.084  0.2829  0.5706 -0.3410
  850MPD2    H712495   2.465   1.274  14.025  0.4760  1.2393 -1.2462
  851MPD2     C12496   2.315   1.471  14.851  0.8581 -0.2682 -0.2158
  851MPD2    C112497   2.327   1.390  14.737  0.5002  0.5799 -0.5359
  851MPD2    C212498   2.382   1.262  14.748  0.0302 -0.7134  0.3093
  851MPD2    C312499   2.430   1.213  14.869 -0.5583  0.5652 -0.0613
  851MPD2    C412500   2.440   1.304  14.978  0.0238  0.6165  0.5115
  851MPD2    C512501   2.389   1.431  14.963 -0.2792 -0.6178  0.5913
  851MPD2     H12502   2.382   1.195  14.663 -0.5399 -1.3936  0.8431
  851MPD2    H112503   2.477   1.274  15.075  1.0005 -0.8839 -0.3236
  851MPD2    H212504   2.253   1.560  14.842 -0.5351 -1.3487 -1.2799
  851MPD2    H312505   2.398   1.501  15.045 -1.2872 -1.7717  1.6917
  851MPD2     N12506   2.457   1.074  14.864  0.4208  0.1363  0.1166
  851MPD2    H512507   2.456   1.030  14.773 -2.3918  1.6231 -0.5542
  851MPD2    N112508   2.281   1.439  14.607 -0.6704 -0.4220  0.0708
  851MPD2    H712509   2.252   1.536  14.611 -0.2485 -0.2036 -2.1149
  852MPD2     C12510   1.350   4.359   9.716 -0.7319  0.0132 -0.1270
  852MPD2    C112511   1.433   4.399   9.820  0.1169 -0.3448 -0.2400
  852MPD2    C212512   1.484   4.529   9.818  0.8421  0.3825 -0.4807
  852MPD2    C312513   1.454   4.615   9.713 -0.6376  0.3300  0.2303
  852MPD2    C412514   1.376   4.567   9.609 -0.1788  0.1452  0.2125
  852MPD2    C512515   1.318   4.447   9.618  0.4939  0.3245 -0.8050
  852MPD2     H12516   1.554   4.555   9.896 -0.6074  0.1049  0.9085
  852MPD2    H112517   1.339   4.631   9.529 -0.2607  1.5590  1.3753
  852MPD2    H212518   1.294   4.267   9.713  1.5180 -1.3176 -0.9270
  852MPD2    H312519   1.244   4.421   9.544  0.0759 -1.2440  0.1609
  852MPD2     N12520   1.525   0.010   9.701  0.1664 -0.0344  0.2066
  852MPD2    H512521   1.564   0.051   9.785  0.3907  0.8097 -0.3138
  852MPD2    N112522   1.469   4.306   9.922  0.1347  0.1314 -0.1351
  852MPD2    H712523   1.506   4.345  10.009  1.1320  0.8904 -0.8974
  853MPD2     C12524   4.160   4.009  12.194 -0.1746 -0.3986 -0.4034
  853MPD2    C112525   4.026   3.990  12.164  0.3655 -0.0394 -0.2737
  853MPD2    C212526   3.982   3.939  12.040 -0.4352 -0.5934 -0.0941
  853MPD2    C312527   4.073   3.920  11.940 -0.4028  0.2991 -0.1272
  853MPD2    C412528   4.205   3.940  11.967 -0.6701  0.7326  0.2241
  853MPD2    C512529   4.243   3.976  12.090  0.1872 -0.2539  0.3545
  853MPD2     H12530   3.878   3.935  12.012 -0.3588 -0.8510 -0.3353
  853MPD2    H112531   4.286   3.928  11.896  0.8932  1.4804  1.8802
  853MPD2    H212532   4.192   4.061  12.284 -3.3013 -0.1068  0.5463
  853MPD2    H312533   4.349   3.989  12.110 -0.1612  1.0631  1.2882
  853MPD2     N12534   4.034   3.883  11.809  0.3406  0.2503  0.5416
  853MPD2    H512535   4.102   3.871  11.735  1.0133  1.3423  0.9845
  853MPD2    N112536   3.929   4.045  12.257 -0.3443 -0.1765  0.2290
  853MPD2    H712537   3.966   4.103  12.331 -0.5423 -2.1854  1.8952
  854MPD2     C12538   0.350   3.947  12.527  0.2896 -0.4711  0.3817
  854MPD2    C112539   0.441   4.045  12.571  0.3420 -0.4669  0.7675
  854MPD2    C212540   0.529   4.018  12.678 -0.2622  0.8069 -0.2200
  854MPD2    C312541   0.527   3.891  12.740 -0.3807 -0.6240 -0.0864
  854MPD2    C412542   0.444   3.797  12.690  0.3468 -0.2445  0.1898
  854MPD2    C512543   0.369   3.822  12.579  0.0368 -0.2170  0.4954
  854MPD2     H12544   0.601   4.085  12.723 -0.0903 -1.6940  3.1992
  854MPD2    H112545   0.429   3.701  12.738  1.0601 -1.4264 -1.9529
  854MPD2    H212546   0.277   3.969  12.450  0.2766  1.6180  0.9981
  854MPD2    H312547   0.315   3.737  12.539  0.6874 -1.3435  2.0509
  854MPD2     N12548   0.621   3.857  12.838  0.5013  0.0476 -0.4452
  854MPD2    H512549   0.631   3.758  12.860 -0.5482 -0.3428 -1.7219
  854MPD2    N112550   0.439   4.174  12.502 -1.1442 -0.1412  1.0877
  854MPD2    H712551   0.370   4.184  12.428 -2.3287 -1.0205  2.0725
  855MPD2     C12552   1.387   3.940  13.612  0.6098  0.1726 -0.3494
  855MPD2    C112553   1.258   3.905  13.631 -0.2027  0.2885 -0.1144
  855MPD2    C212554   1.159   3.923  13.529  0.0154  1.3158  0.6719
  855MPD2    C312555   1.206   3.971  13.405  0.0029  0.2922  0.2330
  855MPD2    C412556   1.341   4.003  13.379 -0.8067 -0.4819 -0.9945
  855MPD2    C512557   1.429   3.989  13.485  0.4105 -0.4861 -0.2956
  855MPD2     H12558   1.058   3.887  13.547  0.8851 -1.2359  0.4320
  855MPD2    H112559   1.366   4.026  13.277  2.9532 -0.5534 -0.0742
  855MPD2    H212560   1.468   3.922  13.682 -0.6623  2.1811  1.6373
  855MPD2    H312561   1.533   4.002  13.458  0.8742 -1.5296  0.9925
  855MPD2     N12562   1.128   3.958  13.286  0.0225  0.1058 -0.0095
  855MPD2    H512563   1.172   3.976  13.196  1.1819  0.0922  0.5458
  855MPD2    N112564   1.212   3.823  13.733 -0.9185  1.1297  0.8081
  855MPD2    H712565   1.114   3.798  13.733 -0.9411  1.2597 -1.5772
  856MPD2     C12566   2.875   4.713  13.876  0.6354  0.4136  0.1722
  856MPD2    C112567   2.922   0.117  13.904 -0.4672 -0.5297 -0.0486
  856MPD2    C212568   2.841   0.223  13.864  0.0324  0.1394  0.0964
  856MPD2    C312569   2.723   0.204  13.790 -0.2541 -0.1797  0.2075
  856MPD2    C412570   2.683   0.077  13.766 -0.3347  0.1637  1.0558
  856MPD2    C512571   2.756   4.693  13.808 -0.2184  0.0266 -0.0542
  856MPD2     H12572   2.884   0.320  13.886  0.1294  0.6192 -2.1283
  856MPD2    H112573   2.596   0.053  13.706  0.8729  0.2610 -0.7614
  856MPD2    H212574   2.934   4.625  13.899  0.8566  0.5014 -0.0621
  856MPD2    H312575   2.719   4.597  13.775  1.3184 -1.4836  2.6179
  856MPD2     N12576   2.640   0.311  13.746 -0.6794 -1.2085  0.2413
  856MPD2    H512577   2.560   0.290  13.687 -0.7108 -0.6637  0.0955
  856MPD2    N112578   3.049   0.140  13.969 -0.0730  0.1215  0.0896
  856MPD2    H712579   3.075   0.238  13.977  0.7854  0.0526 -1.8061
  857MPD2     C12580   4.536   2.269  12.124 -0.1411  0.2994 -0.7022
  857MPD2    C112581   4.570   2.224  12.251 -0.0483  0.3170  0.3500
  857MPD2    C212582   4.576   2.323  12.343  0.0055 -0.0109 -0.4996
  857MPD2    C312583   4.561   2.459  12.313 -0.5253 -0.5852 -0.7020
  857MPD2    C412584   4.538   2.504  12.187  0.1975 -0.0640 -0.5749
  857MPD2    C512585   4.525   2.401  12.094 -0.1134 -0.0718  0.6308
  857MPD2     H12586   4.589   2.300  12.448  3.0626  1.0644 -0.6557
  857MPD2    H112587   4.553   2.606  12.153 -0.7854  0.5047  0.7158
  857MPD2    H212588   4.529   2.197  12.044  1.3719 -0.7569  0.1399
  857MPD2    H312589   4.510   2.439  11.994 -1.2348 -0.3731  0.6810
  857MPD2     N12590   4.579   2.550  12.418  0.0017  0.0455 -0.2781
  857MPD2    H512591   4.621   2.522  12.506  1.5142 -1.3578 -1.4466
  857MPD2    N112592   4.591   2.087  12.274 -0.2806  0.1865  1.0362
  857MPD2    H712593   4.585   2.023  12.196 -1.5731 -1.1357  2.2175
  858MPD2     C12594   0.395   1.470  16.539  0.0664  0.5979 -0.2505
  858MPD2    C112595   0.502   1.411  16.601  0.0523  0.6370  0.3657
  858MPD2    C212596   0.522   1.420  16.738 -0.0387 -0.1644 -0.6064
  858MPD2    C312597   0.423   1.469  16.817  0.3242  0.1348  0.0323
  858MPD2    C412598   0.308   1.512  16.764 -0.3291 -0.6139  0.1776
  858MPD2    C512599   0.299   1.525  16.624 -0.7333  0.6327  0.6843
  858MPD2     H12600   0.605   1.375  16.791  1.4144  2.5246 -0.6164
  858MPD2    H112601   0.228   1.559  16.820 -1.0477  0.1764 -1.4988
  858MPD2    H212602   0.391   1.476  16.431  0.2772  0.5119 -0.2616
  858MPD2    H312603   0.218   1.587  16.586 -0.4520  0.5484 -0.0505
  858MPD2     N12604   0.445   1.457  16.960  1.0008 -0.2472  0.1276
  858MPD2    H512605   0.530   1.411  16.990  0.6158 -0.9439  0.1431
  858MPD2    N112606   0.607   1.355  16.513 -0.0142 -0.0469 -0.3102
  858MPD2    H712607   0.592   1.356  16.413 -1.9041 -0.1141 -0.0370
  859MPD2     C12608   3.830   3.476  14.893 -0.5048  0.6147  0.3431
  859MPD2    C112609   3.957   3.446  14.855 -0.6829 -0.8083 -0.1401
  859MPD2    C212610   4.012   3.321  14.892 -0.7524  0.2300  0.4504
  859MPD2    C312611   3.936   3.220  14.948 -0.8940 -0.1829  0.4686
  859MPD2    C412612   3.809   3.244  14.978  0.4644 -0.6817 -0.2783
  859MPD2    C512613   3.759   3.371  14.951 -0.7699 -0.0387 -0.0698
  859MPD2     H12614   4.108   3.291  14.851 -1.1001 -0.5940  0.2451
  859MPD2    H112615   3.740   3.166  15.010 -0.6917  0.1256 -0.7954
  859MPD2    H212616   3.775   3.567  14.872  1.4428  1.7765  0.3471
  859MPD2    H312617   3.658   3.387  14.985 -0.5650  0.0163  0.5171
  859MPD2     N12618   3.981   3.092  14.968  0.6113 -0.4337  0.2739
  859MPD2    H512619   3.905   3.031  14.997  0.5243 -1.2643 -1.6474
  859MPD2    N112620   4.034   3.549  14.788  0.1830 -0.6829 -0.3091
  859MPD2    H712621   4.004   3.646  14.785 -0.5711 -0.8739  0.8671
  860MPD2     C12622   1.545   3.503  11.352 -0.1193 -0.0825 -0.3197
  860MPD2    C112623   1.590   3.593  11.452  0.2472  0.1631 -0.1072
  860MPD2    C212624   1.522   3.602  11.564 -0.6946 -0.4386 -0.2854
  860MPD2    C312625   1.405   3.537  11.588  0.6098  0.0488  0.1663
  860MPD2    C412626   1.363   3.449  11.493 -0.3180 -0.1416  0.2068
  860MPD2    C512627   1.434   3.427  11.379 -0.0941 -0.7088 -0.4488
  860MPD2     H12628   1.568   3.663  11.641  1.7140  0.4579 -2.4276
  860MPD2    H112629   1.268   3.397  11.494 -0.8982  0.9170  0.1172
  860MPD2    H212630   1.581   3.500  11.250 -1.3471 -3.2934 -0.6629
  860MPD2    H312631   1.397   3.369  11.295 -0.3671  0.0088 -0.8245
  860MPD2     N12632   1.323   3.547  11.703  0.1117 -0.0831  0.5551
  860MPD2    H512633   1.240   3.490  11.715  0.6104 -0.1840  3.5635
  860MPD2    N112634   1.704   3.675  11.440 -0.2595 -0.3753  0.1467
  860MPD2    H712635   1.745   3.704  11.528  0.1928 -0.7146  0.0452
  861MPD2     C12636   0.793   2.063  10.853 -0.8255  0.7377 -0.1591
  861MPD2    C112637   0.668   2.063  10.907 -0.0286 -0.5283  0.4379
  861MPD2    C212638   0.564   2.084  10.820 -0.2170  0.0629 -0.3724
  861MPD2    C312639   0.586   2.114  10.685 -0.2531  0.1811  0.0735
  861MPD2    C412640   0.714   2.123  10.632  0.1611 -1.1687  0.1568
  861MPD2    C512641   0.818   2.095  10.717  0.4749 -0.0398  0.6673
  861MPD2     H12642   0.470   2.056  10.865  0.9895 -1.0998  1.4548
  861MPD2    H112643   0.721   2.127  10.524  2.9118 -3.1282  0.2707
  861MPD2    H212644   0.884   2.043  10.907  0.1915  2.8064 -1.1235
  861MPD2    H312645   0.917   2.071  10.680  1.1157  1.8081  1.1909
  861MPD2     N12646   0.476   2.153  10.600 -0.4614  0.3461 -0.6181
  861MPD2    H512647   0.505   2.180  10.507  1.2007  1.3880  0.2143
  861MPD2    N112648   0.641   2.031  11.039 -0.3707  0.7905  0.1633
  861MPD2    H712649   0.546   2.010  11.067 -0.3439  0.5821  0.1011
  862MPD2     C12650   0.016   2.128  10.013 -0.1431  0.2053  0.1948
  862MPD2    C112651   0.116   2.159  10.105  1.0305 -0.0189  0.0983
  862MPD2    C212652   0.149   2.065  10.202  0.1358  0.0668 -0.3798
  862MPD2    C312653   0.076   1.948  10.212  0.3048  0.4682 -0.0908
  862MPD2    C412654   4.687   1.927  10.129  0.2029  0.6350  0.4127
  862MPD2    C512655   4.659   2.012  10.026  0.0559  0.2357  0.0030
  862MPD2     H12656   0.234   2.092  10.264  0.4603  1.7628 -1.5619
  862MPD2    H112657   4.625   1.840  10.147 -0.0967  0.2443 -2.3966
  862MPD2    H212658   0.001   2.190   9.926  1.4952  2.1496  1.2912
  862MPD2    H312659   4.580   1.990   9.955  1.2267 -0.1838 -1.1735
  862MPD2     N12660   0.090   1.860  10.325 -0.1464 -0.5940 -0.5203
  862MPD2    H512661   0.022   1.787  10.342 -0.8444 -0.8108 -4.1794
  862MPD2    N112662   0.200   2.282  10.090  0.5300  0.4467 -0.1478
  862MPD2    H712663   0.201   2.321   9.997  0.1187  0.0877 -0.3015
  863MPD2     C12664   3.319   4.703  16.651 -0.6423  0.4351 -0.2579
  863MPD2    C112665   3.419   0.049  16.595  0.4056  1.0171  0.1330
  863MPD2    C212666   3.541   0.042  16.651  0.1706 -0.5830  0.3784
  863MPD2    C312667   3.567   4.689  16.762  0.4341 -0.2053 -1.1370
  863MPD2    C412668   3.470   4.601  16.803 -0.3092  0.6165  0.8695
  863MPD2    C512669   3.344   4.618  16.756 -0.0027 -0.6191 -0.1294
  863MPD2     H12670   3.625   0.099  16.613  0.2710 -1.7069 -1.0778
  863MPD2    H112671   3.483   4.522  16.877 -2.3781 -0.3255  0.2375
  863MPD2    H212672   3.215   4.712  16.622 -0.9425  0.2319  0.7792
  863MPD2    H312673   3.270   4.548  16.794 -0.7481  1.1801  1.7220
  863MPD2     N12674   3.695   4.673  16.817 -0.3619  0.4207 -0.2944
  863MPD2    H512675   3.702   4.589  16.874 -1.0173  0.1815 -0.5668
  863MPD2    N112676   3.389   0.114  16.466 -0.0097 -0.1720 -0.5674
  863MPD2    H712677   3.289   0.114  16.449 -0.2570  0.9136  0.9003
  864MPD2     C12678   4.057   1.389  17.152 -0.4351  0.1005  0.4727
  864MPD2    C112679   4.131   1.332  17.052 -1.0516 -0.5117 -0.2571
  864MPD2    C212680   4.204   1.416  16.964 -0.0498 -0.0616  0.1845
  864MPD2    C312681   4.209   1.554  16.984  0.3706 -0.2588 -0.4844
  864MPD2    C412682   4.106   1.609  17.063  0.6633 -0.4709 -0.3623
  864MPD2    C512683   4.039   1.526  17.146  0.0602 -0.1308 -0.2192
  864MPD2     H12684   4.255   1.364  16.884 -0.7804  0.3734 -0.5717
  864MPD2    H112685   4.077   1.714  17.067  0.9355 -0.3380 -1.6830
  864MPD2    H212686   4.004   1.325  17.222 -0.1566  0.5592  1.1061
  864MPD2    H312687   3.980   1.572  17.225  0.4607 -0.7772  0.4565
  864MPD2     N12688   4.281   1.640  16.894  0.4560  0.2325  0.2847
  864MPD2    H512689   4.256   1.738  16.888  3.0330  0.8366 -0.3529
  864MPD2    N112690   4.130   1.194  17.042  0.4074 -0.1744  0.4027
  864MPD2    H712691   4.071   1.151  17.113  1.5249 -1.3322  0.6398
  865MPD2     C12692   4.403   2.022  16.095  0.3910  0.6596 -0.3722
  865MPD2    C112693   4.395   1.907  16.173 -0.3201 -0.0165 -0.3538
  865MPD2    C212694   4.352   1.926  16.305  0.3947  0.4697  0.1469
  865MPD2    C312695   4.320   2.054  16.349  0.2381  1.0204  0.1757
  865MPD2    C412696   4.334   2.164  16.273 -0.5019 -0.2055  0.4936
  865MPD2    C512697   4.371   2.144  16.148  0.1162  0.6038  0.2691
  865MPD2     H12698   4.353   1.837  16.367 -2.4179  0.3604  0.0258
  865MPD2    H112699   4.296   2.261  16.302 -0.0424 -0.0717  0.6521
  865MPD2    H212700   4.434   2.009  15.992  0.7638 -2.3063  0.1225
  865MPD2    H312701   4.379   2.234  16.088  3.8533  0.5153  0.6395
  865MPD2     N12702   4.262   2.084  16.476  0.6145  0.0573  0.8009
  865MPD2    H512703   4.201   2.165  16.479  0.7471  0.1891  0.0006
  865MPD2    N112704   4.437   1.782  16.118  0.3122 -0.5429 -0.0832
  865MPD2    H712705   4.461   1.787  16.019 -2.1801  0.5146 -0.6439
  866MPD2     C12706   1.352   2.489  10.820 -0.6168 -0.0950 -0.3068
  866MPD2    C112707   1.315   2.356  10.803 -0.4421  0.3602  0.4359
  866MPD2    C212708   1.180   2.344  10.806  0.7470  0.5935  0.5733
  866MPD2    C312709   1.096   2.438  10.857  0.6455  0.9261 -0.0201
  866MPD2    C412710   1.141   2.561  10.896  0.8045 -0.0551  0.1365
  866MPD2    C512711   1.265   2.591  10.857  0.2245 -0.1210  0.1101
  866MPD2     H12712   1.127   2.259  10.764  1.4226  0.6549 -0.3970
  866MPD2    H112713   1.088   2.648  10.935  0.5098  0.3916 -1.2385
  866MPD2    H212714   1.457   2.514  10.829 -0.3503 -1.3148 -0.0431
  866MPD2    H312715   1.294   2.694  10.872  1.6864 -0.1434 -2.5791
  866MPD2     N12716   0.956   2.415  10.858 -0.2064 -0.2549  0.4441
  866MPD2    H512717   0.906   2.355  10.793 -1.8704  0.9295  0.6390
  866MPD2    N112718   1.407   2.258  10.771 -0.0353 -0.0389  0.3380
  866MPD2    H712719   1.506   2.278  10.762  0.0819  0.9337  3.5825
  867MPD2     C12720   2.838   1.696  16.074 -0.4371 -0.5797 -0.8168
  867MPD2    C112721   2.904   1.635  16.176 -0.6741 -0.2827  0.0323
  867MPD2    C212722   2.916   1.686  16.302 -0.2900  0.1295  0.0703
  867MPD2    C312723   2.861   1.816  16.326 -0.5839 -0.8420 -0.1996
  867MPD2    C412724   2.795   1.884  16.224  0.2106  0.0894 -0.7792
  867MPD2    C512725   2.783   1.824  16.100 -0.6842  0.0360 -0.8536
  867MPD2     H12726   2.982   1.649  16.379 -0.2236  2.2088  1.0139
  867MPD2    H112727   2.766   1.988  16.241  0.1349  0.1445 -1.2422
  867MPD2    H212728   2.813   1.645  15.981 -2.1734 -0.1645 -0.5728
  867MPD2    H312729   2.722   1.869  16.022 -1.0066  2.5873  0.9042
  867MPD2     N12730   2.871   1.882  16.450  0.3168 -0.4001 -0.2497
  867MPD2    H512731   2.831   1.974  16.458  1.5118  0.1281 -0.3359
  867MPD2    N112732   2.964   1.514  16.136 -0.1736 -0.3572 -0.5562
  867MPD2    H712733   2.950   1.495  16.037 -0.7869 -0.1252 -0.5099
  868MPD2     C12734   0.330   4.498  13.335 -0.3932 -0.0092 -0.2536
  868MPD2    C112735   0.411   4.606  13.355 -0.0055  0.1437  0.3032
  868MPD2    C212736   0.356   4.712  13.426 -0.2125  1.0809  0.4424
  868MPD2    C312737   0.232   4.697  13.491 -0.1947 -0.6465  0.0090
  868MPD2    C412738   0.154   4.589  13.464 -0.1039 -0.1808  0.6054
  868MPD2    C512739   0.207   4.493  13.394  0.4987  0.3618  0.4730
  868MPD2     H12740   0.412   0.080  13.444  1.7830  0.6146 -3.3837
  868MPD2    H112741   0.062   4.570  13.518  0.9214 -1.0797  2.0310
  868MPD2    H212742   0.377   4.418  13.280  0.7702 -0.2586  1.0856
  868MPD2    H312743   0.140   4.409  13.382  0.5954  0.6047 -1.9266
  868MPD2     N12744   0.184   0.078  13.564 -0.4958 -0.0313  0.1064
  868MPD2    H512745   0.258   0.138  13.598  0.4540  0.9428 -3.6319
  868MPD2    N112746   0.535   4.601  13.286  0.1896 -0.2574  0.8314
  868MPD2    H712747   0.561   4.514  13.240  0.0692  1.2700 -2.1253
  869MPD2     C12748   0.753   3.935   0.864  0.2068 -0.8431  0.3256
  869MPD2    C112749   0.852   4.020   0.911 -0.0589 -0.4124 -0.9431
  869MPD2    C212750   0.872   4.137   0.843  1.2955  0.1216  0.5380
  869MPD2    C312751   0.777   4.187   0.750 -0.1953 -0.1421  0.1065
  869MPD2    C412752   0.663   4.108   0.718  0.5647 -0.0303  0.1359
  869MPD2    C512753   0.669   3.979   0.767 -0.5097  0.1732 -0.8660
  869MPD2     H12754   0.949   4.203   0.881  0.5296  0.4066  1.5626
  869MPD2    H112755   0.586   4.141   0.649 -1.8532 -1.2941  2.2301
  869MPD2    H212756   0.745   3.833   0.901 -1.3799 -0.7609  0.1962
  869MPD2    H312757   0.599   3.906   0.729 -1.2096  0.8723 -0.9289
  869MPD2     N12758   0.783   4.315   0.686  0.0099 -0.3256 -0.9629
  869MPD2    H512759   0.706   4.349   0.630 -1.6042 -1.9345  0.2471
  869MPD2    N112760   0.937   3.984   1.019 -0.2128  0.1566  0.0553
  869MPD2    H712761   0.949   3.886   1.042  1.2445  0.3926  0.3390
  870MPD2     C12762   1.385   2.689   1.195  0.3315  0.4814  0.0546
  870MPD2    C112763   1.277   2.604   1.173  0.0031 -0.5936 -0.7207
  870MPD2    C212764   1.187   2.636   1.072 -0.0541 -0.2661  0.3221
  870MPD2    C312765   1.204   2.742   0.989 -0.7920 -0.4984  0.2108
  870MPD2    C412766   1.310   2.834   1.013  0.1971  0.3243 -0.5296
  870MPD2    C512767   1.397   2.802   1.115 -0.5997 -0.3504 -0.4628
  870MPD2     H12768   1.115   2.561   1.041  2.0332 -1.9511 -0.5050
  870MPD2    H112769   1.328   2.922   0.952 -0.0970 -0.4443 -1.7317
  870MPD2    H212770   1.456   2.664   1.273 -0.9177 -0.5015  0.8819
  870MPD2    H312771   1.490   2.855   1.132 -0.0397 -1.3561 -0.3766
  870MPD2     N12772   1.105   2.764   0.893 -0.8340 -0.0408  0.5678
  870MPD2    H512773   1.044   2.683   0.892  0.0635 -0.6940 -1.7098
  870MPD2    N112774   1.274   2.490   1.244  0.2640 -0.0143  0.1771
  870MPD2    H712775   1.348   2.472   1.310 -1.7505  0.3533  2.5589
  871MPD2     C12776   2.208   1.604  16.333 -0.5722 -0.8653  0.4737
  871MPD2    C112777   2.204   1.598  16.470 -0.6509  0.6359 -0.3590
  871MPD2    C212778   2.241   1.481  16.542 -0.4183 -0.0079  0.0067
  871MPD2    C312779   2.275   1.368  16.468  0.2574 -0.0072  0.5076
  871MPD2    C412780   2.276   1.376  16.324  0.0579  0.8239 -0.1633
  871MPD2    C512781   2.239   1.490  16.268 -0.0642  0.0642 -0.5652
  871MPD2     H12782   2.236   1.470  16.650 -0.3891 -0.2206 -0.0124
  871MPD2    H112783   2.296   1.293  16.256  0.5605 -0.3258  1.3901
  871MPD2    H212784   2.183   1.696  16.280  1.9960 -1.0225 -1.0209
  871MPD2    H312785   2.233   1.493  16.160  0.7113 -1.3411 -0.6423
  871MPD2     N12786   2.316   1.251  16.539  0.1963  0.6643 -0.1628
  871MPD2    H512787   2.293   1.251  16.638  1.5294 -1.3308  0.1528
  871MPD2    N112788   2.158   1.714  16.535 -0.2969  0.1836 -0.7371
  871MPD2    H712789   2.124   1.786  16.473 -1.3091  0.8458  0.5994
  872MPD2     C12790   3.315   3.662  14.006 -0.2720  0.1214  0.0716
  872MPD2    C112791   3.220   3.720  13.929 -0.3646  0.5554 -0.6128
  872MPD2    C212792   3.091   3.729  13.976  0.4887  0.2714  0.5573
  872MPD2    C312793   3.056   3.693  14.103 -0.0451  0.7620  0.1583
  872MPD2    C412794   3.160   3.640  14.183 -0.5132 -0.6066 -0.9299
  872MPD2    C512795   3.285   3.627  14.135  0.3878  0.1281 -0.0496
  872MPD2     H12796   3.021   3.771  13.906 -0.3921 -0.6778  0.8581
  872MPD2    H112797   3.141   3.621  14.288 -1.6880  2.3527 -0.6019
  872MPD2    H212798   3.410   3.639  13.958 -1.8047 -3.0210 -1.4816
  872MPD2    H312799   3.362   3.580  14.196 -0.5733 -0.0157  1.0658
  872MPD2     N12800   2.931   3.720  14.162  0.7492  0.0591 -0.0763
  872MPD2    H512801   2.920   3.683  14.256  3.0960  2.4288  1.1198
  872MPD2    N112802   3.246   3.757  13.793 -0.5017 -0.4992  0.1225
  872MPD2    H712803   3.168   3.784  13.734 -0.0979  1.7692  0.6402
  873MPD2     C12804   0.653   0.008   0.998 -0.2707  0.5741 -0.4893
  873MPD2    C112805   0.535   4.675   0.955 -0.6163 -0.2694  0.0777
  873MPD2    C212806   0.516   4.537   0.967 -0.0161  0.4866  0.3361
  873MPD2    C312807   0.610   4.456   1.017  0.5023  0.1419  0.5031
  873MPD2    C412808   0.732   4.509   1.063  0.0183  1.0210 -0.1561
  873MPD2    C512809   0.749   4.647   1.052  0.2087 -0.0868  0.7807
  873MPD2     H12810   0.424   4.489   0.933  0.3690 -0.7526  1.0634
  873MPD2    H112811   0.808   4.458   1.120  1.2373  1.9094 -0.9796
  873MPD2    H212812   0.674   0.114   1.007  0.3490  0.2841  1.5440
  873MPD2    H312813   0.832   4.696   1.101 -0.6416 -0.5180  2.6378
  873MPD2     N12814   0.595   4.317   1.043 -0.1241  0.4860  0.7293
  873MPD2    H512815   0.680   4.262   1.054 -2.1980 -3.1493 -1.6854
  873MPD2    N112816   0.435   0.046   0.913 -0.1783 -0.1643 -0.1846
  873MPD2    H712817   0.454   0.146   0.909  0.2998 -0.2557 -0.2049
  874MPD2     C12818   3.877   4.192  15.655  0.0624  0.0597 -0.0407
  874MPD2    C112819   3.961   4.092  15.692  0.5111  0.5480  1.2743
  874MPD2    C212820   4.099   4.120  15.691 -0.3392  0.2136  0.0798
  874MPD2    C312821   4.152   4.244  15.680  0.1584 -0.2072 -0.2279
  874MPD2    C412822   4.061   4.344  15.649 -0.1384  0.2482 -0.2839
  874MPD2    C512823   3.930   4.314  15.625 -0.0048  0.6260  0.2902
  874MPD2     H12824   4.165   4.039  15.719 -0.9341 -0.2135  0.2485
  874MPD2    H112825   4.089   4.446  15.627  2.4087 -0.2011  0.8094
  874MPD2    H212826   3.771   4.171  15.648  0.1702 -0.1822 -1.0311
  874MPD2    H312827   3.857   4.387  15.593 -2.2450 -1.1733  1.2805
  874MPD2     N12828   4.285   4.277  15.711 -0.3154  0.3222 -0.3538
  874MPD2    H512829   4.351   4.202  15.732 -0.1125 -0.4006 -3.6696
  874MPD2    N112830   3.895   3.970  15.732 -0.2622  0.3199 -1.0341
  874MPD2    H712831   3.795   3.972  15.750 -0.0423  3.7277 -0.2305
  875MPD2     C12832   4.673   2.517  14.519  0.1515  0.4687 -0.1348
  875MPD2    C112833   0.077   2.525  14.475 -0.7461 -0.1125 -0.6735
  875MPD2    C212834   0.169   2.575  14.568 -0.0697 -0.1261 -0.8322
  875MPD2    C312835   0.137   2.611  14.698  0.1025 -0.1324  0.1494
  875MPD2    C412836   0.008   2.597  14.737  1.0811  0.6123  0.6143
  875MPD2    C512837   4.640   2.549  14.649 -0.1809  0.5519 -0.0867
  875MPD2     H12838   0.272   2.586  14.538 -0.0520 -1.1784 -1.1510
  875MPD2    H112839   4.696   2.651  14.824  0.8275  1.9727 -0.3304
  875MPD2    H212840   4.591   2.488  14.455  0.4241  1.2131 -0.8151
  875MPD2    H312841   4.536   2.555  14.681 -0.2873 -0.3408 -0.2825
  875MPD2     N12842   0.226   2.688  14.781  0.0349  0.3089 -0.0842
  875MPD2    H512843   0.193   2.712  14.874  0.9505 -0.0457  0.3270
  875MPD2    N112844   0.127   2.497  14.346 -0.3594 -0.2070 -0.0978
  875MPD2    H712845   0.223   2.526  14.326 -0.3752 -0.8991 -1.2064
  876MPD2     C12846   4.178   3.532  15.566  0.4364 -0.2928 -0.1249
  876MPD2    C112847   4.316   3.532  15.545  0.3083  0.1638 -0.3643
  876MPD2    C212848   4.400   3.450  15.618  0.3607  0.6648 -0.2508
  876MPD2    C312849   4.352   3.388  15.725 -0.8699  0.3129 -0.4675
  876MPD2    C412850   4.218   3.402  15.756  0.0646 -0.0849  0.2764
  876MPD2    C512851   4.129   3.469  15.681  0.0750 -1.1116  0.2036
  876MPD2     H12852   4.508   3.451  15.611  0.3678 -1.3208 -0.5861
  876MPD2    H112853   4.173   3.362  15.846  0.8872  0.6262  1.0014
  876MPD2    H212854   4.107   3.592  15.510  1.9977 -0.0838 -1.8844
  876MPD2    H312855   4.026   3.468  15.714  1.1677 -2.0831  3.5496
  876MPD2     N12856   4.439   3.307  15.799 -0.1049 -0.3470 -0.1812
  876MPD2    H512857   4.535   3.296  15.768  0.0094 -0.5331  0.2344
  876MPD2    N112858   4.361   3.621  15.443  0.0291  0.3341  0.0198
  876MPD2    H712859   4.294   3.682  15.398 -3.1866 -1.6610  2.1197
  877MPD2     C12860   4.160   4.126  14.904  0.2874 -0.0017 -0.0445
  877MPD2    C112861   4.300   4.144  14.918 -0.1973  0.0239 -0.2835
  877MPD2    C212862   4.357   4.221  14.818 -0.2457 -0.0412  0.6518
  877MPD2    C312863   4.290   4.290  14.718  0.1211 -0.1243  0.0873
  877MPD2    C412864   4.154   4.266  14.707 -0.5211 -0.0317 -0.4455
  877MPD2    C512865   4.096   4.174  14.792  0.3103  0.3452 -0.1495
  877MPD2     H12866   4.465   4.220  14.828 -0.1604  0.1909 -0.2798
  877MPD2    H112867   4.100   4.311  14.624 -1.5464 -0.8361 -0.2101
  877MPD2    H212868   4.104   4.059  14.968  2.0721  0.3531  1.8795
  877MPD2    H312869   3.993   4.143  14.776 -1.2067  3.8546  3.0088
  877MPD2     N12870   4.357   4.371  14.622 -0.0156 -0.3395  0.4383
  877MPD2    H512871   4.305   4.401  14.541 -0.8692 -1.0007  0.7501
  877MPD2    N112872   4.382   4.071  15.009 -0.0754  0.1949 -0.7777
  877MPD2    H712873   4.478   4.102  15.018  0.1591 -0.4387 -1.1417
  878MPD2     C12874   4.155   3.347  12.857  0.5006 -0.1957  0.2075
  878MPD2    C112875   4.263   3.431  12.880 -0.2163 -0.9562 -0.1687
  878MPD2    C212876   4.262   3.501  13.000 -0.2905  0.1457 -0.1428
  878MPD2    C312877   4.157   3.479  13.092 -0.0417  0.4352  0.0036
  878MPD2    C412878   4.050   3.405  13.068 -0.8266  0.1640 -0.5507
  878MPD2    C512879   4.057   3.336  12.950  0.2650  0.6132 -0.9110
  878MPD2     H12880   4.349   3.559  13.032  1.9075 -2.5623 -1.2088
  878MPD2    H112881   3.984   3.367  13.146 -0.8562 -0.1719 -0.7407
  878MPD2    H212882   4.137   3.287  12.768 -0.7903  0.5457 -0.0302
  878MPD2    H312883   3.987   3.255  12.932 -1.4965  2.1918 -1.0827
  878MPD2     N12884   4.168   3.554  13.212 -0.4532  0.4291  0.2017
  878MPD2    H512885   4.249   3.613  13.223 -1.2985  1.9528 -1.7058
  878MPD2    N112886   4.353   3.450  12.775 -0.6174 -0.5876 -0.6314
  878MPD2    H712887   4.323   3.397  12.693  2.6062 -2.0838 -0.8586
  879MPD2     C12888   0.536   0.026  16.652 -0.6007 -0.1251  0.4578
  879MPD2    C112889   0.445   0.066  16.750  0.1534  0.0280 -0.6176
  879MPD2    C212890   0.317   0.079  16.703 -0.7237  0.0553  0.0784
  879MPD2    C312891   0.271   0.046  16.580 -0.4151 -0.4340 -0.2214
  879MPD2    C412892   0.364   4.710  16.491 -0.1346 -0.6851 -0.4470
  879MPD2    C512893   0.496   4.709  16.529  0.6366 -0.1974  0.0803
  879MPD2     H12894   0.243   0.114  16.774 -1.9461 -1.1268 -0.5989
  879MPD2    H112895   0.328   4.667  16.398  1.0146 -1.0343 -0.7371
  879MPD2    H212896   0.636   4.720  16.681 -0.2158 -1.6010 -2.3391
  879MPD2    H312897   0.565   4.659  16.463  2.3681 -0.3261  1.9837
  879MPD2     N12898   0.141   0.054  16.532 -0.4024 -0.2840  0.1120
  879MPD2    H512899   0.136   0.033  16.432  1.7214  0.5646 -0.1641
  879MPD2    N112900   0.495   0.117  16.875 -0.1722  0.0776 -0.5617
  879MPD2    H712901   0.595   0.110  16.889 -0.3711 -0.4691  0.5581
  880MPD2     C12902   0.954   1.470   0.474 -0.1712  0.1111 -0.6130
  880MPD2    C112903   1.035   1.580   0.451  0.5432  0.0625 -0.1437
  880MPD2    C212904   1.170   1.568   0.469  0.2783  0.5825  0.2225
  880MPD2    C312905   1.227   1.452   0.518  0.4154 -0.0007 -0.0076
  880MPD2    C412906   1.150   1.342   0.546 -0.7606 -0.1621  0.4117
  880MPD2    C512907   1.014   1.354   0.512  0.3608  0.7250 -0.1552
  880MPD2     H12908   1.242   1.649   0.465  0.7169  0.1362 -1.0356
  880MPD2    H112909   1.186   1.257   0.603  0.8181 -0.3893 -0.9434
  880MPD2    H212910   0.847   1.465   0.459 -0.0723 -0.3484 -1.1725
  880MPD2    H312911   0.962   1.260   0.525  2.4183 -0.4288 -0.2204
  880MPD2     N12912   1.363   1.456   0.545  0.0717  0.4161  0.3149
  880MPD2    H512913   1.414   1.543   0.554  1.5320 -0.4197  0.0518
  880MPD2    N112914   0.976   1.703   0.411 -0.4601 -0.4835  0.3300
  880MPD2    H712915   0.879   1.716   0.439 -0.4611 -1.3140  0.7051
  881MPD2     C12916   1.145   2.515  17.431  0.3890  0.7617 -0.1895
  881MPD2    C112917   1.133   2.382  17.391  0.2861 -0.5610 -0.0403
  881MPD2    C212918   1.070   2.296  17.480  0.2436 -0.1478  0.0648
  881MPD2    C312919   1.028   2.334  17.604  0.2747 -0.2659 -0.9514
  881MPD2    C412920   1.055   2.463  17.648  0.0102 -0.2202  0.2996
  881MPD2    C512921   1.123   2.552  17.557 -0.7001  0.0843  0.2221
  881MPD2     H12922   1.046   2.195  17.446 -1.1756 -0.1992  1.2021
  881MPD2    H112923   1.045   2.488   0.060 -4.1293 -0.8640  0.0359
  881MPD2    H212924   1.201   2.581  17.366  0.0423  0.5493 -0.7043
  881MPD2    H312925   1.137   2.655  17.588  0.7971 -0.3970  1.1105
  881MPD2     N12926   0.983   2.243   0.010  0.4126 -0.3313 -0.3863
  881MPD2    H512927   0.948   2.290   0.093  1.3013 -0.4225  0.0356
  881MPD2    N112928   1.150   2.358  17.253  0.0920  0.2846  0.3281
  881MPD2    H712929   1.174   2.429  17.184  1.1660 -0.7203 -0.3227
  882MPD2     C12930   4.483   4.056  14.114  0.0429 -0.0993  0.0146
  882MPD2    C112931   4.388   4.134  14.165  0.1246  0.6175  0.1722
  882MPD2    C212932   4.258   4.084  14.182  0.0796 -0.1769 -0.6737
  882MPD2    C312933   4.220   3.964  14.132 -0.3290 -0.6516 -0.5358
  882MPD2    C412934   4.314   3.890  14.063  0.4590  0.1374  0.0911
  882MPD2    C512935   4.446   3.932  14.070  0.4570  0.5925 -0.4962
  882MPD2     H12936   4.185   4.149  14.230  0.5564  1.4192 -2.0959
  882MPD2    H112937   4.298   3.795  14.013  0.3494 -0.0370  0.4578
  882MPD2    H212938   4.582   4.099  14.104  0.0324 -0.3949 -1.3061
  882MPD2    H312939   4.518   3.874  14.013 -0.1503  1.7968 -2.4808
  882MPD2     N12940   4.087   3.914  14.135  0.2199 -0.1946  0.8743
  882MPD2    H512941   4.067   3.818  14.112 -2.6728  0.7562 -0.6041
  882MPD2    N112942   4.432   4.258  14.212 -0.2851  0.4831  0.2826
  882MPD2    H712943   4.532   4.270  14.199 -0.6404  2.4080 -0.5655
  883MPD2     C12944   1.302   3.924  16.102 -0.5937  0.0319 -0.3086
  883MPD2    C112945   1.352   4.047  16.085 -0.3201  0.4541  0.3801
  883MPD2    C212946   1.478   4.082  16.132 -0.2303 -0.6311 -0.2263
  883MPD2    C312947   1.551   3.989  16.209 -0.6330  0.2219 -0.6115
  883MPD2    C412948   1.501   3.864  16.230  0.3127 -0.7336  0.0131
  883MPD2    C512949   1.375   3.838  16.176  0.3914  0.2054 -0.3572
  883MPD2     H12950   1.531   4.176  16.121 -0.8475 -0.1744  0.6882
  883MPD2    H112951   1.559   3.784  16.276  0.3425 -0.3381  0.6613
  883MPD2    H212952   1.203   3.901  16.064 -1.3150  0.7025  1.1671
  883MPD2    H312953   1.341   3.736  16.193 -1.0631  0.7201 -0.1507
  883MPD2     N12954   1.680   4.030  16.255 -0.0833  0.0495 -0.1824
  883MPD2    H512955   1.712   4.124  16.233 -0.0220  0.3314  1.1025
  883MPD2    N112956   1.285   4.140  15.999  0.1334 -0.0327 -0.3897
  883MPD2    H712957   1.340   4.223  15.978  2.1034 -1.3970 -0.7227
  884MPD2     C12958   3.435   4.361  15.046 -0.2639 -0.3413 -0.4017
  884MPD2    C112959   3.408   4.430  14.931  0.2066 -0.2744  0.0200
  884MPD2    C212960   3.292   4.505  14.916  0.5328 -0.2383 -0.2737
  884MPD2    C312961   3.205   4.521  15.024 -0.0270 -0.1933  0.2384
  884MPD2    C412962   3.232   4.450  15.142 -0.4269  0.0723  0.0755
  884MPD2    C512963   3.341   4.370  15.148 -0.1000 -0.3777  1.0615
  884MPD2     H12964   3.277   4.548  14.818  1.6548 -2.0702 -1.2464
  884MPD2    H112965   3.163   4.452  15.226  0.3876  1.9454  0.7108
  884MPD2    H212966   3.523   4.299  15.060  0.2639  0.5987  0.4122
  884MPD2    H312967   3.352   4.312  15.239 -0.1497 -1.4519  0.3712
  884MPD2     N12968   3.096   4.615  15.015 -0.1291 -0.2342  0.1331
  884MPD2    H512969   3.097   4.674  14.932  0.6935  0.8413  0.9162
  884MPD2    N112970   3.512   4.456  14.833  0.0153  0.2682  0.2917
  884MPD2    H712971   3.488   4.500  14.745 -1.1691 -2.7049 -0.8912
  885MPD2     C12972   1.523   0.043   0.112  0.9020 -0.1758 -0.4866
  885MPD2    C112973   1.649   0.071   0.072  0.5356  0.0227 -0.4752
  885MPD2    C212974   1.674   0.146  17.651  0.3759  0.2687 -0.1366
  885MPD2    C312975   1.566   0.201  17.580  0.8919 -0.2329  0.1552
  885MPD2    C412976   1.434   0.160  17.609  0.2521 -0.2706  0.2963
  885MPD2    C512977   1.419   0.078   0.027  0.4503  0.2779  0.1304
  885MPD2     H12978   1.776   0.162  17.619  0.8970 -0.5148  1.1628
  885MPD2    H112979   1.342   0.180  17.556  0.1348  0.4972  0.7934
  885MPD2    H212980   1.494   4.708   0.199  1.3930  0.2703 -0.0271
  885MPD2    H312981   1.318   0.057   0.062  0.6135 -2.0333 -0.7991
  885MPD2     N12982   1.584   0.287  17.473 -0.0464  0.7307 -0.1469
  885MPD2    H512983   1.681   0.303  17.447  0.6729 -1.1517  1.3095
  885MPD2    N112984   1.749   0.014   0.152  0.2600 -0.3060  0.5369
  885MPD2    H712985   1.722   4.673   0.226 -0.9195 -0.0726  0.3024
  886MPD2     C12986   2.829   3.418  15.068 -0.5642  1.0051 -0.2045
  886MPD2    C112987   2.925   3.495  15.133  0.5188  0.8816  1.1320
  886MPD2    C212988   2.970   3.609  15.072  0.1192 -0.0670 -0.1892
  886MPD2    C312989   2.930   3.637  14.939 -0.1373 -0.1878  0.9031
  886MPD2    C412990   2.839   3.563  14.875  0.4287  0.8182  0.8294
  886MPD2    C512991   2.787   3.451  14.941 -0.0305  0.6888 -0.0813
  886MPD2     H12992   3.051   3.665  15.118  0.8207  0.4945 -2.1127
  886MPD2    H112993   2.801   3.590  14.778  0.3839  2.1393  1.2127
  886MPD2    H212994   2.771   3.337  15.113  1.1752 -0.2301 -0.1876
  886MPD2    H312995   2.719   3.385  14.886 -0.7468  1.6263 -0.3133
  886MPD2     N12996   2.974   3.745  14.861  0.4737  0.6487  0.4837
  886MPD2    H512997   2.933   3.759  14.769 -1.5642  0.3499  1.3349
  886MPD2    N112998   2.979   3.456  15.259 -0.4079  0.9306  1.0567
  886MPD2    H712999   3.062   3.507  15.288  1.8517 -0.9732 -2.0181
  887MPD2     C13000   3.622   3.487  15.640  0.1334  0.9147 -0.5678
  887MPD2    C113001   3.553   3.490  15.523 -0.3990 -0.1651 -0.7252
  887MPD2    C213002   3.615   3.554  15.417  0.6389 -0.0097  0.3573
  887MPD2    C313003   3.742   3.601  15.419  0.2219 -0.5599 -0.5393
  887MPD2    C413004   3.814   3.599  15.539 -0.2746  0.1446  0.1339
  887MPD2    C513005   3.748   3.547  15.649 -0.5145  0.0054 -0.2591
  887MPD2     H13006   3.564   3.563  15.322 -0.5657 -0.8784  0.9246
  887MPD2    H113007   3.912   3.645  15.547 -0.2082 -0.2231  1.4517
  887MPD2    H213008   3.577   3.442  15.728  1.5461  0.5927 -0.0074
  887MPD2    H313009   3.793   3.539  15.747  0.3713  1.5709 -0.5445
  887MPD2     N13010   3.783   3.673  15.304 -0.0777 -0.7166  0.5477
  887MPD2    H513011   3.712   3.671  15.232 -1.7346  0.5044  2.1483
  887MPD2    N113012   3.423   3.443  15.511  0.0175  0.4130 -0.3017
  887MPD2    H713013   3.375   3.479  15.429 -1.4976 -1.0930 -0.0652
  888MPD2     C13014   0.886   3.718  14.742  0.3376 -0.0923 -0.6671
  888MPD2    C113015   0.887   3.744  14.872 -0.8638 -0.3720  0.0573
  888MPD2    C213016   0.941   3.864  14.917 -1.1745  0.7562  0.0437
  888MPD2    C313017   0.993   3.944  14.823 -0.1058  0.7620 -0.0482
  888MPD2    C413018   1.002   3.908  14.690  0.4268  0.1372 -0.2856
  888MPD2    C513019   0.942   3.793  14.644  0.0384  0.2650  0.7986
  888MPD2     H13020   0.951   3.883  15.024 -0.6900  2.2789 -0.2858
  888MPD2    H113021   1.028   3.974  14.608  0.9700 -0.1706 -0.3584
  888MPD2    H213022   0.863   3.616  14.713  2.6639  0.1020 -3.2738
  888MPD2    H313023   0.948   3.762  14.541  1.1729  2.0023  0.3431
  888MPD2     N13024   1.042   4.068  14.873  0.2611 -0.0755 -0.0326
  888MPD2    H513025   1.046   4.091  14.972 -4.4985 -0.5921  0.3045
  888MPD2    N113026   0.829   3.653  14.962  0.1875 -0.3028 -0.2426
  888MPD2    H713027   0.863   3.659  15.057  0.4322 -0.1465 -0.3392
  889MPD2     C13028   0.002   3.356  12.471 -0.1405  0.2035 -0.5954
  889MPD2    C113029   4.716   3.320  12.603  0.1827 -0.6364  0.6246
  889MPD2    C213030   0.047   3.406  12.699  0.0033 -0.1505 -0.0446
  889MPD2    C313031   0.088   3.535  12.673 -0.3622 -0.8926  0.1662
  889MPD2    C413032   0.089   3.573  12.539 -0.0118 -0.2175  0.0727
  889MPD2    C513033   0.050   3.481  12.440  0.1444  0.0077 -0.0125
  889MPD2     H13034   0.041   3.378  12.804  0.3241 -2.3319 -0.5933
  889MPD2    H113035   0.123   3.672  12.509  0.0505 -0.9216 -2.1884
  889MPD2    H213036   4.700   3.280  12.397 -1.9665  0.8651 -0.6611
  889MPD2    H313037   0.060   3.506  12.335  2.3967 -0.3810  0.1081
  889MPD2     N13038   0.115   3.626  12.781 -0.6731  0.0140 -0.8582
  889MPD2    H513039   0.119   3.583  12.874  0.3554  1.9992  0.0094
  889MPD2    N113040   4.695   3.186  12.638 -0.3964  0.0290 -0.6079
  889MPD2    H713041   4.708   3.157  12.734 -0.3688  1.1482 -0.2723
  890MPD2     C13042   0.184   0.200  14.817 -0.1296 -0.3861 -0.2126
  890MPD2    C113043   0.104   0.227  14.921  0.2497  0.0397 -0.0431
  890MPD2    C213044   0.095   0.140  15.031 -0.3192  0.2409 -0.3534
  890MPD2    C313045   0.175   0.025  15.038 -0.1946  0.1389  0.7077
  890MPD2    C413046   0.259   0.006  14.931  0.6344  0.1605  0.5551
  890MPD2    C513047   0.262   0.087  14.822 -0.3406 -0.5633  0.1561
  890MPD2     H13048   0.014   0.155  15.102  0.3828  1.7593  0.1234
  890MPD2    H113049   0.317   4.637  14.930 -1.0585 -0.9183  1.4180
  890MPD2    H213050   0.186   0.273  14.737 -0.6716  0.0811  0.2073
  890MPD2    H313051   0.328   0.054  14.742  2.9399 -0.3959  2.7676
  890MPD2     N13052   0.162   4.650  15.132 -0.0447  0.3261 -0.7271
  890MPD2    H513053   0.221   4.568  15.115  0.6785  0.5092  0.9523
  890MPD2    N113054   0.027   0.341  14.917 -0.1401  0.2416 -0.4201
  890MPD2    H713055   0.018   0.394  14.831 -0.8786 -0.6070 -0.8528
  891MPD2     C13056   2.483   3.279  16.234 -0.0187 -0.2352  0.0593
  891MPD2    C113057   2.379   3.245  16.317 -0.0051  0.3967 -0.3302
  891MPD2    C213058   2.405   3.178  16.436 -0.3883 -0.1235 -0.5337
  891MPD2    C313059   2.533   3.146  16.463  0.0004 -0.3698 -0.1274
  891MPD2    C413060   2.638   3.180  16.381  0.0375  0.7266  0.9173
  891MPD2    C513061   2.616   3.239  16.261  0.1317 -0.0416 -0.6604
  891MPD2     H13062   2.329   3.138  16.502  0.1203  2.1382  1.4506
  891MPD2    H113063   2.743   3.161  16.400 -0.1896 -0.3169  1.1534
  891MPD2    H213064   2.471   3.312  16.132 -0.6824  1.8725  0.8192
  891MPD2    H313065   2.688   3.273  16.189 -0.0876  0.6474 -0.5586
  891MPD2     N13066   2.559   3.098  16.588  0.1799  0.1157  0.1617
  891MPD2    H513067   2.474   3.105  16.644  0.7586 -0.0868  1.0785
  891MPD2    N113068   2.248   3.266  16.264 -0.0783  0.2683  0.3363
  891MPD2    H713069   2.234   3.290  16.167  1.0432  1.5200  0.4789
  892MPD2     C13070   3.257   4.361  13.962  0.8295 -0.1241 -0.3526
  892MPD2    C113071   3.268   4.321  14.091 -0.0444  0.3990 -0.0609
  892MPD2    C213072   3.342   4.212  14.119 -0.0536  0.6999  0.6169
  892MPD2    C313073   3.412   4.150  14.022  0.0739  0.0432  0.4805
  892MPD2    C413074   3.397   4.192  13.891  0.2151 -0.9402  0.3956
  892MPD2    C513075   3.322   4.298  13.866  0.2207 -0.3964 -0.2157
  892MPD2     H13076   3.357   4.171  14.219 -0.1911 -0.5038  0.1490
  892MPD2    H113077   3.446   4.150  13.803  2.8900  0.3311  1.2771
  892MPD2    H213078   3.201   4.451  13.937  0.3558 -0.7566 -1.6109
  892MPD2    H313079   3.304   4.333  13.765  0.7462  1.5478  0.3710
  892MPD2     N13080   3.493   4.040  14.053 -0.7110 -0.4078 -0.3856
  892MPD2    H513081   3.555   4.014  13.977 -2.9977 -1.3792 -1.9179
  892MPD2    N113082   3.201   4.391  14.190 -0.6970 -0.9657  0.0065
  892MPD2    H713083   3.137   4.460  14.152 -0.6124 -0.7266  0.3023
  893MPD2     C13084   0.501   3.368   0.353 -0.5350  0.5443 -0.0936
  893MPD2    C113085   0.563   3.256   0.402 -0.1716 -0.6061 -0.3720
  893MPD2    C213086   0.483   3.153   0.436 -0.1986  0.0191 -0.1262
  893MPD2    C313087   0.343   3.160   0.411 -0.0113  0.3201  0.8583
  893MPD2    C413088   0.283   3.277   0.359  0.2065 -0.0643  0.0930
  893MPD2    C513089   0.367   3.386   0.334  0.6156  0.0069  0.9478
  893MPD2     H13090   0.522   3.057   0.468 -0.8081 -0.2295 -0.1259
  893MPD2    H113091   0.179   3.290   0.334  0.2932 -0.2117 -0.3497
  893MPD2    H213092   0.571   3.446   0.327 -1.3708  1.1633 -0.4863
  893MPD2    H313093   0.320   3.472   0.288  1.4477  0.1228  0.3289
  893MPD2     N13094   0.259   3.048   0.437  0.1193 -0.7328 -0.0632
  893MPD2    H513095   0.164   3.054   0.400  0.5704  2.3914 -0.6399
  893MPD2    N113096   0.704   3.261   0.420  0.4910 -0.0459  0.8610
  893MPD2    H713097   0.754   3.349   0.409 -0.2249  0.5401  2.2463
  894MPD2     C13098   3.657   0.777   0.146  0.0998 -0.7101  0.1385
  894MPD2    C113099   3.605   0.716   0.263  0.1057 -0.8496  0.7044
  894MPD2    C213100   3.584   0.794   0.373  0.9865  0.3592  0.5653
  894MPD2    C313101   3.614   0.931   0.370  0.6203 -0.8651 -0.9505
  894MPD2    C413102   3.655   0.984   0.250 -0.4854  0.1785 -0.3151
  894MPD2    C513103   3.677   0.914   0.141 -0.0778 -0.2933 -0.2266
  894MPD2     H13104   3.545   0.745   0.461  3.3281  0.1339  1.4544
  894MPD2    H113105   3.672   1.090   0.237  1.1192  0.2670  2.3559
  894MPD2    H213106   3.665   0.731   0.049  1.1887  2.7355 -1.3948
  894MPD2    H313107   3.703   0.960   0.046  0.9217 -0.3376  0.0342
  894MPD2     N13108   3.599   1.007   0.486 -0.2625  0.5080  0.8123
  894MPD2    H513109   3.589   0.950   0.570 -0.2678 -1.7886 -0.7226
  894MPD2    N113110   3.567   0.577   0.261  0.0554  0.1379  0.1215
  894MPD2    H713111   3.520   0.541   0.344 -0.2064 -1.2435 -0.6357
  895MPD2     C13112   2.421   3.558  13.457 -0.6170 -0.2961  0.6404
  895MPD2    C113113   2.356   3.565  13.336 -0.5188  0.1879  0.3550
  895MPD2    C213114   2.428   3.571  13.222 -0.7907 -0.5880 -0.6297
  895MPD2    C313115   2.563   3.591  13.224  0.6381  0.1478  0.9653
  895MPD2    C413116   2.629   3.578  13.341  0.3457  0.2636  0.0880
  895MPD2    C513117   2.556   3.561  13.455 -0.2882  0.2567  0.3826
  895MPD2     H13118   2.378   3.584  13.127 -0.8340 -1.8432 -0.7794
  895MPD2    H113119   2.735   3.591  13.358  0.0962  1.3334  0.7797
  895MPD2    H213120   2.365   3.569  13.550  0.3593 -0.8426  1.2882
  895MPD2    H313121   2.602   3.583  13.551  1.0284  2.7701 -0.8517
  895MPD2     N13122   2.623   3.622  13.103 -0.4315 -0.0115  0.0536
  895MPD2    H513123   2.571   3.633  13.016 -0.1063  0.0123 -0.1382
  895MPD2    N113124   2.216   3.559  13.323  0.3893  0.3266 -0.2212
  895MPD2    H713125   2.182   3.579  13.229 -1.7380 -1.8203  0.0663
  896MPD2     C13126   0.092   1.483   1.438 -0.3488  0.2932 -0.2414
  896MPD2    C113127   0.007   1.576   1.381 -1.0938 -0.8723 -0.2089
  896MPD2    C213128   4.611   1.523   1.323 -0.2976  0.1521 -0.1732
  896MPD2    C313129   4.593   1.387   1.302 -0.1623  0.2567  0.3434
  896MPD2    C413130   4.698   1.303   1.339 -0.2850 -0.2024  0.1637
  896MPD2    C513131   0.073   1.351   1.420  0.0534 -0.5712 -0.1445
  896MPD2     H13132   4.539   1.592   1.279 -1.4626 -1.2423 -0.4390
  896MPD2    H113133   4.684   1.195   1.343  2.9200 -0.7286 -2.4701
  896MPD2    H213134   0.182   1.508   1.493  0.1151 -0.9187 -0.4578
  896MPD2    H313135   0.136   1.289   1.483 -0.3170 -1.4954 -0.6712
  896MPD2     N13136   4.477   1.337   1.237  0.6270  0.3529 -0.6334
  896MPD2    H513137   4.407   1.404   1.208 -0.7430 -1.1833 -0.8979
  896MPD2    N113138   0.049   1.709   1.384 -0.2697  0.9164 -0.1630
  896MPD2    H713139   0.147   1.718   1.407 -0.6178 -0.2776  1.7890
  897MPD2     C13140   1.506   2.890  10.075 -0.0949  0.9294  0.6334
  897MPD2    C113141   1.458   3.019  10.086  0.3598 -0.2194 -0.0783
  897MPD2    C213142   1.337   3.043  10.156 -0.0901 -0.5382  0.3223
  897MPD2    C313143   1.262   2.933  10.200 -0.3501  0.8340  0.5177
  897MPD2    C413144   1.320   2.807  10.197 -0.5353  0.4527  0.3086
  897MPD2    C513145   1.446   2.789  10.141  0.2976 -0.0903  0.5401
  897MPD2     H13146   1.296   3.143  10.149 -1.0099 -0.8186  1.7618
  897MPD2    H113147   1.269   2.727  10.248  1.0506 -1.3518 -0.9128
  897MPD2    H213148   1.589   2.864  10.010  0.5078 -0.1188  1.8125
  897MPD2    H313149   1.491   2.691  10.148 -0.9145 -0.5129  2.7157
  897MPD2     N13150   1.126   2.969  10.244  0.0603 -0.0703 -0.1174
  897MPD2    H513151   1.102   3.068  10.248  1.1055  0.0787  2.5446
  897MPD2    N113152   1.529   3.128  10.026  0.8761  0.0412 -0.0675
  897MPD2    H713153   1.593   3.113   9.949  2.0504 -0.9291  1.1066
  898MPD2     C13154   3.727   3.349  17.448 -0.0774  0.0692  0.4338
  898MPD2    C113155   3.680   3.477  17.429 -0.3975  0.4731  0.1652
  898MPD2    C213156   3.669   3.531  17.306 -0.1177  0.3398 -0.0190
  898MPD2    C313157   3.704   3.454  17.196  0.3562  0.4230  0.2033
  898MPD2    C413158   3.756   3.330  17.213 -0.0319 -0.3166  0.6282
  898MPD2    C513159   3.768   3.270  17.336  0.2157  0.0256  0.1922
  898MPD2     H13160   3.639   3.634  17.288  2.6447  0.9122 -1.2519
  898MPD2    H113161   3.785   3.258  17.138  1.0945  0.1154  0.6557
  898MPD2    H213162   3.730   3.308  17.548  0.0427  0.6713  0.6748
  898MPD2    H313163   3.790   3.166  17.358  1.2891 -0.6766 -4.0261
  898MPD2     N13164   3.677   3.506  17.061 -0.1539 -0.0597  0.7635
  898MPD2    H513165   3.631   3.596  17.063  3.7970  1.9564  1.6133
  898MPD2    N113166   3.643   3.564  17.533  0.1010 -0.1212 -0.4878
  898MPD2    H713167   3.602   3.654  17.510 -0.8977 -0.8245 -1.4417
  899MPD2     C13168   3.887   4.194  17.117  0.5580  0.3834  0.0020
  899MPD2    C113169   3.940   4.290  17.194 -0.3400  0.7646 -0.5615
  899MPD2    C213170   3.999   4.270  17.323  0.5941  1.1050 -0.2129
  899MPD2    C313171   3.985   4.136  17.372 -0.1844  0.5499 -0.0472
  899MPD2    C413172   3.941   4.035  17.288  0.6671  0.4183 -0.2903
  899MPD2    C513173   3.896   4.069  17.166 -0.4345 -0.2929 -0.4693
  899MPD2     H13174   4.043   4.350  17.381 -1.7539  2.0313  0.3239
  899MPD2    H113175   3.937   3.935  17.329 -0.8727  0.9796  0.9292
  899MPD2    H213176   3.850   4.198  17.015  2.3559  0.5072 -0.6467
  899MPD2    H313177   3.853   3.993  17.102 -0.3445 -1.3319  0.7059
  899MPD2     N13178   4.023   4.093  17.501 -0.0727  0.1215  0.2888
  899MPD2    H513179   4.024   3.994  17.522  0.5514  0.6288  2.5992
  899MPD2    N113180   3.951   4.411  17.125 -0.6075  0.0709 -0.1550
  899MPD2    H713181   3.897   4.421  17.040 -0.6497  1.1438  0.0019
  900MPD2     C13182   3.755   1.430  12.249  0.2184 -0.0675 -0.4647
  900MPD2    C113183   3.717   1.366  12.364  0.3930 -0.3634 -0.3186
  900MPD2    C213184   3.637   1.430  12.456  0.9233 -0.5922 -0.2580
  900MPD2    C313185   3.589   1.558  12.424 -0.7311  0.4133 -1.2140
  900MPD2    C413186   3.621   1.620  12.303  1.1717 -0.0989  0.1652
  900MPD2    C513187   3.703   1.553  12.221 -0.0223  0.7239  0.3579
  900MPD2     H13188   3.623   1.399  12.559  0.7213 -1.7930 -0.6491
  900MPD2    H113189   3.591   1.718  12.268 -2.8533 -1.7983 -1.1593
  900MPD2    H213190   3.826   1.393  12.175  0.0223  0.2565 -0.8142
  900MPD2    H313191   3.739   1.610  12.136  0.4268  1.4748  1.0520
  900MPD2     N13192   3.519   1.634  12.520  0.5969 -0.5114 -0.3467
  900MPD2    H513193   3.482   1.585  12.601 -0.2273  0.1187 -0.3382
  900MPD2    N113194   3.780   1.245  12.405 -0.2518  0.1781  0.0680
  900MPD2    H713195   3.849   1.211  12.339 -0.9867 -0.0869 -0.5616
  901MPD2     C13196   3.790   0.283  12.907  0.1538  0.2576  0.0818
  901MPD2    C113197   3.918   0.308  12.858  0.1689 -0.1281  0.3086
  901MPD2    C213198   3.964   0.433  12.817 -0.0386  0.4885  0.8558
  901MPD2    C313199   3.871   0.539  12.814  0.8993 -0.7172 -0.7228
  901MPD2    C413200   3.739   0.516  12.861 -0.0300 -0.5489  0.7107
  901MPD2    C513201   3.704   0.395  12.915 -0.0160 -1.1535 -0.2035
  901MPD2     H13202   4.066   0.448  12.783 -0.7820  1.5330 -0.9248
  901MPD2    H113203   3.671   0.597  12.887  0.2861  0.1391 -0.6371
  901MPD2    H213204   3.760   0.188  12.947 -1.1335  1.5710  2.2346
  901MPD2    H313205   3.601   0.381  12.947 -0.0040 -0.9773 -0.0876
  901MPD2     N13206   3.920   0.670  12.772 -0.1127  0.2126 -0.2059
  901MPD2    H513207   4.016   0.678  12.741  0.0533 -1.6338 -0.1402
  901MPD2    N113208   3.996   0.189  12.855 -0.0760  0.0122 -0.2934
  901MPD2    H713209   3.949   0.104  12.883  2.1933 -0.8187  0.9606
  902MPD2     C13210   3.047   4.087  12.404  0.1675 -0.0201 -0.1727
  902MPD2    C113211   2.922   4.043  12.372 -0.1216 -0.1861 -0.1290
  902MPD2    C213212   2.903   3.928  12.299 -0.7434 -0.3048  0.3963
  902MPD2    C313213   3.013   3.852  12.252 -0.0453  1.5572  0.2070
  902MPD2    C413214   3.138   3.889  12.298  0.5121  0.9605 -0.5333
  902MPD2    C513215   3.154   4.010  12.361  0.3676  0.1824  0.0982
  902MPD2     H13216   2.808   3.891  12.262  0.5609 -1.4191 -1.8084
  902MPD2    H113217   3.233   3.843  12.274 -0.3711 -0.6266 -0.9998
  902MPD2    H213218   3.065   4.189  12.437  2.3180 -0.3230 -0.4066
  902MPD2    H313219   3.253   4.049  12.382  0.6628 -0.9919  0.8763
  902MPD2     N13220   2.987   3.742  12.172 -0.3093  0.0773 -0.0148
  902MPD2    H513221   2.889   3.734  12.146 -1.1292  3.4416  2.1204
  902MPD2    N113222   2.823   4.140  12.392  0.1091 -0.6770 -0.0693
  902MPD2    H713223   2.849   4.223  12.444 -0.2590  0.1345 -1.1715
  903MPD2     C13224   2.736   3.630  11.380  0.3755  0.1546  0.0442
  903MPD2    C113225   2.692   3.619  11.508 -0.1459 -0.4816  0.0121
  903MPD2    C213226   2.560   3.634  11.538 -0.1876  0.2717 -0.1039
  903MPD2    C313227   2.476   3.677  11.440 -0.6082 -0.2455 -0.0856
  903MPD2    C413228   2.512   3.672  11.309  0.3536  0.0321 -0.1386
  903MPD2    C513229   2.649   3.645  11.277  0.1565 -0.2396  0.3519
  903MPD2     H13230   2.535   3.606  11.640  1.4315  0.1024  0.2460
  903MPD2    H113231   2.443   3.699  11.231 -1.0094  0.3522  1.1907
  903MPD2    H213232   2.840   3.616  11.353  0.1163  1.4006 -1.6057
  903MPD2    H313233   2.683   3.636  11.175  0.8213  2.1836  0.3702
  903MPD2     N13234   2.344   3.701  11.469 -0.0197 -0.4246  0.3071
  903MPD2    H513235   2.310   3.702  11.565  0.3637 -1.1635  0.4493
  903MPD2    N113236   2.791   3.580  11.607 -0.5745 -0.5907  0.6355
  903MPD2    H713237   2.882   3.565  11.565 -0.2146  1.1411  0.7960
  904MPD2     C13238   2.686   2.730  13.469  0.1339  0.0470 -0.2388
  904MPD2    C113239   2.652   2.794  13.586  0.9373  0.2058  0.2072
  904MPD2    C213240   2.754   2.833  13.673 -0.3143  0.6248 -0.0834
  904MPD2    C313241   2.893   2.816  13.641  0.0725  0.0117  0.1249
  904MPD2    C413242   2.918   2.757  13.522 -0.1531  0.0945  0.6785
  904MPD2    C513243   2.818   2.706  13.441 -0.3261 -0.8056  0.5577
  904MPD2     H13244   2.726   2.885  13.763  3.1104  1.3188  0.5668
  904MPD2    H113245   3.020   2.731  13.495  0.2206  1.2321  0.9830
  904MPD2    H213246   2.615   2.700  13.393 -1.4180  1.6672  0.5698
  904MPD2    H313247   2.845   2.652  13.351 -3.9436  1.0072 -1.6227
  904MPD2     N13248   2.994   2.873  13.720 -0.1376  0.1645  0.3473
  904MPD2    H513249   2.961   2.897  13.813  0.7654 -0.9282  0.9523
  904MPD2    N113250   2.521   2.837  13.624  0.0561 -0.2177  0.0300
  904MPD2    H713251   2.528   2.900  13.704 -2.0873  0.9888 -0.7379
  905MPD2     C13252   2.224   3.205  12.998  0.0291 -0.6057  0.5001
  905MPD2    C113253   2.326   3.230  13.089 -0.2867 -0.7099  0.0560
  905MPD2    C213254   2.437   3.294  13.053 -0.4391  1.0730  0.1397
  905MPD2    C313255   2.445   3.339  12.920 -0.8644 -0.3670 -0.9372
  905MPD2    C413256   2.341   3.321  12.831 -0.1357 -0.5161 -0.1630
  905MPD2    C513257   2.229   3.261  12.871  0.5440 -0.0594 -0.6304
  905MPD2     H13258   2.516   3.320  13.122 -1.2943  0.0730  1.4937
  905MPD2    H113259   2.336   3.353  12.727  0.2888  0.8049  0.2406
  905MPD2    H213260   2.134   3.154  13.029 -0.6819  0.9262  0.9688
  905MPD2    H313261   2.148   3.246  12.801  2.5462 -0.1044 -2.9256
  905MPD2     N13262   2.568   3.402  12.878  0.0204 -0.1713 -0.2288
  905MPD2    H513263   2.642   3.412  12.947 -0.9298 -0.0898  0.7847
  905MPD2    N113264   2.321   3.187  13.223 -0.1507 -0.1467  0.7025
  905MPD2    H713265   2.399   3.208  13.284 -1.8132  3.2543  1.6284
  906MPD2     C13266   4.701   3.249  11.045 -0.1631  0.4367 -0.0828
  906MPD2    C113267   4.685   3.146  10.950  0.1079  0.1627  0.3631
  906MPD2    C213268   0.000   3.020  10.995  0.5286  0.4640 -0.1831
  906MPD2    C313269   0.044   2.995  11.123 -0.0484 -0.4943  0.5538
  906MPD2    C413270   0.042   3.093  11.216 -0.3918 -0.7814  0.5045
  906MPD2    C513271   0.007   3.221  11.174  0.2949  0.0047  0.1397
  906MPD2     H13272   0.006   2.939  10.922  1.8714  0.6425 -0.2753
  906MPD2    H113273   0.072   3.079  11.319  0.5106 -0.3639  0.2935
  906MPD2    H213274   4.702   3.353  11.016 -0.1831  0.2578 -0.7174
  906MPD2    H313275   0.010   3.302  11.246 -0.1729 -0.4393  0.6553
  906MPD2     N13276   0.077   2.867  11.179  0.1666  0.3900  0.1636
  906MPD2    H513277   0.080   2.862  11.281  1.6017 -1.8209 -0.0057
  906MPD2    N113278   4.663   3.166  10.814  0.1979  0.1698 -0.7023
  906MPD2    H713279   4.649   3.087  10.752  0.4630  0.3149 -0.9451
  907MPD2     C13280   3.045   2.000  15.434  0.3528  0.5464  0.0366
  907MPD2    C113281   3.138   1.909  15.391 -0.1816  0.2689  0.1486
  907MPD2    C213282   3.238   1.863  15.479  0.0241 -0.1379 -0.8337
  907MPD2    C313283   3.247   1.918  15.606 -1.0036  0.2814  0.2202
  907MPD2    C413284   3.139   1.991  15.655 -1.0715 -0.4016  0.5098
  907MPD2    C513285   3.039   2.028  15.567 -0.1789  0.3427  0.1590
  907MPD2     H13286   3.312   1.793  15.441 -1.0412 -2.8988  2.1387
  907MPD2    H113287   3.123   2.009  15.761 -1.1081  0.6222  0.3256
  907MPD2    H213288   2.972   2.046  15.369  1.4548 -1.8779 -2.9231
  907MPD2    H313289   2.952   2.078  15.607 -2.4873 -1.4781 -2.6354
  907MPD2     N13290   3.351   1.877  15.697  0.2633 -1.1041  0.0364
  907MPD2    H513291   3.402   1.794  15.667  1.8988 -0.3868  0.8165
  907MPD2    N113292   3.139   1.862  15.257  0.1206  0.1516 -0.5752
  907MPD2    H713293   3.204   1.787  15.235 -0.0026 -0.5587  1.5255
  908MPD2     C13294   1.062   2.969   9.402 -0.1075 -0.0873  0.0992
  908MPD2    C113295   1.101   2.924   9.527 -0.4972 -0.2181  0.3454
  908MPD2    C213296   1.168   3.011   9.613 -0.2680 -0.0268  0.3852
  908MPD2    C313297   1.205   3.139   9.572 -0.2289 -0.3824  0.3708
  908MPD2    C413298   1.174   3.176   9.444 -0.0208 -0.2266 -0.5534
  908MPD2    C513299   1.101   3.095   9.359  0.1525  0.2869 -0.4242
  908MPD2     H13300   1.186   2.979   9.715  1.2949  1.0274  0.4454
  908MPD2    H113301   1.193   3.280   9.419 -0.4460  0.0881  0.4459
  908MPD2    H213302   0.996   2.909   9.340 -0.3568  0.6279 -0.3283
  908MPD2    H313303   1.055   3.140   9.272  0.4132 -1.0940 -1.2842
  908MPD2     N13304   1.279   3.228   9.656  0.6324  0.2650  0.3252
  908MPD2    H513305   1.296   3.188   9.747  0.2410  0.6684  0.5744
  908MPD2    N113306   1.071   2.791   9.582 -0.1762 -0.0006  0.1312
  908MPD2    H713307   1.117   2.774   9.671  1.0418  0.2251 -0.4494
  909MPD2     C13308   1.409   1.098  12.087 -0.2476 -0.0543 -0.8364
  909MPD2    C113309   1.365   1.133  11.962  0.4406  0.5193  1.1546
  909MPD2    C213310   1.233   1.150  11.927 -0.8804  0.2042  0.0989
  909MPD2    C313311   1.138   1.149  12.029 -0.3257  0.3831 -0.3243
  909MPD2    C413312   1.186   1.105  12.148  0.6384  0.4410  0.2770
  909MPD2    C513313   1.315   1.088  12.185 -0.3973  0.0068 -0.7778
  909MPD2     H13314   1.207   1.177  11.825  1.0201  2.5876  0.2568
  909MPD2    H113315   1.116   1.082  12.228 -1.0484  2.3840 -0.6472
  909MPD2    H213316   1.511   1.067  12.107 -0.6725  1.0996  3.0848
  909MPD2    H313317   1.347   1.046  12.279 -0.6114  1.2428 -0.1517
  909MPD2     N13318   1.003   1.148  11.999 -0.1018  0.2968  0.4754
  909MPD2    H513319   0.974   1.154  11.902  0.6068  1.9833  0.3685
  909MPD2    N113320   1.453   1.147  11.857 -0.2266  0.6027 -0.0108
  909MPD2    H713321   1.408   1.180  11.772  0.4657  1.4295 -0.0576
  910MPD2     C13322   3.230   2.424  15.899 -0.1516  0.0587 -0.1183
  910MPD2    C113323   3.139   2.323  15.870  0.2107 -0.7184  0.1591
  910MPD2    C213324   3.079   2.321  15.743 -0.3154 -0.1131  0.5549
  910MPD2    C313325   3.092   2.432  15.659 -0.4886 -0.4486  0.3828
  910MPD2    C413326   3.189   2.521  15.687  0.8394 -0.5632  0.0482
  910MPD2    C513327   3.262   2.518  15.801  0.6376  0.6477  0.0688
  910MPD2     H13328   3.005   2.245  15.719 -0.0805 -0.0509 -0.3457
  910MPD2    H113329   3.199   2.606  15.621  0.7810  1.2369  2.3761
  910MPD2    H213330   3.293   2.428  15.987  1.1283 -2.0689 -0.9297
  910MPD2    H313331   3.321   2.604  15.828  0.1710  0.5499  1.4016
  910MPD2     N13332   3.014   2.450  15.547  0.0165  0.1052 -0.1360
  910MPD2    H513333   3.030   2.524  15.480  1.1143  2.3078  2.5806
  910MPD2    N113334   3.122   2.218  15.963  0.1253  0.0782 -0.3820
  910MPD2    H713335   3.053   2.148  15.937 -0.4148  0.3211  0.3830
  911MPD2     C13336   0.598   3.197  15.677 -0.8966 -0.2280  0.3204
  911MPD2    C113337   0.635   3.199  15.809 -0.5490  0.1897 -0.0413
  911MPD2    C213338   0.575   3.307  15.883 -0.7201  1.2080  0.0171
  911MPD2    C313339   0.462   3.373  15.835  0.2144 -0.6053 -0.5223
  911MPD2    C413340   0.431   3.351  15.706  0.2642 -0.2005 -0.4504
  911MPD2    C513341   0.489   3.262  15.630 -0.6557  0.3726  0.0986
  911MPD2     H13342   0.603   3.307  15.988  0.4260 -2.4421 -0.2809
  911MPD2    H113343   0.342   3.393  15.660 -0.0396  0.0491  0.3628
  911MPD2    H213344   0.641   3.133  15.601 -1.9059  1.3941 -1.6089
  911MPD2    H313345   0.445   3.238  15.533 -1.5999 -0.3706  0.7041
  911MPD2     N13346   0.381   3.459  15.909  0.3064 -1.1519 -0.6966
  911MPD2    H513347   0.292   3.488  15.867 -0.7166 -0.3397  2.0549
  911MPD2    N113348   0.736   3.109  15.846  0.0514  0.1090  0.5161
  911MPD2    H713349   0.772   3.040  15.782 -0.9564  0.7943 -0.7898
  912MPD2     C13350   0.107   3.374  15.564 -0.3948  0.2544 -0.3922
  912MPD2    C113351   0.096   3.368  15.700 -0.1719  1.0528 -0.5382
  912MPD2    C213352   0.120   3.249  15.767 -0.6093  0.8078 -0.3977
  912MPD2    C313353   0.174   3.138  15.690 -0.2333 -0.3509 -0.0100
  912MPD2    C413354   0.183   3.151  15.554 -0.2486 -0.2945  0.6263
  912MPD2    C513355   0.132   3.262  15.487 -0.7151 -0.2071  0.0320
  912MPD2     H13356   0.126   3.238  15.875  0.4202  0.1400 -0.5311
  912MPD2    H113357   0.231   3.071  15.499 -2.8902 -2.1495  0.9872
  912MPD2    H213358   0.085   3.467  15.513 -1.4759 -0.6579 -1.6085
  912MPD2    H313359   0.144   3.266  15.379  0.7960  0.1885  0.2216
  912MPD2     N13360   0.212   3.020  15.767  0.0281  0.3700 -0.9640
  912MPD2    H513361   0.209   3.021  15.869 -0.4368 -0.1555 -0.9741
  912MPD2    N113362   0.066   3.495  15.755  0.3824 -0.6876  0.2834
  912MPD2    H713363   0.071   3.575  15.693  1.4192 -1.3270 -0.4498
  913MPD2     C13364   1.238   4.358  10.722  0.2863 -0.3276 -0.2887
  913MPD2    C113365   1.258   4.487  10.758 -0.0530  0.0053  0.3119
  913MPD2    C213366   1.230   4.585  10.664  0.0399 -0.2513 -0.8701
  913MPD2    C313367   1.175   4.553  10.543 -0.8551 -0.0894 -0.4685
  913MPD2    C413368   1.150   4.421  10.520  0.7860  0.0960  0.5304
  913MPD2    C513369   1.187   4.325  10.608  0.4802  0.1873  0.8115
  913MPD2     H13370   1.239   4.690  10.690  1.6937 -0.6139  0.0241
  913MPD2    H113371   1.120   4.394  10.419 -2.4348  0.8324  1.2780
  913MPD2    H213372   1.258   4.267  10.777  0.0347  0.3175  0.8858
  913MPD2    H313373   1.169   4.222  10.581 -1.2503 -0.2708  3.6905
  913MPD2     N13374   1.141   4.650  10.443  0.4431 -0.1280  0.2581
  913MPD2    H513375   1.093   4.620  10.358  1.2016 -0.3234 -0.1013
  913MPD2    N113376   1.293   4.508  10.892 -0.6149  0.2718 -0.3499
  913MPD2    H713377   1.319   4.422  10.940  1.2413  0.8593 -0.2935
  914MPD2     C13378   3.807   4.483  12.183  0.2000  0.4975  0.3222
  914MPD2    C113379   3.735   4.564  12.271  0.5604  0.0396 -0.4170
  914MPD2    C213380   3.778   4.559  12.402  1.3133 -0.4604  0.8275
  914MPD2    C313381   3.898   4.506  12.444 -0.1551 -1.1880 -0.3033
  914MPD2    C413382   3.976   4.441  12.347 -0.6553 -0.0317  0.3166
  914MPD2    C513383   3.928   4.422  12.221  0.0699 -0.3781  0.4256
  914MPD2     H13384   3.713   4.598  12.479  2.6474 -1.3101  2.4031
  914MPD2    H113385   4.069   4.390  12.374 -1.0112 -0.1312  1.3791
  914MPD2    H213386   3.763   4.464  12.086 -0.1109  3.5061 -0.1155
  914MPD2    H313387   3.991   4.357  12.160  1.0911  1.5628 -0.6121
  914MPD2     N13388   3.938   4.529  12.579 -0.2515 -0.3039  0.4969
  914MPD2    H513389   3.876   4.575  12.645 -0.3321 -0.3066  0.4231
  914MPD2    N113390   3.612   4.628  12.229 -0.3054  0.4615  0.2683
  914MPD2    H713391   3.589   4.612  12.131 -0.5011  0.2832  0.3435
  915MPD2     C13392   1.910   4.723  15.885 -0.5348  0.4984 -0.2459
  915MPD2    C113393   1.885   0.128  15.856  0.1221  0.3508  0.2253
  915MPD2    C213394   1.839   0.221  15.952  0.6846 -0.6407 -0.5255
  915MPD2    C313395   1.807   0.169  16.071  0.2685  0.0291  1.3266
  915MPD2    C413396   1.826   0.034  16.105 -0.2587  0.2500  0.1047
  915MPD2    C513397   1.872   4.670  16.010  0.1730  0.5900  0.3566
  915MPD2     H13398   1.801   0.321  15.933  2.6445  0.6969  2.6434
  915MPD2    H113399   1.796   4.712  16.199  0.2134 -2.3394 -0.9561
  915MPD2    H213400   1.953   4.663  15.806 -1.0739 -1.3920  0.8670
  915MPD2    H313401   1.887   4.568  16.044 -0.1352  0.3894 -0.1079
  915MPD2     N13402   1.747   0.263  16.162 -0.8528  0.3783  0.0742
  915MPD2    H513403   1.764   0.359  16.134  1.6370 -0.3937 -1.1212
  915MPD2    N113404   1.911   0.161  15.718  0.1200 -0.0067  0.3348
  915MPD2    H713405   1.937   0.085  15.655  1.8885  3.2261 -2.8079
  916MPD2     C13406   4.349   2.855  15.431  0.3518  0.4300  0.5103
  916MPD2    C113407   4.466   2.818  15.494  0.2753  0.1264 -0.1776
  916MPD2    C213408   4.542   2.721  15.429 -0.1030  0.6842  0.5027
  916MPD2    C313409   4.525   2.683  15.300 -0.4017  0.5178  0.4842
  916MPD2    C413410   4.401   2.708  15.244  0.4566  0.8551 -0.4226
  916MPD2    C513411   4.322   2.811  15.303  0.9887  0.8700  0.6106
  916MPD2     H13412   4.632   2.680  15.473 -0.2149  0.3029  0.3729
  916MPD2    H113413   4.365   2.672  15.148  2.3487 -0.8427 -0.4857
  916MPD2    H213414   4.272   2.915  15.477  0.9409  0.3058  1.6602
  916MPD2    H313415   4.234   2.851  15.253  0.2178  0.6215  1.7600
  916MPD2     N13416   4.630   2.611  15.240 -0.0915 -0.4178  0.2576
  916MPD2    H513417   4.715   2.600  15.295 -1.3777 -2.4163  1.8142
  916MPD2    N113418   4.498   2.884  15.617  0.9430  0.1702 -0.3980
  916MPD2    H713419   4.437   2.960  15.645  0.3954 -0.5284  0.3316
  917MPD2     C13420   0.707   0.631  11.416 -0.2131  0.1194 -0.6946
  917MPD2    C113421   0.678   0.739  11.489  0.0730  0.0900  0.6264
  917MPD2    C213422   0.738   0.863  11.462  0.6878 -0.3521 -0.0387
  917MPD2    C313423   0.826   0.881  11.356 -0.1233  0.0439 -0.5717
  917MPD2    C413424   0.856   0.768  11.279 -0.0528  0.5489  0.1187
  917MPD2    C513425   0.800   0.645  11.318 -0.0299 -0.4005 -0.4380
  917MPD2     H13426   0.701   0.956  11.502 -2.2994 -1.2420 -0.7154
  917MPD2    H113427   0.921   0.772  11.192  1.7267  1.6369  1.5000
  917MPD2    H213428   0.664   0.533  11.431 -0.5015  0.1590 -1.2662
  917MPD2    H313429   0.823   0.551  11.269  0.3651 -0.0191 -0.9890
  917MPD2     N13430   0.882   1.002  11.318  0.4660  0.0237 -0.0357
  917MPD2    H513431   0.913   1.010  11.222 -0.7742  0.4255 -0.3993
  917MPD2    N113432   0.581   0.736  11.593 -0.5902  0.6411  0.4979
  917MPD2    H713433   0.584   0.812  11.660 -1.4702  0.9123  0.2316
  918MPD2     C13434   0.817   0.946  12.405  0.0640 -0.3769  0.5075
  918MPD2    C113435   0.874   0.858  12.313 -0.0299  0.3880 -0.0325
  918MPD2    C213436   0.793   0.802  12.213 -0.6033 -0.3427  0.6179
  918MPD2    C313437   0.660   0.829  12.207 -0.2383 -0.6162 -0.4246
  918MPD2    C413438   0.606   0.916  12.304 -0.6762 -0.4320 -0.6164
  918MPD2    C513439   0.686   0.972  12.401 -0.3190 -0.1416  0.9330
  918MPD2     H13440   0.845   0.737  12.144  0.7973  0.2877  1.0751
  918MPD2    H113441   0.504   0.953  12.307 -0.3564  0.3840 -0.0691
  918MPD2    H213442   0.877   1.000  12.477  0.8700 -0.2552 -0.2582
  918MPD2    H313443   0.642   1.034  12.479  1.1346  1.9015  0.1325
  918MPD2     N13444   0.596   0.778  12.089 -0.1784 -0.0776 -0.5395
  918MPD2    H513445   0.653   0.741  12.013 -0.6829 -3.0902  0.5613
  918MPD2    N113446   1.009   0.821  12.326 -0.4248  0.4499  0.2616
  918MPD2    H713447   1.048   0.781  12.242 -1.6482  0.1738 -0.1762
  919MPD2     C13448   0.961   4.622  11.573 -0.1329  0.4988  0.0904
  919MPD2    C113449   0.902   4.504  11.524  0.1374 -0.2425  0.2644
  919MPD2    C213450   0.888   4.496  11.387  0.2070  0.7317  0.0632
  919MPD2    C313451   0.936   4.587  11.299 -0.8149 -0.3954 -0.4987
  919MPD2    C413452   0.999   4.703  11.356 -0.3117  0.0158 -0.1048
  919MPD2    C513453   1.003   4.721  11.490  0.0748  0.5033  0.1342
  919MPD2     H13454   0.841   4.407  11.347  0.5559  1.2623 -1.5461
  919MPD2    H113455   1.042   0.065  11.303 -2.1405 -0.4785 -2.4119
  919MPD2    H213456   0.982   4.618  11.679 -0.8038  0.1009  0.2088
  919MPD2    H313457   1.063   0.079  11.530  2.6387 -0.1203 -2.4381
  919MPD2     N13458   0.940   4.575  11.158 -0.3890 -0.1984  0.1941
  919MPD2    H513459   0.977   4.655  11.108  0.2103 -0.7325 -0.2087
  919MPD2    N113460   0.867   4.391  11.605  0.0554  0.1811 -0.4910
  919MPD2    H713461   0.841   4.309  11.551  0.8691  0.2488 -0.9918
  920MPD2     C13462   0.799   0.385  10.373  0.6367 -0.3414  0.3210
  920MPD2    C113463   0.709   0.289  10.344 -0.1691  0.3812  0.4829
  920MPD2    C213464   0.725   0.171  10.415 -0.1519 -0.5094  0.1406
  920MPD2    C313465   0.819   0.156  10.516  0.4963  0.0711  0.0867
  920MPD2    C413466   0.906   0.264  10.545  0.3277  0.6225 -0.4026
  920MPD2    C513467   0.897   0.378  10.475 -0.0544  0.6238 -0.4062
  920MPD2     H13468   0.653   0.094  10.391  0.3707 -0.9900  0.1255
  920MPD2    H113469   0.990   0.268  10.613  0.1618  1.0080 -0.2221
  920MPD2    H213470   0.798   0.483  10.325 -2.4293 -0.4250  0.2148
  920MPD2    H313471   0.959   0.463  10.500  1.2347 -0.0995 -1.1393
  920MPD2     N13472   0.824   0.039  10.593  0.2638  0.0178  0.1113
  920MPD2    H513473   0.756   4.688  10.579  1.7373 -1.8444  2.6668
  920MPD2    N113474   0.607   0.305  10.243  0.3770  0.1524 -0.1744
  920MPD2    H713475   0.538   0.230  10.244  0.1550  0.3373 -3.1325
  921MPD2     C13476   1.481   3.199  16.453 -0.2700  0.3246 -0.3145
  921MPD2    C113477   1.511   3.116  16.349  0.4094 -0.2401  0.3742
  921MPD2    C213478   1.407   3.046  16.286  1.1709  0.1260 -0.1362
  921MPD2    C313479   1.277   3.050  16.339  0.2015  0.8151  0.2004
  921MPD2    C413480   1.258   3.117  16.455  0.2369  0.6862 -0.3465
  921MPD2    C513481   1.355   3.190  16.516  0.2418  0.2571 -0.6029
  921MPD2     H13482   1.434   2.978  16.206 -4.2215 -1.4024 -0.6799
  921MPD2    H113483   1.158   3.105  16.496  0.5234  0.5809  0.3346
  921MPD2    H213484   1.554   3.259  16.506 -0.0364  1.2755 -1.6931
  921MPD2    H313485   1.338   3.239  16.611  0.6107 -1.5906  0.4178
  921MPD2     N13486   1.165   2.982  16.284 -0.5980  0.2448 -0.6475
  921MPD2    H513487   1.072   2.995  16.322 -0.2835  0.9588 -0.1100
  921MPD2    N113488   1.638   3.126  16.299 -0.0295  0.5885  0.6183
  921MPD2    H713489   1.693   3.202  16.339 -0.4227  1.2809 -0.1437
  922MPD2     C13490   2.663   1.847  17.545 -0.0764  0.6792 -0.4805
  922MPD2    C113491   2.538   1.892  17.592 -0.4492  0.8951  0.1403
  922MPD2    C213492   2.433   1.795  17.606  0.1129  0.2120  1.0295
  922MPD2    C313493   2.463   1.661  17.589  0.5757 -0.1404  0.0297
  922MPD2    C413494   2.594   1.610  17.581  0.3765 -0.2842  0.7818
  922MPD2    C513495   2.690   1.708  17.556  0.5381  0.0602  0.2247
  922MPD2     H13496   2.331   1.829  17.617  0.6864  1.9892  0.9544
  922MPD2    H113497   2.628   1.507  17.579 -1.6126 -0.9003 -1.1046
  922MPD2    H213498   2.739   1.914  17.508  2.4699 -1.9706 -0.0451
  922MPD2    H313499   2.784   1.659  17.534 -0.1579 -0.2587 -1.9719
  922MPD2     N13500   2.351   1.575  17.581  0.4860  0.9242 -0.1819
  922MPD2    H513501   2.263   1.625  17.596  0.7484  0.4992  2.7703
  922MPD2    N113502   2.503   2.020  17.631 -0.1782  0.3404 -0.3460
  922MPD2    H713503   2.408   2.040  17.662 -0.7403 -1.2974 -1.0109
  923MPD2     C13504   3.872   3.212   8.995  0.0601 -0.0594 -0.0128
  923MPD2    C113505   3.789   3.294   9.065  0.7120  0.0836  0.5942
  923MPD2    C213506   3.843   3.367   9.170 -0.0237  0.0587 -0.2092
  923MPD2    C313507   3.980   3.355   9.199 -0.1922  0.3426  0.1836
  923MPD2    C413508   4.054   3.267   9.131  0.0026 -0.0727 -0.2302
  923MPD2    C513509   4.006   3.200   9.023  0.5837  0.0880 -0.4313
  923MPD2     H13510   3.778   3.432   9.226 -0.4267  0.1160 -0.7411
  923MPD2    H113511   4.157   3.262   9.162  0.2176  0.0434 -0.9169
  923MPD2    H213512   3.830   3.164   8.906 -0.5358  1.8094 -0.7303
  923MPD2    H313513   4.058   3.122   8.969  1.8401  0.1902  0.6293
  923MPD2     N13514   4.045   3.424   9.306 -0.3342 -0.0051  0.3561
  923MPD2    H513515   4.136   3.383   9.326 -1.0353 -2.0065 -0.4906
  923MPD2    N113516   3.654   3.296   9.029  0.1981  0.6452 -0.2538
  923MPD2    H713517   3.629   3.223   8.963 -1.2749  1.4014 -0.5305
  924MPD2     C13518   3.803   1.161  15.802  0.5165 -0.0724  0.3075
  924MPD2    C113519   3.809   1.214  15.930  0.1228 -0.3037 -0.2121
  924MPD2    C213520   3.785   1.352  15.937 -0.1647 -0.1315  0.4587
  924MPD2    C313521   3.766   1.428  15.821  0.7298  0.1324  0.6246
  924MPD2    C413522   3.768   1.370  15.698  0.3300  0.2801 -0.7193
  924MPD2    C513523   3.796   1.236  15.688  0.8702 -0.0075 -0.1408
  924MPD2     H13524   3.779   1.402  16.033  0.4194  2.2131 -0.7238
  924MPD2    H113525   3.751   1.430  15.609  0.3816 -0.7582 -1.4436
  924MPD2    H213526   3.816   1.054  15.795  1.6919 -0.0968  2.7497
  924MPD2    H313527   3.794   1.184  15.593  0.6234  0.6087 -0.4717
  924MPD2     N13528   3.743   1.567  15.821  0.2471 -0.6607 -0.1433
  924MPD2    H513529   3.733   1.605  15.727 -0.7998 -0.2478  0.1369
  924MPD2    N113530   3.835   1.128  16.038  0.3583 -0.3198  0.0263
  924MPD2    H713531   3.838   1.029  16.016  1.3229  0.0930 -1.6919
  925MPD2     C13532   2.642   3.855  14.848  0.4853 -0.0630  0.6202
  925MPD2    C113533   2.533   3.879  14.767 -0.3860  0.0027 -0.2486
  925MPD2    C213534   2.419   3.930  14.826  0.2506 -0.4453  0.1301
  925MPD2    C313535   2.413   3.944  14.964  0.5395 -0.2376  0.1466
  925MPD2    C413536   2.528   3.924  15.037  0.0787 -0.5952 -0.3383
  925MPD2    C513537   2.639   3.871  14.981  0.5903 -0.2397  0.3258
  925MPD2     H13538   2.329   3.952  14.768 -0.7786  0.0036  1.8806
  925MPD2    H113539   2.521   3.934  15.145  1.2415  1.9784 -0.5258
  925MPD2    H213540   2.731   3.806  14.810 -0.0002  0.3139 -1.0060
  925MPD2    H313541   2.731   3.857  15.036  0.6245 -1.4313 -0.0369
  925MPD2     N13542   2.293   3.978  15.036 -0.2526 -0.0399 -0.2353
  925MPD2    H513543   2.295   3.964  15.137  0.4405  0.2301 -0.2129
  925MPD2    N113544   2.541   3.861  14.621 -0.1996  0.0737 -0.5068
  925MPD2    H713545   2.480   3.915  14.562 -0.5961  0.6409  0.4243
  926MPD2     C13546   1.118   2.396  13.081  0.5746  0.0400 -0.4236
  926MPD2    C113547   1.067   2.521  13.052 -0.4478  0.0967  0.3624
  926MPD2    C213548   1.116   2.598  12.957  0.2898 -0.0335  0.5328
  926MPD2    C313549   1.219   2.543  12.882 -0.0188  0.0320 -0.0299
  926MPD2    C413550   1.259   2.409  12.898 -0.4612 -0.8081  0.3886
  926MPD2    C513551   1.215   2.340  13.005 -0.0895  0.4080 -0.4850
  926MPD2     H13552   1.079   2.699  12.944 -0.6035 -0.1562  2.1815
  926MPD2    H113553   1.340   2.367  12.840 -0.6050 -0.0004 -0.4035
  926MPD2    H213554   1.073   2.341  13.163  0.4923  2.1092  0.9462
  926MPD2    H313555   1.259   2.241  13.013 -2.6595 -0.6849  0.0388
  926MPD2     N13556   1.288   2.608  12.776  0.4411  0.1421  0.5231
  926MPD2    H513557   1.369   2.557  12.744  0.9622  0.9644  0.5164
  926MPD2    N113558   0.971   2.584  13.136 -0.1391 -0.5248  0.0192
  926MPD2    H713559   0.951   2.682  13.118 -1.4496 -0.7506  0.1897
  927MPD2     C13560   0.202   0.184  17.615 -0.5123  0.2337 -0.0990
  927MPD2    C113561   0.311   0.236  17.677  0.4361 -0.6460  0.6088
  927MPD2    C213562   0.433   0.182  17.647  0.2297 -0.8349 -0.4342
  927MPD2    C313563   0.457   0.087  17.554 -0.0890 -0.0228  0.1485
  927MPD2    C413564   0.350   0.039  17.483 -0.0023 -0.7347  0.0825
  927MPD2    C513565   0.221   0.082  17.519 -0.0910 -0.7932  0.2071
  927MPD2     H13566   0.525   0.226  17.685 -0.3640 -1.0250  1.2350
  927MPD2    H113567   0.359   4.695  17.397  0.5648 -1.7439  0.9312
  927MPD2    H213568   0.104   0.226  17.636 -0.1189  0.8487  0.4879
  927MPD2    H313569   0.134   0.037  17.473 -0.9677  2.1542 -0.9535
  927MPD2     N13570   0.594   0.057  17.528 -0.1203 -0.1663 -0.4517
  927MPD2    H513571   0.670   0.092  17.586 -0.6291 -2.4148  1.5492
  927MPD2    N113572   0.298   0.342   0.076  0.7180  0.5207 -0.2752
  927MPD2    H713573   0.201   0.367   0.094  0.2940 -2.2422  1.3609
  928MPD2     C13574   4.595   3.153   0.650  0.0691 -0.2490 -0.1458
  928MPD2    C113575   4.564   3.265   0.722  0.8458 -0.4283  0.0513
  928MPD2    C213576   4.498   3.371   0.659  0.7340  0.4765  0.4010
  928MPD2    C313577   4.461   3.363   0.527 -0.9994 -0.1118  0.4551
  928MPD2    C413578   4.486   3.249   0.456  0.1536 -0.0150 -1.0480
  928MPD2    C513579   4.557   3.147   0.517 -0.6500 -0.0008 -0.2691
  928MPD2     H13580   4.455   3.450   0.719 -1.2526 -0.1416 -0.1928
  928MPD2    H113581   4.444   3.222   0.360 -1.1228  1.0133 -0.7743
  928MPD2    H213582   4.642   3.069   0.700  1.2327  1.1221  1.0430
  928MPD2    H313583   4.595   3.061   0.464 -1.1716  0.1146 -0.8241
  928MPD2     N13584   4.412   3.470   0.457 -0.0889  0.2658  0.1186
  928MPD2    H513585   4.380   3.461   0.362 -0.3043 -2.3340  0.4455
  928MPD2    N113586   4.606   3.269   0.858 -0.3708 -0.6357 -0.0256
  928MPD2    H713587   4.673   3.198   0.886  1.0202  0.5375 -0.4223
  929MPD2     C13588   3.755   3.093   9.546  0.1089 -0.5968 -0.4250
  929MPD2    C113589   3.631   3.050   9.578  0.3992  0.1744  0.9424
  929MPD2    C213590   3.515   3.123   9.547  0.7459 -0.6508 -0.4201
  929MPD2    C313591   3.523   3.250   9.484  0.3404 -0.9333  0.2912
  929MPD2    C413592   3.650   3.293   9.459 -0.1342 -0.4371  0.3830
  929MPD2    C513593   3.758   3.212   9.487 -0.1927  0.9482  0.3940
  929MPD2     H13594   3.426   3.097   9.602  2.7739 -0.0781  3.1307
  929MPD2    H113595   3.663   3.397   9.433  2.1484 -1.8891 -4.2537
  929MPD2    H213596   3.850   3.042   9.560 -0.5597 -1.4341  1.0047
  929MPD2    H313597   3.854   3.251   9.455 -0.4027 -0.5654 -2.0596
  929MPD2     N13598   3.415   3.328   9.460 -0.0116  0.1046  0.0598
  929MPD2    H513599   3.435   3.420   9.421 -2.2805  0.4358 -0.3168
  929MPD2    N113600   3.626   2.921   9.654  0.6861  0.1101  0.3260
  929MPD2    H713601   3.715   2.885   9.686  1.0804  0.9985  0.2170
  930MPD2     C13602   0.456   0.953  14.440 -0.8053 -0.2168 -0.6933
  930MPD2    C113603   0.553   0.889  14.367 -0.0500  0.3463  0.0731
  930MPD2    C213604   0.525   0.778  14.295  0.0658 -0.3110  0.3034
  930MPD2    C313605   0.397   0.724  14.301 -0.3856 -0.2945  0.1543
  930MPD2    C413606   0.301   0.788  14.380  0.3845  0.3613 -0.6684
  930MPD2    C513607   0.331   0.902  14.447  0.6924  0.0819 -0.3764
  930MPD2     H13608   0.596   0.728  14.231 -0.1461 -0.3329  0.0899
  930MPD2    H113609   0.201   0.748  14.393  0.2162  1.5139  1.5077
  930MPD2    H213610   0.470   1.050  14.487 -0.7980 -0.1345 -0.8637
  930MPD2    H313611   0.262   0.947  14.518 -1.9497 -0.4152 -2.6086
  930MPD2     N13612   0.366   0.610  14.224 -0.7029 -0.2801  0.0938
  930MPD2    H513613   0.271   0.574  14.217  0.1796 -3.0710  2.3699
  930MPD2    N113614   0.676   0.952  14.347  0.4579  0.1282 -0.1975
  930MPD2    H713615   0.682   1.047  14.383  0.9353 -0.9059  2.3970
  931MPD2     C13616   0.888   0.854   0.222 -0.4007  0.2164  0.5909
  931MPD2    C113617   0.782   0.870   0.307  0.7226 -0.5494 -0.6967
  931MPD2    C213618   0.802   0.938   0.424  0.0171  0.4566  0.2353
  931MPD2    C313619   0.930   0.968   0.473 -0.4367 -0.0504  0.0402
  931MPD2    C413620   1.035   0.945   0.387  0.6345  0.1600 -0.1447
  931MPD2    C513621   1.014   0.892   0.259  0.3889 -0.1853 -0.2047
  931MPD2     H13622   0.716   0.937   0.490  0.9076 -0.1687  1.3672
  931MPD2    H113623   1.139   0.948   0.420  0.8477 -0.9685 -0.7214
  931MPD2    H213624   0.877   0.809   0.124 -0.6932 -0.2276  0.8302
  931MPD2    H313625   1.106   0.883   0.202 -0.2243 -0.7972 -1.0818
  931MPD2     N13626   0.964   0.993   0.608  0.4092  0.5487  0.1011
  931MPD2    H513627   1.062   0.985   0.634  0.5155 -1.4432 -0.9222
  931MPD2    N113628   0.656   0.807   0.277 -0.2115 -0.0202  0.6523
  931MPD2    H713629   0.654   0.741   0.199  1.7557  2.2595 -1.3557
  932MPD2     C13630   2.970   3.291  10.386  0.3423  0.8241  0.2138
  932MPD2    C113631   3.016   3.344  10.504 -0.1457 -0.7675  0.3451
  932MPD2    C213632   2.988   3.275  10.620 -0.3297 -0.3006 -0.1964
  932MPD2    C313633   2.922   3.152  10.620 -0.6233  0.1682 -0.0027
  932MPD2    C413634   2.869   3.104  10.498 -0.3985 -0.5221 -0.4455
  932MPD2    C513635   2.889   3.181  10.387 -0.3078  0.0075  0.3089
  932MPD2     H13636   3.015   3.311  10.719  1.4549 -1.5576 -0.2390
  932MPD2    H113637   2.808   3.014  10.500  2.4059 -2.4347 -0.0115
  932MPD2    H213638   2.968   3.356  10.300 -0.5452  2.8641  1.7767
  932MPD2    H313639   2.841   3.166  10.291 -0.1455  0.8416  0.0961
  932MPD2     N13640   2.919   3.082  10.747  0.8278 -0.0095 -0.4475
  932MPD2    H513641   2.972   3.127  10.821 -2.3818  1.9546  0.6543
  932MPD2    N113642   3.078   3.466  10.517 -0.3555 -0.2065  0.3926
  932MPD2    H713643   3.082   3.509  10.609 -2.0564 -1.1154  0.8839
  933MPD2     C13644   0.406   3.709   1.461  0.1103  0.5916 -0.3070
  933MPD2    C113645   0.285   3.742   1.406  0.5201 -0.1497  0.0139
  933MPD2    C213646   0.235   3.873   1.404  0.1042 -0.1072 -0.1441
  933MPD2    C313647   0.314   3.973   1.452  0.1502 -0.4826 -0.2544
  933MPD2    C413648   0.433   3.939   1.513  0.2791  0.3546 -0.6242
  933MPD2    C513649   0.482   3.807   1.515 -0.4714 -0.5245 -0.4311
  933MPD2     H13650   0.143   3.901   1.352  0.8148 -0.1528 -1.4408
  933MPD2    H113651   0.491   4.014   1.567 -0.4418  1.2953 -1.1587
  933MPD2    H213652   0.446   3.608   1.452  1.6695  1.0461  1.6549
  933MPD2    H313653   0.576   3.773   1.557  0.4313  1.1621 -1.0886
  933MPD2     N13654   0.259   4.107   1.451 -0.7074 -0.1818 -0.6294
  933MPD2    H513655   0.163   4.129   1.426 -0.5535 -0.3220 -1.3354
  933MPD2    N113656   0.231   3.630   1.335 -0.6938 -0.1845  0.4746
  933MPD2    H713657   0.281   3.543   1.341 -1.4749 -0.5784  1.4499
  934MPD2     C13658   0.112   0.870   1.576  0.9652  0.7004 -0.3721
  934MPD2    C113659   0.162   0.948   1.472  0.5557  0.2067  0.3713
  934MPD2    C213660   0.102   0.936   1.345 -0.5691  0.0423  0.0214
  934MPD2    C313661   4.719   0.853   1.326 -0.0970  0.2602  0.0320
  934MPD2    C413662   4.664   0.792   1.430 -0.3308 -0.4234  0.0903
  934MPD2    C513663   0.006   0.790   1.550 -0.0252 -0.0897 -0.0791
  934MPD2     H13664   0.137   0.994   1.260  1.4090 -2.6546 -0.9963
  934MPD2    H113665   4.587   0.718   1.410 -0.4764 -0.2505  0.0141
  934MPD2    H213666   0.160   0.870   1.673  0.3424 -0.9407 -0.0585
  934MPD2    H313667   4.683   0.723   1.621 -1.6340 -0.6602 -1.6703
  934MPD2     N13668   4.663   0.836   1.196  0.2814 -0.8713 -0.2208
  934MPD2    H513669   4.583   0.775   1.181  0.2439 -0.9269  0.2210
  934MPD2    N113670   0.281   1.032   1.476  0.2231 -0.4914  0.3742
  934MPD2    H713671   0.312   1.070   1.387  0.7993 -0.1671  0.7112
  935MPD2     C13672   0.420   0.382   0.519  1.0479  0.5169  0.6254
  935MPD2    C113673   0.286   0.331   0.507  0.3593 -0.4135 -0.1329
  935MPD2    C213674   0.182   0.404   0.566 -0.3504  0.1348  0.0095
  935MPD2    C313675   0.212   0.527   0.629 -0.1412 -0.6669  0.1679
  935MPD2    C413676   0.344   0.567   0.646 -0.0160  0.1318 -0.8672
  935MPD2    C513677   0.448   0.489   0.602  0.3702  0.1618 -0.0156
  935MPD2     H13678   0.084   0.357   0.566 -1.2515  1.9910  2.1110
  935MPD2    H113679   0.376   0.657   0.698 -0.1275 -0.2872 -0.0598
  935MPD2    H213680   0.505   0.330   0.475  1.3082  2.1232 -0.7601
  935MPD2    H313681   0.555   0.507   0.611  0.0156  1.8331  0.8466
  935MPD2     N13682   0.115   0.606   0.688  0.0083 -0.2090 -0.8900
  935MPD2    H513683   0.145   0.690   0.736  1.1262 -0.5534 -0.9699
  935MPD2    N113684   0.252   0.210   0.445  0.3707  0.1018 -0.8556
  935MPD2    H713685   0.153   0.189   0.456  0.7403 -0.2796  1.8617
  936MPD2     C13686   3.058   3.262  12.426 -0.2777 -0.1578  0.3316
  936MPD2    C113687   3.076   3.129  12.400 -1.3203  0.4384 -0.6314
  936MPD2    C213688   3.139   3.083  12.285 -0.8419  0.1562  0.6185
  936MPD2    C313689   3.200   3.172  12.201 -0.1060 -0.5374 -0.2663
  936MPD2    C413690   3.207   3.307  12.247 -0.0318  0.3990 -0.0812
  936MPD2    C513691   3.127   3.351  12.350  0.1327  0.2799  0.1605
  936MPD2     H13692   3.145   2.976  12.270  2.8318  0.1924  1.7378
  936MPD2    H113693   3.256   3.389  12.195 -1.4489  0.9148 -0.6006
  936MPD2    H213694   3.000   3.304  12.508 -2.1050 -0.4740 -0.7894
  936MPD2    H313695   3.114   3.457  12.372 -0.7020 -0.0236  1.1210
  936MPD2     N13696   3.275   3.137  12.086  0.3325  0.3725  0.0741
  936MPD2    H513697   3.334   3.209  12.047 -0.9719  0.5572 -1.5705
  936MPD2    N113698   3.028   3.026  12.484 -0.2744  0.6610  0.5233
  936MPD2    H713699   3.051   2.932  12.456 -0.1568  0.7024  0.4815
  937MPD2     C13700   1.027   3.675  11.519  0.3276  0.2449 -0.1395
  937MPD2    C113701   1.039   3.813  11.502  0.3257  0.3562 -0.7290
  937MPD2    C213702   1.094   3.849  11.378  0.5872  0.2678 -0.1298
  937MPD2    C313703   1.153   3.754  11.291  0.5697  0.6474  0.0082
  937MPD2    C413704   1.137   3.624  11.309 -0.5483 -0.0333 -0.9528
  937MPD2    C513705   1.071   3.577  11.421  0.4694  0.4610 -0.4636
  937MPD2     H13706   1.096   3.955  11.358  2.9740 -0.0349 -1.4998
  937MPD2    H113707   1.183   3.546  11.249 -0.8680 -1.3820  0.5359
  937MPD2    H213708   0.986   3.640  11.613  1.8751 -0.5212  0.2654
  937MPD2    H313709   1.071   3.471  11.445  2.0938  1.1226  2.3858
  937MPD2     N13710   1.242   3.801  11.187 -0.4219 -0.5992 -0.6136
  937MPD2    H513711   1.251   3.902  11.177  1.5216 -0.7936 -0.7589
  937MPD2    N113712   0.970   3.914  11.574  0.2766 -0.0048  0.8508
  937MPD2    H713713   0.973   4.008  11.535  0.9987 -0.3560  0.0661
  938MPD2     C13714   3.877   0.211   0.332  0.4852 -0.1398  0.0580
  938MPD2    C113715   3.851   0.338   0.367 -0.0336 -0.3671  0.7901
  938MPD2    C213716   3.750   0.363   0.462 -0.0874  0.4930  0.3897
  938MPD2    C313717   3.670   0.256   0.514  0.4627 -0.3662  1.0368
  938MPD2    C413718   3.700   0.129   0.483 -0.0108  0.2358  0.1716
  938MPD2    C513719   3.803   0.108   0.383  0.4810  0.4510 -0.6162
  938MPD2     H13720   3.736   0.470   0.472 -2.1455  0.1773  0.8649
  938MPD2    H113721   3.645   0.050   0.532 -1.1626  1.1998  0.4418
  938MPD2    H213722   3.947   0.184   0.254  0.3802  0.1209 -0.1216
  938MPD2    H313723   3.823   0.006   0.355 -1.1195  0.4597 -1.8225
  938MPD2     N13724   3.557   0.287   0.602  0.1456 -0.1207  0.7124
  938MPD2    H513725   3.530   0.207   0.658  2.3152 -1.9458 -0.8632
  938MPD2    N113726   3.918   0.453   0.317  0.3972 -0.1960 -0.1172
  938MPD2    H713727   3.889   0.546   0.347 -0.5357 -0.8207  0.9145
  939MPD2     C13728   0.552   2.356   0.872 -0.0776 -0.8123  0.6203
  939MPD2    C113729   0.424   2.373   0.930  0.0234  0.1114 -0.2494
  939MPD2    C213730   0.319   2.310   0.854 -0.4815  0.9742 -0.0269
  939MPD2    C313731   0.340   2.248   0.731 -1.0381  0.2250  0.1179
  939MPD2    C413732   0.467   2.229   0.682 -0.3632  0.2854  0.0962
  939MPD2    C513733   0.569   2.283   0.750  0.7906 -0.1913  0.3590
  939MPD2     H13734   0.222   2.306   0.902  0.6768 -0.7245  2.1638
  939MPD2    H113735   0.497   2.179   0.591 -0.3864 -0.3510  0.4348
  939MPD2    H213736   0.632   2.410   0.922 -0.3695  0.8851 -0.7435
  939MPD2    H313737   0.670   2.257   0.720  0.5024 -0.5984 -0.2591
  939MPD2     N13738   0.222   2.214   0.659 -0.2981 -0.5705  0.0333
  939MPD2    H513739   0.134   2.231   0.708 -0.1795 -1.5374  0.6027
  939MPD2    N113740   0.422   2.433   1.061 -0.0605  0.3918 -0.2425
  939MPD2    H713741   0.514   2.458   1.095  0.4151 -0.5454 -0.8317
  940MPD2     C13742   3.592   2.049  13.126  0.9228 -0.0802 -0.2246
  940MPD2    C113743   3.734   2.045  13.112 -0.2485  0.0503  0.2638
  940MPD2    C213744   3.792   2.017  12.991 -0.3071 -0.5258  0.6013
  940MPD2    C313745   3.715   2.002  12.875  0.0388  0.0720 -0.6995
  940MPD2    C413746   3.579   2.005  12.890  0.3635  0.1741  0.0690
  940MPD2    C513747   3.522   2.025  13.015  0.0901  0.0935  0.0710
  940MPD2     H13748   3.892   1.975  12.991 -0.5001 -1.0133  2.5605
  940MPD2    H113749   3.512   1.999  12.804 -0.8993  0.8617  1.0055
  940MPD2    H213750   3.544   2.063  13.222  4.4088  1.7458  1.2454
  940MPD2    H313751   3.414   2.017  13.022  0.1719 -1.7009 -0.6374
  940MPD2     N13752   3.767   1.984  12.743 -0.1670 -0.5992 -0.3992
  940MPD2    H513753   3.712   2.013  12.662  0.6052  0.3081 -0.5922
  940MPD2    N113754   3.817   2.066  13.223 -0.2850  0.7167  0.5733
  940MPD2    H713755   3.914   2.080  13.198 -0.6260 -0.4499 -1.3996
  941MPD2     C13756   2.542   1.518   9.849 -0.1987  0.8687  0.3837
  941MPD2    C113757   2.654   1.477   9.911  0.4335  0.5674  0.5532
  941MPD2    C213758   2.651   1.412  10.035  0.2884 -0.9643 -0.2510
  941MPD2    C313759   2.529   1.382  10.089 -0.5485  0.3527 -1.1039
  941MPD2    C413760   2.417   1.422  10.021  0.6790 -0.0364  0.3619
  941MPD2    C513761   2.419   1.494   9.905 -0.1114 -0.0518 -0.5332
  941MPD2     H13762   2.735   1.384  10.097 -0.6570 -1.3797  0.8505
  941MPD2    H113763   2.318   1.405  10.064  0.1155  0.4089 -0.7524
  941MPD2    H213764   2.542   1.565   9.751  0.5376  0.7438  0.3310
  941MPD2    H313765   2.327   1.537   9.864 -0.1693  0.5792  0.2681
  941MPD2     N13766   2.514   1.324  10.219  0.4910  0.2999 -0.0199
  941MPD2    H513767   2.423   1.320  10.264 -0.2439 -0.7126 -1.5911
  941MPD2    N113768   2.777   1.507   9.841 -0.0712  0.1955 -0.3919
  941MPD2    H713769   2.768   1.564   9.758  0.8830  2.0837  0.7938
  942MPD2     C13770   1.776   3.770   9.202  0.4452 -0.1149  0.1874
  942MPD2    C113771   1.833   3.819   9.315 -0.2929 -0.1179  0.2607
  942MPD2    C213772   1.923   3.737   9.384 -0.1008  0.9925 -0.5512
  942MPD2    C313773   1.955   3.609   9.337  0.1466 -0.5160 -0.1165
  942MPD2    C413774   1.919   3.572   9.208 -0.4421  0.2279 -0.0984
  942MPD2    C513775   1.816   3.643   9.152 -0.0405 -0.1829  0.4736
  942MPD2     H13776   1.952   3.771   9.482 -0.6857 -0.4624  0.1350
  942MPD2    H113777   1.952   3.475   9.173 -0.2415 -0.3862  1.7735
  942MPD2    H213778   1.690   3.811   9.150  0.0330 -0.2481  0.7626
  942MPD2    H313779   1.772   3.603   9.061 -0.4326  0.2026  0.4945
  942MPD2     N13780   2.029   3.519   9.409  0.3532  0.2324  0.6901
  942MPD2    H513781   2.050   3.427   9.370 -2.9908 -0.4185  0.4048
  942MPD2    N113782   1.805   3.951   9.360 -0.3501  0.5202 -0.2378
  942MPD2    H713783   1.847   3.984   9.446 -0.8610  0.9915 -0.1711
  943MPD2     C13784   1.357   1.369   9.711 -0.0712 -0.0386 -0.2531
  943MPD2    C113785   1.482   1.371   9.765  0.1688  0.4761  1.0599
  943MPD2    C213786   1.552   1.492   9.783  0.0448  0.5353 -0.0060
  943MPD2    C313787   1.492   1.611   9.744  0.3846 -0.0157  0.4246
  943MPD2    C413788   1.370   1.600   9.682  0.0202 -0.2319 -0.0041
  943MPD2    C513789   1.306   1.485   9.666 -0.2671  0.1311 -0.2565
  943MPD2     H13790   1.637   1.499   9.849 -0.0784  2.5314 -0.0461
  943MPD2    H113791   1.317   1.688   9.646 -0.0859 -0.5532 -0.6367
  943MPD2    H213792   1.294   1.282   9.697  0.6354 -0.5483 -0.2224
  943MPD2    H313793   1.207   1.489   9.621 -1.1960 -0.4152  1.7572
  943MPD2     N13794   1.542   1.737   9.789  0.6057 -0.2505  0.5523
  943MPD2    H513795   1.526   1.814   9.726  0.9726 -0.9852 -0.4502
  943MPD2    N113796   1.530   1.248   9.816 -0.5548 -0.3743  0.9517
  943MPD2    H713797   1.455   1.181   9.833 -0.4232 -0.7533  0.0768
  944MPD2     C13798   1.482   0.886  10.906  0.0803  0.1826  0.2001
  944MPD2    C113799   1.564   0.777  10.871  0.2538  0.2220  0.1889
  944MPD2    C213800   1.603   0.688  10.973 -0.2083 -0.0364  0.3844
  944MPD2    C313801   1.554   0.705  11.104  0.1968 -0.0831  0.1746
  944MPD2    C413802   1.468   0.813  11.130 -0.0741  0.0176 -0.5629
  944MPD2    C513803   1.438   0.907  11.038  0.3268 -0.0483  0.0001
  944MPD2     H13804   1.668   0.607  10.941 -0.9409 -1.2838  2.0227
  944MPD2    H113805   1.411   0.820  11.221  0.9921  1.0786  0.0286
  944MPD2    H213806   1.442   0.951  10.829 -0.3159 -0.3733 -0.0604
  944MPD2    H313807   1.372   0.988  11.066 -1.6907 -2.5854  2.4515
  944MPD2     N13808   1.588   0.606  11.204  0.0685  0.0668 -0.1695
  944MPD2    H513809   1.647   0.530  11.170  1.7400  0.3527  2.1425
  944MPD2    N113810   1.581   0.757  10.733  0.2888  0.1523 -0.5047
  944MPD2    H713811   1.582   0.842  10.678 -2.4362  0.8073  0.4534
    1TCq1    O113812   3.711   1.368  15.342 -0.1548  0.3088 -0.2693
    1TCq1    C113813   3.734   1.268  15.256 -0.2489 -0.2977 -0.1462
    1TCq1    O213814   3.795   1.172  15.295 -0.1002 -0.0071  0.6080
    1TCq1    C213815   3.758   1.339  15.131 -0.3908 -0.5012 -0.3048
    1TCq1    C313816   3.691   1.451  15.098  1.0664 -0.6480  0.0252
    1TCq1    C413817   3.733   1.521  14.988 -0.0721  0.0166 -0.1416
    1TCq1    C513818   3.821   1.480  14.902  0.7496 -0.1322  0.6100
    1TCq1    C613819   3.902   1.375  14.943 -0.1501  0.4013 -0.7041
    1TCq1    C713820   3.867   1.301  15.056 -0.2141 -0.5416 -0.5273
    1TCq1    C813821   4.046   1.397  14.923 -0.0402  0.1540  0.6570
    1TCq1    O413822   4.115   1.368  15.022  0.3806  0.4510 -0.0968
    1TCq1    C913823   3.680   1.654  14.973 -0.2399 -0.2188 -0.5208
    1TCq1    O513824   3.627   1.711  15.076  0.5060  0.1914  0.1539
    1TCq1    O613825   3.703   1.712  14.864  0.7685  0.0898 -0.2535
    1TCq1    H113826   3.638   1.420  15.303 -0.2283  0.5756  0.2283
    1TCq1    H213827   3.610   1.486  15.161  1.9564  0.9947  0.2758
    1TCq1    H313828   3.829   1.535  14.809  3.0904  0.2730  1.0618
    1TCq1    H413829   3.937   1.226  15.091  0.1154 -0.5652 -1.2395
    2MPD2     C13830   4.421   1.628  14.670 -0.0033  1.0934 -0.2957
    2MPD2    C113831   4.316   1.626  14.590 -0.9446  0.6301  0.1984
    2MPD2    C213832   4.202   1.569  14.640 -0.1598  0.5418  0.1117
    2MPD2    C313833   4.198   1.508  14.760 -0.5422  0.2741  0.8682
    2MPD2    C413834   4.313   1.500  14.837 -0.0192 -0.1000 -0.4948
    2MPD2    C513835   4.424   1.564  14.794 -0.5346  0.0240 -0.7210
    2MPD2     H13836   4.107   1.584  14.589  0.6206  0.0394 -1.4757
    2MPD2    H113837   4.309   1.463  14.939  0.2227 -0.0220 -0.4583
    2MPD2    H213838   4.505   1.687  14.635  1.6330 -0.0480  1.7221
    2MPD2    H313839   4.511   1.548  14.857 -3.1169  2.3214  3.4015
    2MPD2     N13840   4.074   1.440  14.796  0.4887 -0.3629 -0.4413
    2MPD2    H513841   4.004   1.433  14.723 -1.4029  1.4261  1.1984
    2MPD2    N113842   4.329   1.695  14.463 -0.1288 -0.3516  0.2318
    2MPD2    H713843   4.415   1.744  14.440 -0.3666  0.1158  0.3408
    3TMC2    C113844   4.263   1.800  14.254  0.2728  0.5656 -0.3999
    3TMC2    C213845   4.363   1.899  14.258  0.0667 -0.4692 -0.0173
    3TMC2    C313846   4.424   1.943  14.150  0.3126 -0.5456 -1.0819
    3TMC2    C413847   4.215   1.762  14.133 -0.4350  0.5277  0.4952
    3TMC2    C513848   4.267   1.827  14.021  0.1529 -0.7939 -0.4387
    3TMC2    C613849   4.373   1.921  14.025 -0.1480  0.2367  0.4073
    3TMC2     C13850   4.225   1.721  14.372 -0.1026 -0.4336  0.9439
    3TMC2     O13851   4.108   1.690  14.383  0.0503 -0.2582  0.0693
    3TMC2     H13852   4.388   1.936  14.357  1.1115  0.2318 -0.5403
    3TMC2    H113853   4.140   1.683  14.129 -0.0462  0.2430 -1.0790
    3TMC2    H213854   4.420   1.968  13.939  1.1437 -2.3515 -0.2850
    3TMC2    C713855   4.211   1.783  13.892 -0.4804 -0.0462 -0.1992
    3TMC2    C813856   4.526   2.054  14.155 -0.0568 -0.5015  0.2451
    3TMC2    O113857   4.148   1.683  13.885 -0.4526  0.2372  0.3422
    3TMC2    O213858   4.534   2.132  14.062 -0.1849  0.4175  0.1894
    3TMC2    O513859   4.614   2.029  14.260  0.1619  0.3524 -0.4099
    3TMC2    H513860   4.593   1.951  14.316 -1.4654  0.5109 -0.7930
    4MPD2     C13861   3.847   2.473  12.562  0.0289 -0.5875 -0.2113
    4MPD2    C113862   3.831   2.579  12.653 -0.6691 -0.5714  0.4437
    4MPD2    C213863   3.889   2.569  12.782 -0.0522  0.0529 -0.1447
    4MPD2    C313864   3.968   2.468  12.813  0.4436  0.4195 -0.0996
    4MPD2    C413865   3.977   2.359  12.722 -0.4066 -0.0961  0.3656
    4MPD2    C513866   3.918   2.361  12.603  0.4754  0.0822 -0.1918
    4MPD2     H13867   3.870   2.657  12.842 -0.9021 -0.7420  0.7676
    4MPD2    H113868   4.043   2.274  12.735  0.5300  0.5644 -0.0820
    4MPD2    H213869   3.816   2.485  12.458 -0.1130 -2.0781 -0.3442
    4MPD2    H313870   3.954   2.292  12.527  0.0984  0.7158 -0.9558
    4MPD2     N13871   4.044   2.473  12.935  0.8136  0.3697  0.4366
    4MPD2    H513872   4.057   2.558  12.988  1.2198  0.5156  0.1053
    4MPD2    N113873   3.761   2.685  12.611 -0.1083 -0.0572 -0.5176
    4MPD2    H713874   3.728   2.685  12.516  0.8841  1.2540 -0.8682
    5TCq2    C113875   4.104   2.360  12.986 -0.1593  0.0269 -0.0833
    5TCq2    O213876   4.084   2.239  12.958 -0.3011  0.3323 -0.3290
    5TCq2    C213877   4.183   2.387  13.108  1.0302  0.8717  0.7173
    5TCq2    C313878   4.253   2.502  13.114 -0.0065  0.3677 -0.3669
    5TCq2    C413879   4.358   2.511  13.205 -0.1338  0.1362  0.0602
    5TCq2    C513880   4.387   2.409  13.294  0.5867  0.8067  0.7157
    5TCq2    C613881   4.319   2.295  13.273  0.0612  0.1637  0.9339
    5TCq2    C713882   4.216   2.282  13.186  0.5768  0.7267  0.1147
    5TCq2    C813883   4.334   2.193  13.373  0.5173  0.2123  0.8939
    5TCq2    O413884   4.409   2.213  13.471  0.1251  0.1268 -0.3175
    5TCq2    C913885   4.424   2.635  13.226  0.2977 -0.1581 -1.1779
    5TCq2    O513886   4.482   2.655  13.334  0.7177 -0.2100  0.8427
    5TCq2    O613887   4.412   2.725  13.136  0.0058  0.0934  0.5135
    5TCq2    H213888   4.228   2.589  13.054  2.3131 -0.2859 -2.3293
    5TCq2    H313889   4.463   2.415  13.370  1.4326  1.0933 -0.1547
    5TCq2    H413890   4.148   2.197  13.184  0.2727  0.9519  0.9081
    6MPD1     C13891   3.022   4.551  12.932 -0.1690 -0.1618  0.0942
    6MPD1    C113892   3.126   4.552  12.844  0.4445  0.2596  1.0999
    6MPD1    C213893   3.189   4.431  12.814 -0.5487 -0.4838  0.4718
    6MPD1    C313894   3.156   4.315  12.880 -0.0133 -0.5926 -0.1729
    6MPD1    C413895   3.063   4.325  12.978 -0.3808  0.1613  0.7919
    6MPD1    C513896   3.000   4.439  13.009  0.1804 -1.0128  0.2906
    6MPD1     H13897   3.271   4.434  12.743 -0.3170  0.5417  0.7902
    6MPD1    H113898   3.033   4.233  13.027  0.1159 -0.5642 -0.2506
    6MPD1    H213899   2.971   4.646  12.943 -1.4393 -0.7175 -1.0523
    6MPD1    H313900   2.918   4.438  13.079  1.0722 -0.0106  1.3607
    6MPD1     N13901   3.202   4.185  12.848  0.0025 -0.8284 -0.3480
    6MPD1    H513902   3.162   4.105  12.896  0.6649 -1.2412 -0.4830
    6MPD1    N113903   3.149   4.656  12.757  0.5938  0.0742  0.1981
    6MPD1    H613904   3.249   4.658  12.736  0.8208 -0.7583  1.2348
    6MPD1    H713905   3.127   0.015  12.813  2.3384 -0.2356  1.3459
    7MPD2     C13906   3.239   3.431  13.075 -0.0106 -0.0143 -0.2273
    7MPD2    C113907   3.265   3.443  12.940  0.1881  0.3650 -0.3889
    7MPD2    C213908   3.290   3.335  12.861 -0.3048  0.0198 -0.0193
    7MPD2    C313909   3.296   3.207  12.916  0.2215 -0.2830 -0.2780
    7MPD2    C413910   3.281   3.208  13.055  0.4257 -0.0340 -0.5189
    7MPD2    C513911   3.249   3.311  13.135 -0.3625  0.8049 -0.3991
    7MPD2     H13912   3.316   3.359  12.758  3.2709  0.2804  0.9388
    7MPD2    H113913   3.300   3.112  13.102 -2.4358 -1.1615 -1.6397
    7MPD2    H213914   3.214   3.511  13.145 -0.8444  0.4114 -1.0053
    7MPD2    H313915   3.216   3.290  13.236 -1.3033  1.4992 -0.5630
    7MPD2     N13916   3.345   3.096  12.843 -0.0447  0.6673 -0.7258
    7MPD2    H513917   3.358   3.008  12.892  0.1340  1.0619 -0.0640
    7MPD2    N113918   3.272   3.563  12.871  0.2854  0.1321 -0.7928
    7MPD2    H713919   3.276   3.548  12.770 -0.8071 -0.8475 -0.6881
    8TMC3    C113920   3.411   2.986  12.649 -0.1068 -0.1464 -0.2563
    8TMC3    C213921   3.501   2.909  12.712 -0.5443 -0.0178  0.5852
    8TMC3    C313922   3.600   2.858  12.632 -0.1341 -0.9421 -0.4386
    8TMC3    C413923   3.421   3.000  12.513  0.5067  0.1543 -0.0677
    8TMC3    C513924   3.523   2.957  12.435 -0.4498 -0.0310  0.3431
    8TMC3    C613925   3.611   2.872  12.495 -0.8613  1.1303 -0.5169
    8TMC3     C13926   3.374   3.107  12.710 -0.1153  0.2087  0.0405
    8TMC3     O13927   3.344   3.195  12.629  0.2607  0.1338  0.0917
    8TMC3     H13928   3.522   2.909  12.818  0.6246  1.4375  0.3523
    8TMC3    H113929   3.342   3.052  12.460  1.4362 -0.9470 -2.5160
    8TMC3    H213930   3.691   2.832  12.435  0.6197  2.5783  0.4881
    8TMC3    C713931   3.590   3.062  12.359 -0.0110  0.1528  0.6135
    8TMC3    C813932   3.707   2.782  12.696 -0.7368  0.2139 -0.0790
    8TMC3    O113933   3.675   3.040  12.274  0.2744 -0.4708 -0.8268
    8TMC3    O213934   3.712   2.799  12.818  0.6568  0.0889  0.1363
    9TMC3    C113935   3.319   4.000  12.736 -0.2494  0.0350  0.5730
    9TMC3    C213936   3.385   3.961  12.622 -0.1842 -0.7211 -0.1959
    9TMC3    C313937   3.424   3.828  12.619  0.7826  0.1789  0.1657
    9TMC3    C413938   3.281   3.912  12.836  0.3812  0.4332  0.0732
    9TMC3    C513939   3.329   3.781  12.834  0.1568 -0.1333 -0.2409
    9TMC3    C613940   3.401   3.739  12.724 -0.2314  0.8972  0.1158
    9TMC3     C13941   3.304   4.151  12.753  0.0808  1.1339  0.2869
    9TMC3     O13942   3.357   4.225  12.670 -0.1885 -0.2822 -0.2585
    9TMC3     H13943   3.421   4.034  12.550 -2.1890 -1.0893 -1.5700
    9TMC3    H113944   3.224   3.946  12.921  2.1828 -1.0487  1.8747
    9TMC3    H213945   3.454   3.645  12.726  0.4305  1.2865  1.1624
    9TMC3    C713946   3.294   3.684  12.936  0.1893  0.2015 -0.1180
    9TMC3    C813947   3.504   3.773  12.511 -0.8786 -0.6084 -0.2996
    9TMC3    O113948   3.315   3.708  13.053  0.0728 -0.6998 -0.0914
    9TMC3    O213949   3.598   3.831  12.453  0.0314 -0.2348  0.1286
   10MPD2     C13950   3.705   3.333  12.310 -0.2182 -0.7849  0.2209
   10MPD2    C113951   3.591   3.310  12.385  0.2694  0.3740 -0.5739
   10MPD2    C213952   3.515   3.414  12.438 -0.1933 -0.8233  0.2998
   10MPD2    C313953   3.548   3.546  12.421 -0.2948  0.0704  0.2184
   10MPD2    C413954   3.661   3.574  12.347 -0.5404 -0.9002  0.2068
   10MPD2    C513955   3.737   3.472  12.301 -0.2409 -0.4384 -0.5543
   10MPD2     H13956   3.431   3.384  12.500  0.1458  1.3403  1.8013
   10MPD2    H113957   3.692   3.670  12.306  1.3249 -0.7068  2.0988
   10MPD2    H213958   3.766   3.263  12.255  0.7898  1.4520 -1.5296
   10MPD2    H313959   3.825   3.491  12.240 -1.4193  1.5394 -1.6157
   10MPD2     N13960   3.469   3.641  12.493  0.0169 -0.3326  0.0704
   10MPD2    H513961   3.385   3.612  12.542 -0.7104  1.9159  0.1206
   10MPD2    N113962   3.547   3.183  12.418  0.7829  0.1775  0.1269
   10MPD2    H713963   3.475   3.181  12.489 -0.2097 -3.4453 -0.9968
   11MPD2     C13964   4.131   1.764  13.604 -0.0890  0.0698  1.2335
   11MPD2    C113965   4.187   1.878  13.654  0.2840  0.6690 -0.3775
   11MPD2    C213966   4.235   1.993  13.582 -0.3009 -0.1508  0.0641
   11MPD2    C313967   4.226   1.976  13.446 -0.1920  0.3258 -0.5435
   11MPD2    C413968   4.172   1.859  13.391 -0.0438 -0.2133 -0.3802
   11MPD2    C513969   4.125   1.758  13.469  0.0520  0.5776 -0.2198
   11MPD2     H13970   4.249   2.089  13.629  0.8435 -0.5109  0.4356
   11MPD2    H113971   4.166   1.839  13.285  0.4564 -0.6135 -0.3315
   11MPD2    H213972   4.096   1.681  13.664  1.9435 -0.4242  1.7337
   11MPD2    H313973   4.081   1.672  13.419  0.0809 -0.2629  1.1957
   11MPD2     N13974   4.263   2.075  13.346 -0.1844  0.3403  0.0657
   11MPD2    H513975   4.240   2.057  13.249  1.5638 -0.4765 -0.1868
   11MPD2    N113976   4.224   1.883  13.796 -0.4159  0.7236 -0.1614
   11MPD2    H713977   4.264   1.970  13.828 -1.2957  1.6106 -1.4501
    1MPD1     C13978   2.693   3.526  15.423  0.1165 -0.3371  0.0874
    1MPD1    C113979   2.740   3.654  15.426  0.2167 -0.1641  0.0914
    1MPD1    C213980   2.771   3.726  15.540  0.1451 -0.5389 -0.1111
    1MPD1    C313981   2.757   3.659  15.659 -0.6218  0.5974  0.1305
    1MPD1    C413982   2.704   3.532  15.662  0.5762  0.3677  0.1306
    1MPD1    C513983   2.664   3.468  15.544 -0.1325  0.7353 -0.4104
    1MPD1     H13984   2.807   3.828  15.534  1.4260 -0.8666  1.9454
    1MPD1    H113985   2.692   3.477  15.755  0.8674 -0.0956 -0.1091
    1MPD1    H213986   2.669   3.475  15.331  1.1703 -0.9056  0.1293
    1MPD1    H313987   2.616   3.371  15.548 -1.1807  1.2999  0.7824
    1MPD1     N13988   2.796   3.717  15.780 -0.0541 -0.2160 -0.4869
    1MPD1    H513989   2.772   3.665  15.864  0.5651 -0.0882 -0.2283
    1MPD1    N113990   2.760   3.727  15.303 -0.1831 -0.2007 -0.4184
    1MPD1    H613991   2.765   3.671  15.217  1.4469 -1.5081  0.5290
    1MPD1    H713992   2.836   3.793  15.299 -0.5738  0.2531 -0.3101
    2MPD1     C13993   3.100   3.306  16.543 -0.0159  0.0500  0.0508
    2MPD1    C113994   3.211   3.384  16.507 -0.3661  0.3288  0.5882
    2MPD1    C213995   3.191   3.482  16.414  0.4915  0.3384  0.2847
    2MPD1    C313996   3.080   3.496  16.342 -0.3823  0.5360 -0.6394
    2MPD1    C413997   2.978   3.401  16.358 -0.3214 -0.1637  0.5350
    2MPD1    C513998   2.985   3.315  16.465  0.3030 -0.1343 -0.5763
    2MPD1     H13999   3.272   3.554  16.403  1.5317 -0.8416  0.2769
    2MPD1    H114000   2.883   3.398  16.305 -0.2629 -2.6717  0.5784
    2MPD1    H214001   3.101   3.231  16.621 -0.0778  0.7438  0.7137
    2MPD1    H314002   2.892   3.268  16.497 -0.3552  1.2506 -0.4283
    2MPD1     N14003   3.075   3.607  16.254 -0.7989 -0.1170  0.0774
    2MPD1    H514004   3.150   3.676  16.250  1.5509 -2.7113 -0.6283
    2MPD1    N114005   3.336   3.383  16.584  0.0513  0.0898 -0.0977
    2MPD1    H614006   3.354   3.287  16.614 -1.2062 -0.2610 -0.4627
    2MPD1    H714007   3.415   3.420  16.533  0.2211 -0.6828 -0.4003
    3TMC3    C114008   2.972   3.768  16.117 -0.3029 -0.0982 -0.4693
    3TMC3    C214009   3.088   3.832  16.126  0.3366 -0.6253 -0.4233
    3TMC3    C314010   3.112   3.930  16.028 -0.2500 -0.7638  0.9570
    3TMC3    C414011   2.875   3.786  16.025 -0.5749 -0.2083 -0.8153
    3TMC3    C514012   2.904   3.870  15.924 -1.0500  0.3816 -0.1316
    3TMC3    C614013   3.027   3.932  15.919 -0.0360  0.0302 -0.3456
    3TMC3     C14014   2.962   3.635  16.183  0.0707 -0.0791 -0.7224
    3TMC3     O14015   2.869   3.559  16.155  0.8688  0.3617  0.0711
    3TMC3     H14016   3.172   3.808  16.190 -0.1902 -2.1246 -0.3030
    3TMC3    H114017   2.781   3.733  16.028  0.4635 -1.9605  0.4386
    3TMC3    H214018   3.056   3.972  15.823  1.4534 -1.0494 -0.3399
    3TMC3    C714019   2.851   3.846  15.792  0.1524  0.8908  0.3658
    3TMC3    C814020   3.243   3.993  16.012  1.0698  0.0706  0.6303
    3TMC3    O114021   2.876   3.933  15.706  0.0734  0.2447 -0.4884
    3TMC3    O214022   3.339   3.949  16.078 -0.1440 -0.0457  0.6430
    4MPD1     C14023   3.544   4.331  15.762 -0.2889 -0.8684 -0.6773
    4MPD1    C114024   3.421   4.330  15.704 -0.2417  0.4057 -0.0197
    4MPD1    C214025   3.321   4.253  15.761  0.7441 -0.1997 -0.2013
    4MPD1    C314026   3.349   4.169  15.868  0.6540  0.8142 -0.1451
    4MPD1    C414027   3.473   4.171  15.922 -0.0898 -0.2565 -0.1316
    4MPD1    C514028   3.566   4.260  15.877 -0.3077  0.0635  0.1379
    4MPD1     H14029   3.223   4.251  15.715 -0.0420 -2.6236  1.6153
    4MPD1    H114030   3.501   4.101  16.000  0.3463 -0.1792 -0.2179
    4MPD1    H214031   3.624   4.394  15.723 -0.0024  0.0156  1.3314
    4MPD1    H314032   3.663   4.261  15.925  0.4759  0.0349 -1.4229
    4MPD1     N14033   3.239   4.091  15.912  0.1124  0.4747  0.1228
    4MPD1    H514034   3.149   4.122  15.876 -0.3016 -0.6689  0.1947
    4MPD1    N114035   3.390   4.414  15.598  0.1051  0.0300 -0.5633
    4MPD1    H614036   3.310   4.384  15.543 -0.4786  0.6501 -0.0419
    4MPD1    H714037   3.473   4.435  15.542  0.2226 -0.3617 -0.5330
    1TCq1    O114038   2.952   3.337  11.365 -0.5723  0.3828 -0.3580
    1TCq1    C114039   3.042   3.436  11.365 -0.5935  0.2551  0.5304
    1TCq1    O214040   3.058   3.527  11.447  0.1272  0.2153  0.2959
    1TCq1    C214041   3.156   3.378  11.289 -0.1518  0.2747  0.5252
    1TCq1    C314042   3.279   3.417  11.335 -0.9290  0.3847 -0.1636
    1TCq1    C414043   3.388   3.357  11.274  0.1965 -0.2578  0.4546
    1TCq1    C514044   3.380   3.311  11.148 -0.2192 -0.8327  0.8254
    1TCq1    C614045   3.256   3.304  11.092 -0.0658  0.1921 -0.2421
    1TCq1    C714046   3.145   3.328  11.166 -0.3824 -0.3705 -0.7662
    1TCq1    C814047   3.242   3.227  10.972 -0.2958  0.1772  0.0234
    1TCq1    O414048   3.144   3.259  10.904 -0.1908  0.4434  0.1926
    1TCq1    C914049   3.520   3.391  11.321 -0.4968  0.4483  0.9583
    1TCq1    O514050   3.625   3.318  11.297  0.4132 -0.0957  0.0229
    1TCq1    O614051   3.532   3.503  11.382 -0.3975 -1.2088  0.3026
    1TCq1    H114052   2.975   3.278  11.290 -0.1244  0.6911 -0.4603
    1TCq1    H214053   3.282   3.449  11.438 -1.4382 -1.5430  0.4456
    1TCq1    H314054   3.464   3.295  11.081 -0.7071 -0.7828  0.1968
    1TCq1    H414055   3.054   3.299  11.114 -1.7511 -0.5416  1.6896
    2MPD1     C14056   3.337   2.791  10.720  0.3142  0.4261 -0.2563
    2MPD1    C114057   3.430   2.809  10.820  0.6017  0.2948 -0.0724
    2MPD1    C214058   3.422   2.914  10.910  0.3763  0.1331 -0.4061
    2MPD1    C314059   3.328   3.016  10.888 -0.0148  0.5037  0.2006
    2MPD1    C414060   3.252   3.013  10.771 -0.7553  0.0783  0.1261
    2MPD1    C514061   3.260   2.902  10.686  0.3745  0.4009 -0.1292
    2MPD1     H14062   3.480   2.912  11.002  0.1458 -1.3611 -0.2956
    2MPD1    H114063   3.172   3.085  10.764 -1.7156 -0.8494  1.5681
    2MPD1    H214064   3.328   2.693  10.674  3.0033  0.2597 -0.4651
    2MPD1    H314065   3.183   2.893  10.610  1.2420  2.0420 -1.1980
    2MPD1     N14066   3.315   3.119  10.978  0.3150 -0.5789  0.5438
    2MPD1    H514067   3.378   3.119  11.058  0.0237 -0.1794  0.7773
    2MPD1    N114068   3.494   2.689  10.848 -0.2303  0.6117 -0.7406
    2MPD1    H614069   3.510   2.649  10.756 -0.1052  1.4697 -1.0882
    2MPD1    H714070   3.581   2.711  10.897 -0.5023  0.1544 -0.0619
    1TCq1    O114071   2.419   0.751   0.110 -0.2849  0.1951 -0.9904
    1TCq1    C114072   2.347   0.865   0.125 -0.3568  0.9130  0.0686
    1TCq1    O214073   2.256   0.894   0.045  0.6849  0.2559  0.6175
    1TCq1    C214074   2.439   0.969   0.181  0.5777 -0.3570  0.8672
    1TCq1    C314075   2.568   0.938   0.202  0.3827  0.8172 -0.7429
    1TCq1    C414076   2.642   1.034   0.270 -0.8086 -0.0764 -0.3673
    1TCq1    C514077   2.589   1.150   0.309 -0.3565 -0.0253  0.3607
    1TCq1    C614078   2.461   1.179   0.272 -0.1861  0.6406 -0.7660
    1TCq1    C714079   2.381   1.084   0.224  0.1808  0.4385 -0.1468
    1TCq1    C814080   2.410   1.312   0.312 -0.7773 -0.3350  0.1393
    1TCq1    O414081   2.491   1.388   0.365  0.4327 -0.3379 -0.3562
    1TCq1    C914082   2.789   1.029   0.252 -0.7849 -0.2277 -0.4808
    1TCq1    O514083   2.864   1.124   0.295  0.1879 -0.4599 -0.3146
    1TCq1    O614084   2.833   0.937   0.180  0.1593  0.0623  0.1660
    1TCq1    H114085   2.475   0.749   0.190 -2.8423 -0.3598  0.8036
    1TCq1    H214086   2.619   0.876   0.129  0.5597  0.5238 -0.3729
    1TCq1    H314087   2.660   1.225   0.342  0.2570 -1.3303  1.9803
    1TCq1    H414088   2.275   1.105   0.211 -0.4151 -1.0841  2.2701
    2MPD1     C14089   2.025   1.667   0.293  0.2919  0.2734  0.7399
    2MPD1    C114090   1.988   1.560   0.218 -0.3287 -0.2249  0.0571
    2MPD1    C214091   2.088   1.456   0.196  0.3713  0.6088 -0.0579
    2MPD1    C314092   2.204   1.448   0.273  1.0883 -0.2033  0.5917
    2MPD1    C414093   2.227   1.553   0.362  0.0063 -0.1276 -0.3628
    2MPD1    C514094   2.146   1.662   0.369  0.0321  0.5519  0.1613
    2MPD1     H14095   2.071   1.387   0.114 -0.7046 -0.9357  1.4505
    2MPD1    H114096   2.321   1.558   0.417  1.6365  0.7017 -3.2303
    2MPD1    H214097   1.965   1.758   0.290 -1.0336 -0.5841  1.1410
    2MPD1    H314098   2.169   1.751   0.426  0.4287  0.6272 -0.1212
    2MPD1     N14099   2.284   1.331   0.256 -0.5020  0.0601  0.4886
    2MPD1    H514100   2.252   1.271   0.182 -0.2237  0.6041 -0.0730
    2MPD1    N114101   1.894   1.580   0.114 -0.1681 -0.3967  0.5073
    2MPD1    H614102   1.814   1.639   0.135 -0.7171 -0.6176 -0.9183
    2MPD1    H714103   1.854   1.495   0.074  0.7267 -0.1937 -0.8252
    1MPD1     C14104   0.029   3.182  12.126  0.4187 -0.5163  0.2505
    1MPD1    C114105   4.658   3.257  12.053 -0.3620  0.7815  0.1191
    1MPD1    C214106   4.706   3.370  11.999  0.3521  0.3100 -0.3989
    1MPD1    C314107   0.112   3.414  11.997 -0.6901 -0.4279  0.1755
    1MPD1    C414108   0.209   3.328  12.044  0.2839 -0.3699 -0.0212
    1MPD1    C514109   0.159   3.217  12.109 -0.1393  0.2345 -0.1676
    1MPD1     H14110   4.635   3.438  11.953 -0.6615 -0.3178  0.2464
    1MPD1    H114111   0.315   3.340  12.028  0.4351 -1.5837  0.0938
    1MPD1    H214112   0.007   3.099  12.192  0.5719  0.2934  1.3329
    1MPD1    H314113   0.235   3.152  12.152 -1.1241 -1.3787 -0.8512
    1MPD1     N14114   0.144   3.530  11.928 -0.4166  0.1428  0.2759
    1MPD1    H514115   0.072   3.597  11.906 -0.3230 -0.0225 -0.5532
    1MPD1    N114116   4.520   3.235  12.064 -0.1806 -0.0160 -0.0131
    1MPD1    H614117   4.489   3.149  12.108  0.1082 -0.2493 -0.2645
    1MPD1    H714118   4.457   3.266  11.991 -0.3169 -0.3191 -0.0233
    2MPD1     C14119   4.125   4.152  11.563  0.2206  0.4494  0.0915
    2MPD1    C114120   4.036   4.085  11.485  0.3824  0.1734 -0.3524
    2MPD1    C214121   4.087   4.021  11.377  0.0758 -0.2053  0.6821
    2MPD1    C314122   4.221   4.015  11.346 -0.5210 -0.3861 -0.4703
    2MPD1    C414123   4.310   4.068  11.436 -0.0914  0.4086 -0.8308
    2MPD1    C514124   4.260   4.137  11.543  0.5544 -0.2024  0.1140
    2MPD1     H14125   4.019   3.980  11.303  1.9250 -0.6664 -0.7472
    2MPD1    H114126   4.416   4.046  11.433  0.2135  1.8026 -0.4668
    2MPD1    H214127   4.090   4.218  11.642  1.4523  0.8742  0.2704
    2MPD1    H314128   4.337   4.183  11.604  2.4027 -0.1642 -2.2853
    2MPD1     N14129   4.279   3.943  11.235 -0.1881 -0.5096  0.2096
    2MPD1    H514130   4.379   3.930  11.237 -0.2132 -0.8551 -1.5342
    2MPD1    N114131   3.899   4.104  11.501  0.4314 -0.1705  0.5610
    2MPD1    H614132   3.871   4.135  11.593  0.6419 -0.0337  0.5799
    2MPD1    H714133   3.837   4.042  11.450 -0.2856  1.0860 -0.0904
    3MPD1     C14134   4.162   3.287  10.339 -1.1520 -0.0181 -0.5035
    3MPD1    C114135   4.257   3.385  10.301 -0.0264  0.6036  0.2278
    3MPD1    C214136   4.315   3.459  10.403 -0.5119  0.0461  0.1238
    3MPD1    C314137   4.275   3.444  10.535 -0.5077 -0.0117 -0.0346
    3MPD1    C414138   4.178   3.353  10.566  0.4594  0.1918 -0.7785
    3MPD1    C514139   4.125   3.271  10.468  0.3025  0.0495  0.0814
    3MPD1     H14140   4.395   3.530  10.384  2.7304 -3.1947  1.5341
    3MPD1    H114141   4.124   3.354  10.660  0.4654 -0.7175 -0.7642
    3MPD1    H214142   4.106   3.230  10.266 -1.2751 -0.2897 -0.1947
    3MPD1    H314143   4.033   3.217  10.487  0.8012 -0.1347  2.0434
    3MPD1     N14144   4.326   3.532  10.637  0.3389  0.0658 -0.1574
    3MPD1    H514145   4.395   3.598  10.604  0.2610  0.7054  0.9529
    3MPD1    N114146   4.313   3.393  10.173  0.3444 -0.6823  0.9886
    3MPD1    H614147   4.236   3.357  10.115  0.7753 -0.4410  0.2646
    3MPD1    H714148   4.343   3.486  10.144 -0.0265 -1.1177 -0.7939
    4MPD2     C14149   4.672   4.187  11.534  0.0515 -0.2110 -0.5758
    4MPD2    C114150   0.082   4.175  11.549 -0.4210 -0.2348 -1.2213
    4MPD2    C214151   0.167   4.255  11.468 -0.4184 -0.0741  0.1559
    4MPD2    C314152   0.112   4.331  11.365  0.1818  0.0229 -0.2902
    4MPD2    C414153   4.695   4.337  11.350 -0.5711 -0.8510 -0.0546
    4MPD2    C514154   4.618   4.262  11.437  0.0458 -0.0848 -0.2904
    4MPD2     H14155   0.274   4.246  11.483 -0.0894  1.2746 -1.3787
    4MPD2    H114156   4.640   4.394  11.277 -2.3825 -1.5051  0.7990
    4MPD2    H214157   4.606   4.145  11.610  0.1824 -1.6050 -1.2344
    4MPD2    H314158   4.510   4.264  11.430  0.1574  0.4471 -1.9121
    4MPD2     N14159   0.191   4.386  11.259  0.3413 -0.3152 -0.0410
    4MPD2    H514160   0.137   4.428  11.184  1.1072 -0.8807 -0.9178
    4MPD2    N114161   0.148   4.082  11.640  0.1940 -0.0318 -0.7368
    4MPD2    H714162   0.249   4.083  11.644  0.0730  0.9956  1.9653
    5TMC3    C114163   0.188   3.915  11.800 -0.3021  0.8635  0.1319
    5TMC3    C214164   0.163   3.779  11.808 -0.4549  0.3454 -0.0560
    5TMC3    C314165   0.264   3.691  11.782 -0.1411  0.0317  0.5937
    5TMC3    C414166   0.312   3.960  11.783 -0.6945 -0.6829  0.2495
    5TMC3    C514167   0.414   3.873  11.753 -0.1087 -0.0972  0.8075
    5TMC3    C614168   0.393   3.733  11.751 -0.0315  1.0963  0.1541
    5TMC3     C14169   0.089   4.001  11.739  0.2418  0.2206  0.4992
    5TMC3     O14170   4.695   3.978  11.762 -0.0604 -0.3064 -0.0862
    5TMC3     H14171   0.063   3.744  11.831 -0.3257  0.5706  0.8660
    5TMC3    H114172   0.330   4.066  11.796  0.1169 -0.8654  0.6399
    5TMC3    H214173   0.472   3.662  11.728 -1.1338  0.6724 -2.4258
    5TMC3    C714174   0.480   3.927  11.631 -0.0615  0.3374  0.1805
    5TMC3    C814175   0.261   3.569  11.866  0.7087  0.5462  0.5013
    5TMC3    O114176   0.463   4.048  11.616 -0.7399 -0.6888 -0.0057
    5TMC3    O214177   0.370   3.510  11.864 -0.6009  0.0289 -0.0697
    6TMC3    C114178   4.303   3.802  11.033  0.1059  0.4937 -0.5588
    6TMC3    C214179   4.250   3.703  10.953 -0.3222 -0.1632 -0.4857
    6TMC3    C314180   4.324   3.659  10.845 -0.0686  0.8289 -0.0909
    6TMC3    C414181   4.427   3.855  11.006 -0.0289 -0.0735 -1.0780
    6TMC3    C514182   4.502   3.808  10.898  0.1945  0.6150 -0.7579
    6TMC3    C614183   4.447   3.710  10.812 -0.4016  0.3515  0.2428
    6TMC3     C14184   4.216   3.868  11.139  0.3204 -0.1238  0.0314
    6TMC3     O14185   4.096   3.857  11.122 -0.8371  0.9295 -0.1003
    6TMC3     H14186   4.152   3.665  10.981  0.1909 -1.9634 -1.1403
    6TMC3    H114187   4.471   3.936  11.064  1.6600 -1.3957 -0.5316
    6TMC3    H214188   4.518   3.652  10.753 -0.4735 -0.3489  0.8462
    6TMC3    C714189   4.637   3.857  10.878 -0.5488  0.8261 -0.6132
    6TMC3    C814190   4.272   3.547  10.770 -0.0820  0.3024 -0.0038
    6TMC3    O114191   4.693   3.908  10.973  0.0309 -0.2198  0.2906
    6TMC3    O214192   4.171   3.506  10.815 -0.1710 -0.1485  0.4002
    7MPD2     C14193   0.757   3.976  11.216  0.3457  0.1836  0.4240
    7MPD2    C114194   0.652   4.057  11.262 -0.4151 -0.0422  0.5182
    7MPD2    C214195   0.576   4.011  11.367  0.5940 -0.1693 -0.0508
    7MPD2    C314196   0.598   3.890  11.421 -0.2687 -1.2340 -0.0972
    7MPD2    C414197   0.689   3.807  11.362  0.0375  0.4382  0.0852
    7MPD2    C514198   0.781   3.855  11.266 -0.1409  0.5251  0.3315
    7MPD2     H14199   0.496   4.081  11.389 -0.0426 -0.7396 -0.5610
    7MPD2    H114200   0.720   3.713  11.406 -0.8728  0.7114  1.2778
    7MPD2    H214201   0.822   4.009  11.136  0.2031  0.7971  0.5617
    7MPD2    H314202   0.865   3.801  11.225 -1.1653  0.4278 -1.6380
    7MPD2     N14203   0.534   3.841  11.539  0.0121  0.1891  0.5902
    7MPD2    H514204   0.550   3.741  11.550 -1.8800  0.0482  2.0095
    7MPD2    N114205   0.613   4.178  11.202 -0.0981  0.2012 -0.0808
    7MPD2    H714206   0.543   4.237  11.246 -0.9988  0.2766 -1.5913
    8TMC3    C114207   0.575   4.325  11.017  0.0365 -0.4798  0.7918
    8TMC3    C214208   0.510   4.281  10.910 -0.8952  0.4849 -0.5480
    8TMC3    C314209   0.374   4.313  10.904  0.2143 -0.8388 -0.3237
    8TMC3    C414210   0.518   4.394  11.118 -0.2409 -0.4081 -0.0140
    8TMC3    C514211   0.385   4.412  11.123  0.2693  0.1532 -0.3620
    8TMC3    C614212   0.317   4.380  11.008  0.4494 -0.1144  0.6524
    8TMC3     C14213   0.652   4.216  11.074 -0.4432  0.3295  0.7779
    8TMC3     O14214   0.730   4.160  11.006 -0.1462  0.1550 -0.0923
    8TMC3     H14215   0.562   4.218  10.839 -0.7687 -3.1449  2.7943
    8TMC3    H114216   0.590   4.421  11.194  1.5531 -1.4649 -1.3185
    8TMC3    H214217   0.209   4.394  11.012  0.0922 -3.4321  1.9510
    8TMC3    C714218   0.327   4.384  11.255 -1.1934 -0.0719 -0.3009
    8TMC3    C814219   0.277   4.215  10.862  0.2379  0.1826  0.1328
    8TMC3    O114220   0.409   4.330  11.322 -0.5128 -0.2651 -0.3333
    8TMC3    O214221   0.181   4.192  10.935  0.6941  0.4738 -0.7877
    9MPD2     C14222   0.313   3.976  10.586  0.3027  0.4411  0.8590
    9MPD2    C114223   0.262   4.037  10.699  0.4402  1.1376  0.6373
    9MPD2    C214224   0.146   3.992  10.745 -0.2242 -0.5629  0.2389
    9MPD2    C314225   0.091   3.870  10.701 -0.7492 -0.1144 -0.3844
    9MPD2    C414226   0.141   3.811  10.591  0.0218 -0.2330 -0.3402
    9MPD2    C514227   0.251   3.869  10.534  0.2350 -0.9777  0.1584
    9MPD2     H14228   0.086   4.041  10.822 -1.7422 -0.9363 -0.7054
    9MPD2    H114229   0.087   3.730  10.542 -2.5656  0.1145  1.9166
    9MPD2    H214230   0.405   4.009  10.539 -0.3995  1.8707  0.4686
    9MPD2    H314231   0.303   3.823  10.451 -0.1237  0.5139 -0.9028
    9MPD2     N14232   4.695   3.813  10.763 -0.9721 -0.0705 -0.4188
    9MPD2    H514233   4.642   3.749  10.706 -0.1069  0.7912 -2.1874
    9MPD2    N114234   0.312   4.155  10.748 -0.4376  0.0047 -0.3845
    9MPD2    H714235   0.389   4.199  10.697 -0.1184  2.5076  2.2820
    1MPD1     C14236   0.584   3.019  16.412  0.1942  0.1081 -0.2307
    1MPD1    C114237   0.558   2.926  16.318 -0.2909  0.2310 -0.2228
    1MPD1    C214238   0.470   2.823  16.348 -0.1149 -1.1004  0.9321
    1MPD1    C314239   0.438   2.799  16.484  0.1217  0.2083  0.3765
    1MPD1    C414240   0.489   2.886  16.584 -0.3302  0.4109  0.1645
    1MPD1    C514241   0.549   3.002  16.542 -0.4442 -0.5503  0.2670
    1MPD1     H14242   0.432   2.755  16.273 -0.0703  0.0613 -0.1399
    1MPD1    H114243   0.476   2.875  16.691  2.3874 -0.0800  0.4463
    1MPD1    H214244   0.633   3.112  16.384 -0.2793 -0.8910 -4.4765
    1MPD1    H314245   0.576   3.075  16.618 -0.1865  0.5311 -0.8646
    1MPD1     N14246   0.347   2.706  16.528  0.4949 -0.2057 -0.2060
    1MPD1    H514247   0.330   2.695  16.627 -0.7711 -0.0336 -0.4129
    1MPD1    N114248   0.590   2.967  16.185  0.7865 -0.6079  0.6222
    1MPD1    H614249   0.622   2.893  16.122 -1.3564  0.4061 -1.6373
    1MPD1    H714250   0.669   3.031  16.192  1.6356 -1.6152  0.3628
    2MPD1     C14251   4.294   2.513  15.972 -0.4378  0.4597 -0.3166
    2MPD1    C114252   4.430   2.527  15.939  0.1047  0.5502 -0.2060
    2MPD1    C214253   4.508   2.513  16.054 -0.1018  0.4856 -0.8354
    2MPD1    C314254   4.463   2.508  16.184  0.7831  0.1288  0.5296
    2MPD1    C414255   4.329   2.503  16.207  0.5450 -0.0081  0.0361
    2MPD1    C514256   4.249   2.510  16.099 -0.9230  0.2854 -0.4973
    2MPD1     H14257   4.615   2.515  16.036  0.2638  1.2824  1.5472
    2MPD1    H114258   4.292   2.495  16.309  1.0313 -0.7669  0.1532
    2MPD1    H214259   4.216   2.498  15.898 -0.0376  0.7588 -0.7936
    2MPD1    H314260   4.142   2.505  16.115 -0.7740 -0.7038  0.1727
    2MPD1     N14261   4.563   2.496  16.289 -0.0314  0.5694 -0.8329
    2MPD1    H514262   4.660   2.513  16.264  0.0040 -1.4510 -2.1082
    2MPD1    N114263   4.471   2.530  15.811  0.7640 -0.2054  0.0072
    2MPD1    H614264   4.557   2.581  15.794  0.1741  1.3031  1.5237
    2MPD1    H714265   4.406   2.557  15.738 -1.6996 -0.3140  2.1624
    3TCq2    C114266   4.544   2.466  16.422 -0.1654  0.0603  0.0495
    3TCq2    O214267   4.447   2.424  16.485  0.0142  0.0216  0.2223
    3TCq2    C214268   4.668   2.490  16.494 -0.0538 -0.0194 -0.9472
    3TCq2    C314269   4.674   2.450  16.621 -0.2124 -0.5984  0.7758
    3TCq2    C414270   0.057   2.470  16.694 -0.1822 -0.9192  0.2525
    3TCq2    C514271   0.160   2.548  16.652 -0.3765  0.0040  0.2968
    3TCq2    C614272   0.146   2.588  16.517 -0.4152 -0.0738  0.5732
    3TCq2    C714273   0.040   2.573  16.439 -0.3740 -0.2749  0.3383
    3TCq2    C814274   0.257   2.642  16.446 -0.2740  0.1469 -0.1851
    3TCq2    O414275   0.251   2.629  16.323 -0.5971 -0.2665 -0.1143
    3TCq2    C914276   0.059   2.427  16.823 -0.6911  0.4766  0.8475
    3TCq2    O514277   0.097   2.505  16.910  0.2793 -0.5223  0.2654
    3TCq2    O614278   4.719   2.322  16.851  0.1044  0.3708  0.4053
    3TCq2    H214279   4.590   2.399  16.665 -0.0458 -1.6827 -0.1553
    3TCq2    H314280   0.249   2.555  16.714 -0.3869 -1.7842  0.5289
    3TCq2    H414281   0.036   2.613  16.339 -0.8295  2.5234  1.4970
    1TCq1    O114282   3.223   0.720  13.025  0.1037 -0.0559 -0.5660
    1TCq1    C114283   3.127   0.816  13.005 -0.5015 -0.6862  0.4215
    1TCq1    O214284   3.010   0.789  13.041  0.2594  0.5272  0.2593
    1TCq1    C214285   3.190   0.933  13.055  0.0330 -0.3586  0.4080
    1TCq1    C314286   3.315   0.939  13.106  0.1064 -0.5354 -0.3670
    1TCq1    C414287   3.357   1.041  13.183 -0.6290  0.4583  0.4621
    1TCq1    C514288   3.274   1.146  13.208 -0.1069 -0.8085  0.0320
    1TCq1    C614289   3.158   1.144  13.142  0.4744  0.1748  0.9860
    1TCq1    C714290   3.112   1.040  13.074 -0.2011  0.1236 -0.0211
    1TCq1    C814291   3.071   1.262  13.146 -0.3106  0.2506  0.0550
    1TCq1    O414292   2.952   1.250  13.121  0.0989 -0.4968  0.2301
    1TCq1    C914293   3.495   1.044  13.239 -1.3183 -0.1052 -0.2467
    1TCq1    O514294   3.579   0.969  13.184 -0.1670 -0.2135 -0.2659
    1TCq1    O614295   3.511   1.094  13.352 -0.7459 -0.0281 -0.3710
    1TCq1    H114296   3.312   0.738  12.989 -0.1755  1.1759 -0.6287
    1TCq1    H214297   3.391   0.863  13.092  1.7640  0.4620  3.2983
    1TCq1    H314298   3.308   1.226  13.274  1.5142  1.6300 -3.7125
    1TCq1    H414299   3.022   1.046  13.014 -0.9187 -0.9504  0.9665
    2MPD2     C14300   2.977   1.543  13.121 -0.0425 -0.2065  0.7054
    2MPD2    C114301   3.085   1.504  13.192 -0.3212 -0.5443  0.1508
    2MPD2    C214302   3.166   1.603  13.255 -0.2857 -0.7028 -0.5918
    2MPD2    C314303   3.125   1.738  13.247 -0.4046  0.0588 -0.9025
    2MPD2    C414304   3.022   1.770  13.166 -0.3075  0.0985 -0.2930
    2MPD2    C514305   2.938   1.673  13.113  0.3113 -0.3829 -0.3219
    2MPD2     H14306   3.252   1.586  13.318 -0.0240 -1.1952 -1.0876
    2MPD2    H114307   2.995   1.873  13.149  2.9399  0.6910 -1.8979
    2MPD2    H214308   2.909   1.474  13.073 -0.7622  1.0694 -0.0693
    2MPD2    H314309   2.855   1.714  13.056  0.1942  1.0044  0.8312
    2MPD2     N14310   3.209   1.835  13.298 -0.2957 -0.1368 -0.5683
    2MPD2    H514311   3.284   1.802  13.358  0.7154 -1.9206 -2.8060
    2MPD2    N114312   3.128   1.374  13.195  0.7027 -0.3392  0.1633
    2MPD2    H714313   3.226   1.362  13.222  0.5221 -2.7526 -0.2606
    3TCq1    O114314   3.566   2.094  13.629  0.3242  0.4127  0.1305
    3TCq1    C114315   3.433   2.101  13.659  0.2815 -0.2664 -0.3810
    3TCq1    O214316   3.396   2.172  13.746  0.0791 -0.5151 -0.0855
    3TCq1    C214317   3.394   2.128  13.525  0.0021  0.2783  0.3238
    3TCq1    C314318   3.412   2.250  13.470  0.1769  0.0554  0.4245
    3TCq1    C414319   3.371   2.280  13.344  0.0813 -0.5325  0.3807
    3TCq1    C514320   3.311   2.182  13.267 -0.2971 -0.1449 -0.6646
    3TCq1    C614321   3.294   2.062  13.321  0.1284 -0.0370  0.1320
    3TCq1    C714322   3.331   2.028  13.454  0.6012 -0.3976 -0.0357
    3TCq1    C814323   3.223   1.959  13.242 -0.6258 -0.3416 -0.3283
    3TCq1    O414324   3.194   1.997  13.136  0.0244 -0.0058  0.3328
    3TCq1    C914325   3.400   2.409  13.290 -0.2846 -0.3577  0.7923
    3TCq1    O514326   3.446   2.495  13.370  0.3146  0.2050 -0.1612
    3TCq1    O614327   3.390   2.408  13.167  0.3884  0.2530 -0.1806
    3TCq1    H114328   3.582   2.061  13.538 -1.0490 -3.8733  1.4321
    3TCq1    H214329   3.475   2.323  13.518 -0.2128 -0.0587  1.1069
    3TCq1    H314330   3.297   2.198  13.161  0.9235 -1.6664 -1.0424
    3TCq1    H414331   3.308   1.930  13.495 -0.9287  0.2658  0.6931
    1MPD2     C14332   2.475   2.385  14.324  0.1406 -0.2006 -0.1177
    1MPD2    C114333   2.350   2.444  14.322  0.3831 -0.6589 -0.0011
    1MPD2    C214334   2.259   2.390  14.240  0.1022 -0.1350 -0.6625
    1MPD2    C314335   2.291   2.275  14.156  0.3053  0.2809  1.1683
    1MPD2    C414336   2.413   2.215  14.170  0.6935 -0.2987  0.1589
    1MPD2    C514337   2.499   2.264  14.264  1.0306 -1.0026 -0.0514
    1MPD2     H14338   2.158   2.429  14.243  0.1155 -0.1579  0.1334
    1MPD2    H114339   2.438   2.116  14.133  3.7093  0.6639 -0.4019
    1MPD2    H214340   2.557   2.415  14.387  0.6539  2.1986 -1.9373
    1MPD2    H314341   2.596   2.221  14.289  1.0823 -0.2503  1.0410
    1MPD2     N14342   2.201   2.206  14.065  0.5554  0.3485  0.3374
    1MPD2    H514343   2.236   2.125  14.014 -0.9079 -0.3390  0.4223
    1MPD2    N114344   2.322   2.554  14.411 -0.1542  0.4452  0.3676
    1MPD2    H714345   2.398   2.578  14.474 -0.7335  1.7872  0.5495
    2TMC3    C114346   2.198   2.719  14.517 -0.6414  0.0199  0.4477
    2TMC3    C214347   2.063   2.704  14.559  0.3874 -0.2261 -0.5142
    2TMC3    C314348   1.971   2.810  14.544  0.3896 -0.3533 -1.0306
    2TMC3    C414349   2.228   2.842  14.470 -0.0387 -1.0703  0.3398
    2TMC3    C514350   2.143   2.951  14.464 -0.2528 -0.3254 -0.5580
    2TMC3    C614351   2.016   2.936  14.508  0.2714 -0.1863 -0.2727
    2TMC3     C14352   2.210   2.634  14.411  0.0033 -0.4122 -0.9374
    2TMC3     O14353   2.110   2.622  14.343  0.0647  0.1982  0.5096
    2TMC3     H14354   2.037   2.604  14.595 -0.5017 -0.1329 -0.8909
    2TMC3    H114355   2.325   2.850  14.422 -0.8635  0.4864 -1.0969
    2TMC3    H214356   1.940   3.011  14.492 -0.0151 -0.4003  0.1005
    2TMC3    C714357   2.187   3.089  14.436  0.0380 -0.0207 -0.0509
    2TMC3    C814358   1.841   2.777  14.512  0.4435  0.1175  0.4546
    2TMC3    O114359   2.098   3.172  14.421  0.7243 -0.2359  0.1583
    2TMC3    O214360   1.741   2.826  14.561  0.1506 -0.0832  0.2454
    3TCq1    O114361   3.334   3.676  14.697  0.3367  0.2565  0.3818
    3TCq1    C114362   3.283   3.624  14.584  0.3580  1.1513 -0.2205
    3TCq1    O214363   3.299   3.688  14.480  0.0947  0.1478 -0.4326
    3TCq1    C214364   3.163   3.541  14.621  0.0722 -0.9049 -0.3992
    3TCq1    C314365   3.178   3.445  14.717 -0.1929  0.2309 -0.8016
    3TCq1    C414366   3.077   3.351  14.732  0.2340 -0.4494  0.2312
    3TCq1    C514367   2.963   3.361  14.661 -0.2808 -0.9741  0.2224
    3TCq1    C614368   2.953   3.454  14.560  0.0598 -0.7181  0.2431
    3TCq1    C714369   3.053   3.541  14.543 -0.3696 -0.5909  0.1333
    3TCq1    C814370   2.828   3.461  14.479  0.4203  0.6442 -0.1298
    3TCq1    O414371   2.829   3.530  14.376  0.0868 -0.0860  0.8273
    3TCq1    C914372   3.084   3.242  14.830  0.4366  0.2786 -0.3570
    3TCq1    O514373   3.185   3.238  14.901  0.1186 -0.9491  0.0121
    3TCq1    O614374   2.990   3.161  14.839 -0.0515 -0.1681  0.2354
    3TCq1    H114375   3.306   3.625  14.776 -0.8312  1.7850  0.9668
    3TCq1    H214376   3.263   3.428  14.783 -2.2038 -0.9710  1.5189
    3TCq1    H314377   2.881   3.293  14.680 -1.7436  0.7888  0.1600
    3TCq1    H414378   3.032   3.628  14.482 -0.7294 -0.1156  0.9437
    4MPD2     C14379   2.563   3.424  14.341  0.5720 -0.5668 -0.4452
    4MPD2    C114380   2.608   3.344  14.443  0.2161 -0.3214  0.0893
    4MPD2    C214381   2.523   3.240  14.492 -0.2880 -0.3384  0.2419
    4MPD2    C314382   2.397   3.214  14.437  0.2150 -0.1213 -0.2002
    4MPD2    C414383   2.361   3.292  14.325 -0.1407 -0.1104 -1.2778
    4MPD2    C514384   2.437   3.399  14.282 -0.5189 -0.1518  0.3741
    4MPD2     H14385   2.560   3.170  14.567  0.2397  1.2987  1.5023
    4MPD2    H114386   2.270   3.276  14.269  1.0061  0.3328 -3.2625
    4MPD2    H214387   2.622   3.505  14.300  1.3537 -1.1065 -0.3964
    4MPD2    H314388   2.390   3.465  14.210  1.3947  0.7419 -0.0661
    4MPD2     N14389   2.317   3.109  14.479 -0.1940  0.4662 -0.1300
    4MPD2    H514390   2.362   3.041  14.539  0.4485  0.1498 -0.9867
    4MPD2    N114391   2.732   3.370  14.512  0.2022  0.2216 -0.1996
    4MPD2    H714392   2.753   3.312  14.592 -0.4078  0.4529  0.1236
    5TMC2    C114393   1.759   2.176  13.944  0.2412  0.2586  0.3096
    5TMC2    C214394   1.752   2.042  13.957  0.4262 -0.5844 -0.2591
    5TMC2    C314395   1.868   1.975  13.984 -0.3826  0.3901 -0.3988
    5TMC2    C414396   1.876   2.236  13.922 -0.5455 -0.2176 -0.1591
    5TMC2    C514397   1.984   2.174  13.959  0.2362 -0.2968 -0.2411
    5TMC2    C614398   1.987   2.039  13.993 -0.0437 -0.4238  0.4076
    5TMC2     C14399   1.671   2.248  14.033 -0.2380 -0.0731  0.0857
    5TMC2     O14400   1.562   2.199  14.058 -0.2040  0.4066  0.2576
    5TMC2     H14401   1.658   1.988  13.950 -1.1175  1.7482  2.3125
    5TMC2    H114402   1.868   2.342  13.898 -0.7825 -0.0040  0.8724
    5TMC2    H214403   2.071   1.995  14.045  2.7648 -0.7128 -4.4549
    5TMC2    C714404   2.075   2.256  14.039  0.6774 -0.5349  0.3483
    5TMC2    C814405   1.850   1.837  14.029  0.3349  0.2647 -0.7642
    5TMC2    O114406   2.014   2.355  14.080  0.0620 -0.2444 -0.0692
    5TMC2    O214407   1.739   1.791  14.051 -0.6731 -0.5058  0.0616
    5TMC2    O514408   1.961   1.771  13.984  0.5206  0.2620 -0.3755
    5TMC2    H514409   2.029   1.829  13.942  1.0102 -0.6169 -0.8101
    6MPD2     C14410   1.612   2.625  14.386  1.3408 -0.8563 -0.1535
    6MPD2    C114411   1.748   2.601  14.365  0.0157  0.7061 -0.0186
    6MPD2    C214412   1.786   2.508  14.272  0.2465 -0.0877 -0.1939
    6MPD2    C314413   1.690   2.430  14.200 -0.4019  0.6627 -0.8432
    6MPD2    C414414   1.559   2.456  14.225  1.1321  0.2986  0.3361
    6MPD2    C514415   1.524   2.562  14.308  0.2992  0.7397 -0.7870
    6MPD2     H14416   1.892   2.493  14.253  0.4482  3.4025 -1.9496
    6MPD2    H114417   1.475   2.400  14.184  0.1819  2.1447 -0.2319
    6MPD2    H214418   1.586   2.713  14.444  0.6016 -0.8265 -0.5337
    6MPD2    H314419   1.422   2.585  14.336  0.2586 -3.3146  2.4377
    6MPD2     N14420   1.741   2.333  14.112  0.0848  0.1086  0.2832
    6MPD2    H514421   1.842   2.332  14.108  0.1492  0.2272  2.2020
    6MPD2    N114422   1.851   2.669  14.427  0.3399 -0.3875  0.3285
    6MPD2    H714423   1.947   2.647  14.402  0.1784 -0.2609 -0.4205
  945NH3     N114424   1.216   1.886   2.163  0.4732  0.2670  0.4988
  945NH3     H214425   1.140   1.927   2.216  0.5640  0.4060  0.5208
  945NH3     H314426   1.261   1.825   2.230  2.1006 -0.2456 -1.0632
  945NH3     H414427   1.177   1.825   2.092 -0.4593 -0.3375  1.5189
  946SOD     NA14428   2.739   2.786  14.835  0.1341 -0.3012  0.2666
  947SOD     NA14429   3.622   1.901  14.941 -0.0561 -0.0234 -0.4392
  948SOD     NA14430   0.039   1.389  16.974 -0.3169  0.3065 -0.2013
  949SOD     NA14431   1.105   3.458  10.639  0.3246  0.2848 -0.0268
  950SOD     NA14432   1.603   4.408   0.133  0.3234  0.2516  0.0900
  951SOD     NA14433   4.032   2.405  15.411 -0.6930 -0.0930  0.4017
  952SOD     NA14434   1.067   2.017  11.212 -0.1551 -0.1481 -0.0942
  953SOD     NA14435   3.194   2.448  11.204  0.3344  0.8517  0.4627
  954SOD     NA14436   3.740   1.082  13.333 -0.0926 -0.5165  0.0184
  955SOD     NA14437   3.005   2.186  12.159 -0.7576  0.4087 -0.2359
  956SOD     NA14438   1.860   1.381  10.539  0.4873 -0.0809 -0.0588
  957SOD     NA14439   0.926   2.334   1.028 -0.0298  0.5029  0.3654
  958SOD     NA14440   4.674   2.412  17.044  0.2066  0.3678  0.1754
  959SOD     NA14441   3.839   2.179  15.049  0.0758  0.0601 -0.4851
  960SOD     NA14442   3.460   2.568  11.063  0.0541 -0.2422 -0.0784
  961SOD     NA14443   1.115   0.346   2.402  0.1900 -0.1547 -0.1736
  962SOD     NA14444   3.144   2.331  12.779 -0.3005 -0.0583  0.2943
  963SOD     NA14445   2.132   2.457   8.143  0.2212 -0.4922  0.1164
  964SOD     NA14446   3.093   0.614  12.148  0.4685 -0.5469 -0.1499
  965SOD     NA14447   3.892   0.861  17.343  0.0881  0.3265 -0.5201
  966SOD     NA14448   2.101   1.261   5.519 -0.2287  0.1385 -0.5445
  967SOD     NA14449   2.780   4.612   9.565 -0.2944  0.2844 -0.0353
  968SOD     NA14450   0.404   1.285   2.886  0.0949 -0.1364 -0.0058
  969SOD     NA14451   0.534   4.191   0.134  0.1414 -0.6799  0.1832
  970SOD     NA14452   0.348   2.072  13.655 -0.1455 -0.5170  0.1581
  971SOD     NA14453   3.843   1.788  14.720  0.2402  0.5696  0.4511
  972SOD     NA14454   3.547   1.163   2.585  0.2490  0.0243 -0.4278
  973SOD     NA14455   3.857   4.354   0.386  0.0632 -0.1227 -0.6631
  974SOD     NA14456   1.154   1.440  12.586  0.1580 -0.1390  0.7451
  975SOD     NA14457   2.042   1.001  10.233  0.4530  0.0831 -0.3225
  976SOD     NA14458   3.190   2.253  12.418  0.2262  0.3096 -0.0133
  977SOD     NA14459   0.504   2.385  12.694  0.2387  0.2952  0.0892
  978SOD     NA14460   0.834   1.036   1.949  0.4522 -0.4522  0.0368
  979SOD     NA14461   0.376   0.502  13.208  0.3692  0.0039 -0.1158
  980SOD     NA14462   3.995   0.356  11.363 -0.0152 -0.0992  0.0424
  981SOD     NA14463   2.127   2.408  10.164 -0.5228 -0.0105 -0.1373
  982SOD     NA14464   0.504   2.466   8.898  0.3064  0.4652  0.2620
  983SOD     NA14465   3.388   3.976  16.308  0.4627 -0.3460 -0.2678
  984SOD     NA14466   3.892   2.705   7.720  0.4270 -0.0237 -0.0980
  985SOD     NA14467   4.507   0.868  13.564 -0.3851  0.3511  0.4585
  986SOD     NA14468   1.470   4.334   2.714  0.4675  0.0688  0.3862
  987SOD     NA14469   3.096   3.627   2.342 -0.3847  0.0635  0.2984
  988SOD     NA14470   2.992   0.306  11.117  0.1163 -0.0427 -0.5746
  989SOD     NA14471   4.364   2.522   0.352  0.1333 -0.1881  0.1405
  990SOD     NA14472   2.313   1.037   1.174 -0.2622 -0.1000 -0.2053
  991SOD     NA14473   0.125   2.079  14.651  0.0989 -0.5781  0.2200
  992SOD     NA14474   4.089   0.102  13.507  0.0187  0.1929  0.3204
  993SOD     NA14475   1.983   1.090  10.528  0.3110  0.8861  0.1140
  994SOD     NA14476   2.046   0.774  10.557  0.3135  0.3073 -0.5803
  995SOD     NA14477   4.572   2.845  13.286 -0.3788 -0.3117 -0.1943
  996SOD     NA14478   2.112   1.555  10.378 -0.0214 -0.0122  0.1629
  997SOD     NA14479   3.608   1.480  17.418  0.3157 -0.3653 -0.2295
  998SOD     NA14480   0.043   2.647   0.079  0.3513 -0.2370 -0.3325
  999SOD     NA14481   2.572   3.495   8.516 -0.2617 -0.1599 -0.0120
 1000SOD     NA14482   3.825   0.276  15.956 -0.0406 -0.2308 -0.3657
 1001SOD     NA14483   3.916   3.155  10.984  0.0790  0.0392 -0.1673
 1002SOD     NA14484   1.737   3.520  13.849  0.6862 -0.1742 -0.3298
 1003SOD     NA14485   2.191   1.658  10.652  0.0729  0.3865 -0.0283
 1004SOD     NA14486   3.622   0.824  13.025 -0.4296  0.2639  0.5336
 1005SOD     NA14487   1.751   1.288  14.934 -0.3019  0.2685 -0.0998
 1006SOD     NA14488   0.486   4.413  17.358 -0.0574  0.0689  0.3752
 1007SOD     NA14489   2.669   1.020  11.072  0.1013  0.2389  0.0166
 1008SOD     NA14490   4.231   3.336  14.511 -0.1263  0.2255  0.0683
 1009SOD     NA14491   2.291   2.669  15.106  0.2160 -0.2018 -0.5069
 1010SOD     NA14492   1.018   0.006   1.475 -0.0652 -0.6551 -0.6022
 1011SOD     NA14493   1.977   1.162  16.799  0.6223 -0.0454  0.0725
 1012SOL     OW14494   0.421   1.676   8.389 -0.3677  0.2830  0.1902
 1012SOL    HW114495   0.467   1.631   8.318  1.3306 -0.1367  1.5606
 1012SOL    HW214496   0.463   1.762   8.384  1.3343 -0.5102  0.7530
 1013SOL     OW14497   0.827   2.899   4.672  0.6164  0.1889  0.0636
 1013SOL    HW114498   0.861   2.812   4.691  1.0408  0.2364 -0.4952
 1013SOL    HW214499   0.910   2.945   4.658  1.4582 -1.5497 -0.5761
 1014SOL     OW14500   2.939   4.006  10.403  0.5995  0.1663 -0.4475
 1014SOL    HW114501   2.946   3.961  10.319  0.8769  0.8352 -0.7842
 1014SOL    HW214502   2.990   4.084  10.382  0.8611  0.2089  0.3415
 1015SOL     OW14503   3.819   4.312   1.918  0.4727 -0.1260  0.4769
 1015SOL    HW114504   3.811   4.217   1.915 -0.4711 -0.0439  0.1707
 1015SOL    HW214505   3.889   4.329   1.856 -0.6430 -2.2754 -1.3657
 1016SOL     OW14506   1.766   3.016   6.488 -0.1134 -0.1811  0.2213
 1016SOL    HW114507   1.834   3.021   6.555 -0.2671 -0.7588  0.4141
 1016SOL    HW214508   1.755   3.110   6.474 -0.7239 -0.5188 -1.6504
 1017SOL     OW14509   1.088   2.203   2.383 -0.0476 -0.3261  0.2340
 1017SOL    HW114510   1.151   2.265   2.346 -0.9094 -0.9977 -2.3346
 1017SOL    HW214511   1.037   2.268   2.432 -1.1297 -2.0203  1.3644
 1018SOL     OW14512   3.951   1.580   5.612 -0.4166  0.0112  0.0672
 1018SOL    HW114513   3.997   1.586   5.696 -2.8109 -0.2194  1.3984
 1018SOL    HW214514   4.014   1.539   5.552 -0.1039  0.6558 -0.0429
 1019SOL     OW14515   3.026   0.303  14.675  0.0643 -0.3115  0.5426
 1019SOL    HW114516   3.060   0.383  14.634 -1.2971  0.8796  1.7277
 1019SOL    HW214517   2.958   0.285  14.610  0.8478 -1.8045  0.1335
 1020SOL     OW14518   0.950   0.679   7.309 -0.7037 -0.2451 -0.1046
 1020SOL    HW114519   1.004   0.740   7.259 -0.6831 -0.0761  0.1292
 1020SOL    HW214520   1.009   0.605   7.318 -1.9495 -1.1326  0.7984
 1021SOL     OW14521   0.982   2.162   5.259 -0.4545 -0.6026 -0.4376
 1021SOL    HW114522   1.037   2.088   5.284  1.7835  1.1922 -0.0432
 1021SOL    HW214523   0.981   2.215   5.338 -4.4099 -0.6259 -0.4715
 1022SOL     OW14524   1.621   1.571   4.675 -0.0537 -0.8660  0.8774
 1022SOL    HW114525   1.701   1.618   4.700  0.2090 -0.2324 -1.1463
 1022SOL    HW214526   1.559   1.644   4.682  0.2556 -0.6847  1.7185
 1023SOL     OW14527   0.001   3.835   8.746  0.1701  0.2947  0.1527
 1023SOL    HW114528   0.085   3.856   8.704 -0.1132 -0.9828 -1.0538
 1023SOL    HW214529   0.018   3.758   8.800  1.1802 -0.1010 -0.7242
 1024SOL     OW14530   1.597   0.416   4.549  0.8416  0.2138 -0.3409
 1024SOL    HW114531   1.512   0.454   4.572  1.4892  2.2953 -1.3691
 1024SOL    HW214532   1.594   0.332   4.594 -0.4041  0.4567  0.0238
 1025SOL     OW14533   1.594   0.778   4.846 -0.1431 -0.0925  0.0074
 1025SOL    HW114534   1.520   0.803   4.901  0.1150 -0.7456  0.6478
 1025SOL    HW214535   1.576   0.823   4.763  0.0293 -1.4711 -0.7677
 1026SOL     OW14536   2.339   3.751   5.978  0.3473  0.2547  0.3675
 1026SOL    HW114537   2.247   3.771   5.959  0.5092  0.0146 -0.6519
 1026SOL    HW214538   2.370   3.732   5.890  0.9625 -2.4241  1.1509
 1027SOL     OW14539   0.953   0.677   6.137 -0.1799 -0.6575 -0.4070
 1027SOL    HW114540   0.947   0.597   6.085 -0.0913 -0.1701 -1.1734
 1027SOL    HW214541   0.938   0.747   6.074 -1.4268 -0.5513  0.0140
 1028SOL     OW14542   0.509   3.487   2.567 -0.2306 -0.1954 -0.2158
 1028SOL    HW114543   0.429   3.472   2.517  0.9621 -0.2766 -2.0765
 1028SOL    HW214544   0.494   3.574   2.604  1.2733  0.7664 -1.8866
 1029SOL     OW14545   3.857   0.157   8.489 -0.0332  0.0928 -0.4114
 1029SOL    HW114546   3.904   0.187   8.566  0.3266 -0.5721 -0.3757
 1029SOL    HW214547   3.870   0.063   8.495  1.1438  0.1995 -1.3097
 1030SOL     OW14548   0.737   2.393   6.313 -0.1096  0.0336 -0.3856
 1030SOL    HW114549   0.721   2.304   6.282  2.2040 -0.1447 -1.0404
 1030SOL    HW214550   0.768   2.450   6.242 -0.8559  1.2869  0.2991
 1031SOL     OW14551   4.155   4.286   2.506 -0.0270 -0.1859  0.5261
 1031SOL    HW114552   4.084   4.331   2.550 -0.4421 -0.8460  0.5382
 1031SOL    HW214553   4.156   4.329   2.420  2.4358 -3.3191 -1.0480
 1032SOL     OW14554   3.082   2.941   7.469  0.4486 -0.4271  0.2510
 1032SOL    HW114555   3.120   2.991   7.541  1.8598  1.3959 -1.7736
 1032SOL    HW214556   3.061   2.857   7.511  1.6228 -1.6013 -1.5082
 1033SOL     OW14557   2.944   4.295   9.281  0.0612 -0.0868 -0.0557
 1033SOL    HW114558   3.026   4.322   9.239 -1.2467  3.3110 -0.4447
 1033SOL    HW214559   2.892   4.290   9.201 -1.1344  0.2388  0.6940
 1034SOL     OW14560   1.197   0.584   3.208 -0.2710 -0.1733  0.3461
 1034SOL    HW114561   1.149   0.544   3.136  0.7555 -0.4926 -0.1576
 1034SOL    HW214562   1.211   0.670   3.169  1.4667 -0.7883 -0.3892
 1035SOL     OW14563   3.428   1.473   8.809 -0.5776  0.0655  0.1546
 1035SOL    HW114564   3.399   1.429   8.889 -2.6845 -2.2897 -1.9271
 1035SOL    HW214565   3.350   1.524   8.789 -1.3574 -0.7711  1.0479
 1036SOL     OW14566   0.819   0.328   5.018 -0.5705 -0.2116 -0.6702
 1036SOL    HW114567   0.838   0.375   4.937  0.2545 -0.4254 -0.6031
 1036SOL    HW214568   0.754   0.383   5.063 -1.2424 -1.1663 -0.4612
 1037SOL     OW14569   3.274   2.275  16.878  0.1113 -0.1848  0.4056
 1037SOL    HW114570   3.283   2.360  16.834 -2.1120 -0.6725 -0.9336
 1037SOL    HW214571   3.351   2.232  16.841 -0.2971 -1.0639  0.5829
 1038SOL     OW14572   0.319   0.443  15.807  0.6209 -0.0381  0.0098
 1038SOL    HW114573   0.344   0.396  15.887 -2.9616 -0.5327  0.8536
 1038SOL    HW214574   0.342   0.535  15.824 -0.5466  0.3720 -0.5702
 1039SOL     OW14575   1.192   0.615   3.569 -0.0423 -0.2626 -0.1514
 1039SOL    HW114576   1.198   0.573   3.655 -0.9447  2.4777  1.2475
 1039SOL    HW214577   1.283   0.643   3.561 -1.0931  2.6074 -2.0002
 1040SOL     OW14578   1.130   1.460   3.333 -0.3847  0.0670 -0.7325
 1040SOL    HW114579   1.109   1.498   3.248  0.9741 -2.8428 -2.3743
 1040SOL    HW214580   1.102   1.370   3.315 -0.6488 -0.1818  0.9930
 1041SOL     OW14581   0.931   4.634   9.321  0.0483  0.7484  0.0391
 1041SOL    HW114582   0.918   4.637   9.415 -1.6220  2.0492 -0.2441
 1041SOL    HW214583   1.024   4.613   9.313 -0.3140 -0.6585 -0.5292
 1042SOL     OW14584   1.280   2.839   6.720 -0.2261 -0.3568  0.0201
 1042SOL    HW114585   1.319   2.771   6.775  1.7745  2.0563  1.5774
 1042SOL    HW214586   1.357   2.894   6.709 -0.9374  0.4441 -0.9139
 1043SOL     OW14587   3.615   2.827   3.765  0.2958 -0.0137 -0.4570
 1043SOL    HW114588   3.623   2.781   3.849 -2.0185 -0.1171 -0.2839
 1043SOL    HW214589   3.706   2.818   3.736 -0.4532 -0.0286 -2.7929
 1044SOL     OW14590   0.588   2.908   7.512  0.2378 -0.1468  0.4324
 1044SOL    HW114591   0.554   2.845   7.449  1.4857  0.9690 -1.3659
 1044SOL    HW214592   0.509   2.936   7.558 -0.0014  1.2689 -0.8156
 1045SOL     OW14593   3.634   3.901  16.600 -0.1925 -0.0541 -0.6787
 1045SOL    HW114594   3.716   3.915  16.552  2.5253 -4.0703  2.8439
 1045SOL    HW214595   3.669   3.909  16.688 -2.8854  1.7329  0.2015
 1046SOL     OW14596   4.636   2.220   6.459  0.1560  0.8753 -0.1881
 1046SOL    HW114597   4.593   2.257   6.536  2.5772  1.7591  0.7375
 1046SOL    HW214598   4.559   2.217   6.402  0.1775 -3.1661  0.0113
 1047SOL     OW14599   0.494   2.205   3.062 -0.1332 -0.7491  0.0720
 1047SOL    HW114600   0.447   2.288   3.061 -0.6965 -1.0658  0.0437
 1047SOL    HW214601   0.515   2.177   2.973 -3.0517  1.1825 -1.2205
 1048SOL     OW14602   1.794   0.357   2.099  0.4984 -0.2302  0.3000
 1048SOL    HW114603   1.777   0.446   2.068  1.7690 -0.4343 -0.9640
 1048SOL    HW214604   1.713   0.332   2.144  0.9949 -2.5661 -0.1135
 1049SOL     OW14605   4.275   2.025   9.141  0.1558  1.0513  0.0930
 1049SOL    HW114606   4.263   1.955   9.077 -1.0335  1.6001 -0.2848
 1049SOL    HW214607   4.224   1.997   9.216  0.5426 -1.5462 -0.6299
 1050SOL     OW14608   3.208   4.628   0.626 -0.8396  0.9182  0.1285
 1050SOL    HW114609   3.240   4.705   0.580  0.9370 -0.8428 -1.5457
 1050SOL    HW214610   3.202   4.550   0.571  1.4456 -0.2005  1.4679
 1051SOL     OW14611   2.000   2.924  11.500 -0.2022 -0.1313  0.4963
 1051SOL    HW114612   2.063   2.879  11.444 -0.8171  1.2477 -1.2879
 1051SOL    HW214613   2.059   2.952  11.570 -1.3373 -1.4996  1.9855
 1052SOL     OW14614   3.451   3.842   2.844 -0.6907  0.4351  0.3021
 1052SOL    HW114615   3.456   3.908   2.775  1.0389 -1.9406 -1.8242
 1052SOL    HW214616   3.480   3.767   2.792 -2.2021 -1.6827  2.5047
 1053SOL     OW14617   4.427   0.047  13.715 -0.5288  0.2009 -0.2182
 1053SOL    HW114618   4.507   0.074  13.670  0.2549 -0.2657  0.9188
 1053SOL    HW214619   4.373   0.019  13.641  1.0110  1.4169 -1.7870
 1054SOL     OW14620   1.836   1.486   5.094 -0.4265  0.2801 -0.1707
 1054SOL    HW114621   1.926   1.518   5.090 -1.1943  2.6276  1.2713
 1054SOL    HW214622   1.793   1.567   5.066  0.0788  1.0298  1.2037
 1055SOL     OW14623   1.237   1.328   4.723  0.1979  0.6380 -0.1325
 1055SOL    HW114624   1.174   1.398   4.740 -0.4408 -0.5899  2.5788
 1055SOL    HW214625   1.183   1.278   4.661  0.0234  1.3744 -0.5650
 1056SOL     OW14626   0.162   0.917  14.780  0.2474 -0.2532 -0.1621
 1056SOL    HW114627   0.184   0.827  14.758 -3.5651 -1.3477  0.5813
 1056SOL    HW214628   0.087   0.928  14.722 -0.0409 -1.1560  0.0386
 1057SOL     OW14629   1.372   1.015   9.744  0.3516 -0.0898 -0.4716
 1057SOL    HW114630   1.382   1.038   9.651  1.8983 -0.8454 -0.4871
 1057SOL    HW214631   1.440   0.949   9.757  0.6900  0.8495  2.5148
 1058SOL     OW14632   1.639   2.538   2.759 -0.3330 -0.1934 -0.2465
 1058SOL    HW114633   1.644   2.444   2.772 -0.2580  0.0234  1.3056
 1058SOL    HW214634   1.664   2.578   2.842  0.0888  1.0260 -0.9477
 1059SOL     OW14635   2.894   2.980  13.965  0.4252  0.0517 -0.3405
 1059SOL    HW114636   2.823   2.995  14.027  0.2083  0.1142 -0.6028
 1059SOL    HW214637   2.884   3.064  13.919  0.0311  0.5184  0.5908
 1060SOL     OW14638   1.986   1.964   2.612  0.2522 -0.0511 -0.6092
 1060SOL    HW114639   1.951   1.947   2.524 -0.8798 -0.5493 -0.0588
 1060SOL    HW214640   1.908   1.947   2.665  1.2844 -2.6418  0.0494
 1061SOL     OW14641   3.256   0.864   6.524 -0.2847  0.0803 -0.0334
 1061SOL    HW114642   3.174   0.863   6.475 -0.8184 -0.9643  0.8828
 1061SOL    HW214643   3.237   0.946   6.570 -2.7867 -0.9992  0.8860
 1062SOL     OW14644   0.977   4.397   5.742  0.6365 -0.4458  0.2758
 1062SOL    HW114645   0.931   4.404   5.825  0.3171 -2.1107  0.2392
 1062SOL    HW214646   1.003   4.489   5.736 -0.7560 -0.1351 -0.7732
 1063SOL     OW14647   4.323   0.840   9.264 -0.6144 -0.1507  0.6620
 1063SOL    HW114648   4.322   0.752   9.303  1.7686 -0.0605  0.8801
 1063SOL    HW214649   4.368   0.889   9.332 -0.2991  0.5321 -0.0435
 1064SOL     OW14650   0.910   1.922   9.812  0.3591  0.4681  0.3287
 1064SOL    HW114651   0.948   1.993   9.759 -0.8691  0.0199 -1.1409
 1064SOL    HW214652   0.948   1.843   9.774 -0.1848  0.0070  0.7607
 1065SOL     OW14653   2.875   1.673   7.088 -0.0500  0.3498  0.4384
 1065SOL    HW114654   2.955   1.720   7.111  2.1381 -3.3369  0.1815
 1065SOL    HW214655   2.914   1.613   7.026 -1.1130  0.7333 -0.5988
 1066SOL     OW14656   2.740   3.543  17.261 -0.0876 -0.3020 -0.3506
 1066SOL    HW114657   2.781   3.527  17.345 -0.0364  0.3805 -0.2438
 1066SOL    HW214658   2.654   3.564  17.296 -0.6985 -0.9033 -1.4746
 1067SOL     OW14659   2.050   3.789   1.944  0.3969  0.2068  0.4931
 1067SOL    HW114660   2.018   3.793   2.034 -1.7829 -1.1531 -0.2158
 1067SOL    HW214661   2.064   3.880   1.919  1.9265 -0.2553 -0.3205
 1068SOL     OW14662   3.612   4.471   8.597 -0.6379  0.1218 -0.2178
 1068SOL    HW114663   3.555   4.489   8.521  1.7583  1.5982 -1.6730
 1068SOL    HW214664   3.696   4.505   8.567 -0.0330 -1.3827 -0.1950
 1069SOL     OW14665   4.347   0.629  11.823 -0.8035 -0.8368  0.1175
 1069SOL    HW114666   4.417   0.612  11.760  1.1589  1.6084  1.6153
 1069SOL    HW214667   4.385   0.592  11.903  0.6104 -0.9538 -0.6137
 1070SOL     OW14668   3.821   3.295  10.592  0.2176  0.5378 -0.5146
 1070SOL    HW114669   3.839   3.381  10.554 -0.6426  1.4244  1.0443
 1070SOL    HW214670   3.829   3.321  10.684 -0.5917 -0.5362 -0.1424
 1071SOL     OW14671   0.086   3.206   3.951  0.1481  0.0646  0.0800
 1071SOL    HW114672   0.093   3.111   3.965  0.9071  0.1457  0.2761
 1071SOL    HW214673   0.001   3.217   3.992 -0.2430 -0.8418 -0.4887
 1072SOL     OW14674   1.787   0.947   7.311  0.1579  0.6083 -0.0187
 1072SOL    HW114675   1.701   0.915   7.285 -0.8499  1.9514  1.7018
 1072SOL    HW214676   1.831   0.958   7.226 -1.0005  1.2878 -0.5211
 1073SOL     OW14677   2.581   1.913  10.657  0.3638 -0.3118 -0.5662
 1073SOL    HW114678   2.609   1.980  10.595  1.8821 -0.2362  0.2036
 1073SOL    HW214679   2.541   1.965  10.727  1.0075  1.8178 -1.7987
 1074SOL     OW14680   3.229   4.217   4.225  0.4635  0.1540 -0.5926
 1074SOL    HW114681   3.244   4.239   4.317 -1.3008 -0.0325 -0.2546
 1074SOL    HW214682   3.215   4.304   4.188  1.6888  1.0947  1.1393
 1075SOL     OW14683   3.882   3.841  12.538  0.0058  0.0878 -0.2027
 1075SOL    HW114684   3.937   3.764  12.522 -2.3737 -1.3563 -1.3841
 1075SOL    HW214685   3.803   3.810  12.495  1.2537 -0.5457 -2.0249
 1076SOL     OW14686   0.130   0.820   8.274 -0.8722  0.4217  0.4466
 1076SOL    HW114687   0.166   0.802   8.187  0.4988 -0.9439  1.2986
 1076SOL    HW214688   0.082   0.902   8.263 -2.2604 -0.4949 -0.3471
 1077SOL     OW14689   0.996   2.517   8.740 -0.1238  0.1054  0.2156
 1077SOL    HW114690   0.914   2.467   8.739 -0.5929  0.8700  0.0375
 1077SOL    HW214691   1.063   2.453   8.718  0.0612  0.4747 -0.2902
 1078SOL     OW14692   2.557   0.197  11.082 -0.2509  0.1183 -0.3777
 1078SOL    HW114693   2.558   0.253  11.160 -1.2464 -1.5137  0.7995
 1078SOL    HW214694   2.590   0.114  11.116  0.9110  0.0645 -1.6637
 1079SOL     OW14695   0.168   4.424   4.511 -0.1168 -0.6615  0.1519
 1079SOL    HW114696   0.238   4.489   4.508 -0.9727  0.3216  1.8683
 1079SOL    HW214697   0.206   4.338   4.489  1.6512  0.0032  0.6448
 1080SOL     OW14698   3.305   3.315  13.511  0.1270 -0.2199  0.4030
 1080SOL    HW114699   3.218   3.307  13.550  0.3212 -0.0286  0.8842
 1080SOL    HW214700   3.324   3.232  13.468  1.9834  0.6014 -0.3587
 1081SOL     OW14701   3.273   0.948   9.724 -0.1631 -0.1678  0.0633
 1081SOL    HW114702   3.193   0.895   9.726 -1.5336  1.9130  0.3643
 1081SOL    HW214703   3.263   0.992   9.640  1.2487 -1.3162 -0.7190
 1082SOL     OW14704   2.059   3.570   5.946 -0.5552 -0.3620  0.2638
 1082SOL    HW114705   2.041   3.566   6.040 -2.1735  0.3490 -0.0101
 1082SOL    HW214706   2.060   3.665   5.933  0.7837 -0.4537 -0.2731
 1083SOL     OW14707   2.204   4.597  15.687  0.1844  0.3659 -0.4702
 1083SOL    HW114708   2.193   4.568  15.778 -0.6160 -0.8912 -0.9775
 1083SOL    HW214709   2.280   4.545  15.659  1.0307  0.5542  1.4592
 1084SOL     OW14710   3.763   3.097  15.329 -0.7598 -0.2760 -0.8096
 1084SOL    HW114711   3.694   3.139  15.381 -1.3533 -1.4185 -0.6716
 1084SOL    HW214712   3.746   3.003  15.331  0.8482 -0.5413  0.4148
 1085SOL     OW14713   2.871   0.143   2.892 -1.2512 -0.0751  0.0309
 1085SOL    HW114714   2.924   0.214   2.856 -2.6749  1.0836  0.1840
 1085SOL    HW214715   2.798   0.190   2.933 -0.4772 -0.2295  1.5987
 1086SOL     OW14716   2.893   4.529  11.782 -0.3900 -0.3048 -0.1382
 1086SOL    HW114717   2.966   4.582  11.749 -0.7211 -1.1867 -2.2876
 1086SOL    HW214718   2.860   4.489  11.701 -1.3850 -1.4074  0.8103
 1087SOL     OW14719   1.809   3.365   5.519 -0.4768  0.3249  0.0597
 1087SOL    HW114720   1.799   3.272   5.539 -1.8073 -0.0650 -2.3312
 1087SOL    HW214721   1.836   3.403   5.602 -0.9698 -2.7582  1.6376
 1088SOL     OW14722   2.269   1.202   3.365 -0.0559 -0.5518 -0.2708
 1088SOL    HW114723   2.237   1.121   3.326 -2.5996  0.2383  0.1314
 1088SOL    HW214724   2.234   1.188   3.453  1.1996 -0.1963  0.2796
 1089SOL     OW14725   2.732   1.005   8.472  0.6740 -0.6011 -0.1117
 1089SOL    HW114726   2.751   0.928   8.526 -2.0880 -0.7576  0.6369
 1089SOL    HW214727   2.784   0.968   8.400 -1.9202 -0.7143 -1.9099
 1090SOL     OW14728   2.796   3.625   3.481  0.4119  0.3605  0.6385
 1090SOL    HW114729   2.877   3.585   3.514  1.6223  1.4128 -1.0579
 1090SOL    HW214730   2.825   3.711   3.452 -2.8927  1.0990 -0.4633
 1091SOL     OW14731   3.317   3.719   1.565  0.5045 -0.0609 -0.0493
 1091SOL    HW114732   3.265   3.659   1.511 -1.2994 -0.1446  1.7932
 1091SOL    HW214733   3.301   3.689   1.655  1.0472 -0.5431 -0.1094
 1092SOL     OW14734   3.043   0.228   6.480  0.4469 -0.9301  0.0084
 1092SOL    HW114735   2.951   0.227   6.454 -0.1634 -0.3496  2.1470
 1092SOL    HW214736   3.073   0.309   6.438  1.8278 -0.1035  2.6065
 1093SOL     OW14737   1.518   3.938  12.020 -0.3382  0.0806  0.8490
 1093SOL    HW114738   1.434   3.978  12.044 -1.3482 -0.8674 -1.1303
 1093SOL    HW214739   1.477   3.871  11.965 -0.7747 -0.2152  1.5380
 1094SOL     OW14740   3.130   1.319   5.847 -0.0948  0.6010  0.6538
 1094SOL    HW114741   3.048   1.347   5.888 -1.3901  0.3422 -1.8001
 1094SOL    HW214742   3.202   1.365   5.892  1.0422  0.4149 -0.9880
 1095SOL     OW14743   1.807   1.545   9.159 -0.4469 -0.6869 -0.0458
 1095SOL    HW114744   1.773   1.457   9.141  1.8111 -1.8714  1.5105
 1095SOL    HW214745   1.795   1.583   9.072 -2.1147 -1.0466  0.0120
 1096SOL     OW14746   3.617   3.298   7.561  0.2363 -0.0005 -0.1984
 1096SOL    HW114747   3.676   3.353   7.510 -0.0869  0.4634 -0.0788
 1096SOL    HW214748   3.630   3.214   7.517 -0.6446  0.1806 -0.8103
 1097SOL     OW14749   0.826   1.155   8.140 -0.1688 -0.1360  0.0482
 1097SOL    HW114750   0.772   1.109   8.076  1.0623  0.7909 -1.6331
 1097SOL    HW214751   0.850   1.083   8.198 -4.8102 -1.6712  0.0845
 1098SOL     OW14752   2.494   1.036   8.201 -0.1905 -0.3151 -0.1871
 1098SOL    HW114753   2.582   1.073   8.196 -0.4166 -0.0803 -2.4621
 1098SOL    HW214754   2.492   1.008   8.292  0.1537 -1.0757 -0.4164
 1099SOL     OW14755   4.437   0.892   7.216  0.1547 -0.4087 -0.0212
 1099SOL    HW114756   4.382   0.969   7.202 -2.1556 -1.8638  1.2714
 1099SOL    HW214757   4.443   0.908   7.310  0.2988 -1.3037  0.1230
 1100SOL     OW14758   3.621   2.242  15.235 -0.0549  0.3835  0.0826
 1100SOL    HW114759   3.537   2.283  15.217 -0.1566 -0.3548 -1.1312
 1100SOL    HW214760   3.630   2.241  15.330 -2.3950  3.2825  0.3235
 1101SOL     OW14761   2.731   0.654   6.826  0.3611 -0.6557 -0.1133
 1101SOL    HW114762   2.728   0.658   6.921  1.8452 -1.3189 -0.0382
 1101SOL    HW214763   2.768   0.740   6.808  3.2474 -1.7388  0.7105
 1102SOL     OW14764   3.481   4.063   7.203  0.1310 -0.2091  0.0141
 1102SOL    HW114765   3.446   3.977   7.179  1.1598 -0.0723 -1.9612
 1102SOL    HW214766   3.413   4.115   7.246 -1.9407 -1.2275 -2.0785
 1103SOL     OW14767   2.722   2.406   9.663 -0.5148  0.1835  0.2631
 1103SOL    HW114768   2.656   2.355   9.617 -0.6018  0.8395 -0.3588
 1103SOL    HW214769   2.699   2.407   9.755  1.1814  0.4267  0.6818
 1104SOL     OW14770   3.060   2.279   3.983 -0.2381  0.7129 -0.0107
 1104SOL    HW114771   2.968   2.304   3.977 -0.3540  0.0956 -0.8259
 1104SOL    HW214772   3.098   2.307   3.900 -1.4785  1.8343 -0.1836
 1105SOL     OW14773   2.911   3.573   1.170  0.2343 -0.2878 -0.1271
 1105SOL    HW114774   2.816   3.564   1.175  0.2851 -0.5680  0.2571
 1105SOL    HW214775   2.938   3.488   1.137  0.0324 -0.2430 -0.4076
 1106SOL     OW14776   0.929   3.123   7.950 -1.2270 -0.4316 -0.1363
 1106SOL    HW114777   0.836   3.126   7.973 -1.1658  0.0741  0.0350
 1106SOL    HW214778   0.962   3.201   7.994 -1.0803 -0.2468 -0.5686
 1107SOL     OW14779   2.474   4.245   7.365  0.6664  0.0054  0.3081
 1107SOL    HW114780   2.454   4.325   7.413  2.9195 -0.6160  2.2889
 1107SOL    HW214781   2.437   4.181   7.426 -0.5126 -0.8466 -1.3122
 1108SOL     OW14782   4.162   2.541   7.176 -0.2523 -0.2393  0.2094
 1108SOL    HW114783   4.096   2.591   7.224  0.5605 -0.4929  1.5651
 1108SOL    HW214784   4.209   2.487   7.239  0.0899  0.4456  0.5291
 1109SOL     OW14785   3.965   2.667   5.900 -0.5543 -0.2132  0.1302
 1109SOL    HW114786   3.949   2.662   5.806  2.0394 -0.5198 -0.2821
 1109SOL    HW214787   3.955   2.760   5.919  0.0290 -0.0005 -0.6613
 1110SOL     OW14788   0.032   3.710   6.107  0.1038  0.3395 -0.2635
 1110SOL    HW114789   0.039   3.713   6.012 -0.9640  0.4102 -0.3411
 1110SOL    HW214790   0.126   3.696   6.115 -0.0554  0.0356  1.1126
 1111SOL     OW14791   3.910   3.452   1.589  0.6616  0.2552  0.1421
 1111SOL    HW114792   3.873   3.539   1.572 -0.7295 -0.4458 -0.3654
 1111SOL    HW214793   3.920   3.415   1.502  1.4465 -0.8894  0.7113
 1112SOL     OW14794   0.216   4.534   2.589 -0.1583  0.1682 -0.0336
 1112SOL    HW114795   0.232   4.466   2.655  0.1559 -0.3519 -0.6417
 1112SOL    HW214796   0.243   4.488   2.509 -1.5044 -1.0320  0.2083
 1113SOL     OW14797   2.084   0.703   4.406  0.0875 -0.5192  0.0705
 1113SOL    HW114798   2.159   0.686   4.463 -0.0401 -1.5925 -0.0946
 1113SOL    HW214799   2.110   0.658   4.325 -1.6026 -0.3818 -0.5541
 1114SOL     OW14800   1.848   0.402   0.043 -0.1562  0.2603  0.4630
 1114SOL    HW114801   1.872   0.313   0.066  1.3585  0.5313 -0.0333
 1114SOL    HW214802   1.894   0.454   0.109  0.6381  2.7064 -1.9886
 1115SOL     OW14803   3.876   4.703  13.007  0.3605  0.7443  0.0450
 1115SOL    HW114804   3.813   4.692  13.079  0.7239 -0.3016  0.2083
 1115SOL    HW214805   3.938   4.636  13.037  0.4933  0.2649 -1.3257
 1116SOL     OW14806   4.323   4.382  11.212 -0.1656 -0.1902 -0.6272
 1116SOL    HW114807   4.251   4.416  11.264 -0.9497 -2.9838  0.0880
 1116SOL    HW214808   4.307   4.289  11.228 -1.3922 -0.5581 -3.8205
 1117SOL     OW14809   0.976   4.080   0.482 -0.4813  0.2932  0.0254
 1117SOL    HW114810   0.888   4.102   0.514 -0.6019  2.5184 -1.8615
 1117SOL    HW214811   0.960   3.986   0.469 -1.8397  0.0505  3.4107
 1118SOL     OW14812   4.409   4.227   2.537 -0.1320  0.1524  0.1953
 1118SOL    HW114813   4.317   4.239   2.515 -0.1512 -2.0444 -0.8451
 1118SOL    HW214814   4.417   4.141   2.496  0.4115  0.0493  0.5217
 1119SOL     OW14815   3.086   1.232   7.828  0.5567 -0.1999  0.8694
 1119SOL    HW114816   3.023   1.184   7.883 -1.6439  0.4508 -1.0957
 1119SOL    HW214817   3.110   1.167   7.762 -0.6262 -1.3167  1.5202
 1120SOL     OW14818   0.322   0.979   5.538 -0.4985 -0.5743  0.2602
 1120SOL    HW114819   0.270   0.977   5.618  1.2283 -0.1466  1.3849
 1120SOL    HW214820   0.407   0.960   5.577 -1.5349 -0.8874  2.3764
 1121SOL     OW14821   4.451   1.770   2.066 -0.0179  0.0309  0.0210
 1121SOL    HW114822   4.476   1.706   1.999 -0.7509  0.7571 -0.9406
 1121SOL    HW214823   4.371   1.729   2.097  0.8211 -0.2910  1.7347
 1122SOL     OW14824   0.574   0.880   5.876  0.7088 -0.1513  0.5559
 1122SOL    HW114825   0.601   0.788   5.880 -0.5223 -0.5186  0.4066
 1122SOL    HW214826   0.498   0.877   5.935  1.1472  0.0549  1.1423
 1123SOL     OW14827   2.853   3.687   6.939 -0.0947  0.1661 -0.4278
 1123SOL    HW114828   2.833   3.686   7.032 -0.5595  0.7032 -0.5262
 1123SOL    HW214829   2.780   3.736   6.902  0.6819  0.8742 -1.0296
 1124SOL     OW14830   0.935   3.327  10.766 -0.1760  0.3067 -0.1830
 1124SOL    HW114831   0.867   3.382  10.805  1.6842  1.0033  2.0692
 1124SOL    HW214832   0.951   3.265  10.837  1.4326  2.6460  1.5206
 1125SOL     OW14833   3.287   0.779   6.140  0.1180  0.1149  0.9181
 1125SOL    HW114834   3.293   0.874   6.148 -0.7888  0.1837  0.7560
 1125SOL    HW214835   3.201   0.767   6.180  0.6367 -2.2165  1.3418
 1126SOL     OW14836   3.017   1.793   2.170  0.0649 -0.1507 -0.5102
 1126SOL    HW114837   3.039   1.852   2.242  0.8240 -0.7283 -0.2685
 1126SOL    HW214838   2.977   1.720   2.217 -0.6234  0.7014  0.2267
 1127SOL     OW14839   0.243   3.248   2.344 -0.0309 -0.2736  0.4676
 1127SOL    HW114840   0.209   3.327   2.385  0.1182  0.3031 -0.5246
 1127SOL    HW214841   0.332   3.231   2.375  1.5684  1.3705 -3.2072
 1128SOL     OW14842   2.377   1.739   6.098  0.3534 -0.4374  0.0434
 1128SOL    HW114843   2.304   1.798   6.114 -0.0371 -0.4099 -1.8817
 1128SOL    HW214844   2.410   1.769   6.014 -1.0551  0.7011 -0.0994
 1129SOL     OW14845   4.106   2.970   4.226 -0.3461  0.6291  0.1942
 1129SOL    HW114846   4.117   3.064   4.241  1.5760  0.0746  2.1998
 1129SOL    HW214847   4.011   2.983   4.224 -1.0110 -4.3062 -0.6631
 1130SOL     OW14848   0.935   2.357  13.705 -0.4724 -0.5695  0.0010
 1130SOL    HW114849   0.969   2.310  13.630 -0.7055 -0.9618  0.1432
 1130SOL    HW214850   0.843   2.364  13.679 -0.6373  1.2748  1.0575
 1131SOL     OW14851   3.522   2.840   5.770 -0.0240  0.4178 -0.2627
 1131SOL    HW114852   3.542   2.782   5.843  1.1502 -0.1964 -1.0866
 1131SOL    HW214853   3.455   2.899   5.806 -1.9159 -0.1517 -2.8339
 1132SOL     OW14854   2.922   0.382   6.916 -0.1279 -0.1146 -0.5531
 1132SOL    HW114855   2.868   0.426   6.850  0.9244  1.2905 -0.4681
 1132SOL    HW214856   3.004   0.431   6.917 -0.1678 -0.0445 -0.6559
 1133SOL     OW14857   4.515   1.437  16.464 -0.7394  0.7538  0.4351
 1133SOL    HW114858   4.443   1.480  16.419  0.0022 -1.0326 -2.4735
 1133SOL    HW214859   4.478   1.417  16.550  1.8030  1.9605  1.8133
 1134SOL     OW14860   0.757   0.729   5.112  0.2767  0.3163  0.2434
 1134SOL    HW114861   0.724   0.650   5.154 -0.2335  0.3097 -0.1744
 1134SOL    HW214862   0.726   0.788   5.181 -3.7783 -1.1880 -0.2915
 1135SOL     OW14863   0.671   1.628   7.557  0.2558  0.4474  0.0080
 1135SOL    HW114864   0.619   1.633   7.476  1.9133  1.9440 -0.9553
 1135SOL    HW214865   0.745   1.573   7.534 -0.5457 -0.2539 -0.9058
 1136SOL     OW14866   3.433   2.569   4.516  0.6718 -0.4434 -0.0079
 1136SOL    HW114867   3.510   2.574   4.572  0.8439  0.0284 -0.2873
 1136SOL    HW214868   3.429   2.474   4.500  1.7499 -0.2697 -1.2854
 1137SOL     OW14869   3.186   0.789  12.052 -0.0401 -0.6971 -0.3828
 1137SOL    HW114870   3.237   0.745  11.984 -1.7935 -2.1360 -0.7544
 1137SOL    HW214871   3.184   0.879  12.018  1.7860  0.3854  2.3380
 1138SOL     OW14872   2.991   1.419   3.245 -0.3932  0.4259 -0.0514
 1138SOL    HW114873   2.895   1.419   3.237 -0.4334  0.0828  0.3895
 1138SOL    HW214874   3.006   1.482   3.316  0.0549  0.2488  0.0110
 1139SOL     OW14875   3.138   4.645   6.835 -0.3008  0.2860  0.4123
 1139SOL    HW114876   3.126   4.632   6.929  0.4949  0.0551  0.4830
 1139SOL    HW214877   3.076   4.580   6.802  0.8227 -0.6107  0.0589
 1140SOL     OW14878   4.430   2.960   9.650  0.4388  0.6973  0.1460
 1140SOL    HW114879   4.492   2.897   9.688  0.5113 -0.1652 -1.4277
 1140SOL    HW214880   4.490   3.028   9.617  0.7596  0.2176 -0.2609
 1141SOL     OW14881   2.331   2.044   2.932  0.1788 -0.2097 -0.2732
 1141SOL    HW114882   2.382   1.996   2.997 -2.3298 -1.4361  0.8027
 1141SOL    HW214883   2.289   1.971   2.887  0.8882 -0.0731 -1.1703
 1142SOL     OW14884   1.892   2.887   5.711  0.1047  0.5923  0.0420
 1142SOL    HW114885   1.841   2.865   5.790 -2.2360  0.5052 -1.4919
 1142SOL    HW214886   1.973   2.915   5.753 -0.6904 -0.1162  2.0734
 1143SOL     OW14887   1.447   1.303   3.370 -0.0616  0.5988  0.3461
 1143SOL    HW114888   1.366   1.283   3.322  0.5509  2.5882 -1.4871
 1143SOL    HW214889   1.486   1.368   3.313 -0.5376  0.3961 -0.2161
 1144SOL     OW14890   2.262   0.633  10.786 -0.2021 -0.2753 -0.2549
 1144SOL    HW114891   2.186   0.687  10.808  2.0422  2.7460  0.0862
 1144SOL    HW214892   2.221   0.551  10.813 -4.0238  1.0039 -2.1211
 1145SOL     OW14893   1.441   4.460   7.425 -0.5871  0.1018 -0.0425
 1145SOL    HW114894   1.423   4.554   7.420 -1.6410 -0.1702 -1.4451
 1145SOL    HW214895   1.531   4.465   7.457  0.4111  0.8920 -2.9560
 1146SOL     OW14896   4.143   2.316   2.461  0.8812 -0.2272  0.1916
 1146SOL    HW114897   4.138   2.407   2.489  2.3100 -0.2395  0.4349
 1146SOL    HW214898   4.051   2.304   2.434  1.6096 -0.1291 -2.3081
 1147SOL     OW14899   2.397   2.144   4.559 -0.0429 -0.0389 -0.5547
 1147SOL    HW114900   2.387   2.067   4.503 -0.3472 -2.1389  2.3837
 1147SOL    HW214901   2.409   2.107   4.646 -1.4182  1.3036  0.2103
 1148SOL     OW14902   1.223   3.800   9.423  0.2441  0.0000 -0.2319
 1148SOL    HW114903   1.249   3.838   9.507  0.4978 -1.0960  0.1839
 1148SOL    HW214904   1.246   3.864   9.355  1.0911 -0.2573 -0.1815
 1149SOL     OW14905   4.311   3.392   5.152 -0.3167 -0.1866  0.2049
 1149SOL    HW114906   4.338   3.307   5.117 -0.0525 -0.3652  0.8496
 1149SOL    HW214907   4.389   3.446   5.141  0.5915 -0.7710  3.8708
 1150SOL     OW14908   3.501   0.325   7.626  0.1039 -0.2690 -0.4805
 1150SOL    HW114909   3.472   0.243   7.585  2.2862 -0.4382 -1.7031
 1150SOL    HW214910   3.593   0.304   7.645 -0.4606 -1.2882  1.1032
 1151SOL     OW14911   3.478   3.899   8.368  0.7271 -0.3263  0.0688
 1151SOL    HW114912   3.492   3.882   8.461 -1.7652 -1.8222  0.1899
 1151SOL    HW214913   3.452   3.991   8.366  0.7371 -0.3690 -1.4560
 1152SOL     OW14914   2.562   2.907   6.181 -0.0424  0.2614 -0.2419
 1152SOL    HW114915   2.579   2.903   6.087  0.1748 -0.0007 -0.1893
 1152SOL    HW214916   2.627   2.844   6.211 -0.4757 -0.4183 -0.7343
 1153SOL     OW14917   3.638   2.456  13.691  0.0608 -0.0401 -0.3659
 1153SOL    HW114918   3.590   2.494  13.765 -0.1283 -0.2399 -0.3859
 1153SOL    HW214919   3.618   2.362  13.696 -1.5393  0.3324  0.2616
 1154SOL     OW14920   4.421   4.095   6.260 -0.0513 -0.4049 -0.3187
 1154SOL    HW114921   4.505   4.082   6.303 -0.0331 -0.3879 -0.3492
 1154SOL    HW214922   4.456   4.077   6.173 -1.9026 -3.0762 -0.5036
 1155SOL     OW14923   1.313   3.349   1.495 -0.1617  0.1836  0.2874
 1155SOL    HW114924   1.391   3.312   1.455 -2.1900 -1.3498 -2.2453
 1155SOL    HW214925   1.349   3.428   1.536 -0.0184  0.6622 -0.7776
 1156SOL     OW14926   1.350   2.392   0.097  0.2318 -0.2778 -0.1410
 1156SOL    HW114927   1.295   2.331   0.049 -1.3215  1.2616 -0.2999
 1156SOL    HW214928   1.402   2.325   0.143  0.2856 -0.4201 -0.4082
 1157SOL     OW14929   4.086   1.730   7.512  0.2289  0.9439  0.5557
 1157SOL    HW114930   4.173   1.741   7.551  1.1329 -0.3065 -1.1242
 1157SOL    HW214931   4.073   1.787   7.436 -1.1909 -1.3971 -0.9549
 1158SOL     OW14932   1.020   1.242   6.533 -0.5870  0.2292  0.2596
 1158SOL    HW114933   1.051   1.310   6.593  1.1937  0.2495 -0.6897
 1158SOL    HW214934   1.044   1.289   6.453  0.9733 -0.3700  0.3749
 1159SOL     OW14935   3.735   2.543   2.313 -0.1798 -0.4096  0.4837
 1159SOL    HW114936   3.709   2.451   2.319 -0.8551 -0.1578  1.4529
 1159SOL    HW214937   3.766   2.555   2.223  0.8870  3.9479  1.4326
 1160SOL     OW14938   0.771   2.830   8.280 -0.0259  0.3835 -0.2762
 1160SOL    HW114939   0.684   2.864   8.302 -0.0345  1.4039 -1.9091
 1160SOL    HW214940   0.822   2.910   8.288  0.0336  0.6632 -3.3363
 1161SOL     OW14941   2.053   0.584  10.402 -0.2298 -0.0648 -0.3154
 1161SOL    HW114942   2.084   0.520  10.467 -1.3154 -2.4926 -2.1655
 1161SOL    HW214943   2.002   0.524  10.347  0.1006  1.3118 -2.1085
 1162SOL     OW14944   0.972   4.081   9.777  0.3288  0.1394  0.0330
 1162SOL    HW114945   1.016   4.135   9.843  0.0153 -0.4877  0.7576
 1162SOL    HW214946   1.013   3.998   9.805 -0.0291  0.4906  1.6201
 1163SOL     OW14947   3.360   0.898   2.706 -0.1605 -0.6513 -0.1161
 1163SOL    HW114948   3.299   0.935   2.642  3.2068  1.2931 -2.2423
 1163SOL    HW214949   3.310   0.826   2.744  2.6359 -1.3795  2.1621
 1164SOL     OW14950   1.918   0.387  10.266 -0.1583  0.3679  1.0426
 1164SOL    HW114951   1.885   0.303  10.301  1.0020 -0.3125  0.4773
 1164SOL    HW214952   1.914   0.363  10.174  2.4721 -0.2017  1.0879
 1165SOL     OW14953   4.533   4.107  14.453 -0.2738 -0.1986 -0.5145
 1165SOL    HW114954   4.485   4.156  14.386  0.8096  0.4805 -0.8078
 1165SOL    HW214955   4.576   4.037  14.403  2.0971 -0.4234  1.8219
 1166SOL     OW14956   1.449   0.487   3.103  0.7374 -0.1457 -0.6521
 1166SOL    HW114957   1.365   0.532   3.102  0.3747 -0.7866  0.5609
 1166SOL    HW214958   1.451   0.444   3.018 -1.7492 -3.3924  0.9356
 1167SOL     OW14959   4.621   1.245   7.065  0.8519  0.9170  0.0072
 1167SOL    HW114960   4.653   1.169   7.016 -0.9596  0.2112 -0.0783
 1167SOL    HW214961   4.526   1.235   7.056  1.2417 -0.4774 -2.3917
 1168SOL     OW14962   2.874   3.515  10.747 -0.0012 -0.4871 -0.6728
 1168SOL    HW114963   2.847   3.584  10.807  0.5313 -0.3135 -0.6329
 1168SOL    HW214964   2.796   3.502  10.693  0.1571 -1.0667 -0.7653
 1169SOL     OW14965   3.867   3.930   3.494  0.3891 -0.4185 -0.4580
 1169SOL    HW114966   3.897   3.926   3.585  0.1236 -0.6197 -0.3784
 1169SOL    HW214967   3.898   3.844   3.466 -1.8988 -2.0397  1.9148
 1170SOL     OW14968   0.741   4.321   6.314 -0.1667  0.2724 -0.1627
 1170SOL    HW114969   0.716   4.307   6.223 -1.4209 -0.0518  0.2292
 1170SOL    HW214970   0.767   4.235   6.346 -1.8752  0.7962  2.7082
 1171SOL     OW14971   0.171   4.031   7.869  0.2587 -0.4307  0.3917
 1171SOL    HW114972   0.130   3.961   7.820  1.3157  0.4907 -1.7949
 1171SOL    HW214973   0.250   3.984   7.893  0.7719  0.9556  1.4630
 1172SOL     OW14974   2.949   1.531   1.315  0.4849  0.0082 -0.5271
 1172SOL    HW114975   3.044   1.523   1.317  0.1295 -3.1527  3.7767
 1172SOL    HW214976   2.922   1.439   1.320 -1.1292  0.4269 -1.6598
 1173SOL     OW14977   4.464   0.443   5.171 -0.2312  0.5810 -0.2539
 1173SOL    HW114978   4.554   0.415   5.190 -0.3030 -0.1181 -0.9331
 1173SOL    HW214979   4.476   0.517   5.112  1.7957  0.2952 -0.2285
 1174SOL     OW14980   2.445   3.778  11.981 -0.2753 -0.7196 -0.2489
 1174SOL    HW114981   2.509   3.847  12.000 -1.8838  1.1038 -1.5307
 1174SOL    HW214982   2.507   3.708  12.003  0.2279  0.3274  1.7151
 1175SOL     OW14983   3.846   0.435   4.420 -0.0892  0.6934 -0.3476
 1175SOL    HW114984   3.899   0.394   4.488 -2.0627 -2.5120 -0.7427
 1175SOL    HW214985   3.761   0.442   4.464  0.0901  0.8686 -0.0249
 1176SOL     OW14986   2.431   3.695   4.678  0.0330 -0.0808  0.4269
 1176SOL    HW114987   2.513   3.701   4.727  1.1884  1.6349 -1.6763
 1176SOL    HW214988   2.379   3.763   4.720 -0.1414 -0.6524  1.1363
 1177SOL     OW14989   3.401   3.201  15.282  0.1774  0.0847  0.2862
 1177SOL    HW114990   3.444   3.209  15.196  0.9574  1.2927  0.7915
 1177SOL    HW214991   3.313   3.176  15.254 -0.2626  2.9359 -0.9036
 1178SOL     OW14992   0.225   2.055  14.238 -0.3597 -0.4937 -0.5257
 1178SOL    HW114993   0.176   2.096  14.309  0.5553  0.7441 -0.6094
 1178SOL    HW214994   0.316   2.058  14.269 -0.0616  1.4929 -1.6493
 1179SOL     OW14995   2.830   2.215   5.649  0.3809  0.1645 -0.2826
 1179SOL    HW114996   2.825   2.230   5.555 -0.3184  0.0627 -0.2558
 1179SOL    HW214997   2.831   2.121   5.664  1.0731 -0.0640 -1.7694
 1180SOL     OW14998   0.520   3.430  13.176 -0.4052  0.3993 -0.7440
 1180SOL    HW114999   0.442   3.485  13.174  1.2089  2.6970  0.1424
 1180SOL    HW215000   0.511   3.404  13.267 -0.9416 -0.6219 -1.0907
 1181SOL     OW15001   0.796   4.458   5.554  0.4557 -0.0342  0.7514
 1181SOL    HW115002   0.876   4.430   5.597  0.2328 -1.5756  0.1730
 1181SOL    HW215003   0.790   4.553   5.566  1.7137  0.3085 -1.3362
 1182SOL     OW15004   3.010   0.471   2.401  0.1024 -0.2564  0.0477
 1182SOL    HW115005   2.995   0.384   2.364 -0.5431  0.9191 -2.4054
 1182SOL    HW215006   3.100   0.460   2.433 -0.3528 -0.5660  1.2340
 1183SOL     OW15007   1.799   2.745   5.385  0.1655  0.3624  0.4652
 1183SOL    HW115008   1.805   2.838   5.364  0.7092  0.0623 -0.7357
 1183SOL    HW215009   1.704   2.742   5.402  0.0515  0.9945 -0.0625
 1184SOL     OW15010   0.983   2.906  17.466 -0.1810 -0.2573  0.1034
 1184SOL    HW115011   1.069   2.900  17.508 -0.8188  2.7796  1.9046
 1184SOL    HW215012   0.958   2.990  17.505  2.3074  1.0527 -1.1491
 1185SOL     OW15013   4.269   0.613  12.747  0.0359  0.9707 -0.2834
 1185SOL    HW115014   4.300   0.625  12.836  0.5599  0.8112 -0.4420
 1185SOL    HW215015   4.349   0.572  12.715 -0.6570  0.5335 -1.4782
 1186SOL     OW15016   0.198   4.426   8.788  0.3394  0.0371  0.3930
 1186SOL    HW115017   0.252   4.348   8.777  0.4579  0.5252 -2.2558
 1186SOL    HW215018   0.110   4.392   8.773 -0.2251  1.5359  0.3568
 1187SOL     OW15019   4.698   0.600   5.526 -0.3989  0.3612 -0.1804
 1187SOL    HW115020   4.707   0.554   5.442 -0.5788 -0.3772  0.2015
 1187SOL    HW215021   4.620   0.651   5.505 -0.0856  0.5507 -0.8836
 1188SOL     OW15022   0.151   0.693   5.035 -0.2504 -0.3474 -0.0678
 1188SOL    HW115023   0.151   0.787   5.052  1.0678 -0.1851 -0.9902
 1188SOL    HW215024   0.240   0.670   5.010  0.0045 -0.4766  0.9717
 1189SOL     OW15025   1.366   4.629   0.868 -0.4794 -0.0611 -0.0338
 1189SOL    HW115026   1.428   4.673   0.810 -0.0485 -1.2848 -0.4937
 1189SOL    HW215027   1.339   4.563   0.805  0.5927 -1.6430  1.1828
 1190SOL     OW15028   3.242   0.901   5.050 -0.2946  0.2181  0.0166
 1190SOL    HW115029   3.295   0.954   4.991 -0.3236  0.0345 -0.1771
 1190SOL    HW215030   3.210   0.963   5.115 -0.1041 -0.2178  0.5314
 1191SOL     OW15031   1.140   0.612   5.546  0.2383 -0.0085  0.3331
 1191SOL    HW115032   1.191   0.535   5.573 -0.4744 -1.0093 -1.1903
 1191SOL    HW215033   1.144   0.604   5.451 -1.9300  0.4583  0.2179
 1192SOL     OW15034   1.784   0.347  10.603  0.5724  0.2288  0.4217
 1192SOL    HW115035   1.798   0.426  10.655 -0.2064  0.8708 -0.3413
 1192SOL    HW215036   1.871   0.334  10.564  0.9758 -0.8334  1.6463
 1193SOL     OW15037   0.821   2.305   1.717 -0.1972  0.0321 -0.0087
 1193SOL    HW115038   0.820   2.400   1.716 -0.9044  0.0049 -2.3217
 1193SOL    HW215039   0.823   2.293   1.622  2.5534 -0.3254  0.0921
 1194SOL     OW15040   3.810   0.931   8.113  0.0128  0.0641 -0.0131
 1194SOL    HW115041   3.723   0.964   8.135  0.4792  1.2401  0.0942
 1194SOL    HW215042   3.833   0.867   8.181  2.1203  1.2851  0.4391
 1195SOL     OW15043   2.703   2.515  15.796 -0.2904 -0.3989 -0.0577
 1195SOL    HW115044   2.755   2.448  15.751 -2.2931  0.2180 -3.2837
 1195SOL    HW215045   2.736   2.596  15.756 -1.4071 -1.3832 -2.9470
 1196SOL     OW15046   3.412   1.051  16.764  0.2074  0.1217 -0.6370
 1196SOL    HW115047   3.336   1.104  16.741  0.1226  0.4343  0.3656
 1196SOL    HW215048   3.404   1.068  16.858  2.6276 -2.6451  0.0571
 1197SOL     OW15049   0.387   3.725   4.899 -0.5309  0.4669  0.6025
 1197SOL    HW115050   0.412   3.638   4.931 -2.2189  0.2969  1.4837
 1197SOL    HW215051   0.423   3.734   4.811  0.1770 -0.3191  0.8117
 1198SOL     OW15052   4.009   1.259   2.344 -0.1010  0.2274  0.1247
 1198SOL    HW115053   4.022   1.169   2.312 -1.4469 -0.6918  2.1064
 1198SOL    HW215054   4.091   1.283   2.387 -0.8513  0.2836  1.5357
 1199SOL     OW15055   0.074   1.228  16.449  0.5845  0.3757  0.1953
 1199SOL    HW115056   4.718   1.278  16.473 -2.2485 -3.6232 -0.7850
 1199SOL    HW215057   0.066   1.209  16.356 -1.7821  3.1401 -0.1778
 1200SOL     OW15058   1.515   1.374  17.037  0.1680 -0.2697 -0.4713
 1200SOL    HW115059   1.561   1.433  17.097  0.2110  0.6182 -1.3710
 1200SOL    HW215060   1.494   1.292  17.082 -1.1392 -0.1202 -0.8140
 1201SOL     OW15061   0.100   0.059   5.141 -0.1710 -0.5536  0.1046
 1201SOL    HW115062   0.131   4.693   5.156  1.0604 -0.0783  0.4266
 1201SOL    HW215063   0.009   0.062   5.171 -0.2692 -0.7231 -0.1856
 1202SOL     OW15064   1.546   3.417  16.736 -0.0034  0.6246 -0.3182
 1202SOL    HW115065   1.516   3.481  16.801  1.3879 -0.3200  1.2804
 1202SOL    HW215066   1.526   3.459  16.652  1.6488  4.0739  1.0042
 1203SOL     OW15067   1.723   3.946   7.364 -0.0454  0.2924 -0.0595
 1203SOL    HW115068   1.682   3.884   7.425  0.1185  1.4929  1.2871
 1203SOL    HW215069   1.679   3.922   7.282  0.8571  0.3787 -0.5671
 1204SOL     OW15070   1.457   1.699   8.416 -0.0650 -0.1581  0.4538
 1204SOL    HW115071   1.491   1.626   8.468 -1.1535 -2.2093 -1.7151
 1204SOL    HW215072   1.398   1.657   8.353  0.8027 -0.9768  0.1792
 1205SOL     OW15073   0.669   4.616   0.088  0.0650 -0.2151  0.2707
 1205SOL    HW115074   0.600   4.589   0.149  0.2873 -1.3449  0.0303
 1205SOL    HW215075   0.675   4.535   0.036  0.3320  0.3517 -0.5733
 1206SOL     OW15076   1.548   1.099   6.444 -0.0215 -0.2074  0.1367
 1206SOL    HW115077   1.454   1.096   6.427  0.5218  1.1601 -3.0028
 1206SOL    HW215078   1.589   1.062   6.366  0.7924  0.6813  0.1551
 1207SOL     OW15079   4.525   2.261  15.730 -0.3683 -0.1295  0.6937
 1207SOL    HW115080   4.488   2.334  15.780 -0.0141  0.0170  0.7447
 1207SOL    HW215081   4.607   2.293  15.691  1.2256 -1.1081  3.2483
 1208SOL     OW15082   3.060   3.083   4.694 -0.4436 -0.1351 -0.1311
 1208SOL    HW115083   3.076   3.128   4.611  3.6975 -1.7424 -0.1693
 1208SOL    HW215084   2.968   3.063   4.674 -0.7138 -0.8478  1.8528
 1209SOL     OW15085   0.777   4.256  16.096 -0.3213 -0.4559 -0.4688
 1209SOL    HW115086   0.740   4.341  16.120  2.4191  0.4229  0.5939
 1209SOL    HW215087   0.727   4.201  16.157 -0.6655  2.8598  2.2014
 1210SOL     OW15088   1.555   1.566   7.503  0.4752 -0.2618 -0.0837
 1210SOL    HW115089   1.616   1.557   7.577 -2.5197 -1.7306  2.2396
 1210SOL    HW215090   1.595   1.646   7.470  1.0032  0.0180  1.2250
 1211SOL     OW15091   2.029   3.296  10.829 -0.2236  0.2382 -0.3035
 1211SOL    HW115092   2.071   3.249  10.756  1.3014  0.5564  0.3808
 1211SOL    HW215093   1.977   3.229  10.873  1.3996 -0.3539  0.7029
 1212SOL     OW15094   0.991   1.031  13.125 -0.1948  0.6613 -0.3001
 1212SOL    HW115095   1.085   1.028  13.111  0.1068 -1.3033  2.0867
 1212SOL    HW215096   0.999   1.035  13.221 -1.5362 -0.7757 -0.1185
 1213SOL     OW15097   3.764   0.864   8.404  0.5124 -0.1140 -0.0631
 1213SOL    HW115098   3.831   0.842   8.469  1.5795  0.6763 -0.9051
 1213SOL    HW215099   3.702   0.898   8.469 -0.9063 -1.3088 -0.7751
 1214SOL     OW15100   0.047   1.356  10.500 -0.3171 -0.2751 -0.1390
 1214SOL    HW115101   0.100   1.284  10.532  1.4172  0.5755 -1.1091
 1214SOL    HW215102   4.688   1.307  10.506 -0.4007 -0.2019 -0.6946
 1215SOL     OW15103   2.191   3.877   3.356  0.2751  0.9489 -0.0706
 1215SOL    HW115104   2.104   3.911   3.378  0.4464  1.7235 -0.5960
 1215SOL    HW215105   2.165   3.794   3.396 -1.8776  0.4397 -2.5376
 1216SOL     OW15106   2.876   3.813  13.405 -0.3984  0.1184 -0.3059
 1216SOL    HW115107   2.781   3.803  13.411 -0.3514  0.0322  0.2746
 1216SOL    HW215108   2.905   3.778  13.320  2.5362 -0.1713  0.8322
 1217SOL     OW15109   2.957   2.995   8.174  0.4443 -0.6080 -0.0978
 1217SOL    HW115110   3.003   2.942   8.109  2.1484 -1.1658  1.5579
 1217SOL    HW215111   2.948   2.933   8.247 -0.2612  0.1391  0.4559
 1218SOL     OW15112   0.167   2.403   1.820 -0.0228 -0.6700  0.3254
 1218SOL    HW115113   0.219   2.380   1.742  0.3577 -0.8208  0.6246
 1218SOL    HW215114   0.226   2.393   1.894  1.0929  0.2108 -0.4436
 1219SOL     OW15115   4.405   0.666   1.273 -0.4184 -0.0273 -0.1297
 1219SOL    HW115116   4.339   0.646   1.340 -0.0897  2.1249  0.8717
 1219SOL    HW215117   4.476   0.607   1.298 -1.3438 -0.9990  0.1645
 1220SOL     OW15118   0.781   3.002   1.421 -0.0971 -0.5207  0.2765
 1220SOL    HW115119   0.849   3.003   1.488 -0.7748 -1.3867  0.9749
 1220SOL    HW215120   0.734   2.920   1.439 -0.8515 -0.3035 -0.7250
 1221SOL     OW15121   2.997   2.318  11.194  0.6378  0.3300 -0.1226
 1221SOL    HW115122   2.984   2.281  11.107  2.8269 -1.8777  0.4670
 1221SOL    HW215123   2.952   2.246  11.239 -3.0755  1.8778 -1.4074
 1222SOL     OW15124   4.360   0.624   6.692  0.1567 -0.5181  0.2462
 1222SOL    HW115125   4.293   0.571   6.648 -0.9910  2.2406 -1.3603
 1222SOL    HW215126   4.372   0.571   6.771 -0.6779 -1.9159 -0.5603
 1223SOL     OW15127   1.885   2.768   4.187  0.0383  0.2726 -0.1087
 1223SOL    HW115128   1.815   2.809   4.136 -1.4045 -1.1000  0.7549
 1223SOL    HW215129   1.904   2.844   4.242 -0.8113  0.1548  0.3580
 1224SOL     OW15130   1.870   2.428   9.490 -0.6234 -0.0416  0.4503
 1224SOL    HW115131   1.922   2.504   9.466 -0.2762 -0.6717 -0.7890
 1224SOL    HW215132   1.905   2.364   9.428 -3.0052  0.4272 -1.3940
 1225SOL     OW15133   3.175   3.947   4.559  0.0164 -0.4966  0.0100
 1225SOL    HW115134   3.168   3.913   4.647 -0.2331 -0.7410 -0.1062
 1225SOL    HW215135   3.101   4.009   4.561  0.7039  0.2903  1.0081
 1226SOL     OW15136   0.925   1.771   6.697 -0.1933  0.0772  0.3118
 1226SOL    HW115137   0.875   1.775   6.616  2.1968 -0.6525 -1.1919
 1226SOL    HW215138   0.995   1.709   6.676  0.5594  1.4207 -1.1827
 1227SOL     OW15139   2.039   1.983  14.721  0.1277 -0.0059 -0.2154
 1227SOL    HW115140   1.980   1.942  14.658 -0.3466 -2.0468  1.5486
 1227SOL    HW215141   2.068   2.058  14.670 -0.1619 -0.5689 -1.2212
 1228SOL     OW15142   1.747   3.320  10.269  0.2032  0.3787  0.9590
 1228SOL    HW115143   1.741   3.400  10.322 -0.6393  1.0263 -0.1051
 1228SOL    HW215144   1.654   3.300  10.255  0.2559 -0.7474  2.1420
 1229SOL     OW15145   1.694   0.388   9.176 -0.6622 -0.4071 -0.2394
 1229SOL    HW115146   1.666   0.432   9.256  0.2668  1.2957 -0.8603
 1229SOL    HW215147   1.783   0.354   9.188  0.1649  1.8973  0.1143
 1230SOL     OW15148   3.051   4.560   1.945  0.0249  0.4190 -0.6501
 1230SOL    HW115149   3.067   4.548   1.851 -2.5651 -2.8483 -0.6793
 1230SOL    HW215150   2.981   4.498   1.962  0.4362 -0.5180 -2.3382
 1231SOL     OW15151   2.640   1.821   4.664 -0.3183  0.1129 -0.7204
 1231SOL    HW115152   2.602   1.745   4.620  1.9982 -0.9468 -0.9201
 1231SOL    HW215153   2.686   1.861   4.590  1.4133 -1.1376 -0.3165
 1232SOL     OW15154   2.291   1.900   6.695  0.1877  0.4275  0.6379
 1232SOL    HW115155   2.355   1.845   6.739 -1.8539 -2.8153 -0.4170
 1232SOL    HW215156   2.250   1.830   6.643  1.7742 -1.1376  1.4932
 1233SOL     OW15157   2.685   1.016   3.072 -0.0215  0.2478  0.1381
 1233SOL    HW115158   2.646   1.029   3.159 -2.2227 -0.4515 -0.7277
 1233SOL    HW215159   2.623   1.069   3.021 -0.2349 -0.8944 -0.8091
 1234SOL     OW15160   1.604   3.779  16.557 -0.6095  0.4813  0.3634
 1234SOL    HW115161   1.669   3.817  16.498 -0.2477 -1.2277 -0.3485
 1234SOL    HW215162   1.624   3.848  16.620 -3.0127  1.3950  0.1020
 1235SOL     OW15163   1.465   3.966   5.487 -0.1209 -0.4181  0.2738
 1235SOL    HW115164   1.557   3.969   5.516 -0.2315  0.3077  0.5403
 1235SOL    HW215165   1.421   3.920   5.559  2.0612 -2.0517  0.5741
 1236SOL     OW15166   3.306   1.337  16.538 -0.6013  0.5642 -0.1965
 1236SOL    HW115167   3.396   1.307  16.532 -0.6003  0.3080  1.0326
 1236SOL    HW215168   3.269   1.281  16.606  0.7250  1.3474  1.1579
 1237SOL     OW15169   3.550   3.738   0.594 -0.0926 -0.0107 -0.2033
 1237SOL    HW115170   3.468   3.766   0.634 -0.6480 -1.1901 -0.5167
 1237SOL    HW215171   3.610   3.809   0.618  0.2679 -0.2192 -0.4956
 1238SOL     OW15172   2.737   2.496   4.550 -0.3281 -0.0738  0.1092
 1238SOL    HW115173   2.696   2.579   4.574  1.6491  1.0426 -0.3056
 1238SOL    HW215174   2.823   2.515   4.513 -1.3985  2.9364 -0.8792
 1239SOL     OW15175   1.823   1.931   2.391  0.8936  0.4027  0.3408
 1239SOL    HW115176   1.829   1.842   2.358  3.5894  1.1963 -1.2679
 1239SOL    HW215177   1.792   1.969   2.309  1.1534 -0.7436 -0.2715
 1240SOL     OW15178   3.458   2.467   3.013  0.2010  0.1194 -0.6410
 1240SOL    HW115179   3.523   2.396   3.013  1.3324  1.1805 -2.5819
 1240SOL    HW215180   3.475   2.506   2.928 -0.7473  0.3936 -0.7092
 1241SOL     OW15181   0.822   1.743  15.583 -0.4810  0.0263 -0.1129
 1241SOL    HW115182   0.893   1.765  15.522  0.5705 -0.9494  0.7600
 1241SOL    HW215183   0.813   1.649  15.568  1.5634  0.0630 -1.6508
 1242SOL     OW15184   0.889   0.291   7.757 -0.1755  0.8519 -0.0621
 1242SOL    HW115185   0.894   0.280   7.851 -0.4569 -2.4735 -0.4576
 1242SOL    HW215186   0.795   0.279   7.742  0.0048 -0.0204 -0.4835
 1243SOL     OW15187   3.705   0.506   8.365 -0.2233 -0.6380  0.6990
 1243SOL    HW115188   3.725   0.528   8.274  4.2749  1.8753  2.2653
 1243SOL    HW215189   3.782   0.547   8.405  0.2017 -3.3641  2.5892
 1244SOL     OW15190   1.562   1.458   7.258 -0.4769 -0.1826 -0.2939
 1244SOL    HW115191   1.557   1.499   7.345 -2.7074 -0.9276 -0.0765
 1244SOL    HW215192   1.648   1.492   7.234 -0.1520 -0.0884  1.0087
 1245SOL     OW15193   0.434   0.980  14.845 -0.2125  0.2101  0.3313
 1245SOL    HW115194   0.411   1.071  14.858  2.9627  0.9073  1.2171
 1245SOL    HW215195   0.386   0.976  14.762 -1.0549 -0.9104  0.8789
 1246SOL     OW15196   3.087   0.495   7.112  1.0059 -0.1307 -0.0227
 1246SOL    HW115197   3.060   0.462   7.198  2.4882 -0.6719  0.2409
 1246SOL    HW215198   3.120   0.418   7.068  0.1465  0.5636 -1.8643
 1247SOL     OW15199   4.223   0.174   6.569  0.0085 -0.1270 -0.5712
 1247SOL    HW115200   4.162   0.238   6.604  0.0626 -0.6639  0.4784
 1247SOL    HW215201   4.294   0.232   6.538 -0.2274 -0.4287 -1.6810
 1248SOL     OW15202   0.005   0.680  15.423  0.3814  0.0290 -0.7114
 1248SOL    HW115203   0.045   0.764  15.401 -2.0136  1.5156  0.6112
 1248SOL    HW215204   0.080   0.625  15.398  0.7902 -0.8381  2.5117
 1249SOL     OW15205   3.824   3.508  10.294 -0.2345  0.1465  0.3077
 1249SOL    HW115206   3.851   3.559  10.370 -0.5173  0.2711  0.3245
 1249SOL    HW215207   3.731   3.530  10.296  0.3243  2.4727  1.1157
 1250SOL     OW15208   2.903   0.346   3.137 -0.1162 -0.3144  0.2329
 1250SOL    HW115209   2.822   0.348   3.086 -0.7393  2.4324  1.3107
 1250SOL    HW215210   2.902   0.430   3.183  0.0221 -1.5420  2.4849
 1251SOL     OW15211   1.213   2.601   2.085  0.4607 -0.2182  0.1833
 1251SOL    HW115212   1.303   2.618   2.114 -0.0073  1.4981  0.6631
 1251SOL    HW215213   1.165   2.619   2.167 -2.2021  0.6177 -1.5569
 1252SOL     OW15214   2.817   1.716   3.077  0.0824  0.5401  0.1522
 1252SOL    HW115215   2.732   1.677   3.100  0.6328 -0.5951  0.2731
 1252SOL    HW215216   2.832   1.787   3.139  0.9624  0.2915  0.2186
 1253SOL     OW15217   1.549   2.253   0.588  0.4353  0.2426 -0.3954
 1253SOL    HW115218   1.551   2.171   0.540 -0.8983 -0.9859  1.6801
 1253SOL    HW215219   1.640   2.263   0.618  0.2148  0.2198  0.2963
 1254SOL     OW15220   4.226   2.685  12.193  0.8447  0.4938  0.0659
 1254SOL    HW115221   4.212   2.591  12.209  2.2406  0.2002 -0.4831
 1254SOL    HW215222   4.301   2.694  12.251  1.6018 -1.9246 -0.5262
 1255SOL     OW15223   3.569   3.514   1.095  0.2656 -0.8834 -0.5203
 1255SOL    HW115224   3.644   3.492   1.040 -1.8431 -0.7472 -3.4841
 1255SOL    HW215225   3.517   3.437   1.116  0.1643 -0.5503  0.4356
 1256SOL     OW15226   3.677   2.107   3.555 -0.1231 -0.2988  0.0118
 1256SOL    HW115227   3.623   2.185   3.543  2.2304  1.0098 -2.1625
 1256SOL    HW215228   3.725   2.136   3.633 -1.5188  1.7671  0.0807
 1257SOL     OW15229   1.780   1.810   3.400  0.2012 -0.2962  0.6834
 1257SOL    HW115230   1.871   1.833   3.381  0.1610 -0.3720  0.3912
 1257SOL    HW215231   1.782   1.805   3.495 -0.3874  0.3512  0.7303
 1258SOL     OW15232   4.464   0.522   6.176  0.2260 -0.1898  0.3138
 1258SOL    HW115233   4.415   0.489   6.251 -1.1033 -0.2063 -0.5756
 1258SOL    HW215234   4.399   0.587   6.150  2.3389  1.5279 -0.6462
 1259SOL     OW15235   2.758   4.673   1.479  0.2220  0.0893 -0.6415
 1259SOL    HW115236   2.812   0.026   1.456 -0.4601  0.8999  0.4099
 1259SOL    HW215237   2.744   4.697   1.571 -1.2723  0.7017 -1.0363
 1260SOL     OW15238   0.172   3.927   0.243  0.2027  0.2219  0.1776
 1260SOL    HW115239   0.201   3.853   0.297  1.8035 -1.2747 -2.7565
 1260SOL    HW215240   0.083   3.947   0.271 -0.0494  1.1933 -1.3216
 1261SOL     OW15241   3.378   3.924  16.522  0.6331 -0.4018 -0.0726
 1261SOL    HW115242   3.339   3.853  16.572 -1.5242 -0.0649 -1.2666
 1261SOL    HW215243   3.467   3.937  16.553 -0.4881  0.2351  2.8722
 1262SOL     OW15244   3.751   0.930   9.997  0.3827 -0.0503 -0.0288
 1262SOL    HW115245   3.657   0.939   9.985  0.5443  0.4306 -0.8847
 1262SOL    HW215246   3.781   0.955   9.910 -0.5057  0.8726 -0.0642
 1263SOL     OW15247   4.060   3.761   7.083 -0.3279 -0.4443 -0.1626
 1263SOL    HW115248   4.136   3.704   7.084 -0.2921 -0.4248 -1.8999
 1263SOL    HW215249   4.093   3.836   7.033  0.1261 -0.6214 -0.1219
 1264SOL     OW15250   1.763   1.346   9.464 -0.5676  0.3133 -0.2615
 1264SOL    HW115251   1.848   1.386   9.479 -0.6991 -0.0247  1.4636
 1264SOL    HW215252   1.711   1.426   9.475  2.2373  1.8689  1.6787
 1265SOL     OW15253   2.998   0.467  11.980 -0.8773 -0.0892  0.4370
 1265SOL    HW115254   2.913   0.459  11.938 -1.5674  0.9793  1.6126
 1265SOL    HW215255   3.044   0.522  11.917 -1.9612  2.2251  1.6467
 1266SOL     OW15256   0.907   2.242  11.583  0.4507 -0.1818 -0.1151
 1266SOL    HW115257   0.871   2.315  11.633 -0.3223 -1.6645  1.4841
 1266SOL    HW215258   0.971   2.285  11.527 -0.7826 -0.0050 -1.4120
 1267SOL     OW15259   4.404   2.043   6.614  0.1720  0.5154  0.0746
 1267SOL    HW115260   4.438   2.093   6.540  0.3275 -1.0582 -0.9092
 1267SOL    HW215261   4.404   1.954   6.580  1.9280 -0.9201  3.7695
 1268SOL     OW15262   1.636   3.365   0.457  0.3550 -0.2060  0.2166
 1268SOL    HW115263   1.620   3.458   0.439  0.9326 -0.4218 -1.4568
 1268SOL    HW215264   1.568   3.324   0.403  0.4011 -0.4568  0.3475
 1269SOL     OW15265   3.500   3.775   4.752  0.1838 -0.5176 -0.6842
 1269SOL    HW115266   3.464   3.819   4.675 -1.8728  1.1054  1.1934
 1269SOL    HW215267   3.441   3.792   4.825 -0.1960 -0.6912 -0.9501
 1270SOL     OW15268   0.834   1.866   8.206 -0.1157 -0.3309 -0.3841
 1270SOL    HW115269   0.848   1.801   8.137 -0.4786 -1.7696  0.9024
 1270SOL    HW215270   0.790   1.928   8.148  0.7025 -0.8139 -1.5295
 1271SOL     OW15271   1.943   1.631   5.582  0.0187  0.1630  0.3709
 1271SOL    HW115272   1.983   1.718   5.577 -2.2211  1.2524  1.3860
 1271SOL    HW215273   1.914   1.619   5.491 -0.4825  0.1792  0.5296
 1272SOL     OW15274   1.819   1.696   2.198  0.4910  0.2782  0.0768
 1272SOL    HW115275   1.815   1.607   2.234 -0.5667  0.2043 -0.2097
 1272SOL    HW215276   1.737   1.700   2.149  0.5232  1.0569  0.0905
 1273SOL     OW15277   1.162   0.179   1.861  0.2345  0.2903  0.0633
 1273SOL    HW115278   1.219   0.109   1.829 -0.5438  0.3419 -1.4418
 1273SOL    HW215279   1.177   0.182   1.956  2.3079  1.8608 -0.3258
 1274SOL     OW15280   1.239   2.368   8.408  0.4874  0.7166  0.3783
 1274SOL    HW115281   1.310   2.426   8.434 -0.2360  0.5993  2.6141
 1274SOL    HW215282   1.190   2.423   8.347  0.0000  2.3111  2.2349
 1275SOL     OW15283   3.243   0.407   6.086  0.0813 -0.2222 -0.2101
 1275SOL    HW115284   3.181   0.435   6.019  0.2531  2.6022  0.8328
 1275SOL    HW215285   3.272   0.320   6.060  0.3168  0.4579 -2.1920
 1276SOL     OW15286   3.816   3.324   5.692 -0.2264  0.2928  0.5286
 1276SOL    HW115287   3.885   3.372   5.645  0.4563 -0.4868  0.7314
 1276SOL    HW215288   3.798   3.254   5.629 -0.2248  0.5871  0.1994
 1277SOL     OW15289   2.057   2.818   2.544 -0.1595  0.6584  0.0153
 1277SOL    HW115290   2.002   2.832   2.466  0.4072  0.6751 -0.3758
 1277SOL    HW215291   2.002   2.754   2.589  1.2147 -0.2241  0.4244
 1278SOL     OW15292   3.238   2.368   5.565  0.0900  0.0776 -0.5481
 1278SOL    HW115293   3.333   2.365   5.561  0.1654 -1.5366  2.2940
 1278SOL    HW215294   3.206   2.336   5.480 -1.3235  1.3815 -0.5166
 1279SOL     OW15295   4.523   1.435  14.445 -0.2781  0.1683  0.4426
 1279SOL    HW115296   4.556   1.405  14.529  0.6066  1.2103  0.4657
 1279SOL    HW215297   4.443   1.472  14.482 -0.1537 -0.0349  0.9073
 1280SOL     OW15298   3.565   0.832   5.222 -0.4260  0.8641 -0.1168
 1280SOL    HW115299   3.492   0.775   5.195  1.1918 -0.8079 -0.9831
 1280SOL    HW215300   3.512   0.890   5.276 -0.3610  0.4992  0.3371
 1281SOL     OW15301   3.900   2.949  12.976 -0.4061  0.2705  0.4996
 1281SOL    HW115302   3.820   2.912  12.938 -1.1866  0.7590  1.6809
 1281SOL    HW215303   3.930   2.999  12.899  1.6243  0.4334  1.4027
 1282SOL     OW15304   4.715   4.565   5.467  0.1737 -0.6226 -0.2121
 1282SOL    HW115305   4.705   4.539   5.376  0.5071 -0.2240 -0.3643
 1282SOL    HW215306   4.644   4.512   5.505 -0.3608  0.6421  0.5589
 1283SOL     OW15307   1.408   0.254   6.435  0.4409 -0.5112  0.1322
 1283SOL    HW115308   1.482   0.254   6.374 -0.9531 -0.8032 -1.5218
 1283SOL    HW215309   1.429   0.178   6.490  0.5173 -0.4122  0.2426
 1284SOL     OW15310   4.694   2.954   3.403  0.4363  0.0715  0.1169
 1284SOL    HW115311   4.602   2.981   3.410  0.5713  0.5014  0.2423
 1284SOL    HW215312   0.008   3.000   3.478  0.5429 -1.5711  1.0808
 1285SOL     OW15313   1.819   2.112  10.017 -0.0615 -0.4470 -0.3922
 1285SOL    HW115314   1.738   2.069  10.044 -0.0261  1.2203  2.3749
 1285SOL    HW215315   1.828   2.094   9.924  3.6460  1.6423 -0.4498
 1286SOL     OW15316   0.180   0.393  16.789  0.7402  0.1505 -0.2845
 1286SOL    HW115317   0.174   0.390  16.884  3.0881 -1.0232 -0.1520
 1286SOL    HW215318   0.117   0.325  16.765  1.4930 -0.7142  0.1821
 1287SOL     OW15319   2.419   4.212   2.271 -0.5969 -0.2193 -0.5119
 1287SOL    HW115320   2.386   4.134   2.226 -0.8635 -0.1274 -0.4789
 1287SOL    HW215321   2.395   4.295   2.230  1.8103  0.6520 -0.1625
 1288SOL     OW15322   0.719   2.418   3.442  0.2478 -0.0613  0.4811
 1288SOL    HW115323   0.715   2.335   3.395  0.9089 -1.0951  2.2929
 1288SOL    HW215324   0.633   2.411   3.482 -0.5966 -0.8967 -1.4829
 1289SOL     OW15325   1.334   2.601  13.207  0.7226 -0.6944  0.3828
 1289SOL    HW115326   1.272   2.561  13.146 -0.1931  0.3189  0.6458
 1289SOL    HW215327   1.384   2.645  13.138 -1.3876 -1.1906 -1.4820
 1290SOL     OW15328   3.798   2.629   0.786  0.3744 -0.0365 -0.3355
 1290SOL    HW115329   3.792   2.611   0.692 -1.3010 -0.2726 -0.1829
 1290SOL    HW215330   3.806   2.724   0.790 -0.2925  0.0797 -1.7924
 1291SOL     OW15331   1.814   0.842   3.315 -0.1550  0.1392 -0.2586
 1291SOL    HW115332   1.883   0.896   3.354  0.5675 -0.2982 -0.9662
 1291SOL    HW215333   1.845   0.754   3.333  0.8596  0.2821 -1.3415
 1292SOL     OW15334   1.666   4.428   5.474 -0.7296  0.5640 -0.2632
 1292SOL    HW115335   1.645   4.439   5.567  0.1277 -1.2949  0.1487
 1292SOL    HW215336   1.579   4.400   5.448 -0.7958 -1.1810  1.9050
 1293SOL     OW15337   3.843   1.608  14.569  0.2505  0.2004  0.0950
 1293SOL    HW115338   3.827   1.534  14.510  3.4937 -0.1146 -0.4273
 1293SOL    HW215339   3.783   1.674  14.534 -0.9868 -0.8145  0.3077
 1294SOL     OW15340   0.847   2.628   8.476  0.2647  1.1743  0.2951
 1294SOL    HW115341   0.940   2.635   8.496  0.2661  0.5855  0.5217
 1294SOL    HW215342   0.835   2.683   8.399  0.0588 -0.8481 -1.1253
 1295SOL     OW15343   2.767   3.997  13.144  0.2787 -0.3487  0.2368
 1295SOL    HW115344   2.680   3.985  13.104  0.4408 -2.1632  0.4029
 1295SOL    HW215345   2.737   4.027  13.230  1.3425  1.4687 -0.0332
 1296SOL     OW15346   0.633   1.668   5.111 -0.8450  0.2924  0.0223
 1296SOL    HW115347   0.592   1.716   5.183 -1.3334  1.9329 -1.3243
 1296SOL    HW215348   0.724   1.693   5.126 -0.1931 -1.8103 -0.4396
 1297SOL     OW15349   0.884   2.100  14.156  0.4933  0.1667  0.1982
 1297SOL    HW115350   0.975   2.105  14.186  0.4871 -1.1539  0.4554
 1297SOL    HW215351   0.887   2.126  14.064 -0.1669  3.1312  1.0127
 1298SOL     OW15352   3.912   4.047   0.983  0.1400 -0.2677  0.0980
 1298SOL    HW115353   3.862   3.976   0.943 -0.5308  0.1724  0.1496
 1298SOL    HW215354   3.883   4.066   1.072  0.7777 -0.6866  0.3929
 1299SOL     OW15355   2.749   4.647  10.391  0.2982 -0.1067  0.0921
 1299SOL    HW115356   2.788   0.011  10.378  0.5713 -0.2637 -0.1327
 1299SOL    HW215357   2.679   4.678  10.449  0.2308  0.8035 -0.4807
 1300SOL     OW15358   0.080   2.059   4.115 -0.2751  0.2976  0.0664
 1300SOL    HW115359   0.069   2.082   4.207 -0.6715 -0.5710  0.2384
 1300SOL    HW215360   0.075   1.964   4.114  1.3962  0.1996  0.8140
 1301SOL     OW15361   1.750   4.637   4.970  0.9837 -0.7716  0.2706
 1301SOL    HW115362   1.846   4.633   4.970  1.0728  1.0799 -0.7831
 1301SOL    HW215363   1.722   0.005   4.982 -2.6826 -1.7584 -0.7968
 1302SOL     OW15364   4.145   2.305  14.046 -0.5700 -0.1931 -0.1496
 1302SOL    HW115365   4.102   2.310  14.132 -0.4307  1.5185 -0.1775
 1302SOL    HW215366   4.066   2.276  14.001 -0.1276 -1.0478 -0.3874
 1303SOL     OW15367   2.944   2.002   1.478  0.1270 -0.2981 -0.5310
 1303SOL    HW115368   2.953   1.911   1.450  0.8616 -0.3496 -0.1332
 1303SOL    HW215369   2.889   1.995   1.556  0.2900  0.9375 -0.3098
 1304SOL     OW15370   2.712   4.209   4.420  0.1905 -0.8550 -0.1218
 1304SOL    HW115371   2.755   4.136   4.375 -0.5050 -0.7205 -1.0121
 1304SOL    HW215372   2.641   4.219   4.357  0.9911  0.1051 -0.8705
 1305SOL     OW15373   0.978   1.000   4.292 -0.1350 -0.1613 -0.3914
 1305SOL    HW115374   1.007   1.091   4.283 -1.3257 -0.0152 -2.7600
 1305SOL    HW215375   1.046   0.956   4.342  0.6008 -0.2414 -1.4539
 1306SOL     OW15376   0.541   0.881  13.663 -0.4776 -0.3016  0.1858
 1306SOL    HW115377   0.629   0.891  13.701 -0.7339 -0.6333  0.8685
 1306SOL    HW215378   0.476   0.912  13.726 -0.5957  0.1391 -0.1492
 1307SOL     OW15379   3.447   3.666   3.175 -0.5354 -0.2402  0.4106
 1307SOL    HW115380   3.473   3.689   3.264  0.1398 -1.5826  0.5501
 1307SOL    HW215381   3.405   3.748   3.148 -1.2782 -0.6065  0.4574
 1308SOL     OW15382   3.927   4.251   6.723 -0.5710 -0.1234  0.5325
 1308SOL    HW115383   3.889   4.281   6.806  1.0913 -0.0247  1.2649
 1308SOL    HW215384   3.866   4.194   6.677  2.4641 -2.1208 -1.0680
 1309SOL     OW15385   2.106   1.730  17.646  0.4492  0.4462 -0.4704
 1309SOL    HW115386   2.070   1.817  17.663  0.0683  0.2439 -0.2641
 1309SOL    HW215387   2.051   1.674   0.007 -0.5582  1.0953 -0.8142
 1310SOL     OW15388   3.378   2.249  15.613 -0.0644  0.0042 -0.4117
 1310SOL    HW115389   3.361   2.171  15.665  1.7829  0.1142  0.3484
 1310SOL    HW215390   3.318   2.300  15.669  0.5057  0.3509 -0.1174
 1311SOL     OW15391   0.605   2.364   7.577 -0.7638 -0.0645  0.1892
 1311SOL    HW115392   0.513   2.371   7.551 -0.9673 -1.1839  0.6308
 1311SOL    HW215393   0.621   2.452   7.611  0.9940 -0.7135  1.0088
 1312SOL     OW15394   3.992   2.293   7.735 -0.4096  0.2394  0.2656
 1312SOL    HW115395   4.082   2.294   7.767  0.8354 -2.3741 -3.2014
 1312SOL    HW215396   3.962   2.208   7.769  0.8106 -1.4252 -2.8607
 1313SOL     OW15397   1.586   4.245  11.195  0.4164 -0.1963  0.5281
 1313SOL    HW115398   1.658   4.308  11.202  0.1802 -0.0612  1.7378
 1313SOL    HW215399   1.632   4.161  11.189  4.0632  1.8938 -0.8885
 1314SOL     OW15400   1.022   1.565   2.136 -0.2574  0.5994 -0.0856
 1314SOL    HW115401   1.003   1.496   2.072 -0.8515 -0.0841  0.8257
 1314SOL    HW215402   1.107   1.525   2.158 -0.2778 -0.1869 -1.4066
 1315SOL     OW15403   0.945   4.274   6.832 -0.1616  0.0118 -0.0693
 1315SOL    HW115404   0.852   4.292   6.847  0.2262  0.8306  1.3354
 1315SOL    HW215405   0.941   4.272   6.736 -2.0709 -0.1001  0.0186
 1316SOL     OW15406   2.994   1.245   1.211 -0.0477 -0.0994 -0.0870
 1316SOL    HW115407   3.078   1.207   1.234 -1.7450 -3.9966 -0.2545
 1316SOL    HW215408   3.021   1.322   1.162 -0.8473  1.2932  1.6669
 1317SOL     OW15409   2.338   4.307   8.620  0.6029 -0.0436  0.1994
 1317SOL    HW115410   2.301   4.261   8.695  1.6113  1.6948  1.7671
 1317SOL    HW215411   2.310   4.257   8.544 -2.1135 -0.3000  1.3634
 1318SOL     OW15412   2.497   1.454   6.375 -0.2494  0.8180 -0.2740
 1318SOL    HW115413   2.560   1.383   6.391 -1.0991  0.4751  1.6598
 1318SOL    HW215414   2.429   1.431   6.438  2.1338  3.1527  3.1706
 1319SOL     OW15415   4.253   3.320   2.508  0.0690  0.4627 -0.3226
 1319SOL    HW115416   4.221   3.309   2.597 -2.9711 -0.6729 -1.5678
 1319SOL    HW215417   4.171   3.304   2.461 -0.5013 -0.8537  1.1268
 1320SOL     OW15418   2.393   1.041   7.315  0.2287 -0.0328  0.2314
 1320SOL    HW115419   2.329   1.088   7.261 -1.7441 -0.6110  2.0677
 1320SOL    HW215420   2.444   1.115   7.345  0.6013 -0.1843 -0.0363
 1321SOL     OW15421   0.398   4.335  14.836  0.1910  0.0880 -0.4107
 1321SOL    HW115422   0.452   4.258  14.817 -0.2498 -0.8853  2.2325
 1321SOL    HW215423   0.435   4.394  14.771  0.1508  0.0425 -0.4755
 1322SOL     OW15424   1.185   1.536   6.132 -0.2957 -0.4166  0.0742
 1322SOL    HW115425   1.182   1.528   6.036  1.2300  0.7773 -0.0726
 1322SOL    HW215426   1.245   1.609   6.146  0.0322 -1.3671  3.5563
 1323SOL     OW15427   2.794   4.280   1.290 -0.9496 -0.1992 -0.2831
 1323SOL    HW115428   2.777   4.372   1.272 -2.2924 -0.3153  0.4096
 1323SOL    HW215429   2.713   4.248   1.330  0.4935 -1.6561  1.4945
 1324SOL     OW15430   3.676   0.671   4.081 -0.1738  0.0545 -0.1439
 1324SOL    HW115431   3.734   0.595   4.082 -1.3499 -0.8269  0.7774
 1324SOL    HW215432   3.711   0.713   4.160 -0.8352 -1.1523  0.7814
 1325SOL     OW15433   4.436   0.925   4.922  0.0028  0.0507 -0.3379
 1325SOL    HW115434   4.479   0.997   4.967 -1.7506  0.0781  1.2831
 1325SOL    HW215435   4.361   0.970   4.882 -0.0377  2.0676  1.9961
 1326SOL     OW15436   3.069   2.201   7.494  0.4453  0.6672  0.4956
 1326SOL    HW115437   3.139   2.188   7.429 -1.4705  0.3184 -1.5263
 1326SOL    HW215438   3.117   2.178   7.573 -0.1361  1.1489  0.9845
 1327SOL     OW15439   0.876   3.296   8.511  0.6157  0.0793 -0.0672
 1327SOL    HW115440   0.817   3.370   8.519 -3.2851 -2.8266 -2.2126
 1327SOL    HW215441   0.931   3.307   8.589 -0.5560  2.1395  0.4597
 1328SOL     OW15442   2.807   0.824  16.369  0.7112  0.2923 -0.6568
 1328SOL    HW115443   2.727   0.790  16.410  1.5521  1.0669  1.5901
 1328SOL    HW215444   2.874   0.771  16.412  0.9095  0.6892 -0.4807
 1329SOL     OW15445   4.399   4.374   8.318 -0.4286  0.4121  0.0578
 1329SOL    HW115446   4.429   4.443   8.259  1.2384  1.0909  1.6715
 1329SOL    HW215447   4.420   4.415   8.402 -1.9237 -1.8916  1.5588
 1330SOL     OW15448   2.120   2.981   2.973  0.2973  0.1822 -1.1492
 1330SOL    HW115449   2.188   3.008   3.035  0.7098 -3.4398 -0.0163
 1330SOL    HW215450   2.170   2.967   2.893  2.2025 -0.6899  0.1775
 1331SOL     OW15451   2.334   4.374   7.624  0.5757  0.0391  0.0611
 1331SOL    HW115452   2.253   4.414   7.655  0.5774 -0.6853  1.0165
 1331SOL    HW215453   2.352   4.306   7.690  1.3392  0.0085 -0.1730
 1332SOL     OW15454   2.550   1.068   3.294  0.5058  0.0127 -0.2269
 1332SOL    HW115455   2.467   1.116   3.300  0.8731  0.3560  2.3384
 1332SOL    HW215456   2.560   1.029   3.381  0.2508 -0.8357 -0.5794
 1333SOL     OW15457   0.130   2.076   4.656 -0.0002  0.0936 -0.2923
 1333SOL    HW115458   0.156   2.139   4.723  0.4092 -0.8366  0.4372
 1333SOL    HW215459   0.077   2.012   4.704 -1.5212  1.1568 -0.5804
 1334SOL     OW15460   2.189   4.612   1.608  0.0637 -0.0924 -0.2650
 1334SOL    HW115461   2.125   4.540   1.611  0.9583 -0.8385  0.9347
 1334SOL    HW215462   2.265   4.569   1.569 -0.6304 -0.9374 -0.6740
 1335SOL     OW15463   3.926   4.551   2.863  0.0185  0.0670  0.2725
 1335SOL    HW115464   3.930   4.591   2.776 -1.1240 -0.2444  0.0826
 1335SOL    HW215465   3.992   4.603   2.910 -0.6820  1.2563 -0.0658
 1336SOL     OW15466   3.394   4.069   6.839  0.2802  0.9040  0.4412
 1336SOL    HW115467   3.458   4.139   6.824 -1.2163  1.6040 -2.5606
 1336SOL    HW215468   3.441   4.027   6.912  0.3366  2.0300  1.0470
 1337SOL     OW15469   1.786   4.527   3.236 -0.3887  0.0121  0.2273
 1337SOL    HW115470   1.791   4.484   3.321  2.6172 -0.4649 -0.1819
 1337SOL    HW215471   1.692   4.542   3.233 -0.2735  0.5679 -0.6004
 1338SOL     OW15472   3.749   4.607   7.858 -0.1760 -0.0559 -0.6081
 1338SOL    HW115473   3.810   4.535   7.872  1.5563  1.4521 -0.3901
 1338SOL    HW215474   3.698   4.560   7.792 -1.2702  1.0420 -0.5595
 1339SOL     OW15475   3.178   4.445   6.409 -0.1706 -0.2426  0.1605
 1339SOL    HW115476   3.213   4.502   6.341 -0.4092 -0.7953 -0.4257
 1339SOL    HW215477   3.125   4.509   6.457 -0.8080 -0.8915  0.3251
 1340SOL     OW15478   0.891   0.191   2.088  0.4126  0.3121  0.7706
 1340SOL    HW115479   0.954   0.263   2.095  2.0991 -1.0517 -0.2858
 1340SOL    HW215480   0.947   0.116   2.110 -1.2185 -1.0019  0.3938
 1341SOL     OW15481   1.510   4.121   0.484 -0.3513 -0.7840  0.6294
 1341SOL    HW115482   1.427   4.073   0.490 -1.4864  0.7716 -2.5127
 1341SOL    HW215483   1.498   4.185   0.554 -0.1848  0.1441 -0.1870
 1342SOL     OW15484   0.684   0.280   4.480  0.3302 -0.1668 -0.2201
 1342SOL    HW115485   0.680   0.365   4.522  2.2666 -0.6918  0.9903
 1342SOL    HW215486   0.747   0.237   4.538 -0.3607 -1.2412 -0.2616
 1343SOL     OW15487   3.515   2.553   4.898  0.1239 -0.2039 -0.1216
 1343SOL    HW115488   3.592   2.569   4.953  2.0733 -3.4114 -1.8856
 1343SOL    HW215489   3.554   2.535   4.813  1.6461 -0.0137  0.5326
 1344SOL     OW15490   2.833   2.204   3.130 -0.1647 -0.5670  0.2838
 1344SOL    HW115491   2.920   2.165   3.122 -0.2227 -0.3157 -1.5061
 1344SOL    HW215492   2.780   2.160   3.064 -1.4461 -0.6501  1.3612
 1345SOL     OW15493   0.342   2.757   4.792 -0.0966 -0.3268 -0.1312
 1345SOL    HW115494   0.340   2.841   4.840  1.7998 -1.4601  1.9189
 1345SOL    HW215495   0.427   2.745   4.751  0.7456 -0.2223  1.5735
 1346SOL     OW15496   0.030   1.845   1.915 -0.4256  0.0057 -0.0722
 1346SOL    HW115497   0.058   1.768   1.864 -1.5628 -0.0434 -0.6240
 1346SOL    HW215498   4.667   1.866   1.879  0.0242  1.3837 -0.3092
 1347SOL     OW15499   1.911   4.716   9.217 -0.6115  0.5656  0.1438
 1347SOL    HW115500   1.844   4.661   9.257 -1.2175 -0.2664 -1.9936
 1347SOL    HW215501   1.928   4.674   9.132  0.9314  0.1558  0.6630
 1348SOL     OW15502   3.376   4.292   7.579 -0.3263  0.4570 -0.1079
 1348SOL    HW115503   3.429   4.235   7.523  1.1787  1.2940  0.4536
 1348SOL    HW215504   3.359   4.229   7.649 -0.5433 -1.2495 -1.7188
 1349SOL     OW15505   3.065   0.889   2.999 -0.3334  0.4250  0.0649
 1349SOL    HW115506   2.982   0.842   3.008  1.0941 -2.3277 -1.0349
 1349SOL    HW215507   3.078   0.923   3.088  0.1535  0.4758 -0.0258
 1350SOL     OW15508   0.153   1.782   4.441 -0.1201 -0.2002 -0.3719
 1350SOL    HW115509   0.243   1.803   4.466 -0.5786 -3.2294  3.6409
 1350SOL    HW215510   0.180   1.732   4.364 -0.0568 -0.5076 -0.1453
 1351SOL     OW15511   0.905   1.017  16.654  0.5815 -0.2552  0.6913
 1351SOL    HW115512   0.854   0.937  16.662 -0.4360  0.3552  0.2146
 1351SOL    HW215513   0.851   1.094  16.670 -0.0702 -0.5360 -0.1901
 1352SOL     OW15514   3.162   2.881   3.184  0.6427  0.2782  0.2712
 1352SOL    HW115515   3.135   2.849   3.270 -0.3823  1.6784  0.4796
 1352SOL    HW215516   3.129   2.971   3.187  0.5083  0.2873 -1.3932
 1353SOL     OW15517   3.599   2.846   6.364 -0.4246  0.1912 -0.5363
 1353SOL    HW115518   3.504   2.838   6.371 -0.4028  0.8563  0.5843
 1353SOL    HW215519   3.612   2.933   6.401 -2.2304  0.6097 -0.8749
 1354SOL     OW15520   1.269   3.609   0.557  0.2317  0.5003 -0.1409
 1354SOL    HW115521   1.343   3.654   0.516  1.7064 -0.8299  1.0851
 1354SOL    HW215522   1.318   3.582   0.635 -2.6378  3.0039  2.5212
 1355SOL     OW15523   0.243   3.822  16.494 -0.0510  0.6404 -0.1670
 1355SOL    HW115524   0.204   3.785  16.573 -0.5075  0.5575 -0.4292
 1355SOL    HW215525   0.313   3.761  16.474  1.7334  2.1224  1.6422
 1356SOL     OW15526   1.454   1.500   9.313 -0.0698  0.1547  0.2903
 1356SOL    HW115527   1.372   1.466   9.348  0.3499 -0.7895  0.3459
 1356SOL    HW215528   1.462   1.454   9.230 -0.7543 -0.9051  0.8032
 1357SOL     OW15529   0.134   0.543  10.749  0.1231  0.2164 -0.1169
 1357SOL    HW115530   0.164   0.634  10.754  2.9282 -0.7449  0.2141
 1357SOL    HW215531   0.060   0.558  10.690 -0.3007 -1.8653 -0.0991
 1358SOL     OW15532   2.892   0.191   6.044  0.2623  0.0158 -0.2092
 1358SOL    HW115533   2.918   0.242   6.120 -3.1386  1.5335 -0.0450
 1358SOL    HW215534   2.918   0.102   6.067  1.8129  0.6661  0.4932
 1359SOL     OW15535   0.346   2.502   2.626  0.5070  0.0841  0.3765
 1359SOL    HW115536   0.274   2.543   2.577  0.6595  0.5363  0.5247
 1359SOL    HW215537   0.327   2.409   2.623 -1.4182  0.6152 -3.7408
 1360SOL     OW15538   2.427   3.045   3.312 -0.4943  0.2610 -0.2264
 1360SOL    HW115539   2.370   3.079   3.380 -0.3547 -0.4650  0.2579
 1360SOL    HW215540   2.504   3.017   3.361  1.6214  2.3230 -2.3850
 1361SOL     OW15541   1.249   4.390   3.271  0.0352  0.7315  0.0858
 1361SOL    HW115542   1.173   4.408   3.326  1.0494  1.3953  1.2734
 1361SOL    HW215543   1.231   4.298   3.251 -1.9950  0.8468  1.4766
 1362SOL     OW15544   1.083   3.183  12.389  0.2988 -0.0531 -0.3396
 1362SOL    HW115545   1.141   3.185  12.465  0.7931 -0.8892 -0.6940
 1362SOL    HW215546   1.117   3.107  12.342 -0.2476 -1.4815  1.6078
 1363SOL     OW15547   1.390   1.706   3.064  0.0969  0.4164  0.3573
 1363SOL    HW115548   1.302   1.744   3.054 -0.1742 -0.2089  0.3313
 1363SOL    HW215549   1.395   1.694   3.159 -2.1809  0.2298  0.4597
 1364SOL     OW15550   0.053   1.780   2.197 -0.5772 -0.0173  0.6170
 1364SOL    HW115551   0.022   1.693   2.171 -0.9819  0.4663 -0.5010
 1364SOL    HW215552   0.005   1.827   2.129  0.0042 -0.6491 -0.2325
 1365SOL     OW15553   0.116   2.397   4.798 -0.4954  0.1170  0.6169
 1365SOL    HW115554   0.192   2.437   4.839 -0.2756  0.4941 -0.1479
 1365SOL    HW215555   0.076   2.358   4.876 -1.0482 -1.8678 -0.6559
 1366SOL     OW15556   3.752   1.264   2.214  0.0243 -0.3506  0.0829
 1366SOL    HW115557   3.749   1.319   2.136  1.2176 -0.7651 -0.2505
 1366SOL    HW215558   3.832   1.289   2.261 -0.3163  2.1827 -0.6887
 1367SOL     OW15559   1.494   2.708  13.010  0.7443  1.0989  1.1932
 1367SOL    HW115560   1.579   2.752  13.005  0.9522  0.6351  0.6867
 1367SOL    HW215561   1.522   2.626  12.970  1.3902  0.3709  3.1656
 1368SOL     OW15562   2.673   0.761   4.322 -0.2020 -0.9203  0.2866
 1368SOL    HW115563   2.646   0.776   4.413 -0.3577  0.7494 -0.0346
 1368SOL    HW215564   2.630   0.681   4.294  1.4222 -1.6847 -0.0128
 1369SOL     OW15565   3.617   3.375   6.420  0.6926  0.8479  0.9596
 1369SOL    HW115566   3.691   3.335   6.374  0.2285  3.3905 -2.0208
 1369SOL    HW215567   3.597   3.450   6.363 -2.4081  1.3570  2.7158
 1370SOL     OW15568   0.441   0.178   8.297 -0.3763 -0.4836  0.4268
 1370SOL    HW115569   0.423   0.085   8.306 -0.4622 -0.4613  0.4826
 1370SOL    HW215570   0.411   0.204   8.210 -0.4883 -1.2561  0.2409
 1371SOL     OW15571   3.145   2.452   8.297  0.1087  0.7045  0.1673
 1371SOL    HW115572   3.185   2.368   8.321 -0.0293  0.2200 -1.3224
 1371SOL    HW215573   3.052   2.440   8.315  0.3286 -0.4302  0.5920
 1372SOL     OW15574   1.010   0.214   9.419 -0.1482  0.1072 -0.0628
 1372SOL    HW115575   1.064   0.168   9.355 -0.7936 -0.2009 -0.3878
 1372SOL    HW215576   1.067   0.205   9.495 -1.6247  2.1576  1.3014
 1373SOL     OW15577   2.474   0.442  17.191  0.1199  0.5758 -0.6984
 1373SOL    HW115578   2.484   0.375  17.258  1.9602 -0.5094 -2.0481
 1373SOL    HW215579   2.561   0.481  17.185  0.0426  0.6968 -1.0337
 1374SOL     OW15580   3.263   2.802   0.317  0.6923  0.3475  0.2366
 1374SOL    HW115581   3.260   2.802   0.412  1.1056  3.4156  0.2319
 1374SOL    HW215582   3.219   2.885   0.301  0.6670  0.4888  1.0636
 1375SOL     OW15583   3.057   1.891   1.105  0.2834 -0.2943  0.2192
 1375SOL    HW115584   3.093   1.824   1.047 -1.7234  0.2753 -1.6587
 1375SOL    HW215585   3.079   1.857   1.192  0.8705  0.3248  0.3149
 1376SOL     OW15586   3.887   2.262  15.552 -0.4233 -0.0699  0.2897
 1376SOL    HW115587   3.792   2.265  15.543 -0.4519 -0.1901  0.5652
 1376SOL    HW215588   3.889   2.270  15.647 -0.7138  0.6336  0.2290
 1377SOL     OW15589   4.216   0.939  10.536 -0.1150  0.3395 -0.1122
 1377SOL    HW115590   4.247   0.998  10.605  1.8318  0.0855 -0.7464
 1377SOL    HW215591   4.136   0.985  10.512 -0.5994  0.6021  2.0153
 1378SOL     OW15592   0.282   4.553  14.316 -0.3853 -0.6143 -0.1342
 1378SOL    HW115593   0.301   4.562  14.410  0.5490 -0.6320 -0.3191
 1378SOL    HW215594   0.314   4.635  14.278  0.8310 -2.0835 -2.2476
 1379SOL     OW15595   3.416   1.424  13.228 -0.2808 -0.0126 -0.5716
 1379SOL    HW115596   3.501   1.387  13.201  0.6122 -0.0358  2.1933
 1379SOL    HW215597   3.430   1.426  13.323 -0.2981  2.5064 -0.6244
 1380SOL     OW15598   2.481   3.486   3.806  0.0070 -0.5389 -0.0576
 1380SOL    HW115599   2.554   3.517   3.858  0.4537 -2.6871  0.6059
 1380SOL    HW215600   2.421   3.560   3.796 -1.8890 -2.1580 -0.8676
 1381SOL     OW15601   1.338   4.685  17.223  0.1165 -0.7198  0.1998
 1381SOL    HW115602   1.260   4.631  17.212 -0.4033  0.0353  0.1874
 1381SOL    HW215603   1.321   0.047  17.180 -1.2026 -2.0579 -1.9429
 1382SOL     OW15604   1.992   0.060  12.078  0.2802 -0.1064 -0.6730
 1382SOL    HW115605   2.037   0.041  12.160  2.0055  0.7645 -1.4145
 1382SOL    HW215606   1.949   0.142  12.104 -1.2156 -1.1642  0.1814
 1383SOL     OW15607   1.123   4.370   6.299 -0.1550 -0.0282 -0.9410
 1383SOL    HW115608   1.195   4.320   6.259 -1.2998 -3.3532  1.2557
 1383SOL    HW215609   1.142   4.458   6.266 -0.7600  0.5624  0.3060
 1384SOL     OW15610   0.829   2.216   4.784 -0.6771 -0.7427  0.2934
 1384SOL    HW115611   0.859   2.167   4.861  0.3458 -0.6574 -0.0448
 1384SOL    HW215612   0.741   2.184   4.765 -2.1215  3.6619 -0.4836
 1385SOL     OW15613   2.541   1.662  14.526 -0.2330 -0.4655 -0.0847
 1385SOL    HW115614   2.585   1.691  14.446  1.2928  0.0213  0.9308
 1385SOL    HW215615   2.562   1.569  14.535 -0.9826 -0.8984 -2.8420
 1386SOL     OW15616   2.447   2.319   9.802 -0.5077  0.1821 -0.0196
 1386SOL    HW115617   2.496   2.288   9.878  1.3224  0.3126 -1.1525
 1386SOL    HW215618   2.363   2.275   9.810  0.4731 -1.9447 -1.3873
 1387SOL     OW15619   3.864   0.819  13.668 -0.6330 -0.4882  0.0276
 1387SOL    HW115620   3.939   0.764  13.647  1.3114  1.5104  1.7345
 1387SOL    HW215621   3.802   0.820  13.595 -1.5696 -1.8599  0.7938
 1388SOL     OW15622   1.396   1.390  16.421 -0.1427  0.5426  0.5428
 1388SOL    HW115623   1.374   1.374  16.513 -0.3328  2.0079  0.7548
 1388SOL    HW215624   1.425   1.302  16.398 -0.2385  0.3054  1.3249
 1389SOL     OW15625   3.778   2.893  15.696 -0.3736 -0.7954  0.4350
 1389SOL    HW115626   3.738   2.822  15.746  0.3615 -0.5384  1.3915
 1389SOL    HW215627   3.843   2.848  15.641 -2.3779 -1.0210 -1.7483
 1390SOL     OW15628   1.772   2.911   6.216  0.4954  0.1619  0.0050
 1390SOL    HW115629   1.701   2.967   6.184  0.7194 -0.3336 -1.3735
 1390SOL    HW215630   1.771   2.936   6.309  2.6258  1.2403 -0.2485
 1391SOL     OW15631   1.183   4.276   4.047 -0.3994  0.2254  0.3396
 1391SOL    HW115632   1.100   4.237   4.021 -0.8770  2.5888 -1.6537
 1391SOL    HW215633   1.166   4.366   4.018  0.4384 -0.0548 -0.9992
 1392SOL     OW15634   0.734   4.334   0.078  0.5938 -0.0769 -0.1384
 1392SOL    HW115635   0.754   4.365   0.166  2.5247 -0.4992 -0.4382
 1392SOL    HW215636   0.823   4.311   0.053  0.3190 -1.7675  0.3975
 1393SOL     OW15637   1.507   1.450   2.430  0.0259  0.0414 -0.0587
 1393SOL    HW115638   1.528   1.529   2.480  0.4651 -0.4371  0.5249
 1393SOL    HW215639   1.537   1.387   2.496 -0.2794 -0.3138 -0.2567
 1394SOL     OW15640   0.676   3.187   3.207 -0.2046 -0.2748  0.1124
 1394SOL    HW115641   0.581   3.176   3.204 -0.0231 -1.4977 -0.8945
 1394SOL    HW215642   0.704   3.127   3.137  0.8940  0.8732 -0.4264
 1395SOL     OW15643   0.700   3.251   6.479  0.3542  0.3521 -0.1126
 1395SOL    HW115644   0.715   3.165   6.518  2.1183  1.1978  1.0689
 1395SOL    HW215645   0.712   3.244   6.384  0.1328  0.9290 -0.1795
 1396SOL     OW15646   1.121   4.245   9.083 -0.1386  0.3864 -0.2329
 1396SOL    HW115647   1.032   4.243   9.047  0.7806 -0.9104 -2.4206
 1396SOL    HW215648   1.177   4.271   9.010  1.0621 -1.3117  0.0814
 1397SOL     OW15649   1.143   4.182  12.920 -0.0963  0.1229 -0.0628
 1397SOL    HW115650   1.050   4.205  12.918 -0.5244 -1.5689  0.0744
 1397SOL    HW215651   1.183   4.267  12.938 -0.8253  1.0895 -3.0417
 1398SOL     OW15652   2.046   1.576  13.154  0.3373  0.3269 -0.0484
 1398SOL    HW115653   2.128   1.527  13.153  0.6052  0.7744 -0.1942
 1398SOL    HW215654   1.980   1.508  13.166  0.9640 -0.2028  0.3885
 1399SOL     OW15655   0.394   1.195   9.622  0.0542 -0.2539  0.5881
 1399SOL    HW115656   0.354   1.267   9.574  0.2147 -0.7270 -0.2518
 1399SOL    HW215657   0.424   1.146   9.546 -0.2905  0.3820  0.0418
 1400SOL     OW15658   3.294   1.530   4.940 -0.4717  0.0610  0.3815
 1400SOL    HW115659   3.294   1.533   5.036 -0.6602 -0.8394  0.4023
 1400SOL    HW215660   3.278   1.620   4.910 -2.5655 -0.5196 -0.2455
 1401SOL     OW15661   1.706   0.060   1.755 -0.1012  0.3929 -0.4103
 1401SOL    HW115662   1.671   0.010   1.681  0.3728 -1.0674  0.3464
 1401SOL    HW215663   1.625   0.097   1.792 -2.1071 -3.2069 -1.2261
 1402SOL     OW15664   3.633   0.292  12.552 -0.2410 -0.5102  0.2079
 1402SOL    HW115665   3.725   0.318  12.554 -0.8652  1.6026  0.7034
 1402SOL    HW215666   3.648   0.197  12.551 -3.6569 -1.0380 -1.3630
 1403SOL     OW15667   3.017   0.547   6.675  0.6034  0.2836  0.3895
 1403SOL    HW115668   3.105   0.551   6.637  0.9059 -1.2280  0.9131
 1403SOL    HW215669   3.002   0.640   6.687 -1.6766 -0.3740  2.4814
 1404SOL     OW15670   1.431   2.068   2.147  0.0764  0.5805  0.6320
 1404SOL    HW115671   1.381   2.113   2.078 -0.7450 -2.0793 -0.5295
 1404SOL    HW215672   1.366   2.004   2.176 -0.2494  1.6880  2.3098
 1405SOL     OW15673   3.453   1.494  15.332  0.0832 -0.3913 -0.1654
 1405SOL    HW115674   3.443   1.586  15.305 -3.3579 -0.5571  0.6043
 1405SOL    HW215675   3.361   1.489  15.358  0.6026 -2.3717  1.2619
 1406SOL     OW15676   4.216   0.527   0.578  0.5474 -0.1699 -0.6263
 1406SOL    HW115677   4.146   0.487   0.629  1.1590 -0.9965 -0.4230
 1406SOL    HW215678   4.233   0.601   0.636  2.6313 -0.4905 -0.7950
 1407SOL     OW15679   4.718   3.969   3.594 -0.1958  0.5682 -0.4398
 1407SOL    HW115680   0.027   3.903   3.532  2.6159  0.2957  1.3174
 1407SOL    HW215681   4.681   4.033   3.533 -1.0958 -1.3720 -1.9402
 1408SOL     OW15682   2.720   1.568   1.867  0.9972 -0.4078  0.4580
 1408SOL    HW115683   2.780   1.540   1.936 -0.9009 -0.9900  1.8950
 1408SOL    HW215684   2.660   1.494   1.857  2.0507 -1.1219 -0.6189
 1409SOL     OW15685   0.949   3.814   9.442  0.0323 -0.3146 -0.2315
 1409SOL    HW115686   0.915   3.768   9.519  1.4377 -0.4290  0.3223
 1409SOL    HW215687   1.036   3.778   9.426  0.6732  1.5969 -1.0356
 1410SOL     OW15688   2.214   2.461   5.362 -0.0204 -0.4409 -0.3492
 1410SOL    HW115689   2.181   2.483   5.449  0.1594 -0.0117 -0.3890
 1410SOL    HW215690   2.138   2.493   5.312  1.4555  0.8802 -1.7471
 1411SOL     OW15691   1.498   2.258   9.769 -0.0254  0.5576 -0.0922
 1411SOL    HW115692   1.435   2.210   9.715 -0.3725 -1.1355  1.8507
 1411SOL    HW215693   1.572   2.258   9.708 -1.0543 -1.4820 -1.3544
 1412SOL     OW15694   0.254   1.595  11.287  0.5527  0.2337  0.2683
 1412SOL    HW115695   0.244   1.686  11.312  0.8296 -0.1077  1.5743
 1412SOL    HW215696   0.249   1.546  11.369 -1.0700 -2.1322 -1.2295
 1413SOL     OW15697   4.544   1.528   7.058  0.0817 -0.0839 -0.0264
 1413SOL    HW115698   4.599   1.450   7.052  0.9168  0.4553  0.6420
 1413SOL    HW215699   4.542   1.550   6.964  0.5405 -2.2282 -0.5423
 1414SOL     OW15700   1.546   0.039   3.983 -0.0977 -0.4687 -0.2241
 1414SOL    HW115701   1.503   4.676   3.983 -1.5442  0.2578 -1.7619
 1414SOL    HW215702   1.616   0.029   3.919  0.5602  2.8245 -0.0207
 1415SOL     OW15703   1.359   3.460  10.309  0.2280 -0.1823 -0.0475
 1415SOL    HW115704   1.363   3.434  10.401 -2.1423  0.8988  0.3707
 1415SOL    HW215705   1.407   3.391  10.263  0.4629 -0.3908  0.5128
 1416SOL     OW15706   2.735   2.092   2.906 -0.0345 -0.1208 -0.6483
 1416SOL    HW115707   2.760   2.104   2.814 -0.0500 -1.1081 -0.7781
 1416SOL    HW215708   2.717   1.998   2.905 -1.2104  0.0937  0.3977
 1417SOL     OW15709   2.125   3.796   5.137 -0.5687  0.0433 -0.1036
 1417SOL    HW115710   2.169   3.879   5.118 -0.5712 -0.2422 -1.3623
 1417SOL    HW215711   2.102   3.775   5.046 -0.8667  1.9610 -0.4709
 1418SOL     OW15712   4.497   4.410   7.973  0.0769  0.3668  0.2207
 1418SOL    HW115713   4.421   4.353   7.989  0.4907 -0.5570 -1.1323
 1418SOL    HW215714   4.562   4.344   7.950  0.7201  0.8400  0.6750
 1419SOL     OW15715   4.674   2.220   3.078 -0.6470 -0.0239 -0.2079
 1419SOL    HW115716   4.580   2.235   3.064 -0.8886  1.2678  2.7594
 1419SOL    HW215717   4.706   2.263   2.999  0.3007 -0.5214 -0.1022
 1420SOL     OW15718   2.691   0.799   3.422 -0.4035 -0.0189  0.0763
 1420SOL    HW115719   2.661   0.709   3.412 -0.3307  0.3272 -3.5631
 1420SOL    HW215720   2.785   0.789   3.407 -0.7156 -0.8999 -1.2891
 1421SOL     OW15721   2.848   3.516   0.090 -0.4556 -0.0272  0.1700
 1421SOL    HW115722   2.828   3.507  17.690  0.9394  2.3896 -0.3750
 1421SOL    HW215723   2.920   3.580   0.090 -0.3959 -0.0886 -1.2730
 1422SOL     OW15724   4.220   3.771   8.659  0.2994 -0.0441 -0.2386
 1422SOL    HW115725   4.135   3.793   8.696 -0.4911 -0.1739 -1.9750
 1422SOL    HW215726   4.198   3.690   8.612 -2.1987  2.6631 -3.7917
 1423SOL     OW15727   4.331   3.423   0.186  0.3064 -0.3265  0.5432
 1423SOL    HW115728   4.375   3.350   0.142 -0.1640 -0.9429  1.0915
 1423SOL    HW215729   4.241   3.407   0.158  0.5616  0.6140 -0.7656
 1424SOL     OW15730   2.582   2.827   7.920 -0.4503 -0.2784  0.3094
 1424SOL    HW115731   2.631   2.746   7.934  1.0263  0.8280  1.4878
 1424SOL    HW215732   2.523   2.830   7.995  0.6947 -0.7917  1.2239
 1425SOL     OW15733   1.930   3.703  16.657  1.2309 -0.6339  0.8011
 1425SOL    HW115734   1.938   3.660  16.571  1.7951  0.3616  0.3560
 1425SOL    HW215735   1.917   3.628  16.715  1.1761 -1.8256 -0.7283
 1426SOL     OW15736   0.714   1.278   7.816  0.1421  0.1535  0.2242
 1426SOL    HW115737   0.743   1.287   7.907 -0.3558 -0.1574  0.4156
 1426SOL    HW215738   0.660   1.355   7.804 -2.1378 -1.1273  2.2776
 1427SOL     OW15739   3.245   2.662   4.057 -0.3250 -0.6636  0.1750
 1427SOL    HW115740   3.237   2.738   4.000 -1.9319 -0.0248  1.2600
 1427SOL    HW215741   3.341   2.658   4.066 -0.3927 -0.8297  0.8263
 1428SOL     OW15742   2.313   0.623   9.431  0.5365 -0.0790 -0.6358
 1428SOL    HW115743   2.236   0.579   9.395  0.8267  0.2622 -1.6657
 1428SOL    HW215744   2.313   0.554   9.497  3.0504  1.3522  0.8370
 1429SOL     OW15745   1.793   3.584  16.232 -0.0027 -0.4573 -0.1222
 1429SOL    HW115746   1.781   3.670  16.271  0.2091 -0.2356 -0.5339
 1429SOL    HW215747   1.887   3.586  16.210 -0.4906  0.8654 -2.1361
 1430SOL     OW15748   0.673   1.337   2.506  0.2297 -0.0258 -0.0923
 1430SOL    HW115749   0.727   1.412   2.482  0.7015 -0.1388  0.6005
 1430SOL    HW215750   0.699   1.326   2.598  3.8481  1.2618 -0.9666
 1431SOL     OW15751   4.530   2.481   3.916  0.8646  0.0313 -0.2380
 1431SOL    HW115752   4.534   2.522   4.003 -2.0262 -0.2638  0.0475
 1431SOL    HW215753   4.564   2.549   3.859  1.2270 -1.2176 -1.5047
 1432SOL     OW15754   1.261   0.373   4.279 -0.3787 -0.5750 -0.1897
 1432SOL    HW115755   1.351   0.372   4.313 -0.3164  1.4256 -0.2991
 1432SOL    HW215756   1.251   0.290   4.233 -2.1245 -0.1012 -0.6606
 1433SOL     OW15757   3.864   2.938  11.544  0.3906 -0.2616  0.3464
 1433SOL    HW115758   3.841   2.978  11.628 -2.7534 -1.5328  0.0860
 1433SOL    HW215759   3.846   3.017  11.494  1.2094 -0.7683 -0.7648
 1434SOL     OW15760   3.779   3.867   6.132  0.0872  0.3539 -0.1865
 1434SOL    HW115761   3.871   3.888   6.115  0.3808 -1.2408 -0.5465
 1434SOL    HW215762   3.779   3.771   6.130 -0.8140  0.3919 -1.5036
 1435SOL     OW15763   0.669   1.948   4.423 -0.4283 -0.0003  0.7992
 1435SOL    HW115764   0.595   1.924   4.480 -0.1835 -1.8489  0.3645
 1435SOL    HW215765   0.631   2.001   4.354  2.2736  0.5549 -0.2477
 1436SOL     OW15766   4.668   0.934  13.427  0.1602 -0.7144  0.3319
 1436SOL    HW115767   0.039   0.941  13.448  0.3055 -1.4527 -0.0710
 1436SOL    HW215768   4.666   0.981  13.343 -0.9023 -0.7990  0.3181
 1437SOL     OW15769   2.594   4.347   2.557 -0.3640  0.4917 -0.2812
 1437SOL    HW115770   2.674   4.333   2.507 -0.5199 -0.0277 -0.3819
 1437SOL    HW215771   2.634   4.373   2.641 -0.0211  0.7215 -0.5143
 1438SOL     OW15772   3.222   2.655  10.359  0.2858 -0.2365 -0.0275
 1438SOL    HW115773   3.144   2.709  10.376 -1.0683 -2.0334 -0.5024
 1438SOL    HW215774   3.173   2.598  10.300 -0.2495  0.3695 -0.1740
 1439SOL     OW15775   3.019   2.495   3.261 -0.1106  0.4132  0.3402
 1439SOL    HW115776   3.034   2.489   3.167  1.5115 -0.6423  0.6698
 1439SOL    HW215777   3.074   2.429   3.305  0.0536 -1.0698 -2.1173
 1440SOL     OW15778   2.383   1.143  13.934 -0.6790  0.2101  0.4295
 1440SOL    HW115779   2.310   1.085  13.912  1.0032 -0.4419 -3.4039
 1440SOL    HW215780   2.382   1.212  13.868 -0.5109 -0.2927 -0.0993
 1441SOL     OW15781   1.145   3.158   7.149  0.0497 -0.5637  0.0480
 1441SOL    HW115782   1.123   3.103   7.073  0.5041  1.0151 -1.2197
 1441SOL    HW215783   1.060   3.187   7.182  1.2207 -0.2924  2.7804
 1442SOL     OW15784   4.196   2.521  15.538  0.0384 -0.3272 -0.2014
 1442SOL    HW115785   4.289   2.498  15.546 -0.3329 -2.3042 -1.5874
 1442SOL    HW215786   4.198   2.605  15.585 -0.3217 -0.5641  0.2383
 1443SOL     OW15787   0.872   2.190   0.865 -0.0623 -0.3779  0.5040
 1443SOL    HW115788   0.916   2.222   0.786  3.0580 -0.8528  2.0228
 1443SOL    HW215789   0.806   2.131   0.829 -1.3154  0.5458  1.3235
 1444SOL     OW15790   2.252   3.310   9.074 -0.2826 -0.2651  0.3152
 1444SOL    HW115791   2.339   3.308   9.034 -0.0845  0.3490  0.7217
 1444SOL    HW215792   2.213   3.279   8.992 -2.5260 -0.7685  1.6022
 1445SOL     OW15793   3.257   0.165   4.830 -0.3228 -0.8136 -0.7758
 1445SOL    HW115794   3.185   0.125   4.879 -1.4674 -0.5930 -2.2710
 1445SOL    HW215795   3.323   0.095   4.830 -0.2795 -0.7666 -0.1136
 1446SOL     OW15796   2.811   1.096   9.756  0.4396  0.4038 -0.5176
 1446SOL    HW115797   2.842   1.007   9.773  1.4085  0.5456 -1.5607
 1446SOL    HW215798   2.895   1.142   9.751  1.0874 -0.5820  1.1852
 1447SOL     OW15799   1.232   3.098   7.495  0.9743 -0.4133 -0.1501
 1447SOL    HW115800   1.161   3.050   7.451 -0.9317  0.5585  1.8670
 1447SOL    HW215801   1.248   3.043   7.572 -0.9222 -1.3053 -0.3938
 1448SOL     OW15802   0.024   3.703   1.662 -0.5991 -0.0462 -0.0167
 1448SOL    HW115803   0.044   3.779   1.715 -0.5527 -0.7186  0.9299
 1448SOL    HW215804   0.054   3.630   1.715 -3.2080 -1.0596  0.0708
 1449SOL     OW15805   1.618   4.078  14.798  0.4237 -0.1383 -0.5754
 1449SOL    HW115806   1.614   4.160  14.847 -0.4639 -0.7972  0.4612
 1449SOL    HW215807   1.712   4.059  14.801  0.3441 -0.8127 -2.7378
 1450SOL     OW15808   2.274   3.313   6.225  0.0033  0.5242 -0.2551
 1450SOL    HW115809   2.289   3.408   6.219  1.5204  0.2416 -1.0919
 1450SOL    HW215810   2.343   3.285   6.286  2.0493 -1.4037 -3.4563
 1451SOL     OW15811   2.105   1.398   8.954 -0.1084  0.5957 -0.5608
 1451SOL    HW115812   2.028   1.354   8.991  1.1679 -1.5833 -0.5555
 1451SOL    HW215813   2.152   1.397   9.037  1.6975 -0.9186 -1.6185
 1452SOL     OW15814   4.000   0.601   7.400  0.0142  0.1020 -0.4159
 1452SOL    HW115815   4.039   0.572   7.318 -1.1531 -1.3570 -0.4320
 1452SOL    HW215816   4.049   0.682   7.419 -0.8054  0.7471 -1.0435
 1453SOL     OW15817   1.546   1.060   1.827  0.2782 -0.8265 -0.1132
 1453SOL    HW115818   1.505   0.978   1.800 -1.5911  1.0975 -3.1833
 1453SOL    HW215819   1.631   1.057   1.785 -0.8299 -1.0133 -2.3541
 1454SOL     OW15820   3.199   2.637   1.353  0.2760 -0.0317  0.2962
 1454SOL    HW115821   3.229   2.566   1.297  1.8921  0.5368  0.4192
 1454SOL    HW215822   3.113   2.607   1.383  0.8120 -0.5207  1.3192
 1455SOL     OW15823   1.027   1.925   7.947  0.0693  0.1110  0.2925
 1455SOL    HW115824   0.996   1.857   7.887 -0.7925  0.6200  0.1563
 1455SOL    HW215825   0.958   1.991   7.933 -1.9147 -1.9174  0.4991
 1456SOL     OW15826   2.502   1.265   3.988 -0.1240  0.4191 -0.5393
 1456SOL    HW115827   2.518   1.273   4.082 -0.0355 -0.2138 -0.4989
 1456SOL    HW215828   2.439   1.193   3.994  0.0083  0.1988 -1.7417
 1457SOL     OW15829   4.464   1.009   6.978 -0.0571  0.6301 -0.1645
 1457SOL    HW115830   4.373   1.002   6.950  0.5753 -1.2401 -1.7365
 1457SOL    HW215831   4.464   0.962   7.061  0.4265  0.7124 -0.1199
 1458SOL     OW15832   1.122   1.729   9.099 -0.3052  0.5309 -0.6891
 1458SOL    HW115833   1.158   1.778   9.025  1.0303 -0.8596 -0.9644
 1458SOL    HW215834   1.063   1.788   9.146 -1.8017 -1.5350  0.0399
 1459SOL     OW15835   4.224   2.262  15.401 -0.3208 -0.0596  0.3165
 1459SOL    HW115836   4.257   2.173  15.414  1.5878  0.7891  1.2237
 1459SOL    HW215837   4.286   2.314  15.451 -0.5053  1.4624 -1.0291
 1460SOL     OW15838   3.618   0.277  13.518  0.2291  0.4813 -0.1289
 1460SOL    HW115839   3.712   0.282  13.501  0.0439  0.0769 -1.2571
 1460SOL    HW215840   3.608   0.217  13.592  0.3775 -0.4767 -0.8791
 1461SOL     OW15841   1.464   4.147   3.153  0.1078  0.4584  0.2324
 1461SOL    HW115842   1.381   4.122   3.113  1.1202 -0.6216 -1.1801
 1461SOL    HW215843   1.514   4.069   3.131 -0.2341  0.6894 -1.3340
 1462SOL     OW15844   1.930   0.132   4.368  0.2752  0.4382  0.3753
 1462SOL    HW115845   1.994   0.134   4.439 -0.9900 -0.4556  1.5349
 1462SOL    HW215846   1.882   0.212   4.386  2.9833  1.6256  2.3809
 1463SOL     OW15847   1.944   0.718   6.089 -0.1702 -0.4735  0.1187
 1463SOL    HW115848   1.906   0.800   6.121 -0.2255 -0.4183 -0.0892
 1463SOL    HW215849   1.928   0.736   5.996  1.4620 -0.4147 -0.1405
 1464SOL     OW15850   2.902   1.973   8.149 -0.9175  0.1061  0.5814
 1464SOL    HW115851   2.814   1.983   8.186 -0.8855 -0.6232  0.8517
 1464SOL    HW215852   2.956   1.998   8.224 -3.1954  0.4981  2.0980
 1465SOL     OW15853   4.335   3.270   1.593  0.2371  0.0628  0.3990
 1465SOL    HW115854   4.244   3.240   1.588  0.7647 -1.4466 -0.3015
 1465SOL    HW215855   4.366   3.218   1.667  3.0879 -1.3475 -1.8103
 1466SOL     OW15856   4.495   0.741   5.391 -0.4481 -0.1769 -0.2511
 1466SOL    HW115857   4.511   0.825   5.348  1.9618 -0.8662 -0.7044
 1466SOL    HW215858   4.406   0.745   5.427 -1.0235  0.3821 -1.7544
 1467SOL     OW15859   0.878   2.857   1.975 -0.3043  0.0944  0.4265
 1467SOL    HW115860   0.953   2.851   2.034  0.6153  0.9904 -0.6510
 1467SOL    HW215861   0.926   2.854   1.893  0.9783  0.2635  1.1740
 1468SOL     OW15862   0.819   0.802  13.491 -0.2615 -0.1958  0.0861
 1468SOL    HW115863   0.841   0.787  13.583  0.7258  0.4268 -0.0584
 1468SOL    HW215864   0.764   0.724  13.479  0.4149 -0.7687  0.6965
 1469SOL     OW15865   3.521   2.440   6.217  0.0084 -0.1317 -0.1210
 1469SOL    HW115866   3.452   2.442   6.151  0.5182  0.7940 -0.6262
 1469SOL    HW215867   3.571   2.362   6.192  0.1580 -0.5618  1.5243
 1470SOL     OW15868   2.930   0.062   4.901 -0.8001 -0.3138  0.2129
 1470SOL    HW115869   2.921   0.128   4.970  3.2224  2.6290 -2.0413
 1470SOL    HW215870   2.980   4.717   4.946  0.2509 -0.0360 -0.5442
 1471SOL     OW15871   2.913   2.071   2.153 -0.4594 -0.0157  0.1824
 1471SOL    HW115872   2.845   2.122   2.108  1.0504  1.6002 -0.2647
 1471SOL    HW215873   2.984   2.129   2.182  0.0560  0.6988 -2.4848
 1472SOL     OW15874   2.614   1.700   8.485  0.4417  0.2551  0.2193
 1472SOL    HW115875   2.527   1.661   8.496  0.0993  1.5205  2.0311
 1472SOL    HW215876   2.646   1.713   8.574 -0.6693  0.6257  0.5738
 1473SOL     OW15877   3.941   3.349  10.864 -0.0460  0.5389 -0.9471
 1473SOL    HW115878   4.028   3.376  10.893  1.0703 -2.2189 -1.7508
 1473SOL    HW215879   3.888   3.427  10.880  0.9676  1.1265 -0.4879
 1474SOL     OW15880   2.152   2.683   1.823  0.1771 -0.0097 -0.4649
 1474SOL    HW115881   2.133   2.766   1.780 -1.7089 -0.1700  0.0170
 1474SOL    HW215882   2.104   2.698   1.904  1.7649 -1.3571  0.7154
 1475SOL     OW15883   3.313   2.660  17.306 -0.8262 -0.4444  0.0308
 1475SOL    HW115884   3.272   2.624  17.385  0.9461 -1.0749  0.6595
 1475SOL    HW215885   3.383   2.601  17.278 -0.0942  0.2865  0.3326
 1476SOL     OW15886   3.332   0.061   6.696  0.1623  0.0506  0.3075
 1476SOL    HW115887   3.263   0.019   6.749 -0.2351  1.2918  0.7585
 1476SOL    HW215888   3.292   0.143   6.668  0.3997  0.2174  0.4563
 1477SOL     OW15889   4.717   1.490   3.819 -0.5238 -0.5262  0.8648
 1477SOL    HW115890   0.077   1.505   3.866  0.0067 -0.1996 -0.1708
 1477SOL    HW215891   4.695   1.580   3.795  0.0902  0.0600  2.4780
 1478SOL     OW15892   2.769   3.570   6.231 -0.3105  0.4429  0.3244
 1478SOL    HW115893   2.732   3.658   6.233  1.4098  1.2184 -2.2073
 1478SOL    HW215894   2.709   3.530   6.294  1.0788 -0.2298  1.2427
 1479SOL     OW15895   0.993   3.969   8.151 -0.3405 -0.2388  0.0110
 1479SOL    HW115896   0.909   4.009   8.176  1.0239  4.6767 -3.1315
 1479SOL    HW215897   0.963   3.914   8.078  0.1278 -0.0355 -0.3378
 1480SOL     OW15898   4.214   4.279   7.909  0.0741 -0.3794 -0.3081
 1480SOL    HW115899   4.234   4.213   7.975 -0.2088  0.4229  0.5967
 1480SOL    HW215900   4.191   4.228   7.832 -1.9603  1.4334 -0.8895
 1481SOL     OW15901   2.052   1.067   1.713 -0.0172  0.5566 -0.1231
 1481SOL    HW115902   2.102   1.148   1.702  1.1563 -0.1558 -0.0501
 1481SOL    HW215903   2.089   1.025   1.636 -1.0630 -0.4276 -0.0854
 1482SOL     OW15904   4.214   2.945  13.617  0.2437 -0.0631  0.2674
 1482SOL    HW115905   4.245   2.873  13.562 -1.0279  0.7203 -1.4679
 1482SOL    HW215906   4.129   2.972  13.583  0.4400  0.9855  0.6095
 1483SOL     OW15907   1.196   2.336  13.414  0.0079 -0.2176  0.3450
 1483SOL    HW115908   1.106   2.322  13.386  0.4292  0.9120 -1.5598
 1483SOL    HW215909   1.236   2.253  13.440  1.6437  0.6686  0.6916
 1484SOL     OW15910   3.714   0.400   3.646 -0.1230 -0.3625  0.4410
 1484SOL    HW115911   3.789   0.428   3.699 -0.4351  1.3405 -0.0033
 1484SOL    HW215912   3.642   0.434   3.698  1.4957 -0.4218  2.7392
 1485SOL     OW15913   1.184   3.266   5.984 -0.0817  0.0880 -0.7343
 1485SOL    HW115914   1.226   3.265   6.070  0.1924  1.8599 -0.8483
 1485SOL    HW215915   1.148   3.180   5.962 -0.6203  0.4748 -1.3816
 1486SOL     OW15916   0.279   1.245   8.661 -0.1159  0.2971 -0.6466
 1486SOL    HW115917   0.312   1.156   8.650  0.7746  0.6026 -0.4468
 1486SOL    HW215918   0.304   1.269   8.571  0.6064  0.2575 -0.4570
 1487SOL     OW15919   0.738   2.416   8.063  0.0330  0.0009  0.1719
 1487SOL    HW115920   0.820   2.381   8.030 -0.5024 -1.1804  0.0922
 1487SOL    HW215921   0.781   2.500   8.080 -0.1006  0.0604  0.2221
 1488SOL     OW15922   3.731   4.093   3.817 -0.2304  0.1091  0.2778
 1488SOL    HW115923   3.825   4.091   3.799 -0.4783  2.7711 -1.3025
 1488SOL    HW215924   3.714   4.181   3.783 -0.7337 -0.9369 -2.2015
 1489SOL     OW15925   2.453   2.236   7.358  0.0111  0.8362  0.8274
 1489SOL    HW115926   2.514   2.207   7.290 -1.4081  1.0750 -0.5699
 1489SOL    HW215927   2.373   2.187   7.335  1.6411  0.0430 -3.1389
 1490SOL     OW15928   2.917   3.916  12.711 -0.3973  0.6803 -0.2708
 1490SOL    HW115929   2.957   3.941  12.794  0.9562 -1.8846 -0.1595
 1490SOL    HW215930   2.864   3.995  12.706 -0.6030  0.4872 -1.1586
 1491SOL     OW15931   1.299   3.103   6.825 -0.1084  0.2173 -0.4562
 1491SOL    HW115932   1.243   3.173   6.791 -1.8609 -1.8593 -1.8776
 1491SOL    HW215933   1.227   3.042   6.840  1.0520 -0.8821  0.6441
 1492SOL     OW15934   0.671   2.834   6.111  0.0066  0.1015  0.3570
 1492SOL    HW115935   0.715   2.881   6.040  0.4690  1.0484  1.2843
 1492SOL    HW215936   0.686   2.900   6.178 -0.9018  0.4595  0.2158
 1493SOL     OW15937   2.969   3.238   5.583  0.5673 -0.6040 -0.1793
 1493SOL    HW115938   3.062   3.258   5.594  0.7720 -1.7947  0.2162
 1493SOL    HW215939   2.941   3.330   5.581  1.4609 -0.3594 -1.2473
 1494SOL     OW15940   0.586   0.110   3.389 -0.1327 -0.2190 -0.4130
 1494SOL    HW115941   0.600   0.173   3.460 -0.6588  0.1437 -0.6306
 1494SOL    HW215942   0.560   0.030   3.436 -0.6234  0.7470  0.9463
 1495SOL     OW15943   4.363   2.960   4.165  0.1443  0.1381  0.1009
 1495SOL    HW115944   4.269   2.969   4.181  0.1674  0.3956  0.0914
 1495SOL    HW215945   4.372   2.885   4.106  0.8924 -1.0237  1.7068
 1496SOL     OW15946   4.285   1.495   3.556  0.1691 -0.2284  0.4535
 1496SOL    HW115947   4.341   1.469   3.629 -0.3052  0.9548  1.2366
 1496SOL    HW215948   4.347   1.514   3.486 -0.0106  0.3220  0.4454
 1497SOL     OW15949   3.791   3.391   4.448  0.2570 -0.1226  0.5577
 1497SOL    HW115950   3.879   3.429   4.455  0.5867 -0.5974 -1.1532
 1497SOL    HW215951   3.763   3.394   4.540  0.6913  2.3160  0.6061
 1498SOL     OW15952   0.920   1.555   5.204 -0.7067 -0.2491  0.1550
 1498SOL    HW115953   0.974   1.625   5.240  2.5151 -1.8846 -1.4812
 1498SOL    HW215954   0.865   1.521   5.274  0.4614 -0.5571  0.9243
 1499SOL     OW15955   1.989   0.425   8.111  0.4762  0.2343 -0.1154
 1499SOL    HW115956   1.993   0.521   8.117 -1.1991  0.2929  0.2846
 1499SOL    HW215957   1.941   0.398   8.190 -0.3656  2.2227  0.0790
 1500SOL     OW15958   3.895   2.202   5.843 -0.5135 -0.0280  0.0560
 1500SOL    HW115959   3.819   2.153   5.872 -0.8199 -0.7989 -2.0109
 1500SOL    HW215960   3.908   2.149   5.764  0.1232 -0.9162  0.7645
 1501SOL     OW15961   2.147   3.578  10.986 -0.1460 -0.3046 -0.2602
 1501SOL    HW115962   2.183   3.591  10.898  2.0875  0.9557  0.8523
 1501SOL    HW215963   2.190   3.650  11.032 -0.8935 -0.9327  1.4152
 1502SOL     OW15964   4.588   3.388  12.995  0.2061  0.3227 -0.2590
 1502SOL    HW115965   4.601   3.454  13.064  0.3118  0.8363 -0.7719
 1502SOL    HW215966   4.540   3.444  12.934  0.9980 -0.3344 -1.4788
 1503SOL     OW15967   1.480   3.935   9.023 -0.4512  0.0988  0.4587
 1503SOL    HW115968   1.403   3.974   9.064  0.1242  2.4429 -0.6755
 1503SOL    HW215969   1.544   3.966   9.086 -1.0261 -0.9092  1.5331
 1504SOL     OW15970   2.087   3.881   5.654 -0.0214 -0.1449  0.0532
 1504SOL    HW115971   2.085   3.950   5.587  0.3670 -0.7595 -0.6003
 1504SOL    HW215972   2.181   3.867   5.666 -0.0341 -0.6601 -0.4394
 1505SOL     OW15973   1.823   1.101   8.874 -0.6793 -0.0340  0.9079
 1505SOL    HW115974   1.770   1.029   8.840 -1.5928  1.0320  0.0396
 1505SOL    HW215975   1.796   1.162   8.805 -2.4472 -3.9896 -1.9006
 1506SOL     OW15976   1.162   0.686  13.732  0.2187  0.2366 -0.7942
 1506SOL    HW115977   1.148   0.738  13.811 -1.7044 -1.5000 -0.0020
 1506SOL    HW215978   1.205   0.612  13.776 -1.7551 -0.9704 -0.9117
 1507SOL     OW15979   3.943   1.074  13.218 -0.0987  0.3307  0.1757
 1507SOL    HW115980   4.003   1.035  13.154  1.1435  0.5069  1.2108
 1507SOL    HW215981   3.999   1.101  13.291  0.1479 -1.6050  0.6817
 1508SOL     OW15982   2.046   0.145   1.641 -0.1835 -0.2357  0.1690
 1508SOL    HW115983   2.084   0.059   1.656 -2.4736 -1.2418  0.2209
 1508SOL    HW215984   2.026   0.170   1.731 -0.1073 -1.9569  0.6705
 1509SOL     OW15985   2.504   3.674   8.410 -0.0170  0.1220 -0.1218
 1509SOL    HW115986   2.550   3.681   8.326 -0.6237  0.5082 -0.4166
 1509SOL    HW215987   2.439   3.743   8.405  0.2159  0.4375  1.1579
 1510SOL     OW15988   2.672   4.352   6.873 -0.3652  0.2496 -0.3087
 1510SOL    HW115989   2.632   4.319   6.953 -0.8716  1.8564  0.1117
 1510SOL    HW215990   2.752   4.385   6.914  0.2765 -0.0629 -1.3216
 1511SOL     OW15991   3.697   4.407  16.910  0.6744  0.0452  0.2968
 1511SOL    HW115992   3.656   4.369  16.989  2.2754 -2.4991 -0.0970
 1511SOL    HW215993   3.699   4.329  16.855  0.2348  1.8455 -2.2587
 1512SOL     OW15994   0.638   1.888   2.743  0.1721  0.1274 -0.3459
 1512SOL    HW115995   0.721   1.900   2.788 -0.1543 -0.0506  0.3000
 1512SOL    HW215996   0.595   1.820   2.794  0.5026 -0.7647 -1.2622
 1513SOL     OW15997   1.006   0.492   3.379 -0.0325 -0.1065  0.0593
 1513SOL    HW115998   1.059   0.515   3.302 -0.8578  0.0337 -0.4745
 1513SOL    HW215999   1.053   0.543   3.444  0.8784 -0.7302 -0.1120
 1514SOL     OW16000   1.113   3.836   7.487  0.4679 -0.7062 -0.7711
 1514SOL    HW116001   1.158   3.902   7.435 -0.2680  0.0892 -0.3933
 1514SOL    HW216002   1.130   3.762   7.429  0.3638  0.3832 -2.1796
 1515SOL     OW16003   3.186   0.907   8.385 -0.2145 -0.5120  0.2141
 1515SOL    HW116004   3.166   0.830   8.438  1.4958 -0.1613  1.3410
 1515SOL    HW216005   3.210   0.973   8.449 -1.6727  0.1708  0.0712
 1516SOL     OW16006   2.510   4.616   3.381 -0.6313  0.1445  0.3544
 1516SOL    HW116007   2.585   4.672   3.402 -0.8011  0.5878 -0.2270
 1516SOL    HW216008   2.535   4.567   3.303  0.6434  1.2030  0.1091
 1517SOL     OW16009   1.546   0.933   3.325 -0.2797  0.0784  0.6056
 1517SOL    HW116010   1.642   0.927   3.323 -0.2562  1.7669 -3.5673
 1517SOL    HW216011   1.529   0.843   3.354  0.3930 -0.1607  0.2700
 1518SOL     OW16012   2.888   1.207   6.013 -0.1174 -0.1344  0.3887
 1518SOL    HW116013   2.846   1.239   5.933  1.6767 -1.7954 -1.2200
 1518SOL    HW216014   2.855   1.264   6.083 -1.6689  2.2822 -2.3028
 1519SOL     OW16015   0.447   4.014   3.931 -0.4045  0.0477 -0.1296
 1519SOL    HW116016   0.392   4.026   4.008 -0.7594  1.0102 -0.5349
 1519SOL    HW216017   0.406   3.941   3.885 -1.0882 -0.7763  1.8130
 1520SOL     OW16018   2.334   3.028   1.669 -0.3843  0.3835 -0.0363
 1520SOL    HW116019   2.346   3.122   1.653 -2.1162  0.7577  0.9042
 1520SOL    HW216020   2.423   2.993   1.670  0.1971  1.7500 -2.5492
 1521SOL     OW16021   4.597   1.482   7.908 -0.1213  0.0733  0.3821
 1521SOL    HW116022   4.552   1.495   7.825 -2.2758  0.6017  1.6476
 1521SOL    HW216023   4.521   1.513   7.957  1.4503 -1.1237  3.5656
 1522SOL     OW16024   3.798   4.330   3.576  0.3853 -0.1993  0.0637
 1522SOL    HW116025   3.835   4.407   3.533 -0.7378  0.4887  0.3284
 1522SOL    HW216026   3.864   4.263   3.558  0.4246  0.0436 -0.6802
 1523SOL     OW16027   0.859   2.734   7.329 -0.3129  0.6433 -0.5860
 1523SOL    HW116028   0.848   2.681   7.408 -3.5694  0.1241 -1.3707
 1523SOL    HW216029   0.796   2.697   7.267  0.7639 -2.0480 -0.0716
 1524SOL     OW16030   2.403   1.874   1.842 -0.1730  0.4320 -0.2188
 1524SOL    HW116031   2.362   1.907   1.762 -0.4907 -1.0834 -0.6862
 1524SOL    HW216032   2.335   1.815   1.874  0.5311 -0.6195 -0.6416
 1525SOL     OW16033   4.016   2.050  17.647  0.1442 -0.2867 -0.1734
 1525SOL    HW116034   4.063   2.032   0.035  1.2081  0.4709 -0.6209
 1525SOL    HW216035   4.087   2.097  17.602 -1.1294  3.2321  1.5936
 1526SOL     OW16036   3.577   0.386   4.458  0.1512  0.2830  0.5458
 1526SOL    HW116037   3.524   0.465   4.449  1.3620  1.1599  1.1338
 1526SOL    HW216038   3.540   0.338   4.532 -1.8819 -0.6476 -1.0664
 1527SOL     OW16039   1.753   1.710   8.931  0.1188  0.0440  0.3793
 1527SOL    HW116040   1.763   1.793   8.978  0.2282  0.2007  0.0786
 1527SOL    HW216041   1.697   1.743   8.860  1.0664  3.1203  1.0781
 1528SOL     OW16042   0.231   2.125   5.891 -0.1523 -0.4788  0.5588
 1528SOL    HW116043   0.185   2.042   5.888 -1.5741  0.3287  0.3038
 1528SOL    HW216044   0.324   2.107   5.907 -0.4196  1.1283  3.9749
 1529SOL     OW16045   4.432   3.452   2.756  0.4290 -0.0436  0.3497
 1529SOL    HW116046   4.486   3.377   2.732  2.8171  1.5719  0.7080
 1529SOL    HW216047   4.346   3.410   2.758  0.2809  0.0668 -3.1645
 1530SOL     OW16048   4.487   4.209   6.891 -0.0343 -0.5983 -0.4142
 1530SOL    HW116049   4.394   4.188   6.896 -0.1234  0.1600  1.0819
 1530SOL    HW216050   4.485   4.279   6.826  2.7890  0.2837  0.4644
 1531SOL     OW16051   3.257   2.511   8.655  0.1096 -0.1001  0.5693
 1531SOL    HW116052   3.190   2.543   8.716  0.7733  0.9758  0.7483
 1531SOL    HW216053   3.240   2.565   8.578 -0.6491 -0.2573  0.6244
 1532SOL     OW16054   1.241   4.664  15.537 -0.0069 -0.2173 -0.2336
 1532SOL    HW116055   1.253   4.700  15.625 -0.8211 -0.9572  0.1781
 1532SOL    HW216056   1.164   4.714  15.512 -0.9984 -2.2974 -1.3659
 1533SOL     OW16057   3.403   3.422   2.742  0.6128  0.2513  0.0888
 1533SOL    HW116058   3.425   3.440   2.834 -0.6466  0.8374  0.2806
 1533SOL    HW216059   3.488   3.433   2.701 -0.2793  1.6982 -1.3820
 1534SOL     OW16060   1.203   4.112   8.064  0.8636 -0.3063  0.1134
 1534SOL    HW116061   1.219   4.063   7.983 -0.7963  0.1170 -0.4641
 1534SOL    HW216062   1.129   4.059   8.092  0.8837 -0.6608 -0.5261
 1535SOL     OW16063   1.474   3.644   4.526  0.4508  0.2697  0.1338
 1535SOL    HW116064   1.407   3.624   4.461 -0.3307 -1.2091  1.4093
 1535SOL    HW216065   1.456   3.599   4.609 -0.2873 -0.4701 -0.4234
 1536SOL     OW16066   3.160   4.618   7.510  0.4038 -0.2366  0.3011
 1536SOL    HW116067   3.099   4.637   7.581 -0.9262 -0.8320 -0.6757
 1536SOL    HW216068   3.205   4.695   7.476  1.1983 -0.6273  0.4819
 1537SOL     OW16069   0.689   1.517  12.244  0.0134 -0.1502  0.2292
 1537SOL    HW116070   0.778   1.483  12.236  0.2716  0.3122  1.1835
 1537SOL    HW216071   0.707   1.581  12.175 -2.7097 -1.6378 -1.8707
 1538SOL     OW16072   0.481   4.659  15.208 -0.2486 -0.0265 -0.4144
 1538SOL    HW116073   0.551   4.602  15.241  0.3912  0.4200 -1.0119
 1538SOL    HW216074   0.447   4.615  15.131  0.3394  0.4510 -0.9449
 1539SOL     OW16075   0.316   0.004   4.454  0.0420 -0.7228 -0.1561
 1539SOL    HW116076   0.370   0.045   4.522 -1.0951 -0.2500  0.4561
 1539SOL    HW216077   0.380   4.695   4.390  0.2378  0.0500 -0.3441
 1540SOL     OW16078   4.189   3.319   2.769 -0.7999  0.1239  0.0323
 1540SOL    HW116079   4.129   3.386   2.801 -0.4715  0.4056  0.0481
 1540SOL    HW216080   4.141   3.237   2.780  0.1043 -0.4588 -0.3271
 1541SOL     OW16081   3.858   4.185   7.282  0.1749 -0.1748  0.4533
 1541SOL    HW116082   3.894   4.100   7.256  0.5859  0.2243 -0.2805
 1541SOL    HW216083   3.936   4.231   7.312  0.5304  0.4115 -1.3867
 1542SOL     OW16084   2.775   1.332   5.804 -0.5597  0.4591 -0.5555
 1542SOL    HW116085   2.827   1.384   5.743 -0.9355  2.0211  0.4417
 1542SOL    HW216086   2.688   1.364   5.778 -1.2589 -0.3048  0.8194
 1543SOL     OW16087   1.225   2.616   7.407  0.1546  0.4563 -0.6189
 1543SOL    HW116088   1.141   2.571   7.401  0.5151 -0.4952  1.6905
 1543SOL    HW216089   1.272   2.539   7.439 -2.5494 -0.4155  1.1995
 1544SOL     OW16090   1.618   4.358   2.545 -0.0334 -0.6176 -0.1035
 1544SOL    HW116091   1.674   4.315   2.481 -1.9663 -0.0425 -2.1709
 1544SOL    HW216092   1.567   4.411   2.484  1.2233 -0.0199 -0.6346
 1545SOL     OW16093   0.528   3.756   9.020  0.0611 -0.0554 -0.2533
 1545SOL    HW116094   0.591   3.808   8.969 -1.0333  1.1421 -0.3756
 1545SOL    HW216095   0.567   3.755   9.108 -0.5085  1.1157  0.0084
 1546SOL     OW16096   1.318   1.327   4.173  0.0431 -0.3361  0.5604
 1546SOL    HW116097   1.374   1.404   4.189  0.3587 -0.3560 -0.4325
 1546SOL    HW216098   1.344   1.274   4.249  0.7035 -0.5745  0.1646
 1547SOL     OW16099   3.756   0.280   6.934 -0.5336 -0.1265  0.5812
 1547SOL    HW116100   3.722   0.349   6.992  0.5889 -0.3674  1.5163
 1547SOL    HW216101   3.796   0.325   6.860  2.1011 -1.8742  0.9627
 1548SOL     OW16102   2.544   2.016   7.761 -0.1652 -0.1095 -0.5981
 1548SOL    HW116103   2.501   2.075   7.700 -1.2278  0.2568  0.4911
 1548SOL    HW216104   2.535   1.931   7.718 -3.9281  0.3389 -0.7157
 1549SOL     OW16105   1.557   3.725  15.935 -0.7268  0.3937  0.1998
 1549SOL    HW116106   1.498   3.778  15.989 -1.8226 -1.2162  0.5799
 1549SOL    HW216107   1.528   3.636  15.955 -2.0213  0.5891 -0.7879
 1550SOL     OW16108   1.154   3.712   5.948  0.1498 -0.2670 -0.4819
 1550SOL    HW116109   1.095   3.677   6.015 -0.5199  1.0295 -0.3756
 1550SOL    HW216110   1.237   3.695   5.992 -1.8855 -1.0127  3.0211
 1551SOL     OW16111   4.176   0.572   9.895 -0.2847 -0.5491  0.8290
 1551SOL    HW116112   4.199   0.656   9.934  0.1289 -0.0306 -0.5295
 1551SOL    HW216113   4.229   0.572   9.815  1.3618  1.5972  1.9177
 1552SOL     OW16114   1.344   1.714  14.829 -0.2719  0.0089  1.2025
 1552SOL    HW116115   1.391   1.630  14.833  1.2561  0.8394  0.7156
 1552SOL    HW216116   1.313   1.716  14.739 -1.3680 -0.3416  1.5749
 1553SOL     OW16117   0.390   3.160   8.773  0.2383 -0.5045 -0.0520
 1553SOL    HW116118   0.298   3.187   8.769  0.2673 -0.3172  0.5048
 1553SOL    HW216119   0.431   3.202   8.849 -0.9200 -0.3639  0.5058
 1554SOL     OW16120   4.071   3.152   7.667 -0.8730  0.2359  0.5716
 1554SOL    HW116121   4.114   3.229   7.703 -0.6121  1.6048 -2.6668
 1554SOL    HW216122   4.033   3.185   7.585  0.9303  0.0298 -0.3339
 1555SOL     OW16123   0.575   3.498   6.825 -0.7019  0.4982  0.0314
 1555SOL    HW116124   0.661   3.459   6.806  0.0722  1.4630  1.5606
 1555SOL    HW216125   0.515   3.472   6.755  0.5929 -1.7206 -0.2754
 1556SOL     OW16126   1.860   2.688   6.742  0.2019 -0.2484 -0.0847
 1556SOL    HW116127   1.908   2.771   6.745  0.3130 -0.2371 -2.2022
 1556SOL    HW216128   1.933   2.628   6.759  1.3006  1.7889  2.3915
 1557SOL     OW16129   4.448   2.047   5.858 -0.1198  0.5877 -0.2299
 1557SOL    HW116130   4.353   2.037   5.860 -0.2631  2.1805  1.5031
 1557SOL    HW216131   4.487   1.961   5.844 -1.1567  0.3394 -1.6075
 1558SOL     OW16132   4.230   1.103   2.252  0.1540 -0.3045 -0.3551
 1558SOL    HW116133   4.152   1.053   2.228  0.1646 -0.5105  0.0357
 1558SOL    HW216134   4.282   1.032   2.289 -0.5286 -1.3358 -1.3548
 1559SOL     OW16135   2.097   2.702  15.246  0.6151 -0.2006  0.1590
 1559SOL    HW116136   2.105   2.662  15.333 -0.9703  0.7315  0.7253
 1559SOL    HW216137   2.059   2.787  15.270  0.1975 -0.9769  2.2341
 1560SOL     OW16138   0.897   3.688   6.210 -0.0781 -0.0998  0.0327
 1560SOL    HW116139   0.915   3.708   6.302 -1.6623 -0.9882  0.5351
 1560SOL    HW216140   0.910   3.767   6.157 -0.4215 -1.3025 -1.8277
 1561SOL     OW16141   3.507   0.502   3.794 -0.1150  0.0327  0.1090
 1561SOL    HW116142   3.462   0.566   3.740  1.2820 -2.2862 -3.8202
 1561SOL    HW216143   3.458   0.501   3.877 -0.2838  1.7742  0.0129
 1562SOL     OW16144   2.088   3.667   8.342  0.3319 -1.0411 -0.7435
 1562SOL    HW116145   2.096   3.572   8.355  2.4572 -0.3170  3.3266
 1562SOL    HW216146   2.130   3.674   8.256  1.2890  1.4048 -0.0626
 1563SOL     OW16147   0.288   0.104   3.401 -0.4885  0.4309  0.0403
 1563SOL    HW116148   0.329   0.061   3.325 -0.0871 -1.3951  1.2915
 1563SOL    HW216149   0.360   0.127   3.459 -0.2537  2.0890 -0.9095
 1564SOL     OW16150   2.341   2.897  10.742 -0.1326  0.2110 -0.0185
 1564SOL    HW116151   2.253   2.877  10.772 -0.5719 -0.8339 -2.0267
 1564SOL    HW216152   2.351   2.988  10.771 -0.7300  0.8299 -1.7330
 1565SOL     OW16153   4.016   2.724   8.841 -0.0158 -0.8468 -0.6153
 1565SOL    HW116154   3.930   2.728   8.883  1.0178  1.3093  1.3094
 1565SOL    HW216155   4.084   2.730   8.908  0.3545 -1.1514 -0.9636
 1566SOL     OW16156   1.640   4.232   3.942  0.3521 -0.1534 -0.3049
 1566SOL    HW116157   1.572   4.178   3.901  0.4861  0.2102 -1.0128
 1566SOL    HW216158   1.696   4.163   3.977  1.5427  0.3287 -1.2600
 1567SOL     OW16159   3.582   2.367   6.855  0.3229  0.6360  0.1003
 1567SOL    HW116160   3.587   2.278   6.820 -3.1080  0.9909 -1.2589
 1567SOL    HW216161   3.656   2.402   6.805 -0.1168  0.7551 -0.4669
 1568SOL     OW16162   4.300   4.499   9.128 -0.2623  0.0379  0.5147
 1568SOL    HW116163   4.390   4.474   9.147  0.8649  1.6424 -2.6668
 1568SOL    HW216164   4.268   4.422   9.082 -1.3550  0.9556 -0.2611
 1569SOL     OW16165   0.002   4.528  11.075 -0.0257 -0.2209 -0.0202
 1569SOL    HW116166   4.632   4.540  11.097  0.2192  1.1755  0.2695
 1569SOL    HW216167   0.028   4.620  11.068  2.6511 -1.0581 -0.8379
 1570SOL     OW16168   3.414   0.085   7.062 -0.5660 -0.0330  0.0365
 1570SOL    HW116169   3.450   0.154   7.117  0.2875 -1.7779  1.6479
 1570SOL    HW216170   3.481   0.074   6.994 -0.7560  1.3932 -0.3884
 1571SOL     OW16171   1.527   4.249   0.728  0.5394  0.4234  0.7864
 1571SOL    HW116172   1.538   4.162   0.766  1.6381 -0.2839 -1.1515
 1571SOL    HW216173   1.568   4.305   0.795  0.2905  0.9719  0.4788
 1572SOL     OW16174   4.579   2.003   2.160 -0.0388  0.6544 -0.4428
 1572SOL    HW116175   4.528   1.936   2.115 -0.5601  1.8319 -1.6075
 1572SOL    HW216176   4.514   2.056   2.206 -1.0585 -2.6004  1.9003
 1573SOL     OW16177   3.347   3.443   3.940 -0.4463  0.5515 -0.5042
 1573SOL    HW116178   3.383   3.507   4.001 -2.5657  1.7503 -0.5006
 1573SOL    HW216179   3.386   3.472   3.857 -1.5466  0.0532 -1.1896
 1574SOL     OW16180   0.785   3.331   6.868 -0.2147  0.0450 -0.3845
 1574SOL    HW116181   0.836   3.258   6.832 -1.7100 -1.2459  0.1184
 1574SOL    HW216182   0.841   3.404   6.843 -2.8603  2.8244  1.7613
 1575SOL     OW16183   3.615   0.534   6.476  0.0633  0.1840  0.6132
 1575SOL    HW116184   3.669   0.583   6.539  1.3027  1.3619 -1.3335
 1575SOL    HW216185   3.652   0.563   6.393  1.8211  1.4095  1.8105
 1576SOL     OW16186   2.120   0.153  14.887 -0.2704 -0.2147 -0.4471
 1576SOL    HW116187   2.086   0.165  14.976 -1.4902  0.2722 -0.9697
 1576SOL    HW216188   2.095   0.061  14.879 -0.8595 -0.0826 -0.1337
 1577SOL     OW16189   2.268   2.948  11.159  0.4306  0.0056 -0.1967
 1577SOL    HW116190   2.175   2.973  11.158 -0.6541 -3.9572  0.1647
 1577SOL    HW216191   2.305   2.979  11.077  0.0308 -2.3257 -1.2777
 1578SOL     OW16192   1.861   3.587  12.100  0.2038 -0.0238  0.0659
 1578SOL    HW116193   1.837   3.506  12.145 -0.7062 -0.1674 -0.6590
 1578SOL    HW216194   1.776   3.625  12.076  0.4920 -0.0126 -0.9487
 1579SOL     OW16195   4.109   4.288   3.545 -0.0276 -0.1771 -0.3094
 1579SOL    HW116196   4.176   4.350   3.575  1.9997 -2.9744  0.9520
 1579SOL    HW216197   4.105   4.301   3.450  0.1284 -0.2293 -0.3223
 1580SOL     OW16198   0.581   3.274   3.762 -0.1338 -0.4320 -0.4483
 1580SOL    HW116199   0.551   3.188   3.790  0.0607  0.1835  1.5979
 1580SOL    HW216200   0.559   3.276   3.668 -3.6484  0.2803  0.3887
 1581SOL     OW16201   3.447   3.659   4.067 -0.2492  0.6585 -0.5229
 1581SOL    HW116202   3.517   3.634   4.006 -1.0480 -2.1872 -0.3130
 1581SOL    HW216203   3.432   3.752   4.052  0.8923  0.7325 -1.2056
 1582SOL     OW16204   1.323   1.956  15.513 -0.5334  0.3170 -0.2141
 1582SOL    HW116205   1.363   2.026  15.565  1.8707 -1.8149  0.7955
 1582SOL    HW216206   1.389   1.940  15.445  0.8876  1.9147  0.7554
 1583SOL     OW16207   2.796   0.309  10.996  0.3642 -0.1472 -0.2661
 1583SOL    HW116208   2.753   0.363  10.931 -0.1702 -1.1669 -0.7564
 1583SOL    HW216209   2.722   0.257  11.026  1.6878 -1.8972 -0.0191
 1584SOL     OW16210   4.350   0.154   8.091 -0.2992 -0.1507 -0.0894
 1584SOL    HW116211   4.361   0.099   8.014 -0.2984  0.4398 -0.5074
 1584SOL    HW216212   4.256   0.170   8.090 -0.3642 -0.5563 -0.6355
 1585SOL     OW16213   4.320   0.789   9.581  0.1897 -0.6088 -0.1696
 1585SOL    HW116214   4.268   0.829   9.650 -1.0182 -0.0913 -1.3815
 1585SOL    HW216215   4.405   0.790   9.626 -0.8478  1.9244  1.7037
 1586SOL     OW16216   1.489   0.206   3.693 -0.1309 -0.7681  0.2915
 1586SOL    HW116217   1.442   0.246   3.620  1.3993  1.2379  0.3985
 1586SOL    HW216218   1.411   0.210   3.749  0.2080 -2.2045  0.8591
 1587SOL     OW16219   1.322   2.775   3.855 -0.0487  0.2399 -0.8336
 1587SOL    HW116220   1.377   2.785   3.778 -0.0936  1.5507 -0.6978
 1587SOL    HW216221   1.346   2.859   3.896  0.3371 -0.1799 -0.1962
 1588SOL     OW16222   4.525   1.879  10.515 -0.5718  0.4828 -0.2751
 1588SOL    HW116223   4.462   1.882  10.587 -1.8263 -0.1216 -1.3304
 1588SOL    HW216224   4.469   1.904  10.441 -1.4406 -0.7988 -0.0440
 1589SOL     OW16225   2.309   2.408   0.995 -0.4215 -0.6827 -0.4894
 1589SOL    HW116226   2.335   2.436   0.907 -2.5898 -0.0573 -0.9248
 1589SOL    HW216227   2.244   2.473   1.020  1.1393  0.8634 -0.4543
 1590SOL     OW16228   4.027   1.083   7.643 -0.5909  0.0770  0.1559
 1590SOL    HW116229   3.941   1.049   7.620 -2.0849  1.8980  3.1445
 1590SOL    HW216230   4.019   1.107   7.735 -0.1682  0.6669  0.0355
 1591SOL     OW16231   3.554   1.815   3.226 -0.6541 -0.0215  0.2614
 1591SOL    HW116232   3.625   1.826   3.162 -0.2309  1.7895  1.0625
 1591SOL    HW216233   3.535   1.721   3.227  2.1460 -0.5728  2.6881
 1592SOL     OW16234   3.731   4.141  13.768  0.8083 -0.1762  0.6799
 1592SOL    HW116235   3.719   4.052  13.799  2.2522 -0.2439  1.0602
 1592SOL    HW216236   3.702   4.131  13.677  0.3632  1.5512  0.6269
 1593SOL     OW16237   3.452   2.558   2.727  0.6116  0.1781 -0.5865
 1593SOL    HW116238   3.394   2.578   2.654 -2.1987 -0.7824  1.3978
 1593SOL    HW216239   3.521   2.620   2.702  1.5582 -1.1198 -1.2020
 1594SOL     OW16240   3.359   4.314   4.430 -0.7242  0.4934  0.2988
 1594SOL    HW116241   3.434   4.278   4.478 -1.3736 -0.1547  0.8196
 1594SOL    HW216242   3.343   4.382   4.495  0.5505  1.9679 -0.9024
 1595SOL     OW16243   3.719   2.216   4.521  0.7760 -0.3426  0.5768
 1595SOL    HW116244   3.630   2.244   4.543  1.2685  1.3598  0.4164
 1595SOL    HW216245   3.754   2.233   4.608  1.9640  0.9286 -0.1372
 1596SOL     OW16246   3.284   1.583   7.303  0.3262  0.5020 -0.0439
 1596SOL    HW116247   3.372   1.584   7.342 -0.6732  0.2114  2.2555
 1596SOL    HW216248   3.270   1.677   7.312 -2.2323  0.0913  0.2933
 1597SOL     OW16249   4.206   3.109  16.185  0.1840  0.0903 -0.2322
 1597SOL    HW116250   4.237   3.142  16.100 -0.0651 -0.7444 -0.6455
 1597SOL    HW216251   4.111   3.108  16.176 -0.0180  1.6637  1.6545
 1598SOL     OW16252   0.696   2.196  10.162 -0.1813  0.1771 -0.0127
 1598SOL    HW116253   0.609   2.161  10.180  0.0630 -1.1529 -1.4281
 1598SOL    HW216254   0.697   2.216  10.069  2.8126  4.2995  0.9220
 1599SOL     OW16255   0.200   2.449   0.017 -0.2562 -0.6346 -0.1605
 1599SOL    HW116256   0.250   2.409  17.638  1.0243 -0.6344  0.7233
 1599SOL    HW216257   0.182   2.364   0.057  1.2753 -0.8256  0.1362
 1600SOL     OW16258   2.073   1.823   2.153 -0.4083 -0.4145 -0.1358
 1600SOL    HW116259   1.982   1.807   2.178 -0.1100 -1.6027  0.2052
 1600SOL    HW216260   2.096   1.759   2.085 -1.6754  0.4347 -1.3605
 1601SOL     OW16261   1.486   0.468  13.101  0.0773  0.0052  0.6131
 1601SOL    HW116262   1.420   0.507  13.044  1.5137  1.8669  0.2065
 1601SOL    HW216263   1.452   0.381  13.119 -2.3890  1.1364  1.3570
 1602SOL     OW16264   2.880   2.912   9.723 -0.4086 -0.5091 -0.2405
 1602SOL    HW116265   2.970   2.944   9.730 -0.6956 -0.1830  1.8272
 1602SOL    HW216266   2.904   2.835   9.671 -0.4392 -0.3235 -0.5263
 1603SOL     OW16267   4.326   2.796   6.029  0.1130 -0.8108 -0.5673
 1603SOL    HW116268   4.269   2.862   5.989  0.4877  1.1931  2.1417
 1603SOL    HW216269   4.413   2.828   6.002 -0.6664  2.1833  0.3719
 1604SOL     OW16270   0.673   0.659   4.291 -0.7896 -0.4228 -0.3369
 1604SOL    HW116271   0.598   0.698   4.245 -1.2428 -1.1362 -0.2090
 1604SOL    HW216272   0.743   0.700   4.242  1.4750 -0.9820  2.4473
 1605SOL     OW16273   0.655   2.638   6.944  0.2031  0.1118 -0.3555
 1605SOL    HW116274   0.750   2.620   6.942 -0.0763 -1.5770  0.7767
 1605SOL    HW216275   0.620   2.585   7.016 -1.0300 -0.2953 -1.2644
 1606SOL     OW16276   0.827   3.496   0.377 -0.1118 -0.1261 -0.3974
 1606SOL    HW116277   0.826   3.475   0.284 -1.5221 -1.2823 -0.1134
 1606SOL    HW216278   0.916   3.533   0.380 -0.4532  0.8319 -1.9856
 1607SOL     OW16279   4.574   0.728   6.570  0.5160 -0.2443  0.1843
 1607SOL    HW116280   4.630   0.722   6.647 -0.2994 -0.8703  0.7199
 1607SOL    HW216281   4.490   0.698   6.604 -0.0784 -1.4954 -2.3830
 1608SOL     OW16282   3.099   0.060  14.437 -0.0942 -0.4525  0.0065
 1608SOL    HW116283   3.081   0.074  14.530 -4.4077 -0.1881 -0.9080
 1608SOL    HW216284   3.140   0.142  14.408  0.6685 -0.9723 -0.3823
 1609SOL     OW16285   3.154   0.671  14.704 -0.5849 -0.4969  0.1376
 1609SOL    HW116286   3.068   0.707  14.724 -0.0990  0.1629  1.0124
 1609SOL    HW216287   3.175   0.738  14.639 -2.5025  0.3847  0.4491
 1610SOL     OW16288   4.280   2.656  10.635  0.2656  0.8035  0.4616
 1610SOL    HW116289   4.355   2.618  10.680  0.3405  1.2049  0.6741
 1610SOL    HW216290   4.308   2.654  10.543 -1.8271  0.3068 -0.1544
 1611SOL     OW16291   3.282   1.805  12.955  0.2699  0.6755 -0.2946
 1611SOL    HW116292   3.210   1.742  12.951  0.3605  0.6334 -1.3186
 1611SOL    HW216293   3.241   1.879  13.000 -0.9159  0.4863 -1.0602
 1612SOL     OW16294   2.556   2.316   4.363  0.3484 -0.7580 -0.4965
 1612SOL    HW116295   2.651   2.312   4.361  0.2344 -3.0810 -1.2765
 1612SOL    HW216296   2.538   2.245   4.426  1.0820  0.4356  1.0392
 1613SOL     OW16297   3.325   2.659   8.272  0.2480  0.8964  0.9976
 1613SOL    HW116298   3.298   2.682   8.183  1.8406  2.4677  0.9311
 1613SOL    HW216299   3.269   2.583   8.289  0.8658  0.3750  0.6913
 1614SOL     OW16300   2.993   3.200   2.613 -0.0243  0.4252  0.4317
 1614SOL    HW116301   3.087   3.202   2.629 -0.0973 -0.7542  0.9655
 1614SOL    HW216302   2.959   3.231   2.698  0.2521 -0.0143  0.6998
 1615SOL     OW16303   2.413   4.478   8.816  0.2391  0.4713 -0.0224
 1615SOL    HW116304   2.429   4.551   8.756 -0.2459  2.2043  1.9442
 1615SOL    HW216305   2.381   4.410   8.757 -0.6880  2.5029 -1.8681
 1616SOL     OW16306   4.396   3.792   3.188 -0.2862  0.3534  0.1576
 1616SOL    HW116307   4.392   3.751   3.102 -0.8073 -0.4761  0.5667
 1616SOL    HW216308   4.315   3.843   3.190  1.1254  2.6170 -0.2310
 1617SOL     OW16309   1.056   4.648   2.118  0.1702 -0.2620  0.5252
 1617SOL    HW116310   1.143   4.629   2.083 -0.0659  2.7509 -1.6652
 1617SOL    HW216311   1.062   4.613   2.207 -0.2807  0.9097  1.0229
 1618SOL     OW16312   0.713   2.901  14.065  0.5010 -0.0854 -0.1368
 1618SOL    HW116313   0.656   2.828  14.090 -0.4478  0.7669  0.1928
 1618SOL    HW216314   0.799   2.860  14.072  0.8824  0.6622 -0.5027
 1619SOL     OW16315   2.160   3.628  14.476  0.5482 -0.0878 -1.1083
 1619SOL    HW116316   2.156   3.720  14.502  1.5537 -0.4811  0.4238
 1619SOL    HW216317   2.195   3.641  14.388 -0.2720  1.4941 -1.2034
 1620SOL     OW16318   3.073   2.012   6.600  0.1115 -0.0419  0.0406
 1620SOL    HW116319   2.988   2.045   6.629  0.4861  0.0112  1.0570
 1620SOL    HW216320   3.058   1.917   6.602  1.2804 -0.1555  2.7748
 1621SOL     OW16321   1.823   1.551   7.207  0.3603 -0.2232  0.4315
 1621SOL    HW116322   1.890   1.565   7.274 -0.9447 -0.9249  1.8731
 1621SOL    HW216323   1.863   1.588   7.128  2.9185  0.0133  1.8199
 1622SOL     OW16324   1.332   2.185   5.759 -0.0624 -0.2165  0.1191
 1622SOL    HW116325   1.267   2.251   5.783 -0.0340 -0.4175  0.7333
 1622SOL    HW216326   1.401   2.207   5.821  0.2424 -3.4343  0.8976
 1623SOL     OW16327   4.659   3.935   4.911 -0.4555  0.0081 -0.7496
 1623SOL    HW116328   4.716   3.861   4.931  1.9345  1.4689 -2.1981
 1623SOL    HW216329   0.001   3.993   4.870 -0.2457  0.5629  0.3539
 1624SOL     OW16330   1.177   0.506   7.347 -0.1078 -0.2696  0.2686
 1624SOL    HW116331   1.249   0.477   7.291 -0.7840 -1.2183 -0.1053
 1624SOL    HW216332   1.217   0.491   7.433  0.9503  2.9962  0.3373
 1625SOL     OW16333   2.256   3.651   2.199  0.0187  0.0455 -0.3697
 1625SOL    HW116334   2.329   3.694   2.244 -0.2709 -1.3503  1.4228
 1625SOL    HW216335   2.302   3.637   2.117  0.4587 -1.4027  0.1219
 1626SOL     OW16336   1.212   1.717  14.564 -0.3672  0.0464  0.3938
 1626SOL    HW116337   1.254   1.731  14.479 -3.4597  0.4741 -1.0882
 1626SOL    HW216338   1.144   1.784  14.556  0.2545  0.8472  1.7407
 1627SOL     OW16339   4.394   0.747  13.721  0.0458 -0.5705 -0.0470
 1627SOL    HW116340   4.412   0.657  13.694 -0.5506 -0.4906 -0.7000
 1627SOL    HW216341   4.391   0.747  13.817  0.2923 -1.6069 -0.0428
 1628SOL     OW16342   0.014   4.121   2.821 -0.4490  0.1478  0.0348
 1628SOL    HW116343   0.069   4.167   2.885 -0.3171  0.2805 -0.1705
 1628SOL    HW216344   4.654   4.168   2.818  0.2056  1.3171  0.2343
 1629SOL     OW16345   4.663   1.356  11.006  0.7951  0.1747  0.2321
 1629SOL    HW116346   4.670   1.430  10.946 -1.4854 -1.0787 -1.5859
 1629SOL    HW216347   0.029   1.321  11.011  0.2570 -1.4407 -1.6472
 1630SOL     OW16348   4.618   3.236   2.737 -0.0029  0.2474  0.0504
 1630SOL    HW116349   4.713   3.246   2.737  0.0413 -0.1809 -0.4952
 1630SOL    HW216350   4.608   3.141   2.742  1.4745 -0.0060 -2.0863
 1631SOL     OW16351   3.624   4.259   3.195  0.4513  0.6937 -0.1814
 1631SOL    HW116352   3.550   4.235   3.250 -0.5953 -0.4517 -2.0969
 1631SOL    HW216353   3.674   4.177   3.191 -1.5286 -0.4948 -0.2136
 1632SOL     OW16354   3.054   2.383   0.173 -0.0344  0.2764 -0.0525
 1632SOL    HW116355   3.024   2.309   0.225 -1.0807  2.4471  2.4157
 1632SOL    HW216356   3.089   2.447   0.235  2.7776  2.3245 -3.7770
 1633SOL     OW16357   4.593   0.353   9.793  0.2203  0.1505 -0.2098
 1633SOL    HW116358   4.502   0.370   9.768  0.1736 -0.1883 -0.2704
 1633SOL    HW216359   4.636   0.435   9.768 -1.7738 -0.1894 -4.6740
 1634SOL     OW16360   3.410   0.181  13.354  0.3435 -0.6484  0.2632
 1634SOL    HW116361   3.471   0.207  13.423  1.4645 -0.6016 -0.7337
 1634SOL    HW216362   3.347   0.138  13.412 -0.4559  0.9667  0.5800
 1635SOL     OW16363   3.422   1.950   4.311 -0.0169  0.4048  0.1064
 1635SOL    HW116364   3.506   1.995   4.299  0.7388 -0.3767  2.3948
 1635SOL    HW216365   3.366   2.021   4.340 -0.1246  0.6969 -0.8044
 1636SOL     OW16366   0.225   2.948  11.486 -0.2460 -0.0260  0.1634
 1636SOL    HW116367   0.234   3.036  11.450  0.7040  0.1350  0.7988
 1636SOL    HW216368   0.250   2.960  11.577  0.8445  0.5120 -0.2111
 1637SOL     OW16369   0.896   3.187  17.480  0.4132  0.4826 -0.1731
 1637SOL    HW116370   0.815   3.195  17.429  0.5625 -1.0163 -0.6461
 1637SOL    HW216371   0.877   3.238  17.558 -1.0540  0.6717 -0.6522
 1638SOL     OW16372   1.477   2.602  13.454  0.2837 -0.9469 -0.4578
 1638SOL    HW116373   1.431   2.571  13.377  1.5799  0.2904 -1.7329
 1638SOL    HW216374   1.406   2.628  13.513  0.0791 -0.6492 -0.8368
 1639SOL     OW16375   0.174   4.208   1.997  0.6150 -0.2109 -0.4702
 1639SOL    HW116376   0.255   4.182   1.953 -1.2405 -0.0396 -4.0059
 1639SOL    HW216377   0.145   4.132   2.048 -1.6018 -0.0189 -1.4251
 1640SOL     OW16378   0.136   0.579   5.289  0.3845 -0.1588  0.1308
 1640SOL    HW116379   0.156   0.594   5.196 -3.7671  3.5375 -0.1614
 1640SOL    HW216380   0.183   0.656   5.322  0.4809 -0.4050  0.5562
 1641SOL     OW16381   0.320   0.178   9.115  0.1858 -0.7022  0.1298
 1641SOL    HW116382   0.235   0.137   9.134 -0.2023  0.5084  1.0596
 1641SOL    HW216383   0.332   0.172   9.021 -0.3971  0.0040  0.0153
 1642SOL     OW16384   1.032   1.437   1.555 -0.1166  0.3855  0.1362
 1642SOL    HW116385   0.996   1.382   1.486 -1.7424  1.5539  0.0575
 1642SOL    HW216386   0.965   1.418   1.621 -1.0929  2.2446 -0.3349
 1643SOL     OW16387   3.575   3.728   6.491 -0.1588  0.5328 -0.1912
 1643SOL    HW116388   3.554   3.668   6.419  2.6230  1.2390 -1.5888
 1643SOL    HW216389   3.630   3.792   6.446  0.8571  0.8670  1.5389
 1644SOL     OW16390   2.403   2.421  12.124  0.5362 -0.1227  0.0271
 1644SOL    HW116391   2.492   2.415  12.088  1.0570  0.7235  1.1566
 1644SOL    HW216392   2.392   2.334  12.161  1.3119 -0.8570 -1.4987
 1645SOL     OW16393   4.391   1.709  10.124 -0.1898  0.2899 -0.3604
 1645SOL    HW116394   4.305   1.724  10.084 -0.2239  1.3550  0.1125
 1645SOL    HW216395   4.443   1.690  10.046 -1.6388  2.4243 -1.8393
 1646SOL     OW16396   1.453   0.871  14.571 -0.1043 -0.2699 -0.0463
 1646SOL    HW116397   1.456   0.784  14.611  1.8591  1.5251  3.6498
 1646SOL    HW216398   1.460   0.929  14.646 -1.9714 -1.1086  0.7857
 1647SOL     OW16399   0.342   0.979   1.021 -0.3278  0.2841 -0.1948
 1647SOL    HW116400   0.373   0.900   0.977  1.8571 -0.2917  2.3787
 1647SOL    HW216401   0.251   0.956   1.038  0.0521 -1.2049 -0.2186
 1648SOL     OW16402   1.275   0.309   6.674  0.5885 -0.5489 -0.0589
 1648SOL    HW116403   1.302   0.314   6.582 -0.4965  1.1845 -0.2729
 1648SOL    HW216404   1.363   0.308   6.711  0.4420  1.7109  0.3336
 1649SOL     OW16405   4.701   0.892   2.381  0.0532  0.0536  0.0074
 1649SOL    HW116406   4.718   0.901   2.287 -2.4691 -0.9449 -0.5376
 1649SOL    HW216407   4.684   0.798   2.379  4.0736 -0.6220 -1.8815
 1650SOL     OW16408   2.610   2.635   5.796 -0.1700  0.0819  0.1687
 1650SOL    HW116409   2.529   2.583   5.798  1.1587 -2.0318 -1.3038
 1650SOL    HW216410   2.661   2.578   5.738 -0.5617 -0.7554  0.6317
 1651SOL     OW16411   2.533   0.489   2.009  0.3270  0.0878 -0.2551
 1651SOL    HW116412   2.492   0.420   1.957  2.8719 -2.0844  0.6004
 1651SOL    HW216413   2.614   0.441   2.026 -0.7542 -1.4374  0.5424
 1652SOL     OW16414   0.329   2.959  17.106 -0.5067 -0.3711  0.0385
 1652SOL    HW116415   0.242   2.996  17.094 -1.5362 -2.9013 -0.3841
 1652SOL    HW216416   0.340   2.999  17.192  1.0466  0.9406 -0.7700
 1653SOL     OW16417   0.946   3.638   1.927  0.3782  0.5741 -0.2388
 1653SOL    HW116418   0.900   3.584   1.863 -0.8398  1.4519 -0.1294
 1653SOL    HW216419   0.932   3.580   2.001  2.6147 -0.0337 -0.2952
 1654SOL     OW16420   0.901   4.019   7.809 -0.2681  0.1332  0.0274
 1654SOL    HW116421   0.878   3.949   7.748  1.1562  1.3853 -1.9613
 1654SOL    HW216422   0.979   3.974   7.841 -1.0605  0.1517  2.0109
 1655SOL     OW16423   3.900   0.365   2.010  0.5307 -0.0159 -0.6020
 1655SOL    HW116424   3.949   0.311   1.948  0.7526  0.3077 -0.7084
 1655SOL    HW216425   3.895   0.440   1.951  0.3981  0.2896 -0.1966
 1656SOL     OW16426   2.042   4.706   8.340 -0.2651 -0.5233 -0.6153
 1656SOL    HW116427   2.076   4.643   8.403 -1.3630  1.2385  1.7357
 1656SOL    HW216428   1.958   0.013   8.375  0.4789  1.7756 -0.7511
 1657SOL     OW16429   4.173   1.110   3.480 -0.2585 -0.1823 -0.2364
 1657SOL    HW116430   4.121   1.105   3.400 -1.5407  0.4696  0.5603
 1657SOL    HW216431   4.141   1.197   3.505  0.9381  0.6967 -1.7950
 1658SOL     OW16432   3.052   3.149  13.541  0.0734 -0.0757  0.2700
 1658SOL    HW116433   2.971   3.145  13.491  0.5444 -1.3583 -0.3919
 1658SOL    HW216434   3.098   3.071  13.510  1.0373  0.6116 -0.0279
 1659SOL     OW16435   0.078   3.598   7.006 -0.3430  0.1079  0.2105
 1659SOL    HW116436   0.166   3.628   7.031 -0.3087  0.3808 -0.2355
 1659SOL    HW216437   0.074   3.608   6.911  0.3071 -0.2936  0.1403
 1660SOL     OW16438   1.395   4.361  17.402  0.0338  0.1997 -0.3499
 1660SOL    HW116439   1.425   4.452  17.409  0.8967 -0.1532  0.6035
 1660SOL    HW216440   1.469   4.322  17.354 -1.6354 -0.1525 -2.6112
 1661SOL     OW16441   1.280   4.365   1.587  0.3188  0.1243 -0.3968
 1661SOL    HW116442   1.305   4.372   1.679  0.4457  0.9162 -0.4908
 1661SOL    HW216443   1.224   4.288   1.584 -0.5699  0.6821  1.4581
 1662SOL     OW16444   1.695   2.412   7.400  0.3163 -0.0511  0.2086
 1662SOL    HW116445   1.621   2.434   7.457  1.4491  1.3685  1.1231
 1662SOL    HW216446   1.677   2.457   7.318 -0.3962 -0.7349 -0.0138
 1663SOL     OW16447   2.810   4.269   7.724  0.7952 -0.3411 -0.0808
 1663SOL    HW116448   2.766   4.284   7.808 -1.2636 -1.7342 -0.9120
 1663SOL    HW216449   2.829   4.362   7.711 -1.7047 -0.1232 -2.3299
 1664SOL     OW16450   2.183   1.975  16.367 -0.1134  0.5910  0.0306
 1664SOL    HW116451   2.178   2.029  16.288 -0.6184  0.3556 -0.0987
 1664SOL    HW216452   2.169   2.041  16.435  1.5672  1.6432 -0.6379
 1665SOL     OW16453   3.687   2.216  10.965 -0.9376 -0.3221 -0.2367
 1665SOL    HW116454   3.684   2.262  11.049 -0.8526 -0.9040  0.0875
 1665SOL    HW216455   3.694   2.126  10.996  0.8288  0.6713  2.2428
 1666SOL     OW16456   4.513   0.468  15.733  0.3815  0.2766 -0.4559
 1666SOL    HW116457   4.591   0.463  15.789  0.6702 -0.6084 -0.9312
 1666SOL    HW216458   4.453   0.415  15.785  1.7959 -1.7995 -0.9325
 1667SOL     OW16459   1.816   4.339   5.719  0.6287  0.5542 -0.1549
 1667SOL    HW116460   1.909   4.326   5.741  0.2042  1.1491  1.9287
 1667SOL    HW216461   1.775   4.273   5.774  0.3522  2.7901  2.3301
 1668SOL     OW16462   1.032   2.824   5.046  0.0293 -0.6394 -0.3701
 1668SOL    HW116463   1.068   2.826   4.957 -0.3615 -0.5353 -0.5245
 1668SOL    HW216464   0.948   2.783   5.027  0.1186  0.2709 -2.7525
 1669SOL     OW16465   1.062   3.572   3.485  0.1289  0.3111 -0.5974
 1669SOL    HW116466   1.049   3.478   3.472 -1.1133  0.2330  1.1636
 1669SOL    HW216467   1.141   3.565   3.540 -0.0633  1.0380 -0.2263
 1670SOL     OW16468   4.673   0.750  13.952 -1.0278  0.2137 -0.3806
 1670SOL    HW116469   4.594   0.729  13.903 -0.3358 -0.9711 -0.9763
 1670SOL    HW216470   4.654   0.842  13.971 -0.5781  0.1285  0.4645
 1671SOL     OW16471   3.870   3.511   2.348  0.1909  0.5225 -0.2521
 1671SOL    HW116472   3.868   3.499   2.253 -0.3787 -2.4729  0.1587
 1671SOL    HW216473   3.870   3.423   2.386  1.8072  2.1033  3.4355
 1672SOL     OW16474   1.556   0.555  12.699 -0.0517  0.0817 -0.1546
 1672SOL    HW116475   1.598   0.596  12.623 -0.0704  0.4514  0.0351
 1672SOL    HW216476   1.537   0.634  12.748  0.4167 -0.1505  0.4030
 1673SOL     OW16477   3.141   3.702  11.656  0.8208  0.2770 -0.7927
 1673SOL    HW116478   3.131   3.639  11.585 -1.2281  0.9712 -1.1042
 1673SOL    HW216479   3.236   3.696  11.664  0.6563  1.9306  2.6699
 1674SOL     OW16480   3.531   4.316   2.935 -0.0426  0.1045 -0.0778
 1674SOL    HW116481   3.549   4.313   3.029  1.0061  0.2257 -0.2772
 1674SOL    HW216482   3.463   4.249   2.925  1.6825 -1.7710  0.6212
 1675SOL     OW16483   1.786   4.313   3.711 -0.3837 -0.0925  0.2119
 1675SOL    HW116484   1.753   4.265   3.786 -0.3077  1.4496  1.2440
 1675SOL    HW216485   1.833   4.379   3.764  0.3114 -0.9573  0.6673
 1676SOL     OW16486   3.771   0.980   7.811  0.0076  0.1723  0.0118
 1676SOL    HW116487   3.775   0.938   7.897  0.1152  1.9037  0.8492
 1676SOL    HW216488   3.810   0.912   7.757 -1.5441  1.9965 -3.4185
 1677SOL     OW16489   1.690   0.124   1.028 -0.4286  0.5154 -0.5722
 1677SOL    HW116490   1.750   0.159   0.962  0.1924 -1.0472 -0.8341
 1677SOL    HW216491   1.709   0.177   1.105 -0.4957 -0.7462  0.3150
 1678SOL     OW16492   4.504   2.056   5.257  0.2343 -0.2881  0.4602
 1678SOL    HW116493   4.556   2.090   5.330 -1.8997  2.4002  0.7250
 1678SOL    HW216494   4.428   2.016   5.299 -0.9088 -0.0221 -1.3712
 1679SOL     OW16495   1.848   0.608   4.313  0.6972 -0.6233  0.2833
 1679SOL    HW116496   1.793   0.681   4.341  0.5376 -0.5563 -0.2015
 1679SOL    HW216497   1.929   0.635   4.355 -0.1406  0.3301  1.2811
 1680SOL     OW16498   3.666   1.477   2.924  0.1690 -0.2077 -0.0755
 1680SOL    HW116499   3.629   1.561   2.954 -1.2617 -1.4367  1.5898
 1680SOL    HW216500   3.595   1.418   2.945  3.0998 -3.0877  1.7921
 1681SOL     OW16501   4.461   4.046   7.597  0.2190 -0.5964  0.0219
 1681SOL    HW116502   4.425   4.041   7.685 -2.3680 -1.2111 -1.0610
 1681SOL    HW216503   4.375   4.040   7.553 -0.0473 -0.2123  0.4947
 1682SOL     OW16504   0.379   2.478  13.398 -0.1160  0.6044  0.3127
 1682SOL    HW116505   0.287   2.503  13.406 -0.4046 -0.9463  1.7221
 1682SOL    HW216506   0.407   2.562  13.362  0.9115  0.4829  0.8492
 1683SOL     OW16507   3.917   2.799   8.130 -0.2449 -0.1673  0.2119
 1683SOL    HW116508   3.946   2.777   8.218  0.1886  0.6248  0.2684
 1683SOL    HW216509   3.904   2.894   8.130  0.9067 -0.0005 -0.7677
 1684SOL     OW16510   2.706   3.482   2.689 -0.1852  0.2999 -0.4248
 1684SOL    HW116511   2.800   3.497   2.703 -0.4011  2.4288 -1.2965
 1684SOL    HW216512   2.702   3.393   2.726  0.9458  0.9665  1.3079
 1685SOL     OW16513   4.340   0.330  12.049  0.2580  0.1503 -0.4091
 1685SOL    HW116514   4.268   0.378  12.091  0.4951 -0.3631  0.6050
 1685SOL    HW216515   4.407   0.395  12.068 -2.0972  2.0400  1.4736
 1686SOL     OW16516   0.491   4.166   3.404  0.0598  0.7423 -0.0392
 1686SOL    HW116517   0.437   4.143   3.480  0.1757  0.8103  0.0641
 1686SOL    HW216518   0.523   4.251   3.435 -0.2734  0.8794 -0.0721
 1687SOL     OW16519   4.304   4.659   5.911  0.1181 -0.0030 -0.8360
 1687SOL    HW116520   4.348   4.632   5.991  3.0065  2.8781 -1.4172
 1687SOL    HW216521   4.367   4.626   5.846  0.8676 -0.6254  0.2011
 1688SOL     OW16522   3.773   2.266   5.436 -0.6965 -0.5275  0.2790
 1688SOL    HW116523   3.786   2.308   5.351 -0.5254 -0.9441  0.0967
 1688SOL    HW216524   3.853   2.287   5.484  1.1940 -0.7491 -2.7731
 1689SOL     OW16525   1.980   3.035   6.624 -0.3228  0.4583  0.5978
 1689SOL    HW116526   2.051   2.978   6.596 -0.0703  0.5191  1.1199
 1689SOL    HW216527   2.017   3.123   6.612  0.4508  0.0694  0.1043
 1690SOL     OW16528   1.115   4.137   7.614 -0.0192  0.2169 -0.0953
 1690SOL    HW116529   1.113   4.079   7.691 -0.3783  1.2666  0.6777
 1690SOL    HW216530   1.207   4.125   7.589 -0.2218 -1.0634 -0.2434
 1691SOL     OW16531   0.811   0.510   8.051 -0.4132  0.2353  0.1131
 1691SOL    HW116532   0.808   0.415   8.043  2.4474  0.1573  0.2241
 1691SOL    HW216533   0.788   0.527   7.960  0.2406  1.5867  0.2008
 1692SOL     OW16534   0.634   2.934   4.853 -0.0266  0.1402  0.6549
 1692SOL    HW116535   0.693   2.925   4.778  0.5764  3.9608  0.6874
 1692SOL    HW216536   0.569   2.983   4.803  0.9721 -1.7740 -2.5166
 1693SOL     OW16537   3.648   0.897   1.375 -0.2953 -0.2847 -0.2957
 1693SOL    HW116538   3.579   0.915   1.439 -3.3930  1.0054 -4.0411
 1693SOL    HW216539   3.709   0.841   1.425 -0.3752  0.3580  0.5119
 1694SOL     OW16540   1.261   3.074   3.757 -0.8676  0.0901 -0.1263
 1694SOL    HW116541   1.326   3.007   3.739  0.0357  0.3638  2.0974
 1694SOL    HW216542   1.253   3.107   3.668  0.8359 -1.7229 -0.9428
 1695SOL     OW16543   3.890   1.211   3.993 -0.2646 -0.1082 -0.2438
 1695SOL    HW116544   3.843   1.253   4.066 -0.6754 -0.0660 -0.5304
 1695SOL    HW216545   3.867   1.272   3.923  1.7285  0.3122 -0.5371
 1696SOL     OW16546   0.374   3.153   6.510 -0.3915 -0.0282 -0.1473
 1696SOL    HW116547   0.295   3.109   6.543 -1.8194  2.4851 -0.1445
 1696SOL    HW216548   0.436   3.131   6.580 -1.7651 -0.2171  1.0221
 1697SOL     OW16549   2.089   1.466   8.370 -0.1120  0.3180  0.2677
 1697SOL    HW116550   2.180   1.441   8.351 -0.6375 -1.3042 -0.1569
 1697SOL    HW216551   2.066   1.395   8.430 -0.3971  0.9633  0.9137
 1698SOL     OW16552   0.188   1.156  10.617 -0.0005  0.1542  0.0708
 1698SOL    HW116553   0.204   1.064  10.638  0.0997 -0.1592 -1.3760
 1698SOL    HW216554   0.279   1.176  10.596  0.2903 -1.1675  0.0603
 1699SOL     OW16555   4.138   2.417   6.786 -0.2192  0.0391 -0.6640
 1699SOL    HW116556   4.192   2.474   6.732  0.8487  0.5110  0.8787
 1699SOL    HW216557   4.202   2.350   6.808  1.3577  1.2643 -1.5330
 1700SOL     OW16558   1.324   2.104   0.082  0.1548  0.3529 -0.1307
 1700SOL    HW116559   1.251   2.055   0.044  0.9395  1.1606 -2.6743
 1700SOL    HW216560   1.402   2.101   0.026 -0.3150 -1.5640 -0.6944
 1701SOL     OW16561   3.000   3.610  16.651 -0.0146 -0.6442  0.1176
 1701SOL    HW116562   3.026   3.652  16.733  1.6711  1.4929 -1.5246
 1701SOL    HW216563   3.078   3.570  16.612  0.5010  0.0001  0.4865
 1702SOL     OW16564   2.542   3.489   6.393 -0.2100  0.3291 -0.6616
 1702SOL    HW116565   2.496   3.525   6.317 -2.8992  0.6320  1.1073
 1702SOL    HW216566   2.499   3.530   6.468 -1.5492  0.8539 -1.7073
 1703SOL     OW16567   0.686   3.849  16.062 -0.2273  0.3069 -0.0355
 1703SOL    HW116568   0.682   3.923  16.001 -1.6289  0.3150  0.0573
 1703SOL    HW216569   0.764   3.865  16.115 -0.9049 -1.0589  1.3784
 1704SOL     OW16570   0.267   0.644   2.523 -0.0762 -0.5718  0.1392
 1704SOL    HW116571   0.218   0.582   2.577 -0.9784  0.0717  0.0576
 1704SOL    HW216572   0.208   0.655   2.449  0.1639 -0.1478  0.0102
 1705SOL     OW16573   0.343   2.386   3.172  0.1723 -0.0218  0.2189
 1705SOL    HW116574   0.291   2.353   3.246 -0.8014  1.3190  0.1378
 1705SOL    HW216575   0.302   2.472   3.162  0.3748 -0.3072 -2.8541
 1706SOL     OW16576   4.537   4.576   3.854 -0.3826 -1.0540  0.1979
 1706SOL    HW116577   4.558   4.563   3.946  3.8221 -0.0520 -0.6297
 1706SOL    HW216578   4.589   4.505   3.817 -1.2479 -0.8104 -1.4943
 1707SOL     OW16579   2.845   1.926   5.672  0.6560 -0.0542 -0.2937
 1707SOL    HW116580   2.788   1.849   5.674  2.9119 -1.6954  1.3980
 1707SOL    HW216581   2.906   1.906   5.602  1.3785  1.4611 -0.0821
 1708SOL     OW16582   1.480   2.018  17.140 -0.2081  0.4910 -0.6752
 1708SOL    HW116583   1.560   2.027  17.089  0.4619 -1.5562  0.0064
 1708SOL    HW216584   1.465   1.923  17.132  0.0048  0.4160 -0.1684
 1709SOL     OW16585   0.603   0.362  12.016  0.8695  0.0710 -0.2356
 1709SOL    HW116586   0.514   0.354  11.982  1.1447  3.7161 -1.8058
 1709SOL    HW216587   0.645   0.373  11.931 -1.2170  0.1011 -1.2770
 1710SOL     OW16588   2.282   3.207   2.054  0.2507  0.1714 -0.2478
 1710SOL    HW116589   2.254   3.123   2.017 -0.4151  0.9023 -1.3979
 1710SOL    HW216590   2.377   3.195   2.051  0.1499 -0.6000 -0.3506
 1711SOL     OW16591   4.052   0.865   6.426 -0.2259 -0.4119 -0.1923
 1711SOL    HW116592   4.084   0.811   6.498  2.1911 -0.1817 -1.0811
 1711SOL    HW216593   4.042   0.951   6.467  1.4056 -0.1116 -0.4358
 1712SOL     OW16594   3.081   4.419   3.581  0.0316  0.2853  0.1312
 1712SOL    HW116595   3.070   4.326   3.601  0.1406  0.2812  0.1754
 1712SOL    HW216596   3.170   4.415   3.546  0.1504  1.3266  0.3323
 1713SOL     OW16597   0.750   1.439   5.547 -0.7269 -0.3451  0.0291
 1713SOL    HW116598   0.831   1.387   5.547 -1.5753 -1.6846  1.7439
 1713SOL    HW216599   0.680   1.376   5.532 -0.6153 -0.2235 -0.9851
 1714SOL     OW16600   2.979   3.104   4.206  0.2572  0.2141  0.0299
 1714SOL    HW116601   2.915   3.175   4.202 -0.8835 -0.6760  2.9655
 1714SOL    HW216602   2.942   3.050   4.135  1.2314  1.1681 -1.2106
 1715SOL     OW16603   2.718   3.254   7.325 -0.1035  0.1145  0.4128
 1715SOL    HW116604   2.684   3.340   7.301  0.1183  0.0158 -0.2708
 1715SOL    HW216605   2.784   3.279   7.390  0.8250  1.2041 -0.9543
 1716SOL     OW16606   3.896   2.513   6.315  0.0495  0.2616  0.7453
 1716SOL    HW116607   3.817   2.518   6.369 -0.9987  1.7448 -0.8982
 1716SOL    HW216608   3.956   2.563   6.371  1.9784  0.1551 -1.1989
 1717SOL     OW16609   2.585   1.251  16.201 -0.0349 -0.0330  0.3335
 1717SOL    HW116610   2.515   1.224  16.260  1.3063 -2.3025  0.8921
 1717SOL    HW216611   2.662   1.210  16.242  0.0360 -0.3527 -0.1267
 1718SOL     OW16612   3.809   4.599   0.777  0.1725  0.3542  0.5951
 1718SOL    HW116613   3.841   4.529   0.835  0.9395  0.7919  0.6888
 1718SOL    HW216614   3.835   4.671   0.834  1.8457  0.9180 -0.9001
 1719SOL     OW16615   2.885   1.164   4.137 -0.2244 -0.5821 -0.2975
 1719SOL    HW116616   2.875   1.257   4.157  1.9967 -0.5182  0.5231
 1719SOL    HW216617   2.884   1.164   4.042 -1.0956  0.8743 -0.2839
 1720SOL     OW16618   4.596   2.310   2.325  0.0297  0.4248 -0.0553
 1720SOL    HW116619   4.536   2.240   2.349 -1.5392  1.9189  0.4170
 1720SOL    HW216620   4.657   2.306   2.399 -0.4975  0.8031  0.4047
 1721SOL     OW16621   0.051   3.330   4.519  0.0848  0.0686  0.0364
 1721SOL    HW116622   0.089   3.288   4.596 -0.9347 -2.9524 -1.1127
 1721SOL    HW216623   4.697   3.376   4.553  0.0001 -1.1625  1.5154
 1722SOL     OW16624   1.485   2.988   7.339  0.5312  0.9974  0.1409
 1722SOL    HW116625   1.401   3.009   7.381 -0.4579  1.9744 -2.3348
 1722SOL    HW216626   1.461   2.977   7.247 -0.8003  0.4305  0.5486
 1723SOL     OW16627   3.422   1.928   5.397 -0.1812  1.0745 -0.4727
 1723SOL    HW116628   3.488   1.994   5.417  0.4279  0.8740 -1.8497
 1723SOL    HW216629   3.342   1.967   5.432 -0.0269  3.6527 -3.0207
 1724SOL     OW16630   0.989   1.992   4.292 -0.5487 -0.3847 -0.2987
 1724SOL    HW116631   0.942   1.952   4.219 -2.0362  0.4846  0.1920
 1724SOL    HW216632   1.055   1.927   4.317 -1.9100 -1.9070 -0.6393
 1725SOL     OW16633   3.066   0.645   7.535  0.0382 -0.2661  0.1818
 1725SOL    HW116634   3.103   0.562   7.503 -0.8888 -1.2917  1.7747
 1725SOL    HW216635   3.151   0.690   7.538 -1.2357  2.2136 -1.7909
 1726SOL     OW16636   0.603   1.380   3.285 -0.1445 -0.6812 -0.1483
 1726SOL    HW116637   0.690   1.398   3.250 -0.3522 -0.6781 -0.6513
 1726SOL    HW216638   0.626   1.308   3.345  0.9250  1.7498  2.3503
 1727SOL     OW16639   1.879   1.624   1.250  0.1788  0.4819  0.0088
 1727SOL    HW116640   1.807   1.667   1.203  0.6891 -0.1977 -1.3828
 1727SOL    HW216641   1.950   1.640   1.189 -1.0461  0.0193 -1.5367
 1728SOL     OW16642   2.423   0.932   5.974  0.2950  0.9572 -0.0132
 1728SOL    HW116643   2.390   0.866   5.913  0.5068  2.2591 -1.5507
 1728SOL    HW216644   2.416   1.011   5.920 -1.9238  0.9418  0.2622
 1729SOL     OW16645   4.324   0.347  11.009  0.2679 -0.2391 -0.2890
 1729SOL    HW116646   4.402   0.315  11.054 -0.7088 -1.6551  0.4120
 1729SOL    HW216647   4.332   0.306  10.923 -0.0525 -1.3311  0.2003
 1730SOL     OW16648   1.417   4.641   6.840 -0.0025 -0.0642 -0.5403
 1730SOL    HW116649   1.353   4.581   6.879  0.5498 -1.2218 -1.3916
 1730SOL    HW216650   1.418   4.713   6.903  0.9362 -0.6892  0.1729
 1731SOL     OW16651   2.514   0.208   2.657 -0.2707 -0.3718  0.4129
 1731SOL    HW116652   2.505   0.134   2.596 -1.6502  1.7777 -1.9855
 1731SOL    HW216653   2.603   0.239   2.644  0.9567 -3.6012  1.0169
 1732SOL     OW16654   3.286   1.025   2.212 -0.0471  0.0073 -0.7512
 1732SOL    HW116655   3.342   0.954   2.242  0.4471  0.2142 -1.1865
 1732SOL    HW216656   3.296   1.025   2.116 -0.0824 -0.9135 -0.7592
 1733SOL     OW16657   2.548   4.211   6.177  0.9771 -0.1005 -0.1898
 1733SOL    HW116658   2.492   4.135   6.159  0.8897  0.1197 -0.8777
 1733SOL    HW216659   2.570   4.203   6.269  1.7041 -0.8532 -0.4264
 1734SOL     OW16660   1.701   0.637   2.841  0.1651  0.1419 -0.1133
 1734SOL    HW116661   1.684   0.596   2.756  0.9491  0.0003 -0.2026
 1734SOL    HW216662   1.613   0.651   2.875  0.4302  0.0608  0.5882
 1735SOL     OW16663   4.427   0.529  16.481  0.0271  0.3022  0.5210
 1735SOL    HW116664   4.386   0.476  16.412 -0.4086  2.5415 -0.9453
 1735SOL    HW216665   4.424   0.466  16.553  0.4386  2.1086  2.1163
 1736SOL     OW16666   4.453   4.640   2.140  0.0251  0.2329 -0.3338
 1736SOL    HW116667   4.450   4.599   2.053 -0.8428  0.2032 -0.2887
 1736SOL    HW216668   4.441   0.009   2.114  1.7225  0.4438 -0.3512
 1737SOL     OW16669   4.169   3.664   2.736 -0.0665  0.6515  0.1780
 1737SOL    HW116670   4.123   3.609   2.800  0.8655  1.7451  1.7815
 1737SOL    HW216671   4.122   3.645   2.654  0.7690  0.1781 -0.1935
 1738SOL     OW16672   1.012   0.465   1.716  0.3155  0.0945  0.1322
 1738SOL    HW116673   0.934   0.490   1.766 -1.0015  0.9963 -2.3778
 1738SOL    HW216674   0.998   0.507   1.631 -0.1172  1.5965  0.9416
 1739SOL     OW16675   0.238   2.757   8.203  0.2641 -0.9708  0.4636
 1739SOL    HW116676   0.200   2.697   8.139  0.3682  0.0048 -0.5044
 1739SOL    HW216677   0.165   2.792   8.253 -0.3362 -0.9388 -0.4469
 1740SOL     OW16678   4.048   4.447   4.187 -0.3962 -0.0262 -0.0574
 1740SOL    HW116679   4.100   4.518   4.151 -0.1349 -0.6695 -0.9426
 1740SOL    HW216680   3.965   4.480   4.222 -0.7524 -1.9935  0.9876
 1741SOL     OW16681   1.399   3.441  13.082  0.0894  0.0477  0.5265
 1741SOL    HW116682   1.304   3.440  13.073  0.2815  1.6117 -1.6351
 1741SOL    HW216683   1.402   3.524  13.130  0.2226  0.2937  0.0872
 1742SOL     OW16684   3.795   2.077   1.971 -0.1336  0.0195 -0.3237
 1742SOL    HW116685   3.817   2.009   1.908 -1.3382  1.2993 -2.1151
 1742SOL    HW216686   3.830   2.150   1.921 -0.6244  0.8442  0.5402
 1743SOL     OW16687   3.988   1.922  16.835  0.0914  0.2580  0.0052
 1743SOL    HW116688   3.926   1.995  16.836 -1.4437 -1.0546  0.5327
 1743SOL    HW216689   4.041   1.942  16.758  0.3760  0.6028  0.2924
 1744SOL     OW16690   2.900   1.223   6.495 -0.3085 -0.3305  0.2081
 1744SOL    HW116691   2.844   1.190   6.565 -0.1268 -0.9828  0.0443
 1744SOL    HW216692   2.945   1.297   6.535  1.0557  0.8633 -3.5326
 1745SOL     OW16693   1.977   2.292   9.282  0.2684  0.3799  0.3494
 1745SOL    HW116694   2.006   2.292   9.191 -0.7008  2.0166  0.0484
 1745SOL    HW216695   2.059   2.259   9.320  0.4605  0.1929 -0.2258
 1746SOL     OW16696   2.900   4.323   0.576 -0.5507 -0.0832  0.1751
 1746SOL    HW116697   2.805   4.322   0.562 -0.4062 -1.5784 -0.7764
 1746SOL    HW216698   2.907   4.300   0.669  1.6612  0.3408  0.1029
 1747SOL     OW16699   4.332   1.848   6.909 -0.0376 -0.0819  0.9104
 1747SOL    HW116700   4.381   1.903   6.848 -2.2369 -0.9961 -1.6926
 1747SOL    HW216701   4.397   1.824   6.975 -0.4908 -0.7283  1.1227
 1748SOL     OW16702   4.206   1.001   4.802 -0.5054 -0.0222  0.0304
 1748SOL    HW116703   4.190   0.956   4.719  0.3685  0.7541 -0.5492
 1748SOL    HW216704   4.117   0.992   4.837 -1.3639 -0.4665 -2.2475
 1749SOL     OW16705   2.697   0.203   3.812  0.4162 -0.3375  0.4428
 1749SOL    HW116706   2.792   0.208   3.797  0.3975  0.0333  0.4605
 1749SOL    HW216707   2.676   0.119   3.771 -0.4642  0.2437 -0.2812
 1750SOL     OW16708   0.173   1.680   5.282  0.3496  0.2180 -0.1975
 1750SOL    HW116709   0.172   1.600   5.229  2.8447  1.3383 -1.9340
 1750SOL    HW216710   0.082   1.707   5.283  0.1957 -0.3108  0.3158
 1751SOL     OW16711   3.206   0.889   3.930  0.0372  0.2096 -0.0773
 1751SOL    HW116712   3.299   0.872   3.945  0.0781 -0.0739 -0.6660
 1751SOL    HW216713   3.203   0.980   3.961  1.4309  0.7608 -1.5511
 1752SOL     OW16714   1.048   3.562   3.922 -0.4708 -0.0494 -0.3020
 1752SOL    HW116715   1.062   3.649   3.884 -0.5517 -0.3325 -0.9908
 1752SOL    HW216716   1.011   3.514   3.848  0.1434  0.4376 -0.9287
 1753SOL     OW16717   0.263   1.157   0.605 -0.5176  0.2649 -0.2997
 1753SOL    HW116718   0.295   1.223   0.667 -0.3682 -1.0822  1.0457
 1753SOL    HW216719   0.170   1.183   0.605 -1.2917 -2.5399 -0.9053
 1754SOL     OW16720   3.715   1.444  17.187  0.2357 -0.3698  0.2750
 1754SOL    HW116721   3.651   1.491  17.132  0.0640  0.9017  1.5520
 1754SOL    HW216722   3.765   1.521  17.214  0.4463 -1.0068  1.6825
 1755SOL     OW16723   1.612   3.464   8.907  0.0907  0.2606  0.0353
 1755SOL    HW116724   1.535   3.455   8.963  0.8054 -0.9808  0.8292
 1755SOL    HW216725   1.620   3.560   8.907  1.4876  0.1354 -2.2209
 1756SOL     OW16726   2.285   2.322   2.921 -0.1379  0.4196 -0.1199
 1756SOL    HW116727   2.291   2.226   2.926  0.9702  0.3591 -2.6842
 1756SOL    HW216728   2.241   2.339   2.838 -2.2465 -0.2445  0.8512
 1757SOL     OW16729   0.676   3.599   5.708  0.3736 -0.1844  0.0197
 1757SOL    HW116730   0.602   3.587   5.766 -1.1094 -0.7526 -2.0072
 1757SOL    HW216731   0.644   3.663   5.644  1.4007  1.6700  1.3377
 1758SOL     OW16732   4.575   0.916   5.845 -0.1502 -0.0847 -0.0881
 1758SOL    HW116733   4.615   0.915   5.932  1.4887 -0.1358 -0.8540
 1758SOL    HW216734   4.593   0.825   5.822 -0.4210 -0.3764  0.8513
 1759SOL     OW16735   4.130   0.201  12.497  0.1274  0.2318  0.3286
 1759SOL    HW116736   4.192   0.242  12.557  0.5791 -0.1357  0.1119
 1759SOL    HW216737   4.182   0.140  12.446 -2.1998 -0.3275 -1.3705
 1760SOL     OW16738   0.383   0.475   7.790 -0.3825 -0.4738  0.2066
 1760SOL    HW116739   0.305   0.438   7.831 -0.7023  0.9287  0.8308
 1760SOL    HW216740   0.365   0.567   7.772  1.0211 -0.4989 -1.4011
 1761SOL     OW16741   2.481   4.658   3.971  0.3930  0.1001 -0.3691
 1761SOL    HW116742   2.453   0.009   3.917  1.2321  0.1491 -0.7213
 1761SOL    HW216743   2.401   4.635   4.019  0.6054  0.3669  0.1220
 1762SOL     OW16744   4.405   0.861   3.876  0.1373  0.1516 -0.4661
 1762SOL    HW116745   4.484   0.897   3.836  1.1440 -0.3238  1.0879
 1762SOL    HW216746   4.414   0.911   3.957 -0.2135  0.0796 -0.3833
 1763SOL     OW16747   2.281   1.928   5.636 -0.1385  0.2623 -0.5657
 1763SOL    HW116748   2.375   1.945   5.634 -0.1558  0.2801 -1.1106
 1763SOL    HW216749   2.256   2.000   5.694 -1.4591 -1.1054  0.5705
 1764SOL     OW16750   0.528   0.207   3.967  0.2878  0.4768  0.4181
 1764SOL    HW116751   0.561   0.118   3.963  1.0043  0.6186  3.4246
 1764SOL    HW216752   0.436   0.207   3.992  0.1180  0.1931 -0.2065
 1765SOL     OW16753   4.418   3.092   9.175 -0.1697 -0.4575  0.2718
 1765SOL    HW116754   4.410   3.111   9.081  1.8906 -0.9530 -0.0225
 1765SOL    HW216755   4.398   3.175   9.216  1.3308  1.1654 -2.2583
 1766SOL     OW16756   2.373   3.967   4.305 -0.5555 -0.0421  0.5118
 1766SOL    HW116757   2.376   4.018   4.224  1.4406 -1.1616 -0.1056
 1766SOL    HW216758   2.463   3.935   4.307 -0.3173  0.5073 -2.2282
 1767SOL     OW16759   0.155   0.224   3.697 -0.3123 -0.3433 -0.3095
 1767SOL    HW116760   0.129   0.295   3.639  1.4624 -1.3209 -2.3224
 1767SOL    HW216761   0.251   0.225   3.689 -0.2858  2.3273  0.5235
 1768SOL     OW16762   0.268   2.833   5.413  0.5643 -0.6605  0.2648
 1768SOL    HW116763   0.212   2.907   5.439  0.5787 -0.6302  0.2103
 1768SOL    HW216764   0.268   2.783   5.494  1.2205  0.0277  0.6950
 1769SOL     OW16765   3.704   3.169  10.856 -0.0434 -0.3920 -0.0917
 1769SOL    HW116766   3.651   3.097  10.889  0.4482 -0.0918  1.3351
 1769SOL    HW216767   3.642   3.241  10.865  0.5136  0.0136  0.4857
 1770SOL     OW16768   2.547   1.307   2.531 -0.0390 -0.6606  0.3547
 1770SOL    HW116769   2.523   1.315   2.623 -1.7780  0.6450 -0.2241
 1770SOL    HW216770   2.463   1.272   2.501 -1.2045 -1.3990  4.4306
 1771SOL     OW16771   0.929   2.518   3.133  0.5407  0.5730 -0.2982
 1771SOL    HW116772   0.991   2.449   3.158  1.3794  0.5482 -2.4341
 1771SOL    HW216773   0.847   2.471   3.116  0.0674  1.6175 -0.8926
 1772SOL     OW16774   4.606   0.016   4.543  0.2473  0.2430 -0.2378
 1772SOL    HW116775   4.591   4.650   4.509 -0.1528  0.7954 -1.4855
 1772SOL    HW216776   4.677   0.057   4.494 -1.9320  1.7069 -2.1935
 1773SOL     OW16777   2.693   0.433   9.019 -0.0101  0.2175 -0.2179
 1773SOL    HW116778   2.719   0.343   9.039 -1.5541 -0.4156 -1.0402
 1773SOL    HW216779   2.722   0.472   9.101  3.2774 -1.2515 -0.6874
 1774SOL     OW16780   2.082   1.021  14.804  0.6719 -0.2490  0.1360
 1774SOL    HW116781   2.087   0.987  14.894  0.2009 -0.9681 -0.1095
 1774SOL    HW216782   2.158   0.984  14.759  1.4141  0.6883  0.6203
 1775SOL     OW16783   0.732   1.478   4.092  0.1705  0.2933 -0.3419
 1775SOL    HW116784   0.811   1.424   4.091  0.3396  0.5438 -0.6181
 1775SOL    HW216785   0.694   1.455   4.177 -2.2407  0.7364 -1.2846
 1776SOL     OW16786   4.601   2.742  12.957 -0.8877  0.0669  0.5155
 1776SOL    HW116787   4.592   2.837  12.952  1.9449  0.1915 -1.9319
 1776SOL    HW216788   4.522   2.735  13.012  0.1431  1.4397  2.1710
 1777SOL     OW16789   0.636   3.583   1.089 -0.2523  0.2709  0.0228
 1777SOL    HW116790   0.608   3.519   1.155 -3.9350  1.1645 -0.6586
 1777SOL    HW216791   0.683   3.523   1.031 -0.1006  0.5663 -0.1566
 1778SOL     OW16792   3.576   2.507  16.021  0.4041  0.2212  0.2585
 1778SOL    HW116793   3.532   2.514  16.106 -3.5841 -0.0049 -1.8393
 1778SOL    HW216794   3.550   2.419  15.993  1.0587 -0.3153  1.3085
 1779SOL     OW16795   0.197   0.979   5.813 -0.2688  0.3637 -0.1650
 1779SOL    HW116796   0.237   0.941   5.891 -0.0013  0.7822 -0.0993
 1779SOL    HW216797   0.110   0.939   5.818 -0.1121 -0.0198 -0.4954
 1780SOL     OW16798   1.737   1.997   4.178  0.3878 -0.6982 -0.1471
 1780SOL    HW116799   1.652   2.030   4.151 -0.2518 -0.3837  2.2507
 1780SOL    HW216800   1.728   1.942   4.256 -1.1438  1.2663  1.0437
 1781SOL     OW16801   2.245   2.885   8.048  0.4276  0.0307  0.8744
 1781SOL    HW116802   2.230   2.976   8.019  0.1249 -0.7275 -1.3560
 1781SOL    HW216803   2.338   2.897   8.071  1.0355  0.9195 -2.0071
 1782SOL     OW16804   1.173   4.143   5.944 -0.3143 -0.6376  0.0002
 1782SOL    HW116805   1.085   4.128   5.980 -0.5952 -0.9046 -0.7948
 1782SOL    HW216806   1.223   4.206   5.997 -0.3725  0.9599 -1.8527
 1783SOL     OW16807   4.368   0.112   6.200  1.6327  0.0301 -0.4977
 1783SOL    HW116808   4.434   0.180   6.206  0.4825  1.1446 -0.5358
 1783SOL    HW216809   4.415   0.037   6.236  1.1144  0.9408  2.0607
 1784SOL     OW16810   1.195   1.829   4.571  0.3267  0.7023 -0.0659
 1784SOL    HW116811   1.168   1.762   4.634  1.5782 -0.6013 -0.8980
 1784SOL    HW216812   1.141   1.813   4.493 -0.4952 -0.2071  0.6952
 1785SOL     OW16813   4.664   0.430  15.520 -0.9615  0.0238  0.0045
 1785SOL    HW116814   4.633   0.414  15.609 -1.3074  1.5276  0.1573
 1785SOL    HW216815   4.704   0.516  15.534  1.1031 -0.5159 -2.4676
 1786SOL     OW16816   2.151   1.897   8.142 -0.3260 -0.3181 -0.1306
 1786SOL    HW116817   2.113   1.815   8.174 -0.2270 -0.8160 -1.2771
 1786SOL    HW216818   2.084   1.961   8.167 -0.1619 -0.0258 -0.4433
 1787SOL     OW16819   4.134   2.895  11.237  0.2443  0.5535  0.2220
 1787SOL    HW116820   4.193   2.862  11.305 -1.7082 -1.1044  1.0841
 1787SOL    HW216821   4.156   2.829  11.171  2.4709  0.0142  1.4887
 1788SOL     OW16822   2.074   2.552   6.980 -0.0018  0.1412 -0.2564
 1788SOL    HW116823   2.134   2.626   6.981 -0.5138  0.5540  0.3961
 1788SOL    HW216824   2.097   2.506   7.061  1.4464 -0.7059 -1.1394
 1789SOL     OW16825   1.910   3.487  13.708  0.0547 -0.3470  0.5617
 1789SOL    HW116826   1.962   3.407  13.714  0.9067 -0.0826 -3.3974
 1789SOL    HW216827   1.976   3.541  13.665  2.1094 -3.2722  0.0291
 1790SOL     OW16828   4.418   0.059  11.275  0.4218  0.2743 -0.0492
 1790SOL    HW116829   4.470   0.056  11.355 -0.9763 -2.7219  0.7377
 1790SOL    HW216830   4.463   0.131  11.230 -1.5481  3.0893  2.4861
 1791SOL     OW16831   2.727   4.369   2.804  0.0102 -0.2142 -0.0014
 1791SOL    HW116832   2.722   4.465   2.810  2.7033 -0.1523  1.0889
 1791SOL    HW216833   2.691   4.342   2.888 -1.1745 -2.7722 -1.3324
 1792SOL     OW16834   4.619   1.233  13.542 -0.6559 -0.4917  0.5731
 1792SOL    HW116835   4.617   1.146  13.581 -1.8622  0.1188  1.8613
 1792SOL    HW216836   4.537   1.251  13.496 -1.2683 -1.9092  1.1247
 1793SOL     OW16837   1.737   2.765  16.699  0.4554  0.0541  0.0571
 1793SOL    HW116838   1.657   2.758  16.751 -0.3866  0.4652 -1.1752
 1793SOL    HW216839   1.693   2.767  16.614  1.3335 -0.6818 -0.4280
 1794SOL     OW16840   2.038   4.144   1.363 -0.1225 -0.0641 -0.9374
 1794SOL    HW116841   2.093   4.088   1.307 -0.6981 -2.2250  0.6886
 1794SOL    HW216842   2.109   4.205   1.383 -1.5883  1.3530 -0.1195
 1795SOL     OW16843   2.219   1.903  13.850 -0.4954  0.4954  0.0562
 1795SOL    HW116844   2.168   1.920  13.770 -0.5269  1.6271  0.3205
 1795SOL    HW216845   2.238   1.812  13.827  0.6479  0.9831 -0.9318
 1796SOL     OW16846   1.920   0.282  12.952  0.2483  0.6190  0.2000
 1796SOL    HW116847   1.967   0.329  12.883  0.4897  0.6792  0.4062
 1796SOL    HW216848   1.829   0.296  12.924  0.5409  0.3128 -0.9027
 1797SOL     OW16849   1.148   2.139   8.843 -0.0089 -0.0883 -0.7736
 1797SOL    HW116850   1.220   2.192   8.875  1.4015 -0.6668 -3.0233
 1797SOL    HW216851   1.102   2.193   8.778 -3.3672 -0.3048  1.3887
 1798SOL     OW16852   0.078   0.611   2.327  0.1463 -0.1245  0.1911
 1798SOL    HW116853   0.114   0.531   2.288 -2.2572 -1.2572  0.3022
 1798SOL    HW216854   4.711   0.583   2.342 -0.2287  0.8034 -0.2919
 1799SOL     OW16855   2.018   2.592   9.095 -0.4216 -0.3318  0.2549
 1799SOL    HW116856   2.038   2.605   9.188 -0.0140  0.7376  0.0092
 1799SOL    HW216857   2.032   2.497   9.092  1.7478  0.0029 -0.1350
 1800SOL     OW16858   1.182   0.552   2.331 -0.0944 -0.3252 -0.0854
 1800SOL    HW116859   1.181   0.546   2.236  1.9073 -1.4133 -0.0466
 1800SOL    HW216860   1.137   0.636   2.336  0.3130 -0.1502  0.6321
 1801SOL     OW16861   1.507   4.001   5.219 -0.0116  0.1477  0.5975
 1801SOL    HW116862   1.524   3.907   5.208 -1.3279 -0.1222  0.8271
 1801SOL    HW216863   1.497   4.004   5.314 -0.4103  0.2398  0.5548
 1802SOL     OW16864   1.668   4.512  10.929 -0.1254 -0.0304  0.4262
 1802SOL    HW116865   1.619   4.593  10.914  2.3570  1.0689 -1.7289
 1802SOL    HW216866   1.649   4.501  11.022  1.1162  1.0298  0.8082
 1803SOL     OW16867   4.035   1.162   5.306 -0.1840 -0.1026  0.2824
 1803SOL    HW116868   4.107   1.173   5.244  0.6328  2.8810  1.7483
 1803SOL    HW216869   4.044   1.071   5.337  0.3785 -0.1368  0.0231
 1804SOL     OW16870   4.365   0.654   5.002  0.3047 -0.1822 -0.1408
 1804SOL    HW116871   4.358   0.750   5.003 -1.8401 -0.3165 -2.0902
 1804SOL    HW216872   4.336   0.637   4.913  0.6251 -1.7595  0.0525
 1805SOL     OW16873   1.331   2.774   9.845 -0.4622  0.2529 -0.4923
 1805SOL    HW116874   1.324   2.804   9.936 -1.9868 -0.7215 -0.2905
 1805SOL    HW216875   1.311   2.681   9.857 -1.3288  0.3884 -0.9009
 1806SOL     OW16876   0.767   0.620  11.921 -0.2040  0.6530 -0.1255
 1806SOL    HW116877   0.804   0.650  11.838  1.3702  0.6717  0.5941
 1806SOL    HW216878   0.839   0.563  11.948  0.6248  1.3262 -0.9083
 1807SOL     OW16879   3.031   1.007   6.113 -0.2659 -0.3285  0.2994
 1807SOL    HW116880   3.032   0.959   6.030  0.1255 -1.7796  1.1437
 1807SOL    HW216881   2.997   1.088   6.075 -0.0897 -0.2401  0.3301
 1808SOL     OW16882   3.439   3.027   9.203 -0.2577  0.4257  0.0872
 1808SOL    HW116883   3.344   3.011   9.201 -0.4755  1.2166  3.1146
 1808SOL    HW216884   3.450   3.065   9.291  0.2923 -2.3156  1.2062
 1809SOL     OW16885   3.181   3.175   1.280 -0.6799  0.4134 -0.6429
 1809SOL    HW116886   3.210   3.084   1.283 -3.7329 -0.5127  0.5907
 1809SOL    HW216887   3.178   3.186   1.185 -1.8449  0.0465 -0.6393
 1810SOL     OW16888   1.854   1.378   6.789  0.3776 -0.3910 -0.3187
 1810SOL    HW116889   1.869   1.296   6.836  0.5943  0.4435  1.0757
 1810SOL    HW216890   1.803   1.350   6.713 -0.2831 -1.9846  0.7078
 1811SOL     OW16891   0.805   0.559   6.749  0.3098 -0.0977 -0.4103
 1811SOL    HW116892   0.822   0.584   6.840  0.8832 -3.1636  0.3480
 1811SOL    HW216893   0.894   0.539   6.720  0.2568 -2.7656  1.2292
 1812SOL     OW16894   1.150   2.687   0.271 -0.1791  0.0565 -0.5166
 1812SOL    HW116895   1.155   2.742   0.349  1.1868 -2.2393  1.0143
 1812SOL    HW216896   1.087   2.730   0.213 -1.2982 -0.4722  0.2931
 1813SOL     OW16897   2.571   3.251   8.558 -0.1254  0.4467  0.4820
 1813SOL    HW116898   2.517   3.192   8.610  0.4249  0.2521  0.8237
 1813SOL    HW216899   2.631   3.196   8.508 -0.6904 -1.7404  2.2502
 1814SOL     OW16900   4.307   1.584   2.573 -0.1352  0.2565 -0.0587
 1814SOL    HW116901   4.393   1.618   2.550  0.2441 -1.1181 -0.6318
 1814SOL    HW216902   4.292   1.505   2.521  0.8050 -0.9716  1.5355
 1815SOL     OW16903   0.084   4.150   3.843  0.0663  0.0194  0.4388
 1815SOL    HW116904   0.056   4.088   3.911 -1.9492  1.2773  0.7445
 1815SOL    HW216905   0.085   4.094   3.765 -1.1448 -1.8204  1.7287
 1816SOL     OW16906   4.122   2.768  15.661  0.4525 -0.1863  0.0260
 1816SOL    HW116907   4.104   2.837  15.596 -0.4697 -1.6280 -1.2322
 1816SOL    HW216908   4.056   2.783  15.729 -0.5101  0.6998 -1.0821
 1817SOL     OW16909   0.665   4.186   3.984  0.3456  0.6971 -0.0397
 1817SOL    HW116910   0.664   4.202   4.079  1.0167 -0.8427  0.2227
 1817SOL    HW216911   0.596   4.121   3.975  1.6285 -0.6828  0.1114
 1818SOL     OW16912   0.627   4.229   2.441 -0.2833  0.2448  0.1180
 1818SOL    HW116913   0.558   4.235   2.376 -0.0317  2.4193  0.0765
 1818SOL    HW216914   0.614   4.143   2.481 -0.0741  0.8338  1.4521
 1819SOL     OW16915   1.153   2.165  14.252  0.3054  0.1129 -0.1626
 1819SOL    HW116916   1.246   2.161  14.229  0.8602 -0.7432  2.1905
 1819SOL    HW216917   1.148   2.118  14.336  0.0520  0.1846 -0.1381
 1820SOL     OW16918   4.466   3.353   8.452  0.3529  0.1221 -0.7240
 1820SOL    HW116919   4.390   3.329   8.399 -1.2948  1.3954  1.0613
 1820SOL    HW216920   4.541   3.305   8.416  0.1317 -0.1552 -0.8119
 1821SOL     OW16921   4.446   2.794   6.653  0.1268  0.5791  0.2102
 1821SOL    HW116922   4.448   2.874   6.705  2.0100 -0.3736  1.5729
 1821SOL    HW216923   4.515   2.811   6.589 -1.5017 -0.4186 -1.8383
 1822SOL     OW16924   2.694   0.568   0.023 -0.2489  0.2939 -0.2819
 1822SOL    HW116925   2.752   0.537   0.093  0.8487  2.4651 -0.2349
 1822SOL    HW216926   2.626   0.501   0.032  0.3489  0.0029  2.0725
 1823SOL     OW16927   4.330   4.686   4.400  0.3969  0.2430 -0.5835
 1823SOL    HW116928   4.250   0.013   4.385  1.1864  1.5469 -0.4224
 1823SOL    HW216929   4.386   0.029   4.359 -0.0496  0.1933 -1.2560
 1824SOL     OW16930   3.348   4.379   6.041  0.3778 -0.3646  0.6064
 1824SOL    HW116931   3.345   4.323   6.119  0.0278 -0.3725  0.5832
 1824SOL    HW216932   3.408   4.324   5.990  1.0052  0.6148  0.2806
 1825SOL     OW16933   0.449   3.701   4.625  0.0098  0.0079  0.4334
 1825SOL    HW116934   0.387   3.630   4.606  0.1632 -0.2338  0.8407
 1825SOL    HW216935   0.405   3.775   4.583  1.2189  0.2705 -0.3540
 1826SOL     OW16936   1.161   2.375   5.827 -0.0595  0.1897 -0.0458
 1826SOL    HW116937   1.070   2.397   5.807  0.4256  0.9362 -1.4464
 1826SOL    HW216938   1.198   2.462   5.842 -0.5803  0.2689  0.7304
 1827SOL     OW16939   1.901   3.290   8.203  0.3834  0.0300 -0.0724
 1827SOL    HW116940   1.851   3.236   8.264  0.7989 -0.8445 -0.5033
 1827SOL    HW216941   1.907   3.375   8.248  0.5484  0.7931 -1.5346
 1828SOL     OW16942   2.986   4.218   5.334 -0.1724 -0.1504  0.0441
 1828SOL    HW116943   3.052   4.168   5.382 -1.6210 -0.1909  2.0154
 1828SOL    HW216944   2.928   4.145   5.312 -1.8647  1.2825 -0.1687
 1829SOL     OW16945   3.427   0.448  13.118  0.1439  0.2584  0.1749
 1829SOL    HW116946   3.345   0.424  13.162  0.8983 -0.9402  0.9430
 1829SOL    HW216947   3.406   0.473  13.028 -4.0979 -2.1086  0.4804
 1830SOL     OW16948   4.543   3.961  11.995 -0.2059  0.3888  0.1470
 1830SOL    HW116949   4.507   4.049  11.989 -0.7879  0.1396 -0.0017
 1830SOL    HW216950   4.587   3.955  11.909  1.0570 -0.4285  0.8484
 1831SOL     OW16951   0.082   2.447   6.599  0.2974 -0.1982 -0.5469
 1831SOL    HW116952   0.101   2.430   6.691  1.4660 -0.7926 -0.8975
 1831SOL    HW216953   0.026   2.372   6.580 -1.3366  0.7524  0.4113
 1832SOL     OW16954   1.579   2.084   1.754  0.1837 -0.1583 -0.2224
 1832SOL    HW116955   1.597   2.040   1.671  4.9712  1.7043 -0.1474
 1832SOL    HW216956   1.537   2.014   1.804  0.6553 -0.3523 -0.1052
 1833SOL     OW16957   0.886   3.898   1.941 -0.2336 -0.6186 -0.0440
 1833SOL    HW116958   0.914   3.806   1.941 -0.1407 -0.5890 -0.3223
 1833SOL    HW216959   0.809   3.896   1.998  1.8626  1.3713  2.7975
 1834SOL     OW16960   0.781   2.716  11.921  0.2916 -0.2128 -0.2852
 1834SOL    HW116961   0.775   2.753  11.833 -1.0481 -0.9845 -0.5201
 1834SOL    HW216962   0.847   2.774  11.958 -0.8698  0.9939 -0.0631
 1835SOL     OW16963   3.884   1.094   8.639 -0.1189 -0.3140 -0.2626
 1835SOL    HW116964   3.885   1.106   8.734 -0.1806  1.0788 -0.4366
 1835SOL    HW216965   3.899   1.000   8.640  1.5659 -0.0328  1.3938
 1836SOL     OW16966   0.851   4.378   8.581  0.3902  0.7313  0.2180
 1836SOL    HW116967   0.801   4.333   8.513  1.6422 -1.0529  0.4721
 1836SOL    HW216968   0.793   4.445   8.615  1.1837  1.7061 -0.3661
 1837SOL     OW16969   4.306   1.386   7.105 -0.0127 -0.8961  0.0160
 1837SOL    HW116970   4.370   1.446   7.068  0.0611 -1.4531 -0.7612
 1837SOL    HW216971   4.263   1.342   7.031 -0.1476 -0.5932 -0.0833
 1838SOL     OW16972   2.020   0.751  17.621 -0.3961  0.1967  0.2962
 1838SOL    HW116973   2.087   0.683  17.617  0.2986  0.8271  1.2254
 1838SOL    HW216974   2.060   0.812  17.683  0.3547  0.2692 -0.2631
 1839SOL     OW16975   1.646   0.620  12.436  0.6291  0.0231  0.1593
 1839SOL    HW116976   1.636   0.618  12.341  0.2790 -1.2511  0.2252
 1839SOL    HW216977   1.742   0.627  12.439  0.6581 -0.8711  1.1920
 1840SOL     OW16978   2.280   1.539   9.335  0.3003 -0.1183  0.2379
 1840SOL    HW116979   2.200   1.503   9.299 -0.5619 -1.3599  3.3645
 1840SOL    HW216980   2.288   1.616   9.280 -0.2814 -0.4845 -0.3528
 1841SOL     OW16981   2.616   3.152   1.409  0.4134  0.2692  0.1191
 1841SOL    HW116982   2.546   3.094   1.379  0.8178 -0.0106 -0.2744
 1841SOL    HW216983   2.682   3.089   1.439 -0.3706  0.1802  1.6595
 1842SOL     OW16984   3.892   3.620   6.910 -0.0691  0.3168  0.2630
 1842SOL    HW116985   3.957   3.638   6.979 -2.3971  2.4991  1.8781
 1842SOL    HW216986   3.959   3.597   6.846 -0.3627  1.6897 -0.5469
 1843SOL     OW16987   3.469   4.199   1.616  0.9630 -0.5560 -0.1291
 1843SOL    HW116988   3.563   4.180   1.616  1.0281 -0.2549  0.4618
 1843SOL    HW216989   3.471   4.244   1.701 -1.0215 -0.5182 -0.1012
 1844SOL     OW16990   2.163   0.040   2.251  0.1839 -0.3706 -0.1637
 1844SOL    HW116991   2.076   0.053   2.214 -1.2802 -1.0725  3.0388
 1844SOL    HW216992   2.221   0.073   2.182 -1.1951 -0.0761 -1.1968
 1845SOL     OW16993   1.923   0.006   8.021 -0.0772  0.5945  0.1947
 1845SOL    HW116994   1.911   4.646   8.066 -1.1938 -0.2335 -1.6193
 1845SOL    HW216995   1.995   0.042   8.072  0.2009 -2.0165  1.6469
 1846SOL     OW16996   0.231   0.880  10.560  0.3481  0.6141  0.8351
 1846SOL    HW116997   0.274   0.803  10.523  1.2679  2.9602 -3.0606
 1846SOL    HW216998   0.156   0.898  10.503  1.9292 -2.3051 -2.1862
 1847SOL     OW16999   4.444   3.003  13.700  0.2778 -0.2796  0.1193
 1847SOL    HW117000   4.352   2.996  13.676  0.1708  0.2060  0.3972
 1847SOL    HW217001   4.456   2.911  13.726  2.5531  0.3770  1.4218
 1848SOL     OW17002   1.567   2.685  14.690  0.0999 -0.1113  0.9557
 1848SOL    HW117003   1.621   2.747  14.640  1.3464 -1.3305  0.8038
 1848SOL    HW217004   1.634   2.619  14.707 -1.6480 -1.6704  1.7617
 1849SOL     OW17005   3.695   2.770  14.293  0.4274 -0.0206 -0.0329
 1849SOL    HW117006   3.778   2.735  14.262  0.2597  0.8957 -1.5256
 1849SOL    HW217007   3.701   2.866  14.290 -2.3581  0.1196 -1.7872
 1850SOL     OW17008   1.053   1.153  12.805 -0.8660  0.0779  0.5107
 1850SOL    HW117009   0.977   1.140  12.749  0.4373 -1.6660 -0.8568
 1850SOL    HW217010   1.062   1.248  12.811  1.9691 -0.0926 -1.1196
 1851SOL     OW17011   1.225   4.585   7.764  0.6867 -0.1255 -0.1092
 1851SOL    HW117012   1.218   4.542   7.679 -0.0089  0.0424 -0.1439
 1851SOL    HW217013   1.143   4.562   7.809  0.2240 -1.0877 -1.4416
 1852SOL     OW17014   4.666   1.823  14.836  0.3774 -0.3643  0.1960
 1852SOL    HW117015   4.691   1.838  14.745 -1.2617  2.2920  0.1791
 1852SOL    HW217016   4.689   1.730  14.835  3.1525  0.3440 -2.5177
 1853SOL     OW17017   0.222   1.607   3.977  0.3106  0.5189 -0.0426
 1853SOL    HW117018   0.166   1.683   3.964 -0.8714 -0.5287 -1.1228
 1853SOL    HW217019   0.305   1.655   3.978 -0.7240  2.3520 -1.8410
 1854SOL     OW17020   2.371   2.814   5.190  0.1921  0.2103  0.0986
 1854SOL    HW117021   2.398   2.723   5.203 -1.0374  0.1019  1.8617
 1854SOL    HW217022   2.420   2.857   5.260  2.1756 -1.2581 -0.3715
 1855SOL     OW17023   1.059   0.911  15.264  0.5156  0.1740 -0.5905
 1855SOL    HW117024   1.029   0.975  15.199  0.2235  0.7851  0.1603
 1855SOL    HW217025   1.011   0.837  15.227 -1.3231  0.5144  1.1588
 1856SOL     OW17026   3.597   1.740   2.867 -0.3780 -0.5716  0.0007
 1856SOL    HW117027   3.509   1.777   2.869 -0.4937 -0.7975 -1.1137
 1856SOL    HW217028   3.643   1.793   2.932 -3.1814 -1.0836  2.4197
 1857SOL     OW17029   1.647   0.332   1.236  0.6950  0.2229  0.0697
 1857SOL    HW117030   1.651   0.377   1.320 -0.5549  1.0205 -0.3064
 1857SOL    HW217031   1.735   0.344   1.200  0.3841  1.6231 -0.1987
 1858SOL     OW17032   2.794   3.615   5.848 -0.3732 -0.3334  0.3296
 1858SOL    HW117033   2.781   3.703   5.813  3.6453 -0.7011 -2.0996
 1858SOL    HW217034   2.732   3.619   5.920  0.6928  0.7093  1.1977
 1859SOL     OW17035   2.740   1.994   1.664  0.1353  0.1605  0.2891
 1859SOL    HW117036   2.772   2.078   1.698 -1.1390  0.6371  0.3085
 1859SOL    HW217037   2.700   1.959   1.743 -1.4536  0.6244 -0.3184
 1860SOL     OW17038   3.257   1.540   2.455 -0.9880 -0.2716  0.0372
 1860SOL    HW117039   3.274   1.634   2.452 -0.8195 -0.2792  0.8068
 1860SOL    HW217040   3.169   1.541   2.493 -1.0436 -1.9919 -0.0560
 1861SOL     OW17041   3.133   3.682   3.414 -0.4725 -0.7639  0.3777
 1861SOL    HW117042   3.067   3.728   3.363  0.4853 -0.1060 -0.2482
 1861SOL    HW217043   3.162   3.753   3.471 -0.0214  0.8520 -1.8897
 1862SOL     OW17044   0.690   1.633   8.564 -0.0462 -0.0678 -0.1219
 1862SOL    HW117045   0.616   1.609   8.620  0.1592 -1.2403 -0.3616
 1862SOL    HW217046   0.755   1.659   8.629 -1.9397 -1.9143  2.5339
 1863SOL     OW17047   2.732   4.456   9.731  0.3382  0.1442  0.6184
 1863SOL    HW117048   2.647   4.444   9.773  0.8087  1.8763  2.0569
 1863SOL    HW217049   2.781   4.380   9.763 -0.5320 -0.7308 -0.1103
 1864SOL     OW17050   1.212   0.233  10.783  0.1951  0.6712  0.3721
 1864SOL    HW117051   1.214   0.211  10.690 -0.8825  0.2833  0.4466
 1864SOL    HW217052   1.242   0.151  10.823 -2.1881  1.2843  3.3995
 1865SOL     OW17053   3.537   4.145  15.455 -0.2898 -0.3429 -0.5871
 1865SOL    HW117054   3.588   4.222  15.433 -2.5246  1.6490  1.1547
 1865SOL    HW217055   3.464   4.188  15.501 -1.1501 -2.4459  0.0399
 1866SOL     OW17056   3.642   3.447   2.600  0.0364 -0.3022 -0.2361
 1866SOL    HW117057   3.685   3.380   2.547  1.3862 -1.8485  2.8301
 1866SOL    HW217058   3.679   3.416   2.683 -0.3184 -0.3484 -0.0938
 1867SOL     OW17059   2.227   1.893   3.527  0.2612 -0.1376 -0.2359
 1867SOL    HW117060   2.223   1.984   3.556 -2.1236 -0.1085 -0.6126
 1867SOL    HW217061   2.300   1.896   3.465 -0.0745  0.2851 -0.6170
 1868SOL     OW17062   1.998   4.435   9.472  0.2175 -0.4721 -0.1743
 1868SOL    HW117063   1.983   4.448   9.379  0.9117  1.0592 -0.0651
 1868SOL    HW217064   2.091   4.414   9.483  0.7564  0.7190 -2.4809
 1869SOL     OW17065   0.374   0.715   8.957  0.2768 -0.1895 -0.1750
 1869SOL    HW117066   0.364   0.653   9.030  0.0379 -1.2347 -1.1085
 1869SOL    HW217067   0.455   0.760   8.978  0.1244 -0.5903  1.3171
 1870SOL     OW17068   4.366   0.580   4.711 -0.4851  0.3452  0.1098
 1870SOL    HW117069   4.416   0.499   4.698 -0.3335  0.0756  2.3314
 1870SOL    HW217070   4.277   0.553   4.691 -0.2727  0.5457 -1.0932
 1871SOL     OW17071   3.402   0.079   8.320 -0.3702 -0.1159  0.0994
 1871SOL    HW117072   3.488   0.120   8.325  0.1628 -1.3408  0.6719
 1871SOL    HW217073   3.376   0.069   8.412  2.9012  1.1293  1.1505
 1872SOL     OW17074   4.389   3.182  13.896  0.5157 -0.0857  0.7803
 1872SOL    HW117075   4.298   3.151  13.896  1.0283 -1.5599  0.0619
 1872SOL    HW217076   4.431   3.111  13.848 -1.4328  0.7563 -2.1596
 1873SOL     OW17077   3.016   0.799   4.077 -0.5195 -0.0651 -0.3356
 1873SOL    HW117078   3.093   0.829   4.029 -0.9615 -1.6396 -2.0193
 1873SOL    HW217079   2.956   0.799   4.002 -0.1048  0.6217 -0.6752
 1874SOL     OW17080   2.415   0.677   7.048  0.3129  0.1211 -0.0444
 1874SOL    HW117081   2.458   0.593   7.062 -1.1963 -0.5881  0.3479
 1874SOL    HW217082   2.352   0.675   7.121  1.3767 -1.7958  0.8130
 1875SOL     OW17083   3.460   1.946   6.526 -0.0778 -0.1423 -0.5538
 1875SOL    HW117084   3.396   2.016   6.538  0.8392  0.5944  0.0017
 1875SOL    HW217085   3.462   1.930   6.432  0.3054 -0.6315 -0.4594
 1876SOL     OW17086   1.279   1.132   6.382  0.4999 -0.1479  0.1006
 1876SOL    HW117087   1.254   1.070   6.314 -1.5651  2.1092 -1.1775
 1876SOL    HW217088   1.205   1.193   6.383 -1.5402 -2.5793 -1.9720
 1877SOL     OW17089   1.257   2.744   3.348  0.4204  0.1414  0.5976
 1877SOL    HW117090   1.330   2.804   3.362 -0.8417  1.6939  0.5613
 1877SOL    HW217091   1.184   2.802   3.371 -1.0784 -1.7682  0.6638
 1878SOL     OW17092   4.523   3.356  16.194 -0.2815  0.4077  0.7366
 1878SOL    HW117093   4.584   3.369  16.123 -1.6589  0.4373 -0.4469
 1878SOL    HW217094   4.458   3.427  16.197  0.7406  1.2053  4.6530
 1879SOL     OW17095   0.467   2.170   9.002 -0.1213  0.2121 -0.3832
 1879SOL    HW117096   0.499   2.101   8.942 -0.0344  0.7813 -0.9904
 1879SOL    HW217097   0.543   2.228   9.006  0.8352 -1.0866  0.2381
 1880SOL     OW17098   1.407   0.837  17.499 -0.4069  0.4620 -0.3253
 1880SOL    HW117099   1.461   0.835  17.578 -0.7720  2.4526 -0.0120
 1880SOL    HW217100   1.353   0.916  17.509 -0.8851  0.1916 -0.7745
 1881SOL     OW17101   3.672   2.542   8.279  0.3784  0.0945 -0.1784
 1881SOL    HW117102   3.751   2.500   8.313  0.2939  0.4642  0.4707
 1881SOL    HW217103   3.679   2.517   8.186 -0.4645 -0.4323 -0.0978
 1882SOL     OW17104   0.970   1.214   5.144  0.3373 -0.6367 -0.0114
 1882SOL    HW117105   0.925   1.291   5.179  1.6511 -0.2099  0.7474
 1882SOL    HW217106   0.888   1.179   5.108 -0.2606  1.5448 -0.7167
 1883SOL     OW17107   0.978   0.527   9.219  0.1092 -0.2815 -0.1038
 1883SOL    HW117108   1.052   0.475   9.249  0.1865 -0.7286 -1.0506
 1883SOL    HW217109   0.905   0.466   9.231  0.4300 -0.1587  2.4875
 1884SOL     OW17110   3.248   2.886   6.717  0.0905 -0.0069  0.6454
 1884SOL    HW117111   3.271   2.856   6.805  0.4036  0.2877  0.6642
 1884SOL    HW217112   3.205   2.972   6.717 -0.6390 -0.3800  1.4334
 1885SOL     OW17113   2.773   2.254   1.743 -0.1716  0.0547  0.2595
 1885SOL    HW117114   2.807   2.335   1.781  0.7306 -0.7807  1.2529
 1885SOL    HW217115   2.691   2.289   1.709  0.2995 -0.2335 -1.1485
 1886SOL     OW17116   4.272   2.895  13.025 -0.3822 -0.2191  0.2934
 1886SOL    HW117117   4.241   2.840  12.954  0.0946  0.1915 -0.2311
 1886SOL    HW217118   4.308   2.815  13.063  0.1413 -0.7074 -1.2394
 1887SOL     OW17119   3.145   4.254   0.493  0.6840  0.1203  0.0082
 1887SOL    HW117120   3.175   4.198   0.564  2.1160  1.0727  0.1419
 1887SOL    HW217121   3.064   4.286   0.533 -0.0725 -0.4205 -1.0875
 1888SOL     OW17122   2.612   4.206   0.921 -0.9123 -0.6777 -0.2078
 1888SOL    HW117123   2.633   4.271   0.854  2.8314 -0.6079  1.0267
 1888SOL    HW217124   2.537   4.247   0.964  0.9946  2.9266 -0.3132
 1889SOL     OW17125   0.011   1.128   6.292 -0.7688  0.0360  0.0935
 1889SOL    HW117126   4.700   1.081   6.368 -0.0836  0.3854  0.6203
 1889SOL    HW217127   0.051   1.208   6.326 -0.7724 -0.0139  0.2146
 1890SOL     OW17128   1.782   2.328   5.944  0.1940  0.7287  0.0542
 1890SOL    HW117129   1.831   2.357   6.021  0.6006 -0.7255  0.3374
 1890SOL    HW217130   1.693   2.318   5.979  0.1799  1.4309  0.2186
 1891SOL     OW17131   4.412   2.799   0.944 -0.2040  0.0773  0.7313
 1891SOL    HW117132   4.433   2.882   0.985  0.1506  1.6488 -2.6204
 1891SOL    HW217133   4.446   2.729   0.999  1.4691  0.7760  0.5900
 1892SOL     OW17134   2.658   4.248   3.695  0.3849 -0.3422  0.1667
 1892SOL    HW117135   2.637   4.322   3.753 -1.6399  0.7228 -1.9339
 1892SOL    HW217136   2.607   4.181   3.741 -1.9602  2.0246  1.0034
 1893SOL     OW17137   3.017   4.716   7.814  0.3192 -0.7377  0.2228
 1893SOL    HW117138   3.086   0.057   7.797  1.3419 -1.5642  1.3066
 1893SOL    HW217139   2.996   0.019   7.904 -3.7307 -1.9085 -0.3700
 1894SOL     OW17140   1.351   0.223   2.443  0.1606 -0.1336 -0.3869
 1894SOL    HW117141   1.400   0.196   2.520 -1.7884 -4.0793 -0.5465
 1894SOL    HW217142   1.322   0.143   2.399  0.2309  1.1123 -2.7274
 1895SOL     OW17143   2.442   2.615  12.331 -0.8223  0.1770  0.1554
 1895SOL    HW117144   2.447   2.558  12.255 -1.4861 -1.6907  1.5287
 1895SOL    HW217145   2.397   2.563  12.397  0.7325 -0.2461  0.8631
 1896SOL     OW17146   3.026   3.880   7.045 -0.3870  0.3806 -0.5922
 1896SOL    HW117147   2.945   3.909   7.086 -0.4614 -1.0079  0.2619
 1896SOL    HW217148   2.999   3.810   6.985 -0.9291  1.6685 -1.8334
 1897SOL     OW17149   2.068   2.132   1.790 -0.0987 -0.1533  0.6047
 1897SOL    HW117150   2.001   2.095   1.847  0.9022 -2.4591  0.3035
 1897SOL    HW217151   2.100   2.054   1.744 -1.2611 -0.4455  0.2737
 1898SOL     OW17152   3.561   4.427   4.188  0.3409  0.0354 -0.0143
 1898SOL    HW117153   3.613   4.348   4.200 -0.5697 -0.2303  2.2895
 1898SOL    HW217154   3.495   4.432   4.258 -0.4075 -1.8216 -0.5913
 1899SOL     OW17155   0.353   4.536   9.030 -0.0904 -0.9384  0.1652
 1899SOL    HW117156   0.340   4.447   8.998 -1.5080 -0.1075 -1.5688
 1899SOL    HW217157   0.414   4.537   9.104 -2.7388 -1.4445  2.3127
 1900SOL     OW17158   2.950   3.253   3.918  1.0224 -0.2614  0.2932
 1900SOL    HW117159   3.028   3.213   3.957  0.7380  0.4791  1.6457
 1900SOL    HW217160   2.998   3.296   3.847 -0.0503 -0.0166 -0.2870
 1901SOL     OW17161   0.740   1.197  17.627  0.0119  0.2093  0.1589
 1901SOL    HW117162   0.807   1.249  17.672 -0.3240  1.2104 -0.4971
 1901SOL    HW217163   0.746   1.124  17.688 -1.1382 -0.1783 -0.2040
 1902SOL     OW17164   4.648   2.786   2.416 -0.7179 -0.4056  0.0419
 1902SOL    HW117165   4.636   2.816   2.326 -2.8578 -2.0240 -0.2022
 1902SOL    HW217166   4.712   2.853   2.442  0.3812 -1.6158  0.4681
 1903SOL     OW17167   1.322   1.102   3.560 -0.2091 -0.3809  0.2928
 1903SOL    HW117168   1.390   1.114   3.493 -1.5909  1.0622 -0.8574
 1903SOL    HW217169   1.273   1.039   3.507  1.4458 -1.6493  0.2903
 1904SOL     OW17170   1.194   1.628  16.679 -0.4375  0.3714 -0.0799
 1904SOL    HW117171   1.185   1.649  16.586 -3.9207  1.5163  0.5440
 1904SOL    HW217172   1.208   1.714  16.720 -0.4431  1.2348 -1.8853
 1905SOL     OW17173   0.390   2.045   8.708 -0.2198  0.8790  0.7825
 1905SOL    HW117174   0.304   2.034   8.666  0.8494  0.3326 -1.2424
 1905SOL    HW217175   0.399   1.964   8.758 -1.0531  0.2741 -0.0502
 1906SOL     OW17176   3.572   2.232   9.302  0.0506  0.2615  0.1311
 1906SOL    HW117177   3.508   2.163   9.318  0.3188  0.1850  0.8684
 1906SOL    HW217178   3.517   2.303   9.336 -0.6729  0.0660 -0.6387
 1907SOL     OW17179   1.252   0.361   1.095 -0.0353 -0.7053  0.2699
 1907SOL    HW117180   1.278   0.287   1.040 -1.9920 -0.9299 -0.3604
 1907SOL    HW217181   1.160   0.358   1.066  0.4437 -0.0915 -1.3105
 1908SOL     OW17182   0.262   3.908   7.458  0.1324 -0.5420  0.5368
 1908SOL    HW117183   0.264   3.979   7.394 -1.7605 -1.3453 -0.4295
 1908SOL    HW217184   0.183   3.856   7.442  0.9333 -1.8642  0.8928
 1909SOL     OW17185   2.746   3.795   1.717 -0.7582 -0.2842 -0.3405
 1909SOL    HW117186   2.808   3.865   1.696  0.0153 -0.5611  1.0185
 1909SOL    HW217187   2.801   3.717   1.709 -1.4430 -0.6376 -1.6663
 1910SOL     OW17188   3.993   1.386  15.433 -0.7308 -0.0391  0.2526
 1910SOL    HW117189   4.033   1.299  15.425  1.3677  0.9710 -0.0631
 1910SOL    HW217190   3.900   1.380  15.412 -0.8702  0.2518  0.7983
 1911SOL     OW17191   4.302   0.929  15.259 -0.0329  0.3360  0.2892
 1911SOL    HW117192   4.383   0.910  15.212 -1.0132  1.5963 -1.8734
 1911SOL    HW217193   4.256   0.995  15.207  0.5226  1.3414  1.0920
 1912SOL     OW17194   2.371   2.586   6.635  0.3645 -0.4009 -0.4894
 1912SOL    HW117195   2.416   2.549   6.711 -0.1445  2.1080  1.0495
 1912SOL    HW217196   2.416   2.553   6.557  2.0379  0.4669  0.0892
 1913SOL     OW17197   1.679   1.903   8.400 -0.4109 -0.1274  0.1462
 1913SOL    HW117198   1.684   1.808   8.406  3.9358  0.1554  0.9833
 1913SOL    HW217199   1.594   1.914   8.443 -1.0616 -1.3274 -0.8124
 1914SOL     OW17200   1.114   0.035  13.418 -0.4340  0.0649  0.1785
 1914SOL    HW117201   1.023   0.066  13.414  0.1465  1.9267  1.6226
 1914SOL    HW217202   1.131   4.719  13.503 -0.9384 -0.2737  0.1270
 1915SOL     OW17203   3.516   1.691   0.164  0.2305  0.3009 -0.4190
 1915SOL    HW117204   3.532   1.604   0.199 -0.1645  0.5782  0.4420
 1915SOL    HW217205   3.474   1.736   0.237 -0.9408  0.2216 -1.0513
 1916SOL     OW17206   2.333   4.578   4.629 -0.7120 -0.1847  0.3005
 1916SOL    HW117207   2.399   4.615   4.571  0.1672 -0.8403  0.8741
 1916SOL    HW217208   2.331   4.492   4.586  4.0636  0.5301 -1.3272
 1917SOL     OW17209   4.700   1.058  10.777 -0.4800  0.1374 -0.4807
 1917SOL    HW117210   0.005   1.106  10.699 -1.3099 -0.7079 -1.2901
 1917SOL    HW217211   0.054   1.043  10.832  1.0237 -0.1334 -2.7000
 1918SOL     OW17212   3.065   0.864   0.135 -0.6074 -0.1083  0.3608
 1918SOL    HW117213   2.973   0.888   0.152 -2.1076 -2.9948 -3.7636
 1918SOL    HW217214   3.100   0.953   0.136  2.1298 -1.2049  0.7715
 1919SOL     OW17215   4.304   0.716   7.593  0.4085  0.6445  0.4873
 1919SOL    HW117216   4.240   0.778   7.557  1.8692  0.3111 -2.7416
 1919SOL    HW217217   4.347   0.685   7.513  0.2953  0.6429  0.4260
 1920SOL     OW17218   2.478   1.836  14.987 -0.4753  0.0195  0.0595
 1920SOL    HW117219   2.573   1.844  15.001 -0.4688  0.4364 -0.2587
 1920SOL    HW217220   2.476   1.855  14.894  1.0979 -0.7357 -0.1317
 1921SOL     OW17221   4.218   1.448  13.750 -0.1396 -0.5019  0.3773
 1921SOL    HW117222   4.182   1.523  13.798 -0.4847  0.2201 -0.9990
 1921SOL    HW217223   4.306   1.483  13.734 -0.1586 -0.8097 -0.3738
 1922SOL     OW17224   4.047   3.440   5.188  0.5750  0.4632  0.4718
 1922SOL    HW117225   4.117   3.442   5.122  0.0910  0.8865 -0.0214
 1922SOL    HW217226   4.093   3.393   5.258  0.6411 -0.4800 -0.2013
 1923SOL     OW17227   1.176   1.720  10.700 -0.5315  0.1560 -0.4986
 1923SOL    HW117228   1.105   1.657  10.687  0.2180 -1.3576  2.5860
 1923SOL    HW217229   1.230   1.677  10.767 -0.0175 -1.7411 -2.1322
 1924SOL     OW17230   1.843   1.778   5.284  0.4046 -0.0090  0.0274
 1924SOL    HW117231   1.914   1.803   5.343  2.8974 -0.4696 -2.7127
 1924SOL    HW217232   1.817   1.866   5.257  2.9514  1.0714  1.0981
 1925SOL     OW17233   1.133   4.513   7.324  0.2612  0.2547 -0.1607
 1925SOL    HW117234   1.072   4.586   7.330 -2.0048 -1.6310 -0.1126
 1925SOL    HW217235   1.115   4.472   7.409 -3.3493  0.3993 -0.8649
 1926SOL     OW17236   2.614   3.233   0.918 -0.6673  0.3442 -0.6716
 1926SOL    HW117237   2.631   3.216   1.011  1.8422 -0.5961 -1.3179
 1926SOL    HW217238   2.635   3.325   0.905  0.6367  0.1244 -0.1051
 1927SOL     OW17239   2.723   2.718   8.298 -0.0518 -0.3200 -0.1773
 1927SOL    HW117240   2.806   2.761   8.317 -1.3443  2.8571 -1.7026
 1927SOL    HW217241   2.676   2.740   8.379  2.3253  2.3835  0.4767
 1928SOL     OW17242   4.206   4.654   4.086 -0.0991  0.2312  0.1427
 1928SOL    HW117243   4.123   4.698   4.103 -1.9104 -2.6616 -1.1175
 1928SOL    HW217244   4.266   0.004   4.074 -0.3086  0.4090  0.1785
 1929SOL     OW17245   4.164   4.344   7.289 -0.4351 -0.1070 -0.3060
 1929SOL    HW117246   4.174   4.435   7.263 -2.5094  1.3924  4.2000
 1929SOL    HW217247   4.171   4.346   7.385  1.1099 -1.1507 -0.3872
 1930SOL     OW17248   4.495   2.071   4.963 -0.1436  0.0339 -0.4321
 1930SOL    HW117249   4.587   2.050   4.947  0.5133  1.0881  1.9311
 1930SOL    HW217250   4.493   2.087   5.058  2.3553  1.8034 -0.6666
 1931SOL     OW17251   1.005   2.145   6.854 -0.1979  0.3397  0.2486
 1931SOL    HW117252   0.963   2.202   6.789 -0.8461  0.3232  0.6451
 1931SOL    HW217253   1.034   2.211   6.917  0.6169  0.0962  0.1281
 1932SOL     OW17254   1.543   1.953   3.518  0.2851 -0.0684  0.3686
 1932SOL    HW117255   1.627   1.965   3.563  1.1541  1.7554 -1.7565
 1932SOL    HW217256   1.569   1.897   3.445 -1.4090 -1.9642  1.2256
 1933SOL     OW17257   4.618   0.980   3.740  0.0331 -0.3684 -0.0156
 1933SOL    HW117258   4.562   1.056   3.726  0.2630 -0.1047  0.5352
 1933SOL    HW217259   4.687   0.999   3.676  0.1445  0.6156  0.4133
 1934SOL     OW17260   2.659   1.570   2.715  0.2873  0.2980  0.3152
 1934SOL    HW117261   2.619   1.484   2.720  1.4939 -0.4219 -2.3027
 1934SOL    HW217262   2.740   1.546   2.670  0.6147  0.4225  0.8396
 1935SOL     OW17263   3.278   2.989  14.876 -0.0910  0.3917 -0.0988
 1935SOL    HW117264   3.200   2.934  14.883  1.4476 -1.7911 -0.0109
 1935SOL    HW217265   3.247   3.079  14.884  1.5345  0.9939 -0.4455
 1936SOL     OW17266   0.395   4.444  17.565  0.3857  0.2132  0.1895
 1936SOL    HW117267   0.394   4.530  17.606 -1.5890 -0.3330  1.2857
 1936SOL    HW217268   0.387   4.386  17.641 -0.1368 -0.3106 -0.2634
 1937SOL     OW17269   1.501   4.315  12.683 -0.1359 -0.8343 -0.4829
 1937SOL    HW117270   1.512   4.359  12.598 -1.9152  2.4269  0.9468
 1937SOL    HW217271   1.532   4.389  12.735 -0.3804 -0.6731 -0.5669
 1938SOL     OW17272   0.147   3.316  13.804 -0.4550 -0.3812  0.4952
 1938SOL    HW117273   0.109   3.372  13.735 -1.7072 -0.1764  1.3501
 1938SOL    HW217274   0.237   3.322  13.770  0.1358  1.0355  2.3226
 1939SOL     OW17275   0.245   3.800  10.992  0.2330  0.5156 -0.2591
 1939SOL    HW117276   0.203   3.847  10.920 -0.5060  0.1375 -0.0769
 1939SOL    HW217277   0.330   3.839  11.015  2.1899 -3.7482 -0.1658
 1940SOL     OW17278   2.960   3.462  13.338  0.6725 -0.1848 -0.0919
 1940SOL    HW117279   2.905   3.532  13.303 -0.3868 -1.7649 -1.6138
 1940SOL    HW217280   2.947   3.398  13.268 -0.1176  1.3467 -1.3456
 1941SOL     OW17281   0.339   3.707   8.429 -0.7345  0.2261  0.4094
 1941SOL    HW117282   0.425   3.731   8.463  0.0853 -0.7353 -1.0296
 1941SOL    HW217283   0.287   3.753   8.495  1.3014  0.7711  1.6370
 1942SOL     OW17284   1.841   1.519   5.960  0.4178 -0.1935 -0.4698
 1942SOL    HW117285   1.825   1.574   6.037  1.0415 -1.5450  0.6166
 1942SOL    HW217286   1.799   1.437   5.985  1.4201 -0.3511  0.6764
 1943SOL     OW17287   2.615   3.950  13.374  1.4460  0.1123 -0.5865
 1943SOL    HW117288   2.549   4.003  13.418  1.5093  0.2633 -0.6721
 1943SOL    HW217289   2.560   3.876  13.349  0.8738  0.5714 -0.6908
 1944SOL     OW17290   3.020   2.300   2.682 -0.2182  0.0924 -0.5671
 1944SOL    HW117291   2.986   2.370   2.737  0.9201 -0.4744  0.8386
 1944SOL    HW217292   3.088   2.260   2.736  0.1882  0.0510 -1.1033
 1945SOL     OW17293   3.986   0.316   2.270  0.3492 -0.3039 -0.4278
 1945SOL    HW117294   4.063   0.372   2.259  0.3039  0.1409  1.5686
 1945SOL    HW217295   3.928   0.343   2.199 -0.0501 -0.4055 -0.1351
 1946SOL     OW17296   2.161   1.824   6.364  0.3166  0.0741 -0.0477
 1946SOL    HW117297   2.179   1.817   6.458  1.0370 -1.3119 -0.2836
 1946SOL    HW217298   2.171   1.918   6.352 -0.1633 -0.1247 -2.0629
 1947SOL     OW17299   3.437   2.286   8.680  0.2515 -0.3591  0.1485
 1947SOL    HW117300   3.437   2.252   8.769 -0.1877 -2.1652 -0.5346
 1947SOL    HW217301   3.360   2.342   8.687  0.4913  0.2715 -2.0883
 1948SOL     OW17302   3.365   3.411  17.055 -0.5589  0.2160 -0.1585
 1948SOL    HW117303   3.316   3.387  17.134  1.4562  3.1705  2.0058
 1948SOL    HW217304   3.400   3.325  17.031 -0.5340 -0.0409  0.7742
 1949SOL     OW17305   1.073   1.778  15.863  0.3304  0.0768 -0.1055
 1949SOL    HW117306   1.095   1.800  15.772 -0.5486  0.2533 -0.2781
 1949SOL    HW217307   1.159   1.745  15.890 -0.1583 -1.5744 -0.5269
 1950SOL     OW17308   2.693   3.774   7.150  0.0016  0.4177 -0.2146
 1950SOL    HW117309   2.731   3.722   7.221 -1.2216 -2.3368 -1.5577
 1950SOL    HW217310   2.660   3.851   7.196  0.3567 -1.2202  2.7724
 1951SOL     OW17311   1.604   0.076  12.952  0.2962  0.2742 -0.4143
 1951SOL    HW117312   1.524   0.078  12.900  0.1428  2.5796 -0.1266
 1951SOL    HW217313   1.646   0.157  12.924  1.2752 -0.5287 -1.2454
 1952SOL     OW17314   4.327   3.014  11.900 -0.6847 -0.2424  0.2052
 1952SOL    HW117315   4.235   3.035  11.910 -1.4477 -2.1628 -2.5822
 1952SOL    HW217316   4.340   2.960  11.978  0.4253 -1.4965 -0.8481
 1953SOL     OW17317   1.211   0.010   8.395  0.0240  0.2312  0.0955
 1953SOL    HW117318   1.131   4.680   8.394 -0.9280  1.6107  2.7100
 1953SOL    HW217319   1.200   0.048   8.308 -0.4502 -0.6093 -0.2055
 1954SOL     OW17320   1.716   0.387   5.224 -0.4377  0.1368 -0.7365
 1954SOL    HW117321   1.700   0.394   5.318 -0.9540 -1.1254 -0.7213
 1954SOL    HW217322   1.807   0.415   5.229  0.0651 -1.9712  2.0478
 1955SOL     OW17323   0.170   3.230   6.192 -0.7433  0.1327 -0.0817
 1955SOL    HW117324   0.242   3.256   6.250 -2.3934  0.6891  1.7462
 1955SOL    HW217325   0.101   3.288   6.227 -0.5013 -1.0705  2.3891
 1956SOL     OW17326   4.297   0.406  16.272 -0.1293  0.0404  0.5930
 1956SOL    HW117327   4.318   0.332  16.215 -0.5817 -0.4780  1.0969
 1956SOL    HW217328   4.209   0.426  16.238 -0.1792  1.0933  1.3352
 1957SOL     OW17329   1.066   1.162   1.135 -0.1527 -0.7871  0.2579
 1957SOL    HW117330   1.104   1.153   1.048 -2.2903  0.3938 -0.7953
 1957SOL    HW217331   1.134   1.213   1.179 -1.2238  2.7159 -2.1428
 1958SOL     OW17332   4.453   2.261   5.684  0.1305 -0.0826 -0.2934
 1958SOL    HW117333   4.475   2.194   5.749 -1.1159  0.6330  0.8675
 1958SOL    HW217334   4.468   2.337   5.741  1.1853  0.0460 -0.7525
 1959SOL     OW17335   3.890   0.101   4.818  1.0138 -0.5685  0.1656
 1959SOL    HW117336   3.974   0.064   4.792  1.1506  0.9416 -1.4880
 1959SOL    HW217337   3.852   0.125   4.733  2.4310  0.7776 -0.0821
 1960SOL     OW17338   0.554   3.032   6.680  0.1663 -0.1541  0.0643
 1960SOL    HW117339   0.613   3.000   6.612  0.7362 -1.3719  1.1583
 1960SOL    HW217340   0.541   2.943   6.711  1.7310  0.4310  2.4181
 1961SOL     OW17341   4.160   1.549  15.210 -0.4199  0.0515  0.3220
 1961SOL    HW117342   4.148   1.507  15.296 -0.9087  1.9938  1.2025
 1961SOL    HW217343   4.133   1.477  15.153  0.8616 -0.3586  0.2347
 1962SOL     OW17344   0.529   1.864   0.452  0.1165 -0.4870 -0.0062
 1962SOL    HW117345   0.450   1.900   0.494  0.2712 -0.5484  0.3438
 1962SOL    HW217346   0.501   1.843   0.364 -2.4174 -0.0502  0.6971
 1963SOL     OW17347   0.338   3.110   7.106 -0.7349  0.2256  0.0937
 1963SOL    HW117348   0.395   3.179   7.071 -1.6670  1.3759  0.8329
 1963SOL    HW217349   0.258   3.149   7.070  0.1849  2.1581  0.1557
 1964SOL     OW17350   2.526   1.813   7.551 -0.5746 -0.8561 -0.2814
 1964SOL    HW117351   2.499   1.723   7.534 -0.4370 -0.4735 -2.5854
 1964SOL    HW217352   2.618   1.812   7.524 -0.6292 -2.7719 -0.4171
 1965SOL     OW17353   1.624   4.474   4.631 -0.5634 -0.2163 -0.2304
 1965SOL    HW117354   1.536   4.437   4.629  0.4263 -2.6151 -0.1233
 1965SOL    HW217355   1.677   4.400   4.663  0.6160  1.5193  1.8640
 1966SOL     OW17356   0.269   4.321   9.343 -0.5843  0.0699 -0.1025
 1966SOL    HW117357   0.328   4.345   9.415  1.0129 -6.0881  0.6546
 1966SOL    HW217358   0.184   4.324   9.388 -0.6736  1.1172 -0.3431
 1967SOL     OW17359   3.749   2.953   0.783 -0.2576  0.0153  0.2559
 1967SOL    HW117360   3.654   2.967   0.784 -0.1716  0.4768  1.2692
 1967SOL    HW217361   3.778   3.038   0.751 -1.4530  0.1475 -0.5163
 1968SOL     OW17362   2.339   3.964  15.966 -0.4981  0.2321 -0.2217
 1968SOL    HW117363   2.336   3.886  15.911  2.2095 -1.3766  1.9350
 1968SOL    HW217364   2.389   3.924  16.037  0.3725 -0.0253 -0.9828
 1969SOL     OW17365   1.811   4.636   2.929  0.1207 -0.5290 -1.1098
 1969SOL    HW117366   1.802   4.663   3.020 -0.9873 -3.1488 -0.4336
 1969SOL    HW217367   1.894   4.589   2.934  0.0601 -0.4628  0.5776
 1970SOL     OW17368   2.021   0.231   5.108 -0.1164  0.4669 -0.6012
 1970SOL    HW117369   2.037   0.255   5.017 -0.5328  1.3119 -0.4452
 1970SOL    HW217370   2.107   0.193   5.127 -2.4901 -1.9598  5.2569
 1971SOL     OW17371   0.382   2.288   7.872 -0.2154 -0.1928 -0.4605
 1971SOL    HW117372   0.473   2.260   7.861 -0.1551 -0.6896  1.2438
 1971SOL    HW217373   0.380   2.309   7.966  0.6358  2.4402 -1.0383
 1972SOL     OW17374   4.315   0.448  10.433  0.9163 -0.5605 -0.2688
 1972SOL    HW117375   4.350   0.531  10.465 -1.2264 -0.0421  0.7109
 1972SOL    HW217376   4.333   0.452  10.339  2.1585 -0.8026 -0.0378
 1973SOL     OW17377   0.108   0.908  15.600 -0.0809 -0.1389  0.0348
 1973SOL    HW117378   0.130   0.829  15.649  2.5855  0.2736 -0.5085
 1973SOL    HW217379   0.164   0.883  15.526 -0.3892 -0.4059 -0.1070
 1974SOL     OW17380   2.276   3.464   6.639 -0.5633 -0.2129  0.5446
 1974SOL    HW117381   2.365   3.434   6.658 -0.1079  0.0753 -1.0984
 1974SOL    HW217382   2.265   3.533   6.704 -1.4684  0.1957 -0.0415
 1975SOL     OW17383   3.068   4.316   8.129  0.2629 -0.5698  0.0195
 1975SOL    HW117384   3.024   4.357   8.054  0.2911  0.1312  0.3878
 1975SOL    HW217385   3.147   4.370   8.139  1.4830 -1.9481 -2.1081
 1976SOL     OW17386   1.050   0.493   6.715  0.0830  0.3841  0.2215
 1976SOL    HW117387   1.103   0.423   6.677 -0.0988  0.7238 -0.6659
 1976SOL    HW217388   1.115   0.562   6.706  0.5046 -0.4561 -3.2159
 1977SOL     OW17389   4.162   2.663   1.212  0.0955 -0.0124 -0.2989
 1977SOL    HW117390   4.142   2.569   1.209 -1.0484  0.1787  1.2639
 1977SOL    HW217391   4.150   2.698   1.123  2.1152 -3.7874 -2.0483
 1978SOL     OW17392   3.873   3.240   3.390 -0.6370  0.3046 -0.3532
 1978SOL    HW117393   3.860   3.288   3.472  1.2228 -0.6042  0.4736
 1978SOL    HW217394   3.906   3.155   3.419  1.0268  0.9226 -0.4454
 1979SOL     OW17395   0.191   2.951   6.194  0.3536  0.0634 -0.3213
 1979SOL    HW117396   0.210   3.042   6.169  0.0305  0.4937  0.9789
 1979SOL    HW217397   0.104   2.957   6.233  0.8617  0.7552  0.7061
 1980SOL     OW17398   1.953   4.318   8.756  0.2992 -0.0682 -1.0501
 1980SOL    HW117399   1.926   4.319   8.848  4.2534  0.3418  0.1250
 1980SOL    HW217400   2.018   4.247   8.761 -0.6560 -0.9666 -1.4473
 1981SOL     OW17401   0.669   4.365   9.189 -0.0631  0.5539  0.6468
 1981SOL    HW117402   0.690   4.285   9.237 -1.9307  0.6174  1.5740
 1981SOL    HW217403   0.754   4.372   9.145 -0.1395 -0.7317  0.2955
 1982SOL     OW17404   0.797   2.365  11.312 -0.0085  0.4605 -0.1520
 1982SOL    HW117405   0.786   2.457  11.291 -2.2814  0.5985  1.6051
 1982SOL    HW217406   0.771   2.364  11.404 -1.4155  0.5490 -0.5504
 1983SOL     OW17407   0.892   2.404   5.795 -0.7043 -0.5805  0.4438
 1983SOL    HW117408   0.826   2.397   5.726 -0.7202  0.3842  0.3662
 1983SOL    HW217409   0.865   2.479   5.847 -0.3861 -0.0643 -0.1445
 1984SOL     OW17410   1.785   1.052  16.822  0.4469  0.1484  0.4550
 1984SOL    HW117411   1.764   0.960  16.805  0.0909  0.1293  0.9991
 1984SOL    HW217412   1.709   1.096  16.784 -0.3926 -1.7940 -0.0983
 1985SOL     OW17413   2.274   3.779  12.414 -0.2903 -0.5216  0.1137
 1985SOL    HW117414   2.203   3.836  12.443 -1.3804 -2.4683  1.2712
 1985SOL    HW217415   2.234   3.714  12.357 -0.8800  1.7694 -2.1010
 1986SOL     OW17416   0.558   3.772  17.323  0.1755 -0.0951 -0.4678
 1986SOL    HW117417   0.527   3.682  17.321 -1.9667  0.5533  3.0821
 1986SOL    HW217418   0.644   3.776  17.365  0.7036  0.5081 -1.6028
 1987SOL     OW17419   3.127   4.134   3.595  0.1554  0.3728  0.5387
 1987SOL    HW117420   3.194   4.090   3.542  0.4975  0.3460  1.0009
 1987SOL    HW217421   3.158   4.138   3.685  0.9785 -1.0772  0.3139
 1988SOL     OW17422   0.061   0.494  14.646 -0.0348  0.2616 -0.0136
 1988SOL    HW117423   0.127   0.447  14.594 -1.9328 -1.2708 -1.0767
 1988SOL    HW217424   0.108   0.576  14.659  2.2861 -1.4615  2.3000
 1989SOL     OW17425   1.381   1.091   5.975 -0.0992  0.0549 -0.6966
 1989SOL    HW117426   1.317   1.021   5.985  0.2319 -0.3045 -1.0845
 1989SOL    HW217427   1.374   1.109   5.881 -1.0119  0.6896 -0.5131
 1990SOL     OW17428   4.631   3.983   5.760 -0.0654 -0.0695  0.1296
 1990SOL    HW117429   4.632   4.019   5.672  2.3940 -0.6416 -0.0728
 1990SOL    HW217430   4.633   3.889   5.739 -0.6895  0.7968 -3.7095
 1991SOL     OW17431   1.438   0.867   9.081 -0.2022  0.3695  0.6145
 1991SOL    HW117432   1.385   0.813   9.139 -2.6043  2.7694  0.6537
 1991SOL    HW217433   1.473   0.802   9.019  0.7072  0.2240  1.2897
 1992SOL     OW17434   4.631   1.175   7.460 -0.1847 -0.4598  0.4616
 1992SOL    HW117435   4.628   1.168   7.556 -0.0941 -0.9757  0.4229
 1992SOL    HW217436   4.560   1.119   7.428 -0.8968  0.5089  0.3278
 1993SOL     OW17437   1.704   2.914   2.602 -0.7908  0.6450  0.1116
 1993SOL    HW117438   1.715   3.003   2.567  0.5983  0.5281  0.2218
 1993SOL    HW217439   1.749   2.876   2.526  0.4831  2.3166  0.0091
 1994SOL     OW17440   4.049   4.349   8.538  0.4942  0.1656 -0.1768
 1994SOL    HW117441   4.071   4.322   8.627 -1.7643  0.3888  0.4356
 1994SOL    HW217442   4.075   4.272   8.487  2.5719  0.9072 -0.2415
 1995SOL     OW17443   1.581   0.079  10.895 -0.3585 -0.1242  0.2732
 1995SOL    HW117444   1.674   0.098  10.883 -0.4620  1.3641  1.7661
 1995SOL    HW217445   1.543   0.104  10.811 -1.2768  0.7934  0.9648
 1996SOL     OW17446   2.427   0.359   8.222  0.4166 -0.4964  0.2090
 1996SOL    HW117447   2.357   0.295   8.235  1.7068 -2.2442 -1.4411
 1996SOL    HW217448   2.408   0.438   8.273  0.6162 -0.2518 -0.0944
 1997SOL     OW17449   2.070   0.806   2.789  0.1281  0.8071 -0.3960
 1997SOL    HW117450   2.016   0.803   2.868 -0.7743  4.0470 -0.8996
 1997SOL    HW217451   2.061   0.728   2.735 -1.2737 -0.0589  1.0714
 1998SOL     OW17452   2.750   2.224  12.663 -0.1602 -0.4077  0.7095
 1998SOL    HW117453   2.691   2.277  12.610 -0.3040 -2.0110 -0.7271
 1998SOL    HW217454   2.745   2.140  12.619 -2.6224  0.1412 -0.0425
 1999SOL     OW17455   4.296   4.346   6.147  0.3833 -0.5624 -0.1528
 1999SOL    HW117456   4.250   4.341   6.231  0.3785  0.0822 -0.1115
 1999SOL    HW217457   4.345   4.264   6.149  0.2403 -0.5979  2.1414
 2000SOL     OW17458   3.612   1.882  12.070  0.3931 -0.0590 -0.1497
 2000SOL    HW117459   3.573   1.952  12.123  2.3574  0.2753  0.8550
 2000SOL    HW217460   3.550   1.812  12.090 -0.7045  1.0281  0.2611
 2001SOL     OW17461   1.491   1.737  17.184  0.4697  0.2021  0.1139
 2001SOL    HW117462   1.580   1.737  17.219  0.2347 -1.2079  0.7015
 2001SOL    HW217463   1.480   1.642  17.183 -1.7903  0.4710 -0.1653
 2002SOL     OW17464   0.539   4.255   4.458  0.1379 -0.2469  0.4752
 2002SOL    HW117465   0.609   4.308   4.497 -0.1056 -0.6867  1.4951
 2002SOL    HW217466   0.542   4.295   4.370 -2.0849  0.1098  0.5650
 2003SOL     OW17467   1.870   0.817   2.200  0.2997 -0.3685 -0.3970
 2003SOL    HW117468   1.881   0.840   2.108  2.1089  4.1134  0.9513
 2003SOL    HW217469   1.960   0.826   2.231  0.5543  0.4252 -1.3667
 2004SOL     OW17470   4.307   1.549   1.152 -0.1632  0.2322  0.4327
 2004SOL    HW117471   4.240   1.600   1.198  0.4841  0.0095  1.6195
 2004SOL    HW217472   4.290   1.559   1.058 -1.5991 -0.1608  0.6404
 2005SOL     OW17473   0.934   4.524   7.862  0.0829 -0.7684 -0.1676
 2005SOL    HW117474   0.909   4.577   7.787 -0.7084 -1.6145 -0.5076
 2005SOL    HW217475   0.903   4.435   7.844 -1.2769 -0.2340 -0.5216
 2006SOL     OW17476   2.806   3.908   4.900  0.3086  0.0387  0.4350
 2006SOL    HW117477   2.756   3.964   4.960 -1.4030  1.1401 -1.9657
 2006SOL    HW217478   2.892   3.949   4.900  0.1594  0.3611  0.8364
 2007SOL     OW17479   0.537   0.968  10.505 -0.2598 -0.8493 -0.1703
 2007SOL    HW117480   0.447   0.935  10.503 -0.8229  0.8170 -1.7986
 2007SOL    HW217481   0.530   1.033  10.435 -2.1793  1.8765  2.5760
 2008SOL     OW17482   2.084   1.573   5.151 -0.4650 -0.0311 -0.2309
 2008SOL    HW117483   2.092   1.646   5.213  3.0146 -1.3560  0.8967
 2008SOL    HW217484   2.114   1.497   5.202 -4.3338 -1.0514  0.4720
 2009SOL     OW17485   1.185   0.741   6.681  0.4451  0.3046  0.7073
 2009SOL    HW117486   1.205   0.779   6.767 -0.6299  0.7857  0.7398
 2009SOL    HW217487   1.139   0.813   6.638  1.4359  0.7840  0.4496
 2010SOL     OW17488   0.712   1.545   0.980  0.5047  0.5684  0.9830
 2010SOL    HW117489   0.759   1.585   0.907  0.9486  1.6474  1.8532
 2010SOL    HW217490   0.751   1.602   1.047 -0.4483  1.4008  0.8243
 2011SOL     OW17491   1.443   0.555   5.148  0.0666  0.0766  0.3250
 2011SOL    HW117492   1.501   0.502   5.203 -0.2848 -2.6354 -1.9263
 2011SOL    HW217493   1.423   0.480   5.092  0.9695 -0.1904  0.3611
 2012SOL     OW17494   4.049   2.894   7.409 -0.1533 -0.2029  0.0190
 2012SOL    HW117495   4.037   2.818   7.352  0.5004 -0.0047 -0.3832
 2012SOL    HW217496   4.134   2.922   7.375  0.8795 -1.0163  1.9609
 2013SOL     OW17497   0.993   0.455  13.637 -0.9965 -0.3224  0.2699
 2013SOL    HW117498   1.029   0.536  13.673 -0.0189 -0.1710 -1.0413
 2013SOL    HW217499   1.066   0.405  13.601 -0.9033 -1.3415  1.8603
 2014SOL     OW17500   0.156   3.555  10.858 -0.0448 -0.5390  0.1504
 2014SOL    HW117501   0.184   3.631  10.909  0.5688  0.1857 -1.2825
 2014SOL    HW217502   0.069   3.552  10.898 -0.5467 -1.1274 -0.9973
 2015SOL     OW17503   2.631   2.860   5.923 -0.1977 -0.2196 -0.1183
 2015SOL    HW117504   2.616   2.773   5.886 -1.6334  0.7922 -1.8872
 2015SOL    HW217505   2.601   2.917   5.852 -0.9183 -0.8577 -0.3239
 2016SOL     OW17506   0.487   3.446   3.159 -0.0786 -0.8013  0.2434
 2016SOL    HW117507   0.512   3.358   3.188 -1.7571 -0.7379  1.9306
 2016SOL    HW217508   0.392   3.444   3.144 -0.1106  1.2441  0.2494
 2017SOL     OW17509   2.538   3.742  15.973  0.4094  0.3175  0.0358
 2017SOL    HW117510   2.472   3.745  15.904 -0.5287 -1.6780  0.8673
 2017SOL    HW217511   2.528   3.657  16.014 -0.1695  0.9089  1.1140
 2018SOL     OW17512   2.173   4.695   9.276 -0.2184  0.3888 -0.5195
 2018SOL    HW117513   2.176   4.663   9.186  0.2177 -1.4405  0.1322
 2018SOL    HW217514   2.092   0.022   9.268 -0.3753  0.6159  2.2289
 2019SOL     OW17515   2.990   2.128   7.917 -0.6503  0.2692  0.2752
 2019SOL    HW117516   2.939   2.085   7.986  1.2086  3.1857  3.4558
 2019SOL    HW217517   2.966   2.216   7.945 -1.7257  0.3934 -1.0322
 2020SOL     OW17518   3.188   1.622   3.581 -0.3709 -0.0059  0.2220
 2020SOL    HW117519   3.182   1.583   3.668  1.9720  0.6689  0.7046
 2020SOL    HW217520   3.269   1.672   3.595  0.2426 -0.6998 -0.9236
 2021SOL     OW17521   4.706   4.253   5.348  0.1578 -0.0745  0.0823
 2021SOL    HW117522   0.008   4.173   5.302 -0.7445  0.9980 -2.2868
 2021SOL    HW217523   0.004   4.323   5.286 -1.2955 -0.0644 -0.3932
 2022SOL     OW17524   1.009   4.408   8.859 -0.1278  0.1657 -0.5068
 2022SOL    HW117525   1.100   4.437   8.849  0.7320 -2.5876 -0.6746
 2022SOL    HW217526   0.962   4.420   8.776  0.3231 -3.0476 -1.2364
 2023SOL     OW17527   2.522   1.716  12.179 -0.1436  0.5694 -0.1106
 2023SOL    HW117528   2.489   1.658  12.248  0.7967  0.1123 -0.0442
 2023SOL    HW217529   2.556   1.649  12.119 -0.4304  0.4755 -0.1670
 2024SOL     OW17530   2.567   3.422   5.979  0.2843 -0.0668  0.6829
 2024SOL    HW117531   2.511   3.458   6.048  0.1343  0.2087  0.4197
 2024SOL    HW217532   2.602   3.341   6.016  1.3560  1.0099  1.9761
 2025SOL     OW17533   0.343   4.566  10.047 -0.3712 -0.3962  0.0277
 2025SOL    HW117534   0.260   4.521  10.060 -0.2935 -0.1051  1.4835
 2025SOL    HW217535   0.315   4.658  10.054 -0.0276 -0.0546 -2.9826
 2026SOL     OW17536   4.045   2.711   5.371 -0.8548 -0.2213  0.9899
 2026SOL    HW117537   4.080   2.670   5.292  1.5675  0.3626  1.7562
 2026SOL    HW217538   4.129   2.727   5.414 -0.2892 -0.0435 -0.1800
 2027SOL     OW17539   3.443   3.196   4.047  0.1372 -0.3155 -0.1337
 2027SOL    HW117540   3.525   3.188   3.997  1.1728  1.8034  1.2453
 2027SOL    HW217541   3.419   3.281   4.011 -2.0575 -1.5350 -1.5135
 2028SOL     OW17542   2.025   0.856   5.196 -1.0519 -0.4179  0.1082
 2028SOL    HW117543   1.984   0.927   5.148  0.7603  0.9504  0.6209
 2028SOL    HW217544   2.108   0.837   5.152 -0.6422 -0.4208  0.8810
 2029SOL     OW17545   2.311   4.582   5.743  0.3204  0.3663 -0.1288
 2029SOL    HW117546   2.400   4.593   5.778  0.9785 -0.9509 -1.3834
 2029SOL    HW217547   2.272   4.667   5.766 -1.7714 -1.3050  2.4672
 2030SOL     OW17548   3.655   1.628   0.469  0.5161  0.2240 -0.1134
 2030SOL    HW117549   3.629   1.590   0.385  0.0429  0.0606  0.1101
 2030SOL    HW217550   3.722   1.694   0.448  2.6947 -0.9168  3.2530
 2031SOL     OW17551   0.872   3.087   3.606 -0.5302  0.6004  0.5994
 2031SOL    HW117552   0.911   3.023   3.546 -0.4528  2.0917 -0.9372
 2031SOL    HW217553   0.780   3.087   3.579 -0.4427 -0.6674  0.3152
 2032SOL     OW17554   1.820   1.869  15.520 -0.5027 -0.3128 -0.2772
 2032SOL    HW117555   1.823   1.774  15.506 -1.0629 -0.1739 -1.2468
 2032SOL    HW217556   1.911   1.890  15.499 -0.2968 -0.5632  0.3521
 2033SOL     OW17557   3.332   0.188  10.852  0.1835  0.4785  0.2130
 2033SOL    HW117558   3.360   0.201  10.761  0.7219  1.5044  0.5209
 2033SOL    HW217559   3.412   0.170  10.901  0.3128 -0.2804 -0.2801
 2034SOL     OW17560   1.417   3.708   1.957  0.4857  0.5913 -0.3466
 2034SOL    HW117561   1.375   3.623   1.968  3.7021 -0.7328  1.5954
 2034SOL    HW217562   1.353   3.748   1.898  1.1119  1.0048 -0.7466
 2035SOL     OW17563   2.680   4.239  14.455  0.0936  0.0258 -0.9628
 2035SOL    HW117564   2.748   4.173  14.470 -0.1099 -0.4512 -2.0908
 2035SOL    HW217565   2.601   4.186  14.463  0.8394 -0.8854  0.3255
 2036SOL     OW17566   0.961   1.984   2.436 -0.2380 -0.3781 -0.3353
 2036SOL    HW117567   0.911   1.969   2.355 -0.8822 -0.4938  0.0832
 2036SOL    HW217568   0.999   2.068   2.409  0.5470 -0.3635  0.8278
 2037SOL     OW17569   2.021   4.288  15.838 -0.4289  0.7536  1.2063
 2037SOL    HW117570   2.087   4.350  15.868  2.2015 -0.1059 -2.8448
 2037SOL    HW217571   2.050   4.221  15.900  0.0508  0.5333  0.7380
 2038SOL     OW17572   3.547   0.467   2.246  0.1353  0.1891  0.2518
 2038SOL    HW117573   3.571   0.439   2.334  1.6904  2.2504  0.4856
 2038SOL    HW217574   3.608   0.539   2.233 -1.4677  1.8153  1.8217
 2039SOL     OW17575   2.997   0.881   9.774  0.3604  0.3723 -0.2351
 2039SOL    HW117576   2.944   0.815   9.729  0.4210  2.3119 -3.1477
 2039SOL    HW217577   3.027   0.839   9.855 -0.5519 -2.6612 -1.4414
 2040SOL     OW17578   0.847   1.303  12.620  0.2404  0.5285 -0.3311
 2040SOL    HW117579   0.791   1.379  12.604 -1.5725 -0.8544 -0.5687
 2040SOL    HW217580   0.906   1.345  12.683  0.1181 -0.0380  0.1580
 2041SOL     OW17581   1.139   2.700   4.473 -0.4948  0.1027 -0.1770
 2041SOL    HW117582   1.137   2.781   4.422  1.9044  1.7722  2.3897
 2041SOL    HW217583   1.234   2.695   4.478 -0.3889  3.3095  1.3101
 2042SOL     OW17584   4.149   1.627   6.907  0.5931 -0.1371 -0.6426
 2042SOL    HW117585   4.115   1.668   6.827 -1.0571 -3.0764 -1.4155
 2042SOL    HW217586   4.218   1.691   6.929  0.7592 -0.6467  0.3196
 2043SOL     OW17587   1.093   4.157   4.678 -0.4523  0.1890  0.9670
 2043SOL    HW117588   1.139   4.114   4.750  0.2427 -0.3564  0.1954
 2043SOL    HW217589   1.029   4.213   4.722 -1.4118  1.7536 -2.4519
 2044SOL     OW17590   1.250   4.010   7.330  0.4512  0.2815 -0.2444
 2044SOL    HW117591   1.204   4.058   7.261  0.8853  0.3553 -0.4848
 2044SOL    HW217592   1.299   4.078   7.375 -1.5443  1.0084  0.8136
 2045SOL     OW17593   0.082   2.606   3.905 -0.2566 -0.2291 -0.4526
 2045SOL    HW117594   0.122   2.656   3.975  1.6640 -4.5920  1.5882
 2045SOL    HW217595   0.065   2.526   3.955  0.4551  1.5786  2.6436
 2046SOL     OW17596   2.936   0.403   5.018  1.0006 -0.4412 -0.4550
 2046SOL    HW117597   2.946   0.379   5.110  1.9458  0.1730 -0.3860
 2046SOL    HW217598   3.028   0.389   4.995  0.9984  0.4967 -1.0268
 2047SOL     OW17599   2.200   0.535   6.826 -0.6134 -0.0577  0.0851
 2047SOL    HW117600   2.248   0.590   6.888  0.0507 -1.4011  0.7543
 2047SOL    HW217601   2.207   0.580   6.742 -0.6329  0.7024  0.4864
 2048SOL     OW17602   1.168   1.850   6.301 -0.6185  0.7819  0.0998
 2048SOL    HW117603   1.206   1.844   6.388  1.4755  1.9518 -0.7279
 2048SOL    HW217604   1.090   1.905   6.310 -1.2991  0.0128 -0.9563
 2049SOL     OW17605   0.534   3.082   3.579 -0.6057  0.5708  0.2540
 2049SOL    HW117606   0.500   3.033   3.654 -0.0984  0.8482  0.6743
 2049SOL    HW217607   0.485   3.056   3.501  0.8536 -0.8155 -0.2156
 2050SOL     OW17608   2.856   2.517   1.815 -0.0688  0.1412  0.2539
 2050SOL    HW117609   2.896   2.593   1.771 -1.6212  0.4261 -0.6964
 2050SOL    HW217610   2.935   2.475   1.848 -0.2537 -0.2412  0.2090
 2051SOL     OW17611   1.426   2.202   7.954 -0.3810  0.2555 -0.3287
 2051SOL    HW117612   1.456   2.173   8.040  0.3654 -1.8669 -1.3121
 2051SOL    HW217613   1.424   2.118   7.907 -2.2533 -0.4015  0.9755
 2052SOL     OW17614   2.577   4.122   5.766 -0.3526  0.3029  0.4234
 2052SOL    HW117615   2.629   4.097   5.689 -1.8849 -0.5731 -0.3310
 2052SOL    HW217616   2.494   4.085   5.738  0.3067 -1.7545  1.1468
 2053SOL     OW17617   2.778   3.445   7.105 -0.1391  0.0855  0.3006
 2053SOL    HW117618   2.725   3.457   7.026  1.5851 -0.2495 -0.9033
 2053SOL    HW217619   2.826   3.369   7.071  1.2220  1.5158 -0.9558
 2054SOL     OW17620   0.952   2.008   6.182 -0.7602  0.0476  0.4963
 2054SOL    HW117621   0.975   2.090   6.138 -0.9291  0.6336  1.5073
 2054SOL    HW217622   0.857   2.014   6.187 -0.8033  0.8227 -1.3791
 2055SOL     OW17623   4.316   3.418   1.349  0.0110 -0.2767  0.3581
 2055SOL    HW117624   4.329   3.513   1.347  0.4491 -0.3559 -0.8867
 2055SOL    HW217625   4.322   3.398   1.443 -1.2416  1.3867  0.7937
 2056SOL     OW17626   4.155   3.998   1.274 -0.1147  0.3461  0.2997
 2056SOL    HW117627   4.167   3.988   1.180  2.1729  2.3026  0.3673
 2056SOL    HW217628   4.067   4.035   1.279 -1.0532 -1.7115 -0.8303
 2057SOL     OW17629   2.261   3.611  12.145  0.2588 -0.4798 -0.4196
 2057SOL    HW117630   2.297   3.680  12.089 -2.7018 -0.2040 -1.9946
 2057SOL    HW217631   2.342   3.561  12.157  0.8683  0.1767 -1.7633
 2058SOL     OW17632   1.332   2.675   0.059 -0.0944 -0.4642  0.1718
 2058SOL    HW117633   1.277   2.660   0.136 -1.0714 -4.3347 -1.3002
 2058SOL    HW217634   1.373   2.588   0.057 -0.4246 -0.5783 -1.1862
 2059SOL     OW17635   3.890   1.102  17.285 -0.2049  0.0407 -0.2781
 2059SOL    HW117636   3.874   1.148  17.367 -0.9658 -1.5694  0.4782
 2059SOL    HW217637   3.828   1.134  17.219 -2.9786 -0.0234  2.2881
 2060SOL     OW17638   1.065   4.588  11.970  0.5945  0.0597 -0.5888
 2060SOL    HW117639   0.992   4.551  11.921 -0.1082  1.3172 -0.4913
 2060SOL    HW217640   1.031   4.567  12.057 -1.4176  0.7379 -1.2222
 2061SOL     OW17641   4.431   1.345   8.489 -0.2782  0.1343  0.2976
 2061SOL    HW117642   4.523   1.318   8.486  0.4860  2.6445  1.0894
 2061SOL    HW217643   4.417   1.344   8.584  1.0587  4.7664  0.5576
 2062SOL     OW17644   4.406   3.559   4.100 -0.1276 -0.1428  0.0805
 2062SOL    HW117645   4.391   3.616   4.024 -1.4886  0.7828  1.0322
 2062SOL    HW217646   4.489   3.592   4.134  0.6125  0.1795 -2.0452
 2063SOL     OW17647   2.470   3.242  10.268 -0.3282 -0.3427 -0.2085
 2063SOL    HW117648   2.433   3.197  10.192  1.9964  0.0750 -1.5930
 2063SOL    HW217649   2.474   3.170  10.331  0.4792  0.6940  0.9288
 2064SOL     OW17650   0.086   3.167   6.905  0.0781  0.2024  0.1280
 2064SOL    HW117651   0.148   3.231   6.869 -1.4026  1.0755 -0.8729
 2064SOL    HW217652   0.106   3.091   6.850 -0.6099  0.8914 -1.0847
 2065SOL     OW17653   4.415   0.466   1.929  0.3202 -0.5666  0.6534
 2065SOL    HW117654   4.482   0.488   1.865  1.1090  1.3038  2.0865
 2065SOL    HW217655   4.450   0.507   2.009  2.5835  1.2664 -1.2707
 2066SOL     OW17656   3.102   1.479   6.420  0.3565 -0.4105  0.3938
 2066SOL    HW117657   3.162   1.554   6.412  1.2209 -1.3309 -1.7806
 2066SOL    HW217658   3.091   1.460   6.327 -1.1819 -1.0561  0.7134
 2067SOL     OW17659   1.870   2.049   6.648  0.1490 -0.0828 -0.0153
 2067SOL    HW117660   1.950   2.080   6.690  0.5288  2.0080 -2.2726
 2067SOL    HW217661   1.829   1.997   6.718 -0.6917  0.4212 -0.1404
 2068SOL     OW17662   3.669   0.743  16.515  0.3785  0.2159  0.5465
 2068SOL    HW117663   3.696   0.662  16.560  0.9246 -0.3562 -0.8334
 2068SOL    HW217664   3.756   0.772  16.490 -0.1849 -1.0343 -2.8202
 2069SOL     OW17665   2.389   1.630   3.350 -0.5026  0.1484  0.2190
 2069SOL    HW117666   2.392   1.649   3.444  1.6706  0.5554  0.0612
 2069SOL    HW217667   2.372   1.707   3.296  1.0719  0.6845  0.5154
 2070SOL     OW17668   2.962   0.562   5.727 -0.3623 -0.0803 -0.2147
 2070SOL    HW117669   3.029   0.561   5.796  0.3014  0.9302 -0.8501
 2070SOL    HW217670   3.003   0.605   5.652  0.9403  0.4314  0.7864
 2071SOL     OW17671   2.044   1.371   0.939 -0.5249 -0.5698  0.2249
 2071SOL    HW117672   2.078   1.329   1.018  0.1337 -1.1028 -0.3454
 2071SOL    HW217673   1.958   1.394   0.974 -0.6381 -0.8830  0.1511
 2072SOL     OW17674   1.888   3.887  15.986 -0.2443 -0.0979 -0.0463
 2072SOL    HW117675   1.942   3.809  15.972 -0.7577 -0.4011 -0.3637
 2072SOL    HW217676   1.797   3.865  15.970 -0.8599  1.9797  0.5567
 2073SOL     OW17677   2.844   0.430   6.185 -0.0976 -0.1763  0.0827
 2073SOL    HW117678   2.824   0.475   6.267  0.8452  0.2397  0.0890
 2073SOL    HW217679   2.834   0.502   6.122  0.4844 -1.0016 -0.9489
 2074SOL     OW17680   0.147   3.457   3.864  0.0741  0.5025  0.1001
 2074SOL    HW117681   0.209   3.413   3.805  2.1220  2.6219  0.6759
 2074SOL    HW217682   0.103   3.379   3.898 -1.4818  1.7524  0.9870
 2075SOL     OW17683   3.246   0.132   5.908 -0.4994  0.2626 -0.3290
 2075SOL    HW117684   3.337   0.124   5.935 -0.5537 -1.7870 -0.7805
 2075SOL    HW217685   3.207   0.048   5.930 -0.5621  0.9498  2.2167
 2076SOL     OW17686   0.600   4.605  14.884 -0.2784  0.5768  1.0110
 2076SOL    HW117687   0.581   4.651  14.802 -0.1045  0.0289  0.6699
 2076SOL    HW217688   0.552   4.528  14.854  2.4989 -1.0075  0.6521
 2077SOL     OW17689   0.988   3.381   8.080  1.0173  0.7184 -0.1913
 2077SOL    HW117690   0.908   3.402   8.128  0.9360 -3.0567  1.3330
 2077SOL    HW217691   1.063   3.417   8.128 -0.6506  0.0521  2.8818
 2078SOL     OW17692   0.629   2.191   7.791  0.3945 -0.1532 -0.2063
 2078SOL    HW117693   0.721   2.198   7.819 -0.6215  1.1436  2.8493
 2078SOL    HW217694   0.629   2.248   7.715 -0.5610  0.5479  0.3235
 2079SOL     OW17695   0.456   3.808  17.622  0.2838  0.0805  0.3517
 2079SOL    HW117696   0.447   3.793  17.528 -0.8116 -1.8746  0.7842
 2079SOL    HW217697   0.547   3.780  17.635 -0.6389 -2.2152  1.6716
 2080SOL     OW17698   2.286   3.714   3.104 -0.1178  0.2323  0.0626
 2080SOL    HW117699   2.209   3.707   3.048  1.2310  2.4969 -2.0532
 2080SOL    HW217700   2.255   3.748   3.188  0.8327  4.4970 -1.3517
 2081SOL     OW17701   0.030   3.637   3.202  0.3377  0.4900 -0.3680
 2081SOL    HW117702   0.024   3.693   3.125  1.9809  0.6839 -0.3700
 2081SOL    HW217703   4.663   3.605   3.208 -0.4283  2.6690 -0.1507
 2082SOL     OW17704   4.415   0.959   6.382  0.2544 -0.4135  0.3404
 2082SOL    HW117705   4.339   0.901   6.373 -1.0499  0.9205  2.9644
 2082SOL    HW217706   4.430   0.971   6.288  2.6346  1.4461  0.9724
 2083SOL     OW17707   3.803   4.585   4.225 -0.0192  0.6974  0.3407
 2083SOL    HW117708   3.727   4.534   4.197  1.2103 -0.1256 -1.4682
 2083SOL    HW217709   3.767   4.618   4.307 -1.3563  1.4720 -0.5464
 2084SOL     OW17710   0.664   3.449   8.658 -0.2646  0.1689 -0.0363
 2084SOL    HW117711   0.701   3.467   8.744  0.7488 -1.3401 -0.1418
 2084SOL    HW217712   0.646   3.355   8.668 -0.9577  0.4953  1.7664
 2085SOL     OW17713   3.845   4.290   8.069  0.3956  0.2748  0.3616
 2085SOL    HW117714   3.802   4.263   8.151 -1.7328 -0.7175 -1.0798
 2085SOL    HW217715   3.851   4.207   8.021 -1.3285  0.0177  0.5803
 2086SOL     OW17716   2.050   1.864   7.119 -0.4037  0.4552  0.1418
 2086SOL    HW117717   2.085   1.926   7.056 -0.3306 -2.9165 -3.1290
 2086SOL    HW217718   2.018   1.789   7.068  0.3616  0.9007 -0.9937
 2087SOL     OW17719   0.810   1.731   7.904 -0.2863  0.4598 -0.2681
 2087SOL    HW117720   0.785   1.775   7.823 -2.3599 -0.5661 -0.1890
 2087SOL    HW217721   0.734   1.748   7.960  1.0796 -0.2153  1.8103
 2088SOL     OW17722   4.648   0.277   7.663 -0.1170 -0.0287 -0.2500
 2088SOL    HW117723   4.636   0.306   7.573  0.5482  2.0145  0.3224
 2088SOL    HW217724   4.691   0.192   7.650  0.5283  0.3876 -0.7792
 2089SOL     OW17725   3.343   2.692   3.673  0.3303  0.8365 -0.3414
 2089SOL    HW117726   3.417   2.642   3.638 -1.4820 -2.3082  0.3556
 2089SOL    HW217727   3.371   2.783   3.660  3.2380  0.1327  0.9988
 2090SOL     OW17728   3.329   1.685   7.951 -0.1038  0.6360 -0.3769
 2090SOL    HW117729   3.320   1.693   7.856 -0.1528  1.6474 -0.2922
 2090SOL    HW217730   3.419   1.655   7.962  0.3872  2.3448  0.3581
 2091SOL     OW17731   1.421   2.191  15.628  0.0398 -0.3736 -0.0525
 2091SOL    HW117732   1.371   2.232  15.699 -0.0273 -0.5426 -0.0034
 2091SOL    HW217733   1.405   2.257  15.560 -1.5585  0.8379  1.4899
 2092SOL     OW17734   2.321   3.665  11.747 -0.4972  0.0119 -0.1291
 2092SOL    HW117735   2.367   3.693  11.826  1.6109 -0.4981 -1.1893
 2092SOL    HW217736   2.333   3.571  11.764 -1.1922  0.0586  0.5918
 2093SOL     OW17737   4.114   2.062   3.204  0.7074 -0.0172 -0.0094
 2093SOL    HW117738   4.149   2.069   3.115  1.7666  2.4839  0.6001
 2093SOL    HW217739   4.126   2.154   3.227 -0.7599  0.2313 -0.2544
 2094SOL     OW17740   4.504   3.773   2.249 -0.7091  0.0713  0.4366
 2094SOL    HW117741   4.558   3.699   2.221  0.9303  1.0709  0.9308
 2094SOL    HW217742   4.461   3.727   2.321  0.8612  0.8344  1.8523
 2095SOL     OW17743   4.396   2.008   8.751  0.6497 -0.2614 -0.1606
 2095SOL    HW117744   4.458   2.078   8.731  0.1352  0.4347  0.6434
 2095SOL    HW217745   4.465   1.945   8.771 -1.1637 -2.5977 -1.2872
 2096SOL     OW17746   3.896   4.324   7.027 -0.8793  0.1812  0.2716
 2096SOL    HW117747   3.843   4.308   7.106  0.5570  3.0803  1.8055
 2096SOL    HW217748   3.941   4.407   7.043 -1.2427  0.3856  0.2374
 2097SOL     OW17749   3.125   4.573  10.855  0.0681 -0.2032 -0.0556
 2097SOL    HW117750   3.219   4.557  10.847 -0.1073 -1.3177  0.1643
 2097SOL    HW217751   3.098   4.572  10.763 -0.4275  2.7772  0.0593
 2098SOL     OW17752   3.351   4.376   9.803  0.6987  0.1612  0.3219
 2098SOL    HW117753   3.363   4.336   9.889 -0.0694 -0.9261 -0.0723
 2098SOL    HW217754   3.427   4.333   9.763  0.2492  0.4860 -0.8766
 2099SOL     OW17755   2.806   2.078   4.761  0.1079  0.1805 -0.4338
 2099SOL    HW117756   2.772   2.161   4.797  0.5716 -0.3459  1.2030
 2099SOL    HW217757   2.733   2.020   4.783 -0.9515  2.0573  1.0827
 2100SOL     OW17758   0.871   4.306   4.274  0.5121  0.3808 -0.2120
 2100SOL    HW117759   0.847   4.363   4.347  0.8794  0.8408 -0.4550
 2100SOL    HW217760   0.949   4.261   4.305 -0.1720  0.2524  1.3155
 2101SOL     OW17761   4.686   0.105   9.717 -0.5923  0.1134 -0.0580
 2101SOL    HW117762   4.677   0.190   9.759 -0.5323 -0.1860  0.5730
 2101SOL    HW217763   4.700   0.121   9.624  2.1306  0.5415  0.4286
 2102SOL     OW17764   1.379   2.288   6.281  0.1220  0.2938  0.3517
 2102SOL    HW117765   1.463   2.243   6.280  0.7448  1.4425  1.2240
 2102SOL    HW217766   1.340   2.242   6.356 -0.7411  0.2799 -0.0979
 2103SOL     OW17767   3.632   3.056   4.294 -0.0838  0.4620 -0.7667
 2103SOL    HW117768   3.572   3.000   4.344  0.7196 -0.2362 -0.5727
 2103SOL    HW217769   3.582   3.137   4.289 -0.2392  0.4454  0.5036
 2104SOL     OW17770   2.414   1.199   0.814 -0.3862 -0.7894  0.0873
 2104SOL    HW117771   2.436   1.268   0.751  1.1099 -0.7258  0.6806
 2104SOL    HW217772   2.463   1.238   0.887 -0.6934 -0.1515 -0.0504
 2105SOL     OW17773   1.628   3.929  16.852 -0.0114  0.3970 -0.0231
 2105SOL    HW117774   1.690   3.892  16.915 -0.8772 -2.3578 -0.8321
 2105SOL    HW217775   1.678   3.944  16.772  1.9631  0.9455  1.2952
 2106SOL     OW17776   3.033   2.986  16.621 -0.0155 -0.1744 -0.0751
 2106SOL    HW117777   3.057   2.973  16.530  0.1351  0.2670 -0.0968
 2106SOL    HW217778   2.941   3.008  16.608  0.0038 -0.8424 -1.2987
 2107SOL     OW17779   2.991   0.826   3.760  0.1671  0.2051  0.1643
 2107SOL    HW117780   2.989   0.916   3.727  1.1908 -0.2002 -1.0114
 2107SOL    HW217781   3.066   0.825   3.819  0.9898 -0.1158 -0.8896
 2108SOL     OW17782   1.561   0.723  13.465 -0.2164  0.3826 -0.1903
 2108SOL    HW117783   1.473   0.759  13.458 -0.3726  0.2733  1.1459
 2108SOL    HW217784   1.564   0.726  13.561  1.4346  0.0156 -0.2296
 2109SOL     OW17785   2.579   0.851   7.601  0.3417  0.2372  0.2305
 2109SOL    HW117786   2.637   0.927   7.613 -0.3310  0.6413  0.9013
 2109SOL    HW217787   2.650   0.786   7.599  0.1581  0.0230  0.6722
 2110SOL     OW17788   0.670   2.809   2.895 -0.1780 -0.1608  0.6328
 2110SOL    HW117789   0.590   2.832   2.848 -1.2752 -1.8420  1.6869
 2110SOL    HW217790   0.647   2.718   2.914 -0.5966  0.3322  2.4705
 2111SOL     OW17791   0.743   0.020   9.143  0.2409  0.1454 -0.0475
 2111SOL    HW117792   0.661   4.696   9.160 -0.0709  0.5941 -0.3543
 2111SOL    HW217793   0.800   4.722   9.217 -0.3421  0.9091  0.6069
 2112SOL     OW17794   2.537   1.528   7.557 -0.0628  0.6606 -0.4158
 2112SOL    HW117795   2.501   1.455   7.608 -1.3674  0.2414 -1.9672
 2112SOL    HW217796   2.631   1.507   7.554 -0.2450 -0.4649  1.1580
 2113SOL     OW17797   3.645   2.131   4.271 -0.0723  0.0507 -0.0483
 2113SOL    HW117798   3.671   2.182   4.348  1.2558  0.7518 -0.9815
 2113SOL    HW217799   3.723   2.080   4.251 -0.2069 -0.0690 -0.2753
 2114SOL     OW17800   2.046   4.208   3.470  0.0342  0.2827 -0.6183
 2114SOL    HW117801   2.039   4.207   3.375 -0.8908 -0.2471 -0.5464
 2114SOL    HW217802   1.976   4.147   3.494  0.9199  0.1228  1.5372
 2115SOL     OW17803   1.331   3.296   7.636 -0.6810  0.5019 -0.4910
 2115SOL    HW117804   1.287   3.380   7.628 -0.3318  0.7879  0.6408
 2115SOL    HW217805   1.287   3.243   7.569 -1.2619 -0.5854  0.7596
 2116SOL     OW17806   0.522   3.186   6.911  0.0357  0.5815 -0.5754
 2116SOL    HW117807   0.615   3.206   6.900 -0.3067  0.9025 -2.8378
 2116SOL    HW217808   0.515   3.112   6.851 -0.5107 -0.8886  1.2934
 2117SOL     OW17809   0.487   2.646   3.391  0.2286 -0.2202  0.5374
 2117SOL    HW117810   0.510   2.663   3.483  2.3734  4.0464 -0.7893
 2117SOL    HW217811   0.464   2.554   3.404 -0.1050 -0.2573 -0.3445
 2118SOL     OW17812   3.221   3.701   6.870  0.8349  0.0971  0.3092
 2118SOL    HW117813   3.225   3.767   6.939 -0.8442  2.0809 -1.4895
 2118SOL    HW217814   3.297   3.722   6.816  0.2014 -2.5598 -1.5905
 2119SOL     OW17815   1.197   0.994   5.406 -0.2244 -1.1365 -0.4853
 2119SOL    HW117816   1.225   0.947   5.484  1.3177 -0.9444 -0.9280
 2119SOL    HW217817   1.280   1.016   5.364  1.2443 -1.3737  2.3159
 2120SOL     OW17818   0.586   1.785   8.053  0.2560 -0.0687  0.6351
 2120SOL    HW117819   0.526   1.850   8.016  1.4300  1.2723  1.0715
 2120SOL    HW217820   0.516   1.736   8.096 -0.2650 -0.5699 -0.8028
 2121SOL     OW17821   0.851   0.083  16.271 -0.0132 -0.7073 -0.0577
 2121SOL    HW117822   0.829   0.106  16.181 -0.4363 -0.2647  0.1554
 2121SOL    HW217823   0.776   0.127  16.311  1.0051  1.9356 -1.0942
 2122SOL     OW17824   3.212   4.127   1.272 -0.4458  0.0420  0.6155
 2122SOL    HW117825   3.288   4.177   1.303  1.8879 -2.2870 -1.3495
 2122SOL    HW217826   3.140   4.146   1.332 -1.2363 -4.2634  1.0429
 2123SOL     OW17827   0.950   2.794  14.107  0.3006 -0.4519 -0.0401
 2123SOL    HW117828   1.019   2.861  14.108 -2.3141  2.2521 -0.8196
 2123SOL    HW217829   1.002   2.716  14.090  2.6203  0.9361  0.6725
 2124SOL     OW17830   3.886   3.487   6.617 -0.3319  0.1273  0.2552
 2124SOL    HW117831   3.896   3.567   6.565 -1.8367  0.9654  1.2418
 2124SOL    HW217832   3.790   3.481   6.621 -0.5141  2.0211 -1.7717
 2125SOL     OW17833   3.167   3.647   8.046  0.1075 -0.4756 -0.1591
 2125SOL    HW117834   3.143   3.697   8.125  1.5351  0.3877 -0.2605
 2125SOL    HW217835   3.192   3.562   8.083  1.0150  0.4321  1.3262
 2126SOL     OW17836   4.109   4.228   8.797 -0.0398  0.2689 -0.4599
 2126SOL    HW117837   4.078   4.191   8.879 -0.2832  0.9186 -0.2568
 2126SOL    HW217838   4.194   4.184   8.788 -0.4138 -0.8226  1.4993
 2127SOL     OW17839   0.908   0.988   2.180  0.4249 -0.2850  0.1108
 2127SOL    HW117840   0.876   1.038   2.255 -0.5831  2.0166 -1.8303
 2127SOL    HW217841   0.992   1.030   2.163  0.0547  0.8403  1.0172
 2128SOL     OW17842   3.586   2.688   6.027 -0.0139 -0.2844  0.0853
 2128SOL    HW117843   3.649   2.758   6.044 -0.1199  0.3277 -2.0628
 2128SOL    HW217844   3.563   2.652   6.112 -0.7789  2.1942  0.9301
 2129SOL     OW17845   4.545   1.459   5.034  0.9971  0.5406 -0.0057
 2129SOL    HW117846   4.543   1.553   5.048 -0.9904  0.3342  1.1037
 2129SOL    HW217847   4.533   1.434   5.125 -0.3555  0.2952 -0.2437
 2130SOL     OW17848   2.795   1.358  17.486 -0.6853  0.1659 -0.1373
 2130SOL    HW117849   2.855   1.405  17.544 -1.4582  1.8120 -0.6692
 2130SOL    HW217850   2.784   1.421  17.415 -0.0654 -0.6364 -0.9444
 2131SOL     OW17851   0.426   3.843   7.650 -0.0983 -0.2564  0.0990
 2131SOL    HW117852   0.347   3.880   7.609 -0.7108 -3.4471 -1.5672
 2131SOL    HW217853   0.431   3.768   7.592 -2.2188 -0.5913  0.3461
 2132SOL     OW17854   0.007   2.836   8.356 -0.0051 -0.4602  0.3102
 2132SOL    HW117855   4.692   2.907   8.304 -0.6785 -1.6038 -0.7735
 2132SOL    HW217856   0.027   2.877   8.440  1.1093  2.0366 -1.1738
 2133SOL     OW17857   1.412   3.315   5.439 -0.3764  0.8763 -0.0144
 2133SOL    HW117858   1.324   3.333   5.473 -0.5190  0.5517 -0.2180
 2133SOL    HW217859   1.469   3.392   5.444 -2.1914  2.3995 -3.1563
 2134SOL     OW17860   3.842   0.822  13.104  0.4584  0.1541 -0.0700
 2134SOL    HW117861   3.910   0.888  13.117 -0.2391  0.8431  0.0812
 2134SOL    HW217862   3.876   0.761  13.170 -1.2151 -0.0154  0.6177
 2135SOL     OW17863   1.620   1.912  12.335 -0.2373 -0.1726 -0.6431
 2135SOL    HW117864   1.537   1.901  12.288 -0.2008  0.7926 -0.9441
 2135SOL    HW217865   1.608   1.850  12.407 -1.8026  1.4024  0.4647
 2136SOL     OW17866   1.036   4.677   5.260  0.1796  0.3283  0.4917
 2136SOL    HW117867   1.011   4.593   5.222  1.5653  0.4699 -0.7167
 2136SOL    HW217868   0.948   4.712   5.244  0.1485 -0.2987 -0.6595
 2137SOL     OW17869   1.221   1.343   9.345  0.5993  0.4967  0.0300
 2137SOL    HW117870   1.252   1.290   9.419  0.1491  0.1632 -0.0261
 2137SOL    HW217871   1.190   1.271   9.291 -2.1305  1.3481  0.4889
 2138SOL     OW17872   4.407   3.948   5.469 -0.0264  0.2350 -0.3118
 2138SOL    HW117873   4.453   3.924   5.389 -1.0183 -0.6506 -0.6195
 2138SOL    HW217874   4.388   4.038   5.445 -1.0376  0.7596  2.4344
 2139SOL     OW17875   1.058   1.585   3.081 -0.0534 -0.0995 -0.3409
 2139SOL    HW117876   1.093   1.566   2.994  1.3522  1.1678 -0.0534
 2139SOL    HW217877   1.063   1.680   3.079 -0.8141 -0.0887 -1.4035
 2140SOL     OW17878   2.752   1.646   5.696 -0.9023 -0.3819  0.2690
 2140SOL    HW117879   2.712   1.693   5.769  0.5870 -1.3840  1.7528
 2140SOL    HW217880   2.838   1.624   5.732 -0.9940 -0.2267  0.5862
 2141SOL     OW17881   0.479   0.949   9.427  0.1360 -0.2631 -0.5726
 2141SOL    HW117882   0.481   0.900   9.509  2.4025 -1.7133 -1.5131
 2141SOL    HW217883   0.572   0.944   9.406  0.3210  4.2959 -0.8510
 2142SOL     OW17884   3.776   4.258   4.128 -0.0899  0.3672  0.5715
 2142SOL    HW117885   3.807   4.169   4.116  0.7214  0.9521 -1.7855
 2142SOL    HW217886   3.858   4.306   4.119 -0.4765  0.8316 -0.5199
 2143SOL     OW17887   4.013   0.831   7.066 -0.0242  0.7235  0.2996
 2143SOL    HW117888   3.929   0.825   7.021 -0.5006 -0.0837  1.3174
 2143SOL    HW217889   3.976   0.827   7.154 -0.2596  1.2131  0.2252
 2144SOL     OW17890   2.155   0.548   6.063  0.2166  0.4595  0.2284
 2144SOL    HW117891   2.092   0.619   6.046  0.5201  0.6320 -0.1625
 2144SOL    HW217892   2.174   0.522   5.973  0.5280 -0.3827  0.5477
 2145SOL     OW17893   1.321   1.792   8.127  0.0426  0.2455  0.6094
 2145SOL    HW117894   1.316   1.697   8.114 -0.0585  0.4023 -0.4886
 2145SOL    HW217895   1.246   1.815   8.181  0.3510  1.4371  0.5285
 2146SOL     OW17896   2.546   3.569   8.726 -0.1885 -0.3031  0.6879
 2146SOL    HW117897   2.602   3.586   8.801 -0.4095  0.7005  0.6205
 2146SOL    HW217898   2.481   3.639   8.729  0.0731  0.0043 -0.7673
 2147SOL     OW17899   1.428   3.627  16.878  0.1491 -0.1378  0.1128
 2147SOL    HW117900   1.462   3.630  16.967 -1.7213 -0.3346  0.8292
 2147SOL    HW217901   1.422   3.722  16.862  0.7109 -0.3507 -1.4212
 2148SOL     OW17902   2.227   4.331   0.647  0.0231 -0.5614 -0.4547
 2148SOL    HW117903   2.293   4.263   0.654  1.5984  0.8765 -1.2732
 2148SOL    HW217904   2.159   4.278   0.605  1.8946 -1.1489 -2.7305
 2149SOL     OW17905   2.043   0.639   3.628 -0.0558  0.2822 -0.6357
 2149SOL    HW117906   2.046   0.733   3.608 -0.6694  0.3956 -0.1720
 2149SOL    HW217907   2.127   0.623   3.670 -0.2213 -0.7277 -0.7031
 2150SOL     OW17908   3.045   1.910   5.085 -0.1353 -0.2408  0.5411
 2150SOL    HW117909   3.134   1.875   5.079  0.1404  0.7432 -1.0097
 2150SOL    HW217910   3.055   2.004   5.070 -0.1060 -0.1645  1.0356
 2151SOL     OW17911   2.903   3.746   5.465  0.1071  0.5141 -0.9023
 2151SOL    HW117912   2.863   3.721   5.382 -1.2081 -1.4480  0.3364
 2151SOL    HW217913   2.833   3.804   5.493  0.3882  0.7981 -0.7801
 2152SOL     OW17914   1.748   4.523   7.078  0.6212 -0.2718  0.5589
 2152SOL    HW117915   1.708   4.589   7.020 -1.0847 -1.6364  0.1999
 2152SOL    HW217916   1.838   4.557   7.073  0.4193 -0.0120 -1.4115
 2153SOL     OW17917   2.130   2.324   9.034  0.1831  0.4606 -0.1663
 2153SOL    HW117918   2.111   2.243   8.986  0.9067 -0.1003  0.4746
 2153SOL    HW217919   2.201   2.358   8.980  0.2323 -0.2319 -0.5502
 2154SOL     OW17920   2.134   0.441  14.775 -0.1319 -0.2227  0.1541
 2154SOL    HW117921   2.136   0.366  14.833 -0.5179  0.0402  0.5049
 2154SOL    HW217922   2.052   0.421  14.728 -0.4465 -1.6148  1.3100
 2155SOL     OW17923   4.292   2.810   2.643 -0.0876  0.2275 -0.3246
 2155SOL    HW117924   4.203   2.845   2.651 -0.5638 -1.4758  1.7884
 2155SOL    HW217925   4.318   2.832   2.554  0.0648  1.3245 -0.0229
 2156SOL     OW17926   4.615   1.228   8.673 -0.2072  0.4730 -0.0604
 2156SOL    HW117927   4.639   1.170   8.746 -3.0061  0.8899  1.1907
 2156SOL    HW217928   4.527   1.244   8.706 -0.6486 -3.4307  0.7537
 2157SOL     OW17929   0.658   1.531  15.965 -0.2933 -0.4116 -0.3681
 2157SOL    HW117930   0.684   1.620  15.943 -2.2718  0.3177  0.2885
 2157SOL    HW217931   0.748   1.499  15.976 -0.8728 -2.0742 -0.4244
 2158SOL     OW17932   3.760   1.856   3.059 -0.3946  0.2923  0.2293
 2158SOL    HW117933   3.812   1.850   3.139 -0.3694 -1.4407  0.0954
 2158SOL    HW217934   3.826   1.881   2.994 -0.5481  1.2299  0.4307
 2159SOL     OW17935   1.849   3.452  14.027 -0.2581 -0.3632  0.2204
 2159SOL    HW117936   1.831   3.397  14.104 -0.7605 -0.1061  0.2832
 2159SOL    HW217937   1.944   3.440  14.031  0.2450  3.5429 -0.5629
 2160SOL     OW17938   0.846   2.624   5.948  0.0525  0.0126  0.6604
 2160SOL    HW117939   0.769   2.680   5.944 -0.4401 -0.7054  0.1238
 2160SOL    HW217940   0.868   2.617   6.041 -0.4618  0.1084  0.7862
 2161SOL     OW17941   1.898   2.790   2.884 -0.0062  0.0227 -0.1269
 2161SOL    HW117942   1.976   2.846   2.880 -1.7196  2.3618 -0.4738
 2161SOL    HW217943   1.851   2.812   2.965 -0.3223  1.6280 -0.7585
 2162SOL     OW17944   0.531   3.982   4.363 -0.5971 -0.0891 -0.4249
 2162SOL    HW117945   0.560   4.062   4.405 -0.4291  0.9537 -2.5301
 2162SOL    HW217946   0.595   3.959   4.295 -2.1690 -1.6574 -1.3835
 2163SOL     OW17947   0.517   1.169   0.492  0.2631 -0.1216 -0.4748
 2163SOL    HW117948   0.425   1.165   0.521  0.9007  1.5514  1.7517
 2163SOL    HW217949   0.522   1.079   0.461 -0.3928  0.2713 -1.7523
 2164SOL     OW17950   4.158   0.777   2.407  0.4340  0.1065 -0.2199
 2164SOL    HW117951   4.227   0.827   2.364  0.5769 -1.6994 -2.0588
 2164SOL    HW217952   4.097   0.765   2.334  0.9981 -0.5256 -0.5795
 2165SOL     OW17953   2.658   1.621   4.275  0.3469 -0.1705  0.7095
 2165SOL    HW117954   2.705   1.587   4.199 -1.0473 -1.9489  0.6367
 2165SOL    HW217955   2.719   1.690   4.302 -0.9408  0.2785  2.4911
 2166SOL     OW17956   3.379   2.208   4.841  0.2096 -0.3572 -0.2675
 2166SOL    HW117957   3.306   2.188   4.900 -0.0319 -0.0294 -0.4548
 2166SOL    HW217958   3.394   2.298   4.872  0.2607  0.7265 -3.4657
 2167SOL     OW17959   1.090   3.714   7.159  0.0582  0.1451 -0.0880
 2167SOL    HW117960   1.027   3.786   7.168  1.3516  1.5622 -2.4392
 2167SOL    HW217961   1.057   3.654   7.092  0.4011 -0.0802 -0.0532
 2168SOL     OW17962   3.223   3.513  12.595 -0.4575 -0.1196 -0.1612
 2168SOL    HW117963   3.178   3.435  12.564  0.6828 -1.7676  2.3413
 2168SOL    HW217964   3.145   3.568  12.597 -0.5653 -0.3545  2.0342
 2169SOL     OW17965   4.534   3.835  13.247  0.5027  0.0650 -0.5549
 2169SOL    HW117966   4.532   3.837  13.152  0.9983  0.8299 -0.5473
 2169SOL    HW217967   4.492   3.918  13.266 -0.5170 -1.2521  2.9818
 2170SOL     OW17968   3.154   1.602   8.161 -0.3294  0.6623 -0.0558
 2170SOL    HW117969   3.219   1.637   8.101 -0.7371  1.3846 -0.0807
 2170SOL    HW217970   3.189   1.513   8.157 -1.0556  0.4050 -0.8200
 2171SOL     OW17971   0.725   2.860   9.324  0.1494  0.3124  0.0968
 2171SOL    HW117972   0.661   2.791   9.308  2.2951 -1.5561 -0.4491
 2171SOL    HW217973   0.803   2.813   9.353 -0.7060 -0.6328  0.8562
 2172SOL     OW17974   2.961   1.058   7.992 -0.1496 -0.5541  0.2505
 2172SOL    HW117975   2.993   0.968   7.989  0.6558 -0.2603  0.0656
 2172SOL    HW217976   3.003   1.090   8.072  0.5754 -0.4647 -0.1749
 2173SOL     OW17977   4.186   4.600   5.022 -0.1876  0.4354  0.0078
 2173SOL    HW117978   4.095   4.578   4.998 -0.1466  1.0497 -0.6903
 2173SOL    HW217979   4.171   4.639   5.108 -1.7251  0.4114 -0.2386
 2174SOL     OW17980   3.859   3.331   8.058 -0.5486 -0.0293  0.0557
 2174SOL    HW117981   3.819   3.331   7.971  1.1026  1.6547 -0.7016
 2174SOL    HW217982   3.790   3.377   8.107  0.3984 -1.6937  2.9831
 2175SOL     OW17983   2.943   4.422  17.285  0.0108 -0.6684 -0.0116
 2175SOL    HW117984   2.995   4.391  17.359  1.6804 -0.3944 -1.0723
 2175SOL    HW217985   2.878   4.352  17.274  0.5346 -1.2823  0.8758
 2176SOL     OW17986   1.828   2.060   9.754 -0.0290  0.0586  0.7417
 2176SOL    HW117987   1.822   2.020   9.667  0.9813 -1.0214  1.1668
 2176SOL    HW217988   1.828   1.980   9.806 -0.2349  0.0809  0.7760
 2177SOL     OW17989   4.248   3.956   8.436  0.3205 -0.0148 -0.5208
 2177SOL    HW117990   4.205   3.904   8.504  1.8476 -0.4730  0.0985
 2177SOL    HW217991   4.337   3.941   8.469  0.8974  1.8482 -1.2557
 2178SOL     OW17992   4.158   0.772  10.995 -0.2681 -0.4863  0.0561
 2178SOL    HW117993   4.226   0.815  10.945 -0.6945 -2.1997 -2.0087
 2178SOL    HW217994   4.157   0.685  10.955 -1.2431 -0.2624 -0.4090
 2179SOL     OW17995   4.234   1.167  10.012  0.4822  1.0343 -0.0298
 2179SOL    HW117996   4.162   1.112  10.044 -0.2553  1.0730 -1.6187
 2179SOL    HW217997   4.181   1.237   9.975  0.7660  1.3277  0.1192
 2180SOL     OW17998   0.491   3.900  11.019 -0.2237  0.0427  0.2013
 2180SOL    HW117999   0.580   3.920  10.988 -1.0284 -0.8274 -2.6458
 2180SOL    HW218000   0.485   3.934  11.108  1.3735  0.3249  0.2043
 2181SOL     OW18001   2.376   1.624   4.234  0.4145  0.3081  0.1107
 2181SOL    HW118002   2.398   1.603   4.144  1.0834 -0.5123  0.4685
 2181SOL    HW218003   2.463   1.650   4.264  0.3949  1.8235 -1.1807
 2182SOL     OW18004   1.287   4.258  11.848  0.0148  0.1765 -0.2949
 2182SOL    HW118005   1.350   4.285  11.781 -0.3679  2.2680  0.1886
 2182SOL    HW218006   1.289   4.162  11.838  2.9157  0.3379 -1.5308
 2183SOL     OW18007   0.287   1.728  13.453  0.1933 -0.2386 -0.1006
 2183SOL    HW118008   0.357   1.681  13.407 -0.1174 -0.4381 -0.3723
 2183SOL    HW218009   0.215   1.692  13.402 -0.0147  2.1085 -1.5081
 2184SOL     OW18010   0.011   0.413   6.451 -0.3059 -0.1826 -0.4765
 2184SOL    HW118011   0.104   0.403   6.431 -1.1467 -1.5305 -3.6621
 2184SOL    HW218012   4.720   0.506   6.429  1.2264 -0.4438 -2.5100
 2185SOL     OW18013   1.114   3.525  15.116  0.3663  0.1788  0.1195
 2185SOL    HW118014   1.155   3.553  15.035  0.3897 -1.4539 -0.4286
 2185SOL    HW218015   1.081   3.613  15.136  0.3649  0.1259  0.3592
 2186SOL     OW18016   2.900   0.127   6.847 -0.1163 -0.1430  0.0767
 2186SOL    HW118017   2.901   0.222   6.862 -1.7990  0.1596 -1.6895
 2186SOL    HW218018   2.993   0.108   6.853 -0.4614 -1.8811 -0.2450
 2187SOL     OW18019   3.164   3.211   0.026 -0.8138 -0.5013 -1.1875
 2187SOL    HW118020   3.220   3.139   0.057 -1.7956 -1.6826 -2.1581
 2187SOL    HW218021   3.212   3.234  17.641 -1.0472  2.1479 -0.5435
 2188SOL     OW18022   0.685   3.723   6.510 -0.3691 -0.1650 -0.3377
 2188SOL    HW118023   0.620   3.766   6.454  0.1819  0.6683 -0.3306
 2188SOL    HW218024   0.643   3.637   6.500  0.1189 -0.3500 -0.8017
 2189SOL     OW18025   1.693   0.524   8.164 -0.0488  0.4782  0.4316
 2189SOL    HW118026   1.727   0.555   8.080 -1.1730  1.4755  0.3531
 2189SOL    HW218027   1.616   0.475   8.134 -2.0220  1.5796  3.7642
 2190SOL     OW18028   3.521   4.619   6.043  0.4021 -0.3809  0.2771
 2190SOL    HW118029   3.594   4.601   6.102 -1.9303  0.2508  3.3431
 2190SOL    HW218030   3.481   4.533   6.045  2.2142 -1.2662 -1.4551
 2191SOL     OW18031   0.417   0.076   7.137 -0.0215 -0.2369  0.3962
 2191SOL    HW118032   0.470   0.030   7.202 -0.2476 -1.7005 -0.4557
 2191SOL    HW218033   0.488   0.117   7.087 -1.1857  0.9084 -0.3114
 2192SOL     OW18034   0.601   3.564   5.370  0.2159 -0.0988 -0.2004
 2192SOL    HW118035   0.630   3.474   5.386  1.3311  0.7433  2.5842
 2192SOL    HW218036   0.679   3.615   5.390  1.0888 -1.7073  0.5186
 2193SOL     OW18037   0.562   0.598   7.107 -0.0059  0.0264 -0.1820
 2193SOL    HW118038   0.531   0.686   7.085 -1.2099 -1.0230 -2.6700
 2193SOL    HW218039   0.492   0.553   7.060 -0.9544  0.1235  1.1363
 2194SOL     OW18040   3.367   3.420   0.148  0.1114  0.1292  0.1395
 2194SOL    HW118041   3.452   3.378   0.152  1.2194  2.1377 -2.5298
 2194SOL    HW218042   3.307   3.356   0.111  1.9341 -1.1999 -0.4489
 2195SOL     OW18043   0.294   0.648   6.498 -0.0690 -0.6752 -0.2080
 2195SOL    HW118044   0.272   0.563   6.460  1.1235 -0.2788 -1.7902
 2195SOL    HW218045   0.334   0.613   6.577  1.3173 -0.3770 -0.7730
 2196SOL     OW18046   2.778   3.775  13.725  0.5810  0.1930 -0.0941
 2196SOL    HW118047   2.793   3.798  13.817 -0.2172 -0.8557  0.3060
 2196SOL    HW218048   2.689   3.739  13.728  1.9571 -2.9969  2.8082
 2197SOL     OW18049   3.656   3.397  11.598 -0.3732 -0.4180 -0.7464
 2197SOL    HW118050   3.598   3.412  11.523 -1.7611  0.9835  0.6476
 2197SOL    HW218051   3.621   3.438  11.676 -0.4927  0.2021 -1.1283
 2198SOL     OW18052   0.792   0.458  12.179  0.4795  0.2184 -0.3910
 2198SOL    HW118053   0.722   0.434  12.118  2.3460 -1.4678 -1.8771
 2198SOL    HW218054   0.856   0.469  12.108 -1.1961  3.2483 -1.4534
 2199SOL     OW18055   4.513   3.920   5.212 -0.1606  0.2329  0.4349
 2199SOL    HW118056   4.526   3.838   5.165 -2.2309  2.0466 -3.3477
 2199SOL    HW218057   4.478   3.975   5.142 -1.5128 -1.7064 -0.4266
 2200SOL     OW18058   3.235   0.377   2.507 -0.3764  0.1917 -0.5298
 2200SOL    HW118059   3.253   0.405   2.597 -0.1091  0.2714 -0.6100
 2200SOL    HW218060   3.282   0.294   2.499  0.4151  0.8412 -2.3637
 2201SOL     OW18061   0.536   2.993  11.564 -0.4942  0.4692 -0.2564
 2201SOL    HW118062   0.613   3.037  11.602  1.6467 -1.4778 -2.3005
 2201SOL    HW218063   0.468   3.059  11.573 -1.9016 -0.8178 -1.3475
 2202SOL     OW18064   1.294   4.315   8.902  0.4694 -0.1120 -0.2983
 2202SOL    HW118065   1.303   4.336   8.809 -1.2704 -1.7444 -0.8278
 2202SOL    HW218066   1.383   4.278   8.904 -0.0776 -1.3857  0.3709
 2203SOL     OW18067   1.642   2.275   9.104 -0.2594 -0.0075  0.1591
 2203SOL    HW118068   1.630   2.348   9.164  2.2143  1.4663 -1.1623
 2203SOL    HW218069   1.612   2.206   9.163  0.9414 -0.9712 -0.3583
 2204SOL     OW18070   3.333   2.244   0.984  0.2566 -0.1033 -0.2349
 2204SOL    HW118071   3.245   2.216   1.010  0.0596  1.6157  0.9800
 2204SOL    HW218072   3.331   2.339   0.974 -0.0909 -0.2781 -1.7686
 2205SOL     OW18073   0.375   0.465   6.682  0.6638 -0.1810 -0.1485
 2205SOL    HW118074   0.347   0.383   6.641  1.4399 -1.4489  1.8445
 2205SOL    HW218075   0.465   0.476   6.651  0.7337 -0.1105  0.0811
 2206SOL     OW18076   4.220   3.271  12.103  0.7591 -0.1357  0.1794
 2206SOL    HW118077   4.243   3.184  12.135 -1.0152 -0.2399  1.1884
 2206SOL    HW218078   4.141   3.251  12.053  0.8141  3.3518 -1.3307
 2207SOL     OW18079   2.587   2.862   1.532  0.3405  0.0524  0.3591
 2207SOL    HW118080   2.681   2.866   1.510  0.1472 -1.5777 -0.7375
 2207SOL    HW218081   2.564   2.800   1.463 -1.3746  1.4835 -0.3549
 2208SOL     OW18082   3.167   2.344   9.687  0.5052 -0.4190  0.0943
 2208SOL    HW118083   3.248   2.293   9.697  1.5538  1.0952 -0.5299
 2208SOL    HW218084   3.197   2.413   9.746  1.6616 -0.1108 -0.8453
 2209SOL     OW18085   0.546   1.483   7.765 -0.6285  0.5389  0.0117
 2209SOL    HW118086   0.574   1.538   7.692  1.7236 -1.5676 -0.6876
 2209SOL    HW218087   0.459   1.511   7.794 -0.2279  2.2639 -0.4323
 2210SOL     OW18088   0.312   4.074  16.858 -0.4424 -0.1665 -0.3086
 2210SOL    HW118089   0.321   4.111  16.770  1.2764  0.6621  0.2090
 2210SOL    HW218090   0.230   4.025  16.848 -1.0172  0.7844 -0.3182
 2211SOL     OW18091   3.627   1.819  14.544  0.1212 -0.1380  0.1505
 2211SOL    HW118092   3.588   1.864  14.619 -0.7187 -0.5914 -0.0157
 2211SOL    HW218093   3.557   1.826  14.479 -1.4452 -4.2979  1.4499
 2212SOL     OW18094   3.344   2.022   1.803  0.1898 -0.5484  0.2310
 2212SOL    HW118095   3.309   2.005   1.890 -0.2464  2.3390  0.5966
 2212SOL    HW218096   3.381   2.107   1.824  0.9807 -0.5496 -1.1158
 2213SOL     OW18097   4.296   0.201   3.151 -0.5039 -0.3819 -0.9745
 2213SOL    HW118098   4.346   0.247   3.219  1.4245 -1.6272 -1.5493
 2213SOL    HW218099   4.294   0.113   3.189 -0.6873  0.2880  0.5608
 2214SOL     OW18100   3.023   3.152   2.912 -0.4991  0.3410 -0.3217
 2214SOL    HW118101   3.103   3.165   2.861  0.6008 -0.0371  1.3086
 2214SOL    HW218102   2.993   3.062   2.900 -0.2218  0.3792 -1.2862
 2215SOL     OW18103   2.102   0.635   8.524 -0.0069 -0.3789 -0.2651
 2215SOL    HW118104   2.125   0.727   8.533  0.1106 -0.3731 -0.6132
 2215SOL    HW218105   2.082   0.614   8.615  0.6844 -1.9108 -0.4615
 2216SOL     OW18106   2.514   3.309   8.993 -0.3219 -0.1494  0.0479
 2216SOL    HW118107   2.560   3.232   9.023  1.5774  0.5680 -1.0148
 2216SOL    HW218108   2.580   3.348   8.936 -3.1177  1.7442 -1.9257
 2217SOL     OW18109   3.408   2.169   5.816 -0.3859  0.1988 -0.4820
 2217SOL    HW118110   3.314   2.152   5.814  0.1673 -3.0527  0.2852
 2217SOL    HW218111   3.414   2.227   5.741  0.3839 -0.1521 -0.6981
 2218SOL     OW18112   1.077   4.435   3.480  0.2941  0.3817 -0.2331
 2218SOL    HW118113   1.125   4.502   3.529  1.1322 -1.6551  1.7303
 2218SOL    HW218114   1.018   4.398   3.545  1.2310  0.2228  0.5297
 2219SOL     OW18115   3.276   1.481   4.252  0.5196 -0.1734  0.0502
 2219SOL    HW118116   3.293   1.402   4.304 -1.0733 -1.6842 -1.7363
 2219SOL    HW218117   3.249   1.449   4.166 -0.0979 -1.2136  0.6297
 2220SOL     OW18118   2.725   3.887  10.987 -0.1258  0.0218 -0.0875
 2220SOL    HW118119   2.819   3.876  10.999 -0.0822  0.3511 -0.1328
 2220SOL    HW218120   2.720   3.846  10.900  1.0875 -0.4716  0.0885
 2221SOL     OW18121   2.774   0.190   6.385 -0.1002  0.3568  0.4678
 2221SOL    HW118122   2.795   0.234   6.303  0.4959 -1.4975 -0.3630
 2221SOL    HW218123   2.689   0.230   6.404  0.0185  1.2190 -0.8405
 2222SOL     OW18124   0.173   2.002   7.953  0.3831 -0.3316  0.1828
 2222SOL    HW118125   0.251   2.057   7.962  1.4595 -2.0466  1.2416
 2222SOL    HW218126   0.128   2.047   8.025  0.2805 -2.7012  1.6057
 2223SOL     OW18127   4.454   1.573   6.004  0.4238  0.2000 -0.3824
 2223SOL    HW118128   4.505   1.496   6.027  0.9994  0.7530  0.2009
 2223SOL    HW218129   4.400   1.599   6.079 -0.3314 -2.2759 -0.0816
 2224SOL     OW18130   2.951   1.138   2.315 -0.3707  0.1051  0.6535
 2224SOL    HW118131   3.007   1.107   2.387  1.5008 -0.8443 -1.1971
 2224SOL    HW218132   2.918   1.221   2.349 -3.0769 -0.7897  0.1745
 2225SOL     OW18133   1.921   2.241   3.238 -0.5735 -0.0332 -0.3199
 2225SOL    HW118134   1.951   2.233   3.148  0.4540 -1.1992  0.1187
 2225SOL    HW218135   1.990   2.195   3.287 -0.2126  0.6558 -0.1809
 2226SOL     OW18136   1.596   4.587   1.064 -0.0743 -0.3188 -0.1887
 2226SOL    HW118137   1.559   4.610   0.979  0.5609  1.3733 -0.0007
 2226SOL    HW218138   1.619   4.675   1.093 -1.2367  0.2264 -0.8792
 2227SOL     OW18139   1.843   3.003  11.910 -0.1442 -0.3015  0.2548
 2227SOL    HW118140   1.865   3.056  11.834  0.6805 -1.1150 -0.0823
 2227SOL    HW218141   1.795   3.065  11.965 -1.1302 -0.8131 -0.0326
 2228SOL     OW18142   2.287   2.529  14.754 -0.6508  0.8801  0.1499
 2228SOL    HW118143   2.337   2.452  14.727 -0.3984  1.1915 -0.2720
 2228SOL    HW218144   2.338   2.597  14.711  0.6853 -0.5704 -0.5550
 2229SOL     OW18145   2.202   4.463   8.025  0.7802  0.3343  0.6728
 2229SOL    HW118146   2.115   4.479   8.061  1.7694  1.5969  2.5469
 2229SOL    HW218147   2.256   4.517   8.084  0.8463 -0.0493  0.9636
 2230SOL     OW18148   0.392   2.085  16.254  0.1431  0.2521 -0.2130
 2230SOL    HW118149   0.387   2.073  16.159 -2.3996 -2.5537  0.2697
 2230SOL    HW218150   0.340   2.164  16.264  0.6290  0.3108  1.9350
 2231SOL     OW18151   4.639   1.536   2.175 -0.2634 -0.0542  0.0734
 2231SOL    HW118152   4.716   1.480   2.185  1.0708  1.4958 -1.5503
 2231SOL    HW218153   4.622   1.529   2.081 -4.0680 -2.0734  0.9183
 2232SOL     OW18154   3.327   2.765   3.005 -0.1969  0.3290  0.4748
 2232SOL    HW118155   3.265   2.803   3.068  1.2000  1.4465  1.1925
 2232SOL    HW218156   3.261   2.727   2.948  1.1797 -1.5028  0.1311
 2233SOL     OW18157   3.853   0.327   9.421 -0.6929 -0.5084 -0.2401
 2233SOL    HW118158   3.909   0.356   9.493 -0.3699  0.5506 -0.9118
 2233SOL    HW218159   3.902   0.372   9.353 -1.1440 -1.1320 -0.9811
 2234SOL     OW18160   2.105   4.414   1.117  0.1632 -0.3527  0.2926
 2234SOL    HW118161   2.157   4.452   1.047 -1.7538 -0.0206 -0.9437
 2234SOL    HW218162   2.019   4.453   1.106 -0.3168 -1.2226  0.9400
 2235SOL     OW18163   1.890   0.557   0.725 -0.3701  0.2308 -0.3874
 2235SOL    HW118164   1.809   0.594   0.758 -1.2200 -0.6961 -1.4429
 2235SOL    HW218165   1.861   0.466   0.726 -2.3157  0.8542 -0.2053
 2236SOL     OW18166   4.275   1.221  14.416 -0.1619  0.0191  0.3651
 2236SOL    HW118167   4.188   1.236  14.452 -0.3210 -2.2771  0.9549
 2236SOL    HW218168   4.282   1.303  14.367  3.4900 -1.4055 -1.4977
 2237SOL     OW18169   2.100   0.349   3.362 -0.5383  0.0540  0.3141
 2237SOL    HW118170   2.150   0.273   3.391 -0.3350  0.1767  0.2842
 2237SOL    HW218171   2.081   0.394   3.445  0.3459 -0.1355  0.6234
 2238SOL     OW18172   0.985   4.317   3.107 -0.1292 -0.0086  0.2574
 2238SOL    HW118173   0.973   4.255   3.179 -1.3932  0.7364  0.6696
 2238SOL    HW218174   1.044   4.277   3.043  0.1695 -2.1031  1.8184
 2239SOL     OW18175   0.765   3.279   4.836  0.5106  0.8576  0.2722
 2239SOL    HW118176   0.726   3.257   4.920  1.2467 -0.9966  0.1119
 2239SOL    HW218177   0.765   3.375   4.838 -0.1257  0.8491  0.4173
 2240SOL     OW18178   1.695   0.956   2.966 -0.0787  0.1945  0.5843
 2240SOL    HW118179   1.748   0.879   2.987  0.6666  0.6704  0.4785
 2240SOL    HW218180   1.634   0.925   2.899 -0.6855  1.2169  0.6565
 2241SOL     OW18181   1.573   0.426   6.131 -0.6852  0.0707 -0.4813
 2241SOL    HW118182   1.590   0.489   6.201 -3.1505 -0.5717  0.7230
 2241SOL    HW218183   1.623   0.357   6.175 -1.9714 -0.8288 -0.4195
 2242SOL     OW18184   1.740   3.745   4.494  0.7629 -0.0937 -0.4432
 2242SOL    HW118185   1.647   3.729   4.506  0.9584 -1.4489 -0.7785
 2242SOL    HW218186   1.748   3.684   4.422 -0.1790 -0.4889 -0.2018
 2243SOL     OW18187   2.162   0.894   8.513  0.1701  0.0729  0.0397
 2243SOL    HW118188   2.139   0.965   8.574 -0.6916  0.4955 -0.7676
 2243SOL    HW218189   2.153   0.947   8.433  1.8288  1.3081  0.6635
 2244SOL     OW18190   2.853   3.575   0.717 -0.0660  0.9130  0.3415
 2244SOL    HW118191   2.823   3.592   0.628 -1.2144  1.4634  0.8276
 2244SOL    HW218192   2.911   3.647   0.740 -0.6759  0.9203  1.8632
 2245SOL     OW18193   4.435   2.504   0.117  0.3890 -0.4692  0.3383
 2245SOL    HW118194   4.447   2.594   0.148  0.2162 -0.7423  1.1968
 2245SOL    HW218195   4.501   2.514   0.048 -0.4819  1.8519 -0.1858
 2246SOL     OW18196   4.371   1.236   7.777  0.0988 -0.0769 -0.3106
 2246SOL    HW118197   4.353   1.317   7.731  0.0719  0.1918  0.1702
 2246SOL    HW218198   4.415   1.273   7.854  0.7415 -1.0838 -0.1961
 2247SOL     OW18199   4.207   1.308   5.882  0.1203 -0.1304  0.1333
 2247SOL    HW118200   4.131   1.337   5.933 -0.1526  1.0907 -0.9583
 2247SOL    HW218201   4.239   1.252   5.952 -1.4519 -0.6329  0.4497
 2248SOL     OW18202   2.840   2.409  13.582  0.6516 -0.6271 -0.5242
 2248SOL    HW118203   2.758   2.365  13.562  0.8588  0.2161 -3.2740
 2248SOL    HW218204   2.843   2.405  13.677  1.5600 -1.6090 -0.5883
 2249SOL     OW18205   2.037   0.351   2.286 -0.0630 -0.4862 -0.3851
 2249SOL    HW118206   2.126   0.376   2.261 -0.3810  0.3435 -0.6829
 2249SOL    HW218207   1.974   0.379   2.220 -0.3394  0.2505  0.1933
 2250SOL     OW18208   2.864   2.629   4.953 -0.2114  0.0021 -0.0527
 2250SOL    HW118209   2.861   2.632   4.857  0.6877  1.9649 -0.0227
 2250SOL    HW218210   2.798   2.691   4.983 -0.3128  0.4211 -1.1313
 2251SOL     OW18211   0.926   2.620   2.612  0.2380  0.4176 -0.0262
 2251SOL    HW118212   1.017   2.605   2.586 -0.6573 -0.5417 -2.5474
 2251SOL    HW218213   0.932   2.680   2.686  0.8324 -0.8732  0.9610
 2252SOL     OW18214   2.538   0.041  10.489 -0.0220 -0.0360  0.0455
 2252SOL    HW118215   2.473   0.109  10.469 -1.0902 -0.9498  0.4040
 2252SOL    HW218216   2.539   0.047  10.584  0.8432  0.9596 -0.0261
 2253SOL     OW18217   4.386   1.032  14.213 -0.3186  0.0393  0.6464
 2253SOL    HW118218   4.359   1.089  14.285  0.5150  0.6741  0.4596
 2253SOL    HW218219   4.330   0.955  14.223 -0.1409  0.0685  1.8408
 2254SOL     OW18220   1.138   2.599  14.111  0.0088 -0.6779  0.0166
 2254SOL    HW118221   1.115   2.514  14.148 -0.2084 -0.1138  1.1807
 2254SOL    HW218222   1.186   2.638  14.184 -3.1373 -0.6714  2.0844
 2255SOL     OW18223   1.829   1.930   1.901  0.1808 -0.2407  0.2162
 2255SOL    HW118224   1.782   1.915   1.819  1.5541 -3.4552  0.0259
 2255SOL    HW218225   1.818   1.845   1.943 -1.2539 -0.9317 -1.5644
 2256SOL     OW18226   2.529   4.042   2.448 -0.2657  0.3752 -0.1136
 2256SOL    HW118227   2.598   4.052   2.513  0.7962  0.5769 -1.2651
 2256SOL    HW218228   2.523   4.127   2.404 -0.2155  1.5268  2.1025
 2257SOL     OW18229   2.998   0.199   9.266 -0.0877  0.5061 -0.2161
 2257SOL    HW118230   3.081   0.181   9.310 -0.1781  1.6972  0.4268
 2257SOL    HW218231   2.945   0.133   9.311  1.7511 -0.4829  0.4932
 2258SOL     OW18232   1.206   1.886   9.533  0.7629  0.5628  0.0322
 2258SOL    HW118233   1.112   1.881   9.515  0.9861  0.2909 -1.0617
 2258SOL    HW218234   1.232   1.816   9.473 -2.8082  0.6049 -1.5881
 2259SOL     OW18235   2.724   3.529  16.574 -0.3711 -0.6669  0.3284
 2259SOL    HW118236   2.815   3.557  16.590 -0.8083  1.7070 -1.3990
 2259SOL    HW218237   2.724   3.457  16.638  1.5772 -0.8159  0.1678
 2260SOL     OW18238   1.899   2.274   1.055  0.2858  0.9573  0.1601
 2260SOL    HW118239   1.940   2.325   1.125 -0.7181  2.5881 -0.4613
 2260SOL    HW218240   1.915   2.324   0.975 -0.4587 -1.6432 -1.6178
 2261SOL     OW18241   1.304   4.332  10.290 -0.6175  0.2112  0.2202
 2261SOL    HW118242   1.310   4.428  10.296 -1.3733  0.2776 -0.0402
 2261SOL    HW218243   1.241   4.327  10.218 -2.0918  0.5817  1.4940
 2262SOL     OW18244   0.175   0.452   3.555 -0.6904 -0.7079 -0.6033
 2262SOL    HW118245   0.244   0.441   3.490 -0.4007 -2.0090 -0.0720
 2262SOL    HW218246   0.175   0.546   3.541 -4.6736 -0.7525 -1.1240
 2263SOL     OW18247   3.433   2.696  15.105 -0.2899  0.1238 -0.2859
 2263SOL    HW118248   3.527   2.702  15.089  0.0386 -0.5149  1.4072
 2263SOL    HW218249   3.399   2.716  15.018 -1.2368  0.6110  0.2018
 2264SOL     OW18250   2.823   0.303   5.700 -0.1389 -0.1986 -0.1007
 2264SOL    HW118251   2.835   0.262   5.786 -1.2532  1.4143  0.8276
 2264SOL    HW218252   2.872   0.384   5.711  0.2536 -0.4422 -0.0784
 2265SOL     OW18253   3.288   0.588   3.631 -0.0992  0.7450  0.3538
 2265SOL    HW118254   3.310   0.516   3.572  5.0108  0.7159  2.2854
 2265SOL    HW218255   3.288   0.673   3.587  1.9466 -0.2705 -1.6188
 2266SOL     OW18256   0.769   0.504   2.784  0.8121  0.4135 -0.1284
 2266SOL    HW118257   0.725   0.505   2.698 -0.0805  1.1776  0.3334
 2266SOL    HW218258   0.733   0.418   2.806  1.8831 -0.3256 -1.2827
 2267SOL     OW18259   4.371   2.801   1.326 -1.1383 -0.3691  0.0232
 2267SOL    HW118260   4.302   2.753   1.280  1.7575 -2.4987 -2.1257
 2267SOL    HW218261   4.437   2.753   1.277  0.4071  1.0360  0.7489
 2268SOL     OW18262   2.111   3.629   3.437 -0.2203  0.1065 -0.5945
 2268SOL    HW118263   2.117   3.575   3.516 -1.2464 -0.2661 -0.7750
 2268SOL    HW218264   2.075   3.566   3.375 -0.2419 -0.9628  0.5109
 2269SOL     OW18265   3.798   2.615   2.045  0.0782 -0.0128  0.3990
 2269SOL    HW118266   3.886   2.578   2.049 -0.2815 -0.7578  1.3073
 2269SOL    HW218267   3.769   2.598   1.956  2.9036 -1.8208 -0.1652
 2270SOL     OW18268   3.272   3.404   8.143  0.2763 -0.2754  0.2055
 2270SOL    HW118269   3.313   3.435   8.224  2.1662 -1.1560 -0.4130
 2270SOL    HW218270   3.212   3.340   8.181 -2.8178  2.5275  0.0922
 2271SOL     OW18271   2.033   3.545   7.333  0.8155  0.5965 -0.4492
 2271SOL    HW118272   2.035   3.582   7.421  1.4300 -0.2067 -0.1211
 2271SOL    HW218273   2.016   3.453   7.356  1.3503  0.8207  0.8380
 2272SOL     OW18274   3.090   2.549   6.728  0.2102 -0.0251 -0.3007
 2272SOL    HW118275   3.162   2.569   6.668  0.2880 -2.6970 -1.1005
 2272SOL    HW218276   3.136   2.568   6.810  1.5340 -1.4620 -0.7105
 2273SOL     OW18277   2.687   3.114   8.188  0.0236  0.3180 -0.2035
 2273SOL    HW118278   2.781   3.102   8.174  0.5769  0.1729  3.5474
 2273SOL    HW218279   2.675   3.086   8.279  1.2993 -2.0559 -0.7692
 2274SOL     OW18280   0.019   0.335   4.789 -0.0987 -0.3680 -0.1815
 2274SOL    HW118281   4.699   0.418   4.810  0.2549 -0.2689  0.1511
 2274SOL    HW218282   0.076   0.329   4.865 -0.0637 -1.1729 -0.2762
 2275SOL     OW18283   3.410   0.305  12.699  0.8025  0.2177 -0.3774
 2275SOL    HW118284   3.484   0.323  12.642  1.3227 -2.3079 -0.4988
 2275SOL    HW218285   3.410   0.382  12.756  0.4657 -0.1559  0.1304
 2276SOL     OW18286   4.107   0.525  12.500  0.1994  0.0844  0.3096
 2276SOL    HW118287   4.151   0.550  12.581 -0.0119 -2.2339  1.1089
 2276SOL    HW218288   4.183   0.501  12.446  0.1247 -0.5207  0.4798
 2277SOL     OW18289   1.671   4.530   6.177 -0.1865  0.2835 -0.6721
 2277SOL    HW118290   1.698   4.441   6.157 -1.5421 -0.3474  0.3082
 2277SOL    HW218291   1.738   4.585   6.136 -0.8898  0.0705 -2.0949
 2278SOL     OW18292   3.075   2.570   3.609  0.5972  0.1959  0.2432
 2278SOL    HW118293   3.093   2.592   3.518 -1.8810 -2.5710 -0.9177
 2278SOL    HW218294   3.154   2.595   3.656  0.5085  1.0830 -0.0851
 2279SOL     OW18295   0.014   4.063   7.542 -0.2718  0.1456 -0.3633
 2279SOL    HW118296   4.664   4.004   7.561 -0.4111 -0.3205 -2.3291
 2279SOL    HW218297   0.085   4.011   7.580 -1.0397 -2.6085 -2.7157
 2280SOL     OW18298   3.124   0.123   1.649  0.3892 -0.3235 -0.1104
 2280SOL    HW118299   3.131   0.127   1.744  1.9237 -0.4340 -0.2124
 2280SOL    HW218300   3.215   0.134   1.623  0.6322  0.0878  0.9102
 2281SOL     OW18301   0.865   3.854   0.442 -0.0666 -0.1801  0.8752
 2281SOL    HW118302   0.806   3.805   0.385  1.1763  1.1418 -1.5484
 2281SOL    HW218303   0.924   3.779   0.457 -0.3619 -0.3113  1.4110
 2282SOL     OW18304   1.737   0.807   6.507 -0.3498  0.0215  0.4449
 2282SOL    HW118305   1.703   0.890   6.542 -1.1640  0.6875 -1.9317
 2282SOL    HW218306   1.829   0.813   6.532 -1.0693  2.1910  2.5270
 2283SOL     OW18307   0.926   1.510   4.566 -0.0294  0.0924  0.2661
 2283SOL    HW118308   0.885   1.571   4.504  0.1075 -0.2094 -0.1176
 2283SOL    HW218309   1.009   1.551   4.591  0.6791 -0.4699 -1.2063
 2284SOL     OW18310   1.441   1.319   7.043  0.6416 -0.1710 -0.6655
 2284SOL    HW118311   1.511   1.345   7.102 -1.1648 -2.9649  2.7093
 2284SOL    HW218312   1.395   1.270   7.112  0.7957  0.1766 -0.3162
 2285SOL     OW18313   0.004   3.007  15.342 -0.1026 -0.6288  0.2937
 2285SOL    HW118314   4.693   2.924  15.374  1.2861 -1.5879 -0.7397
 2285SOL    HW218315   0.099   2.996  15.353  0.4700  0.9027 -3.2049
 2286SOL     OW18316   3.029   1.870   5.358 -0.0136 -0.3306  0.6650
 2286SOL    HW118317   2.948   1.826   5.383 -0.2195  0.0917  0.7392
 2286SOL    HW218318   3.027   1.884   5.264 -0.2400  0.8790  0.8434
 2287SOL     OW18319   3.455   4.167   8.411  0.0801 -0.1134  0.2174
 2287SOL    HW118320   3.387   4.207   8.464  0.4721 -1.5182  1.7976
 2287SOL    HW218321   3.533   4.186   8.464  0.0989 -0.8744  0.4643
 2288SOL     OW18322   1.605   3.883   1.396 -0.8257 -0.1427 -0.1809
 2288SOL    HW118323   1.528   3.863   1.343 -0.0523  0.0945 -1.4099
 2288SOL    HW218324   1.576   3.851   1.481  1.4923  0.5207  0.8550
 2289SOL     OW18325   1.610   0.794  17.673  0.1686 -0.3282 -0.3065
 2289SOL    HW118326   1.667   0.795  17.595  2.0700 -1.4366  1.0713
 2289SOL    HW218327   1.594   0.700  17.687  1.4274 -0.0038  3.2681
 2290SOL     OW18328   4.041   4.326   5.924 -0.2078 -0.3944  0.0510
 2290SOL    HW118329   4.108   4.380   5.967  1.3297 -0.5592 -2.1344
 2290SOL    HW218330   3.970   4.339   5.987 -0.2667 -0.2641 -0.0409
 2291SOL     OW18331   0.295   2.823   3.217  0.3311 -0.3946 -0.3110
 2291SOL    HW118332   0.345   2.793   3.294 -0.2404  3.6693  1.6073
 2291SOL    HW218333   0.284   2.917   3.226  0.3535 -0.5772  1.6437
 2292SOL     OW18334   2.096   4.060   9.412  0.6702  0.0892  0.2949
 2292SOL    HW118335   2.118   3.976   9.372  0.7911 -0.4088  1.4131
 2292SOL    HW218336   2.063   4.044   9.500 -1.8897  1.2076 -0.4777
 2293SOL     OW18337   1.211   1.647  15.367  0.2772 -0.4674  0.1859
 2293SOL    HW118338   1.272   1.718  15.347 -0.9517  0.5319 -0.0581
 2293SOL    HW218339   1.138   1.701  15.398  0.2601  0.9847 -2.3144
 2294SOL     OW18340   3.961   2.532   3.277  0.0799 -0.0959  0.1295
 2294SOL    HW118341   4.019   2.607   3.262 -1.9291  0.9898 -2.2287
 2294SOL    HW218342   3.875   2.575   3.282  0.5657  0.8892  0.0715
 2295SOL     OW18343   3.952   0.224   4.544  0.0928  0.0903  0.2695
 2295SOL    HW118344   4.010   0.193   4.474 -1.3971 -0.3515 -0.7819
 2295SOL    HW218345   3.876   0.167   4.528  0.0909  1.2154 -3.8484
 2296SOL     OW18346   3.383   2.326   3.232  0.3741 -0.7891  0.5937
 2296SOL    HW118347   3.397   2.374   3.150  2.6542 -3.7028 -0.7240
 2296SOL    HW218348   3.398   2.236   3.204  2.4642 -0.5367  0.9597
 2297SOL     OW18349   3.875   4.459   2.132 -0.2992 -0.2647 -0.4987
 2297SOL    HW118350   3.834   4.540   2.102 -0.6310 -0.1104  0.3731
 2297SOL    HW218351   3.849   4.405   2.057  2.1596 -2.4585  0.2463
 2298SOL     OW18352   2.782   3.363   4.269  0.0736 -0.0258 -0.1099
 2298SOL    HW118353   2.701   3.314   4.285 -0.8932  1.7126  0.3149
 2298SOL    HW218354   2.753   3.452   4.248 -2.0257 -0.3847  1.3504
 2299SOL     OW18355   4.478   2.334   1.894  0.3614  0.4271 -0.3525
 2299SOL    HW118356   4.531   2.256   1.908  0.0055  0.0779 -0.9162
 2299SOL    HW218357   4.539   2.383   1.839  2.5609  0.4029  2.0619
 2300SOL     OW18358   3.308   1.649   2.996  0.3812  0.0848 -0.4138
 2300SOL    HW118359   3.228   1.644   2.944  0.1750 -3.3732  0.2322
 2300SOL    HW218360   3.308   1.740   3.023 -2.7080 -1.0909  3.6182
 2301SOL     OW18361   2.262   3.283   3.834  0.0501 -0.2697 -0.6368
 2301SOL    HW118362   2.357   3.291   3.835  0.0046  0.0022  2.0386
 2301SOL    HW218363   2.239   3.284   3.927 -2.2930 -1.6796 -1.2050
 2302SOL     OW18364   1.867   2.811   3.823 -0.0510  0.0651  1.1186
 2302SOL    HW118365   1.919   2.752   3.878 -3.2740 -3.7411  0.0987
 2302SOL    HW218366   1.788   2.759   3.808 -0.9950  1.5199  0.9897
 2303SOL     OW18367   2.646   4.161  11.067 -0.6309 -0.4278  0.2230
 2303SOL    HW118368   2.675   4.080  11.026  3.2661  1.0877 -0.0264
 2303SOL    HW218369   2.690   4.142  11.150  0.3665 -1.0169 -0.4451
 2304SOL     OW18370   1.903   3.431   0.823  0.0143  0.6435  0.3945
 2304SOL    HW118371   1.941   3.460   0.905  0.2387  0.8565  0.2143
 2304SOL    HW218372   1.869   3.517   0.797 -0.9000  0.0094 -0.5425
 2305SOL     OW18373   1.445   3.571  16.536  0.0091 -0.3121  0.0893
 2305SOL    HW118374   1.504   3.646  16.545 -0.3683 -0.1795  1.5709
 2305SOL    HW218375   1.460   3.557  16.443  1.0755 -0.3857  0.2830
 2306SOL     OW18376   4.174   0.033  16.067 -0.0273  0.1823 -0.1744
 2306SOL    HW118377   4.258   0.069  16.093 -0.0978 -0.5136  1.0194
 2306SOL    HW218378   4.142   4.716  16.148 -0.6542  0.9474 -0.0448
 2307SOL     OW18379   1.030   2.025  13.615 -0.2457  0.4316  0.1212
 2307SOL    HW118380   0.989   2.000  13.533  0.2634 -0.1188  0.0393
 2307SOL    HW218381   1.117   2.049  13.584  0.2611 -1.2813  0.2046
 2308SOL     OW18382   1.355   3.490  15.237 -0.3245  0.2771 -0.1712
 2308SOL    HW118383   1.270   3.491  15.194 -0.9571  2.9810  1.1407
 2308SOL    HW218384   1.332   3.521  15.324 -0.4004  0.1649 -0.1515
 2309SOL     OW18385   3.829   4.097   5.740 -0.1665 -0.0326 -0.0646
 2309SOL    HW118386   3.747   4.051   5.721  0.4099 -1.2245  0.3347
 2309SOL    HW218387   3.885   4.062   5.670 -0.0310 -0.1343  0.0935
 2310SOL     OW18388   0.570   3.369  12.023  0.0882 -0.2836  0.5953
 2310SOL    HW118389   0.511   3.411  11.961 -0.0590 -0.7319  0.4332
 2310SOL    HW218390   0.543   3.402  12.108  0.6590  2.0985 -0.1598
 2311SOL     OW18391   1.950   0.028   4.788 -0.0034  0.1640  0.1047
 2311SOL    HW118392   1.973   0.120   4.794 -0.8705  0.4812 -1.3935
 2311SOL    HW218393   2.026   4.705   4.823 -0.4733  0.0675  0.9867
 2312SOL     OW18394   1.732   2.471  14.676  0.1582  0.2195 -0.4708
 2312SOL    HW118395   1.709   2.391  14.628 -0.9177  1.6858 -2.3574
 2312SOL    HW218396   1.822   2.455  14.703 -0.1477  0.1369  0.4997
 2313SOL     OW18397   3.822   3.222   0.916  0.0168  0.1944  0.2330
 2313SOL    HW118398   3.786   3.230   1.005  0.0696  1.2686  0.1463
 2313SOL    HW218399   3.808   3.315   0.899  2.7135  0.8142  1.4129
 2314SOL     OW18400   0.395   3.549   0.038 -0.1472  0.5559 -0.1970
 2314SOL    HW118401   0.405   3.613   0.108  1.4393  1.3873 -1.2006
 2314SOL    HW218402   0.299   3.542   0.034 -0.0721 -0.6041 -0.1241
 2315SOL     OW18403   4.262   3.934   1.035  0.0017  0.0111 -0.3754
 2315SOL    HW118404   4.346   3.977   1.048  0.6824 -1.7626  1.0583
 2315SOL    HW218405   4.290   3.856   0.986 -2.8803 -1.2902  0.0267
 2316SOL     OW18406   3.527   3.541   2.953 -0.7460  0.4650  0.1962
 2316SOL    HW118407   3.494   3.599   3.022 -1.8862  0.6841 -0.5352
 2316SOL    HW218408   3.618   3.549   2.979 -1.1595 -0.2501  1.8619
 2317SOL     OW18409   0.048   3.115   8.173  0.1491 -0.3585  0.1064
 2317SOL    HW118410   0.128   3.072   8.142 -0.5341 -2.6649  1.5467
 2317SOL    HW218411   0.022   3.148   8.087 -1.3610  0.2507  0.7960
 2318SOL     OW18412   1.068   3.499  13.244 -1.0154  0.7686 -0.7045
 2318SOL    HW118413   1.085   3.406  13.234 -0.5387  0.9371 -1.4617
 2318SOL    HW218414   1.101   3.535  13.162  0.1436 -1.7686 -1.3528
 2319SOL     OW18415   0.284   1.797   5.996 -0.5021  0.1269 -0.3914
 2319SOL    HW118416   0.190   1.812   5.994 -0.6231 -0.5489  0.3408
 2319SOL    HW218417   0.279   1.722   6.055  0.2258 -0.2842 -0.8555
 2320SOL     OW18418   1.242   0.297   2.755  0.0290 -0.1015  0.1815
 2320SOL    HW118419   1.326   0.338   2.777 -1.6360  2.3103  1.9373
 2320SOL    HW218420   1.272   0.207   2.742 -1.3839 -0.6271  0.6287
 2321SOL     OW18421   2.678   0.613  15.234  0.2038  0.0796 -0.1211
 2321SOL    HW118422   2.746   0.632  15.169 -2.0179 -0.7134 -2.6953
 2321SOL    HW218423   2.724   0.544  15.281 -2.8448 -0.2866  2.2369
 2322SOL     OW18424   2.273   4.635   4.296 -0.1141 -0.1226  0.1959
 2322SOL    HW118425   2.298   4.702   4.232 -0.3716 -0.4347 -0.2271
 2322SOL    HW218426   2.178   4.635   4.289 -0.3099  2.7078  2.6695
 2323SOL     OW18427   4.000   0.594   3.511 -0.1200 -0.1564  0.2490
 2323SOL    HW118428   3.974   0.594   3.418 -1.7492 -0.3801  0.7021
 2323SOL    HW218429   4.094   0.590   3.499 -0.4147 -2.0061 -1.4620
 2324SOL     OW18430   4.065   3.502   8.187 -0.0094  0.1237 -0.2904
 2324SOL    HW118431   3.980   3.472   8.218  1.1601 -2.5015  0.4715
 2324SOL    HW218432   4.032   3.555   8.115  0.5455  2.3248  1.0993
 2325SOL     OW18433   1.864   2.254   2.505 -0.2776  0.3450 -0.3247
 2325SOL    HW118434   1.901   2.286   2.423  0.4676 -2.2892 -1.0194
 2325SOL    HW218435   1.835   2.165   2.485  1.2757 -0.5116  1.2151
 2326SOL     OW18436   1.323   0.948  16.027  0.3895  0.1030 -0.3271
 2326SOL    HW118437   1.360   1.023  16.074 -0.8326  0.3489  0.2553
 2326SOL    HW218438   1.386   0.945  15.956 -0.5890 -1.4187 -1.1390
 2327SOL     OW18439   3.973   0.191   9.814  0.1792  0.0616 -0.1289
 2327SOL    HW118440   3.949   0.284   9.818 -1.4334 -0.3967  0.8443
 2327SOL    HW218441   4.061   0.193   9.776 -0.4825  2.7732 -1.5007
 2328SOL     OW18442   3.753   1.585   5.784  0.2945 -0.1034 -0.0444
 2328SOL    HW118443   3.816   1.593   5.712  0.4879 -0.4568  0.0890
 2328SOL    HW218444   3.727   1.493   5.779  1.8684 -0.5013 -0.9338
 2329SOL     OW18445   4.493   1.887  12.810  0.4257 -0.1222 -0.1459
 2329SOL    HW118446   4.490   1.884  12.906 -0.8075  0.2301 -0.1737
 2329SOL    HW218447   4.436   1.962  12.792 -0.1460  0.0279  2.2226
 2330SOL     OW18448   0.973   3.815   6.910  0.0491  0.1386 -0.1217
 2330SOL    HW118449   1.009   3.902   6.890  0.4498  0.2162  0.9541
 2330SOL    HW218450   0.881   3.838   6.927  0.5459  1.2715  1.0227
 2331SOL     OW18451   3.534   2.848   2.877  0.1485 -0.1731  0.2403
 2331SOL    HW118452   3.451   2.816   2.914 -0.1609 -0.2573 -0.5369
 2331SOL    HW218453   3.590   2.773   2.901  2.4242  2.4020  2.9180
 2332SOL     OW18454   0.591   1.627   5.389 -0.0697  0.1881 -0.3323
 2332SOL    HW118455   0.646   1.555   5.421  0.4985  1.1712  0.9282
 2332SOL    HW218456   0.506   1.595   5.419  0.0601  1.0848  1.0102
 2333SOL     OW18457   4.355   3.683   6.236 -0.2786 -0.4373  0.2438
 2333SOL    HW118458   4.340   3.595   6.272 -1.6082  0.0716  0.9112
 2333SOL    HW218459   4.354   3.668   6.141  0.4546  0.4062  0.1084
 2334SOL     OW18460   2.547   1.341   2.832  0.4689  0.2562 -0.3390
 2334SOL    HW118461   2.490   1.394   2.888 -1.3266 -0.1757 -1.7623
 2334SOL    HW218462   2.526   1.253   2.863 -0.2256  0.3653 -0.5087
 2335SOL     OW18463   2.309   2.751   7.745 -0.2964 -0.5858 -0.0093
 2335SOL    HW118464   2.386   2.803   7.719  0.1069 -0.9237  0.5038
 2335SOL    HW218465   2.241   2.813   7.772 -1.3349 -0.6127 -2.5900
 2336SOL     OW18466   2.929   2.344  12.843 -0.9258 -0.1050  0.4800
 2336SOL    HW118467   2.865   2.304  12.784  0.8293  1.5368 -2.5353
 2336SOL    HW218468   2.932   2.274  12.908 -1.8204 -1.3973 -0.8622
 2337SOL     OW18469   3.721   4.312   7.519  0.3856  0.0384 -0.3398
 2337SOL    HW118470   3.671   4.234   7.496  1.6403 -0.6603 -0.7002
 2337SOL    HW218471   3.773   4.321   7.439 -0.5221  0.9560 -0.8354
 2338SOL     OW18472   1.523   1.329   0.955  0.6563 -0.4519  0.0900
 2338SOL    HW118473   1.504   1.358   1.044  2.7704 -3.1588  1.4089
 2338SOL    HW218474   1.462   1.389   0.912  0.1633 -1.1453 -0.1785
 2339SOL     OW18475   3.616   2.307  15.500  0.1376 -0.6762 -0.4807
 2339SOL    HW118476   3.574   2.391  15.520  1.7547 -0.8943  3.7414
 2339SOL    HW218477   3.541   2.260  15.535 -0.6425 -1.3300 -3.0635
 2340SOL     OW18478   0.421   3.594   4.299  0.3650 -0.2238  0.5360
 2340SOL    HW118479   0.371   3.520   4.264 -0.2468  0.2746  0.3591
 2340SOL    HW218480   0.504   3.578   4.253 -1.4963 -3.2885 -1.7392
 2341SOL     OW18481   2.642   0.458  16.910  0.2961  0.2026  0.1622
 2341SOL    HW118482   2.550   0.482  16.926  0.7025  0.3485  2.2129
 2341SOL    HW218483   2.678   0.546  16.921  0.5128  0.4046 -2.1540
 2342SOL     OW18484   3.285   4.378   2.057 -0.2137  0.0063  0.6502
 2342SOL    HW118485   3.316   4.467   2.038 -0.7221  0.5646  2.3940
 2342SOL    HW218486   3.277   4.384   2.152  3.3235  4.7337  0.6658
 2343SOL     OW18487   0.005   1.874   4.798 -0.0598 -0.2897  0.1745
 2343SOL    HW118488   4.662   1.821   4.754  1.1487 -1.6990  0.0695
 2343SOL    HW218489   4.701   1.851   4.888  2.0018  2.0549  1.3865
 2344SOL     OW18490   1.988   1.701   8.275 -0.1533 -0.0271  0.2935
 2344SOL    HW118491   2.024   1.617   8.304  0.5424  0.3989  0.6781
 2344SOL    HW218492   1.954   1.684   8.187  0.4054 -1.6314  0.3767
 2345SOL     OW18493   0.894   3.258  11.055  0.0765  0.3770 -0.1270
 2345SOL    HW118494   0.830   3.192  11.081  1.7098 -1.2870 -0.3423
 2345SOL    HW218495   0.862   3.327  11.114 -1.6882 -1.0962  0.6411
 2346SOL     OW18496   0.447   0.194  15.340 -0.0970  0.2750  0.0686
 2346SOL    HW118497   0.467   0.107  15.304  0.2229  0.6971 -0.7598
 2346SOL    HW218498   0.359   0.173  15.372  0.4550 -2.5139 -0.1904
 2347SOL     OW18499   1.602   2.524   7.160 -0.5216 -0.7044  0.0597
 2347SOL    HW118500   1.619   2.617   7.169  0.3581 -0.8801  0.2032
 2347SOL    HW218501   1.679   2.498   7.109 -0.5585 -2.7127  1.0020
 2348SOL     OW18502   4.049   3.236   2.362 -0.4290 -0.3199 -0.0424
 2348SOL    HW118503   4.077   3.296   2.292  1.5586 -0.3941  0.6987
 2348SOL    HW218504   4.100   3.163   2.326 -0.4323  0.0545 -0.8125
 2349SOL     OW18505   3.087   4.046  12.016 -0.1678  0.1819 -0.3191
 2349SOL    HW118506   3.182   4.047  12.002 -0.2803  0.8444 -1.0409
 2349SOL    HW218507   3.090   4.037  12.111  1.3895 -0.5174 -0.4330
 2350SOL     OW18508   3.055   0.383   7.369 -0.7219  0.7089 -0.7060
 2350SOL    HW118509   3.121   0.315   7.354  0.1836  1.1602  1.1783
 2350SOL    HW218510   3.035   0.363   7.461 -2.1082 -0.6715 -1.3010
 2351SOL     OW18511   0.476   2.932   8.188  0.5680 -0.0256 -0.1697
 2351SOL    HW118512   0.416   2.971   8.125  0.7572  0.0182 -0.3223
 2351SOL    HW218513   0.416   2.869   8.229  1.0640  1.0686  2.2089
 2352SOL     OW18514   2.719   1.147   8.830 -0.3800 -0.3074  0.4027
 2352SOL    HW118515   2.719   1.172   8.922  2.6649  2.1833 -0.2918
 2352SOL    HW218516   2.653   1.208   8.797  0.1000 -0.0109 -0.0042
 2353SOL     OW18517   3.530   3.530  11.802  0.7990 -0.0929  0.2657
 2353SOL    HW118518   3.489   3.465  11.859  0.4268 -0.7780 -0.7899
 2353SOL    HW218519   3.522   3.613  11.849  0.1271 -0.2444  0.4308
 2354SOL     OW18520   2.248   1.315   8.722  0.6474 -0.0266 -0.1230
 2354SOL    HW118521   2.199   1.327   8.803 -0.8288 -1.6308 -0.7796
 2354SOL    HW218522   2.183   1.279   8.662  2.1396 -0.3181 -1.5651
 2355SOL     OW18523   0.658   3.938   9.476  0.0267 -0.1641  0.3811
 2355SOL    HW118524   0.595   3.895   9.535  1.5494 -0.4230  1.8092
 2355SOL    HW218525   0.707   3.861   9.447  0.5909 -0.2176  1.4633
 2356SOL     OW18526   2.683   3.235  17.456  0.8203  0.5699  0.2129
 2356SOL    HW118527   2.779   3.234  17.457  0.8299 -0.3413 -1.3456
 2356SOL    HW218528   2.664   3.220  17.363  0.4488  2.1643  0.0459
 2357SOL     OW18529   4.435   1.639   9.290  0.5487 -0.2112  0.3152
 2357SOL    HW118530   4.348   1.654   9.252  1.1055  0.4572 -0.6946
 2357SOL    HW218531   4.451   1.723   9.332 -0.4052  1.2876 -2.3117
 2358SOL     OW18532   3.994   3.985   5.049 -0.1006 -0.5022 -0.1398
 2358SOL    HW118533   3.984   3.890   5.060 -1.3484  0.0711  3.9215
 2358SOL    HW218534   4.034   3.995   5.135 -1.9983 -1.3491  0.8525
 2359SOL     OW18535   4.458   1.054   1.766 -0.1140 -0.2966  0.3269
 2359SOL    HW118536   4.505   0.973   1.787 -1.1831 -0.7565  0.9641
 2359SOL    HW218537   4.492   1.072   1.679  0.8672  3.0739  1.4070
 2360SOL     OW18538   2.211   3.526   4.578 -0.0198 -0.7173 -0.3147
 2360SOL    HW118539   2.208   3.561   4.490 -2.4013  2.4549  1.0425
 2360SOL    HW218540   2.286   3.574   4.614  0.3407 -2.0035  0.6674
 2361SOL     OW18541   3.122   1.540  15.630 -0.1133  0.0362  0.1978
 2361SOL    HW118542   3.070   1.588  15.694  0.5620  0.7972  0.1664
 2361SOL    HW218543   3.106   1.450  15.659 -2.7234  0.4050 -0.0460
 2362SOL     OW18544   4.320   2.453  11.774  0.0436 -0.1056  0.0677
 2362SOL    HW118545   4.264   2.437  11.850 -0.8116  0.0227 -0.5312
 2362SOL    HW218546   4.382   2.516  11.810 -0.5684  0.7955 -0.4687
 2363SOL     OW18547   3.413   4.453  13.055  0.0911  0.0315 -0.5802
 2363SOL    HW118548   3.350   4.473  12.986  1.2498  0.7985 -1.4084
 2363SOL    HW218549   3.370   4.383  13.104  3.8470 -1.6193  0.3940
 2364SOL     OW18550   1.622   0.223   0.429  0.5559 -0.3521  0.0096
 2364SOL    HW118551   1.599   0.131   0.440  0.3010 -0.3745 -0.6701
 2364SOL    HW218552   1.617   0.246   0.521 -0.3906  1.6819 -0.5582
 2365SOL     OW18553   4.324   1.569   3.059  0.1174  1.3218  0.0187
 2365SOL    HW118554   4.387   1.636   3.033  3.5709 -2.3717 -1.1846
 2365SOL    HW218555   4.328   1.513   2.981  3.4028 -1.1825  2.0059
 2366SOL     OW18556   4.358   2.317  11.526  0.4704 -0.1909  0.1004
 2366SOL    HW118557   4.316   2.231  11.530  2.3123 -1.1163 -0.5317
 2366SOL    HW218558   4.336   2.345  11.615 -2.1775 -0.8257 -0.3308
 2367SOL     OW18559   0.018   3.528   1.884 -0.0531  0.3751  0.2504
 2367SOL    HW118560   0.034   3.557   1.973 -2.0594 -2.0662  1.4180
 2367SOL    HW218561   0.060   3.442   1.883  0.0150  0.4240 -2.4105
 2368SOL     OW18562   2.304   0.978  12.562  0.2953 -0.0020 -0.7910
 2368SOL    HW118563   2.393   0.983  12.527 -0.4425  0.7682 -2.5592
 2368SOL    HW218564   2.309   0.898  12.614  0.9413 -0.5708 -1.7382
 2369SOL     OW18565   0.772   0.374   1.066  0.1434  0.3151 -0.3625
 2369SOL    HW118566   0.759   0.376   1.161  1.2365  2.5565 -0.2599
 2369SOL    HW218567   0.848   0.429   1.046  0.4572 -0.1273 -0.3963
 2370SOL     OW18568   4.320   4.120   8.130 -0.0016 -0.1267 -0.7364
 2370SOL    HW118569   4.310   4.193   8.191  1.6845 -0.5472  0.0582
 2370SOL    HW218570   4.279   4.051   8.183  0.7279  1.0830  1.4419
 2371SOL     OW18571   3.535   1.095   5.752 -0.3534  0.1467  0.0266
 2371SOL    HW118572   3.589   1.017   5.765 -0.4716 -0.1583 -1.2901
 2371SOL    HW218573   3.449   1.052   5.753 -0.3953  0.2388  0.5105
 2372SOL     OW18574   0.733   1.114   3.969  0.0849  0.1934 -1.2073
 2372SOL    HW118575   0.759   1.036   4.018  0.6947  1.4775  0.5111
 2372SOL    HW218576   0.816   1.162   3.961  1.4501 -2.0265 -0.3474
 2373SOL     OW18577   3.297   4.215   6.272 -0.3580  0.5419 -0.3094
 2373SOL    HW118578   3.310   4.186   6.362  1.3228  0.2087 -0.6481
 2373SOL    HW218579   3.252   4.294   6.301 -3.6711 -2.4501  2.6393
 2374SOL     OW18580   1.244   0.114   5.151 -0.2578 -0.2285  0.0196
 2374SOL    HW118581   1.154   0.145   5.157 -1.1029 -2.5186 -0.8208
 2374SOL    HW218582   1.252   0.051   5.223 -1.7964 -1.5075 -0.9105
 2375SOL     OW18583   2.347   1.877   7.160 -0.0418 -0.3612  0.7502
 2375SOL    HW118584   2.296   1.934   7.102 -0.4845 -0.3347  1.1629
 2375SOL    HW218585   2.318   1.794   7.122 -0.6367 -0.1066  0.6488
 2376SOL     OW18586   2.066   4.223  11.239  0.3887 -0.2866  0.1705
 2376SOL    HW118587   2.115   4.259  11.166 -2.7985 -0.2122 -1.9255
 2376SOL    HW218588   1.976   4.237  11.209  0.7783 -0.2361 -0.9331
 2377SOL     OW18589   1.081   4.008   2.784 -0.4069  0.0554  0.2434
 2377SOL    HW118590   1.122   3.938   2.734 -0.8548  1.2002 -1.7176
 2377SOL    HW218591   1.027   4.062   2.727 -2.2794 -2.4913 -0.4270
 2378SOL     OW18592   0.478   1.962   2.068 -0.1960  0.1242 -0.1231
 2378SOL    HW118593   0.555   1.918   2.103 -0.9484  2.1834  4.0410
 2378SOL    HW218594   0.408   1.933   2.126  0.8508  0.2996  1.2052
 2379SOL     OW18595   1.689   2.779   7.146  0.0436 -1.0953 -0.0747
 2379SOL    HW118596   1.728   2.848   7.200  0.4346 -1.2574 -0.1469
 2379SOL    HW218597   1.654   2.835   7.077 -0.8627  0.3710  1.5891
 2380SOL     OW18598   3.023   3.683   4.972  0.1877  0.1459 -0.1418
 2380SOL    HW118599   2.948   3.654   4.920 -0.5354 -0.5936  1.3067
 2380SOL    HW218600   3.076   3.604   4.985 -1.2339 -0.7003  0.5372
 2381SOL     OW18601   0.504   4.419   3.234 -0.3401  0.4841  0.2899
 2381SOL    HW118602   0.419   4.384   3.262 -0.1354 -0.1845  0.0845
 2381SOL    HW218603   0.493   4.463   3.150 -0.6499 -0.1224  0.0060
 2382SOL     OW18604   2.728   4.080   1.854  0.1395  0.1101  1.0808
 2382SOL    HW118605   2.792   4.010   1.840  1.1058  1.1361  0.2566
 2382SOL    HW218606   2.728   4.120   1.767  1.2061  1.3015  1.6093
 2383SOL     OW18607   0.713   1.742   4.152 -0.7706  0.4930 -0.0459
 2383SOL    HW118608   0.776   1.796   4.106 -2.9059  0.3732 -3.1047
 2383SOL    HW218609   0.742   1.654   4.129  0.4930  1.0095 -0.4178
 2384SOL     OW18610   0.326   4.505   4.194  0.0960  0.2402  0.0044
 2384SOL    HW118611   0.301   4.435   4.134  1.4750  0.4421 -0.8136
 2384SOL    HW218612   0.258   4.571   4.179 -0.9275 -1.0991 -1.2596
 2385SOL     OW18613   3.930   2.450   0.428 -0.0672  0.1893 -0.2939
 2385SOL    HW118614   3.863   2.420   0.490  0.0741 -0.8603 -0.6446
 2385SOL    HW218615   3.931   2.372   0.373 -0.6510 -0.6743  0.9064
 2386SOL     OW18616   1.743   3.157   2.476  0.1793  0.2502 -0.1788
 2386SOL    HW118617   1.653   3.189   2.476  0.0079 -0.2257 -2.6837
 2386SOL    HW218618   1.778   3.204   2.401 -3.0209  2.5028 -0.2449
 2387SOL     OW18619   4.062   0.043   5.511  0.4595  0.0453 -0.4120
 2387SOL    HW118620   4.100   4.720   5.586 -0.4458 -0.7986 -0.4563
 2387SOL    HW218621   4.105   4.717   5.441  1.5919  1.4565 -0.7013
 2388SOL     OW18622   0.421   3.744   5.284 -0.1214  0.3609  0.1145
 2388SOL    HW118623   0.480   3.671   5.301 -0.1502  0.6649  1.5885
 2388SOL    HW218624   0.467   3.802   5.224 -0.5769  0.3629 -0.2307
 2389SOL     OW18625   3.598   3.251   0.100 -1.1334 -0.1974 -0.3503
 2389SOL    HW118626   3.573   3.197   0.025 -0.6337 -0.9930  0.0644
 2389SOL    HW218627   3.657   3.316   0.062 -1.5867 -0.2189 -1.1026
 2390SOL     OW18628   2.678   0.866   4.053  0.4617 -0.5017 -0.1945
 2390SOL    HW118629   2.693   0.960   4.053 -0.1712 -0.4114  1.3062
 2390SOL    HW218630   2.700   0.843   4.143  2.1661 -0.6058 -0.6382
 2391SOL     OW18631   0.643   0.306   3.614 -0.5651  0.4011  0.6279
 2391SOL    HW118632   0.672   0.355   3.690  0.2652 -1.2438  1.3622
 2391SOL    HW218633   0.684   0.357   3.544 -1.5377 -2.3305 -1.9560
 2392SOL     OW18634   3.774   3.744   7.360  0.2823 -0.0764  0.5312
 2392SOL    HW118635   3.699   3.685   7.357 -1.4164  2.0230  1.6049
 2392SOL    HW218636   3.748   3.814   7.301  1.2236 -1.1929 -1.2277
 2393SOL     OW18637   3.213   3.421   4.759  0.0886 -0.2338 -0.0030
 2393SOL    HW118638   3.263   3.474   4.697 -0.8695  0.2563 -0.3515
 2393SOL    HW218639   3.140   3.405   4.700 -1.4398  0.5223  1.7055
 2394SOL     OW18640   4.374   2.387   8.102 -0.0675 -0.0809  0.0087
 2394SOL    HW118641   4.460   2.346   8.094 -0.8377 -2.1580  2.5616
 2394SOL    HW218642   4.394   2.452   8.170  0.8434  1.0500 -1.3316
 2395SOL     OW18643   3.879   4.497   5.178 -0.0436 -0.3039 -0.6196
 2395SOL    HW118644   3.831   4.570   5.139  0.2020  0.2157  0.0394
 2395SOL    HW218645   3.834   4.498   5.263  0.4892 -3.2672 -0.3250
 2396SOL     OW18646   1.451   2.468   1.459  0.1455  0.0781  0.1447
 2396SOL    HW118647   1.499   2.546   1.486 -0.3489  0.3397  0.2668
 2396SOL    HW218648   1.438   2.436   1.548  0.8114 -3.9574 -1.1769
 2397SOL     OW18649   1.548   3.195   5.222  0.2571 -0.6467 -0.3995
 2397SOL    HW118650   1.551   3.234   5.309  1.7586 -0.4963 -0.5216
 2397SOL    HW218651   1.631   3.226   5.187  0.1605 -0.6136 -0.6028
 2398SOL     OW18652   3.418   3.405   6.005 -0.2169 -0.0802 -0.2929
 2398SOL    HW118653   3.363   3.483   6.002 -0.4616 -0.2336  0.2665
 2398SOL    HW218654   3.449   3.405   5.914 -0.5158  0.7284 -0.3980
 2399SOL     OW18655   2.462   2.955   9.429  0.0518  0.1257 -0.1577
 2399SOL    HW118656   2.453   2.909   9.345  2.1416  0.4341 -0.5383
 2399SOL    HW218657   2.493   2.879   9.478  1.0394 -0.0396 -1.0389
 2400SOL     OW18658   0.938   2.372   2.523 -0.1078  0.1429  0.4598
 2400SOL    HW118659   0.853   2.392   2.484 -0.5373 -2.2494  0.2271
 2400SOL    HW218660   0.949   2.453   2.573  0.2374 -0.7143  1.7638
 2401SOL     OW18661   4.097   2.238   9.798 -0.0220 -0.4185  0.3801
 2401SOL    HW118662   4.165   2.255   9.733  0.2178 -0.7239  0.5538
 2401SOL    HW218663   4.024   2.215   9.741  0.0279  0.7391 -0.1614
 2402SOL     OW18664   4.573   2.912   5.950  0.3588  1.0301  0.6433
 2402SOL    HW118665   4.551   2.909   5.857 -1.4408 -1.1514  1.1187
 2402SOL    HW218666   4.571   3.003   5.980  0.7902  1.2953 -0.1342
 2403SOL     OW18667   2.782   0.069   8.320  0.3510 -0.3933  0.2309
 2403SOL    HW118668   2.737   4.710   8.299  0.0233 -0.9521  3.1272
 2403SOL    HW218669   2.760   0.077   8.413 -1.6195 -1.5613 -0.1414
 2404SOL     OW18670   2.785   0.971  17.616  0.1682 -0.1264  0.2668
 2404SOL    HW118671   2.719   1.040  17.605  0.8895  0.1939 -2.0635
 2404SOL    HW218672   2.789   0.948   0.016  0.6431 -0.4113  0.1739
 2405SOL     OW18673   0.745   2.646  11.239 -0.3384 -0.4517  0.2767
 2405SOL    HW118674   0.655   2.633  11.208 -0.3012 -0.2056  0.0660
 2405SOL    HW218675   0.794   2.601  11.171  0.9881 -1.1667  1.7064
 2406SOL     OW18676   1.094   2.273   8.626 -0.1787  0.4510  0.7662
 2406SOL    HW118677   1.013   2.235   8.592  2.0416 -0.6467 -3.3839
 2406SOL    HW218678   1.140   2.292   8.544  1.3877 -1.3591  1.2200
 2407SOL     OW18679   4.227   1.343  11.212 -0.3148  0.5512  0.0604
 2407SOL    HW118680   4.218   1.318  11.304 -1.6648  0.3470 -0.1304
 2407SOL    HW218681   4.265   1.260  11.184 -1.0521  0.1177  0.3307
 2408SOL     OW18682   1.042   2.111   6.464  0.1855  0.1465  0.4573
 2408SOL    HW118683   0.947   2.121   6.459 -0.0902 -2.2759  0.6779
 2408SOL    HW218684   1.059   2.134   6.373  1.7622 -0.9518  0.4533
 2409SOL     OW18685   0.427   1.504  13.575  0.0812 -0.4430 -0.1095
 2409SOL    HW118686   0.503   1.500  13.517 -0.9209 -3.7926 -1.2279
 2409SOL    HW218687   0.361   1.461  13.521 -2.9033 -0.2285  3.3797
 2410SOL     OW18688   1.363   3.094   5.616 -0.2768 -0.1119 -0.4723
 2410SOL    HW118689   1.445   3.095   5.664 -0.9796  1.3097  0.6991
 2410SOL    HW218690   1.370   3.168   5.556  1.2513  0.8318  0.8768
 2411SOL     OW18691   1.458   1.899   9.078 -0.0387  0.0502 -0.3447
 2411SOL    HW118692   1.440   1.811   9.045 -0.1606 -0.0783  0.0663
 2411SOL    HW218693   1.516   1.932   9.010  0.1992  0.3228 -0.0133
 2412SOL     OW18694   0.660   0.387  17.546  0.5219  0.1195  0.5095
 2412SOL    HW118695   0.698   0.342  17.622 -0.4829 -2.4213 -0.5057
 2412SOL    HW218696   0.578   0.412  17.589  0.6456 -1.7120  1.7930
 2413SOL     OW18697   4.475   4.015   1.203 -0.0278 -0.1271 -0.7447
 2413SOL    HW118698   4.479   3.926   1.238 -0.5851  0.1323 -0.0116
 2413SOL    HW218699   4.390   4.046   1.237 -0.1739  0.5016 -1.6874
 2414SOL     OW18700   2.367   2.655  11.199 -0.0454  0.1969 -0.4710
 2414SOL    HW118701   2.380   2.742  11.161 -3.3353  1.1784  0.6578
 2414SOL    HW218702   2.340   2.597  11.127  0.6310 -0.1778 -0.4245
 2415SOL     OW18703   4.589   0.879   9.667  0.1432  0.5550  0.0388
 2415SOL    HW118704   4.534   0.945   9.710  0.0140  0.1421  0.5028
 2415SOL    HW218705   4.603   0.922   9.582  1.0880  2.9889  1.4146
 2416SOL     OW18706   1.426   1.634   8.951  0.2495  0.3302  0.5739
 2416SOL    HW118707   1.467   1.625   8.865 -0.5347 -0.9412  0.3354
 2416SOL    HW218708   1.424   1.546   8.988 -2.0881 -0.1651 -0.7216
 2417SOL     OW18709   3.080   2.141   1.782 -0.5493 -0.1843 -0.0439
 2417SOL    HW118710   3.169   2.109   1.799  0.3289  1.3613 -1.6344
 2417SOL    HW218711   3.025   2.064   1.792  1.2820 -1.1784  2.2786
 2418SOL     OW18712   3.518   0.778   6.999 -0.2560  0.4953  0.6709
 2418SOL    HW118713   3.461   0.853   6.983 -1.9036 -0.9063 -0.0224
 2418SOL    HW218714   3.486   0.723   6.928 -1.8313  2.3764 -0.0845
 2419SOL     OW18715   0.862   4.112   3.336 -0.2489  0.0679 -0.0411
 2419SOL    HW118716   0.806   4.122   3.413 -0.8174 -2.0017 -0.1683
 2419SOL    HW218717   0.795   4.075   3.278 -2.0509 -0.4418  2.3463
 2420SOL     OW18718   3.223   4.119   2.615  0.3548 -0.1451 -0.3127
 2420SOL    HW118719   3.141   4.160   2.642 -0.4379  0.3475 -3.4276
 2420SOL    HW218720   3.218   4.135   2.520  1.5929 -2.0273 -0.7019
 2421SOL     OW18721   3.770   0.044  13.282 -0.1265  0.0791 -0.2358
 2421SOL    HW118722   3.795   0.027  13.373 -0.5237  3.1561  0.4305
 2421SOL    HW218723   3.681   0.010  13.275  0.1260 -0.5997 -0.1798
 2422SOL     OW18724   1.914   4.019   6.151 -0.4885 -0.1846 -0.6971
 2422SOL    HW118725   1.848   3.960   6.187 -1.1221 -0.2659 -1.9763
 2422SOL    HW218726   1.961   4.056   6.225  0.7984 -2.3970 -0.3819
 2423SOL     OW18727   3.620   4.131   7.820 -0.2360 -0.4612 -0.5869
 2423SOL    HW118728   3.573   4.050   7.838  1.0671 -1.1289 -0.2108
 2423SOL    HW218729   3.552   4.199   7.831  0.7020  0.1714  1.2367
 2424SOL     OW18730   1.552   0.541   8.659 -0.3781 -0.2839  0.5175
 2424SOL    HW118731   1.585   0.464   8.706  0.3286 -0.7604 -0.7599
 2424SOL    HW218732   1.489   0.501   8.599 -1.0477  1.3980  0.1079
 2425SOL     OW18733   3.810   0.026   3.210  0.4569 -0.2850  0.2360
 2425SOL    HW118734   3.843   0.044   3.122  2.3977  0.8195  1.1639
 2425SOL    HW218735   3.808   4.653   3.211 -1.7748 -0.2343  0.6531
 2426SOL     OW18736   1.229   1.657   5.261 -0.4894  0.4035  0.3047
 2426SOL    HW118737   1.170   1.721   5.301  0.7982  0.4635  2.1069
 2426SOL    HW218738   1.310   1.709   5.263  0.2868 -0.8507  1.3389
 2427SOL     OW18739   4.250   4.016   7.444  0.1325 -0.0550  0.0627
 2427SOL    HW118740   4.261   4.066   7.363  1.9697 -1.4108 -0.5135
 2427SOL    HW218741   4.159   3.987   7.441  0.3210 -0.5961 -0.4936
 2428SOL     OW18742   1.416   3.586   1.581  0.6213  0.5892  0.3333
 2428SOL    HW118743   1.415   3.672   1.621 -0.1864  0.0868  1.4016
 2428SOL    HW218744   1.414   3.617   1.490 -0.0866 -1.7150 -0.4581
 2429SOL     OW18745   1.875   1.531   9.748  0.9836  0.0977  1.0411
 2429SOL    HW118746   1.820   1.454   9.762 -0.9058  1.0595 -1.0031
 2429SOL    HW218747   1.904   1.511   9.659 -0.7123  2.7985 -0.1102
 2430SOL     OW18748   1.302   4.431  12.971  0.2620  0.3605  0.1681
 2430SOL    HW118749   1.278   4.482  12.894 -1.3001  0.0204  0.4248
 2430SOL    HW218750   1.357   4.491  13.022  1.6860 -0.2757 -0.6309
 2431SOL     OW18751   0.504   1.138   2.714 -0.2627 -0.2276 -0.6426
 2431SOL    HW118752   0.584   1.175   2.676 -1.4267  2.8275 -0.1656
 2431SOL    HW218753   0.494   1.059   2.661  2.9773 -0.2918 -1.1697
 2432SOL     OW18754   0.834   1.648  10.441  0.3435 -0.1509  0.2055
 2432SOL    HW118755   0.845   1.742  10.452 -0.2817  0.1402 -1.5429
 2432SOL    HW218756   0.922   1.615  10.454  1.0422  1.6911  0.0823
 2433SOL     OW18757   1.596   3.005   8.684 -0.6345  0.7453 -0.5006
 2433SOL    HW118758   1.581   3.098   8.699 -1.7329  0.4228  0.3745
 2433SOL    HW218759   1.639   2.977   8.765  0.3755  2.0353 -0.5930
 2434SOL     OW18760   2.284   1.482   2.363 -0.2721 -0.0342 -1.1461
 2434SOL    HW118761   2.320   1.395   2.384  1.8846  0.3354 -3.3091
 2434SOL    HW218762   2.352   1.543   2.391  0.9435 -0.7134 -2.5868
 2435SOL     OW18763   0.413   0.981   8.629  0.1544  0.1072 -0.4856
 2435SOL    HW118764   0.409   0.902   8.575  2.2185  1.0352 -2.0269
 2435SOL    HW218765   0.351   0.952   8.695  0.1154  2.9361  0.7051
 2436SOL     OW18766   1.086   4.425   1.035 -0.6412  0.0808  0.6254
 2436SOL    HW118767   1.054   4.457   0.950  0.3531 -0.2005  0.1464
 2436SOL    HW218768   1.043   4.340   1.035  0.5697 -0.5398 -0.7537
 2437SOL     OW18769   3.682   2.015  11.167  0.2847  0.4417  0.3221
 2437SOL    HW118770   3.654   2.071  11.240  0.6014 -1.3455  1.8291
 2437SOL    HW218771   3.671   1.928  11.205  2.0174 -0.0685 -0.3328
 2438SOL     OW18772   3.925   2.563  16.631  0.1874  0.2772 -0.5379
 2438SOL    HW118773   3.905   2.614  16.709 -2.0987 -0.3375 -0.7088
 2438SOL    HW218774   3.967   2.490  16.677 -0.6051  0.1335 -0.0404
 2439SOL     OW18775   2.092   3.410   8.419 -0.1575 -0.1921  1.0051
 2439SOL    HW118776   2.008   3.379   8.454  0.1405 -2.0132  0.1089
 2439SOL    HW218777   2.156   3.339   8.424 -0.3856 -0.3428  1.7714
 2440SOL     OW18778   2.023   2.232  12.898  0.5132 -0.0865  0.3646
 2440SOL    HW118779   1.982   2.319  12.896 -1.6602 -1.1037  0.3865
 2440SOL    HW218780   1.948   2.175  12.915  0.6473 -0.7826 -1.3975
 2441SOL     OW18781   3.378   3.235   8.623 -0.4422  0.2359 -0.2478
 2441SOL    HW118782   3.428   3.305   8.581 -2.9029  3.4313  2.1337
 2441SOL    HW218783   3.448   3.199   8.678 -0.4827  0.6489  0.0761
 2442SOL     OW18784   4.135   1.380   3.919  0.5384  0.7260 -0.1150
 2442SOL    HW118785   4.109   1.296   3.880  2.5653 -0.0603  0.2058
 2442SOL    HW218786   4.216   1.393   3.870  1.0122 -0.4028  0.3544
 2443SOL     OW18787   1.852   3.706   7.691 -0.0784  0.4219  0.0278
 2443SOL    HW118788   1.828   3.617   7.718 -1.4099  0.1482 -2.0511
 2443SOL    HW218789   1.764   3.735   7.667 -1.0882 -2.7007 -0.0603
 2444SOL     OW18790   1.920   1.920   0.079  0.2106  0.2413  0.2847
 2444SOL    HW118791   1.965   1.962   0.152  0.5865  1.2846 -0.5371
 2444SOL    HW218792   1.853   1.987   0.066  0.9877  0.8948 -0.3639
 2445SOL     OW18793   2.647   1.724  14.285  0.5643  0.1212 -0.6029
 2445SOL    HW118794   2.613   1.665  14.219  1.8750  0.3558 -1.4973
 2445SOL    HW218795   2.584   1.796  14.277 -0.7301 -0.8227  1.2935
 2446SOL     OW18796   0.090   1.244   5.874 -0.1720 -0.4001  0.8081
 2446SOL    HW118797   0.159   1.307   5.852 -1.4824  0.4360 -0.9752
 2446SOL    HW218798   0.143   1.170   5.903 -1.8825 -1.2099  1.8917
 2447SOL     OW18799   2.605   3.351   5.502  0.5158  0.2371  0.6276
 2447SOL    HW118800   2.645   3.345   5.589  0.7856  0.5167  0.5247
 2447SOL    HW218801   2.535   3.414   5.522  1.0611  0.4580  1.8617
 2448SOL     OW18802   1.550   2.159  16.811  0.1741  0.2029 -0.4635
 2448SOL    HW118803   1.579   2.081  16.858 -0.5883  0.3348  0.2210
 2448SOL    HW218804   1.559   2.232  16.872 -0.9712  0.3620 -0.4829
 2449SOL     OW18805   2.299   1.402   1.916  0.0539  0.1381  0.3064
 2449SOL    HW118806   2.337   1.319   1.886  0.5754  0.7716 -0.7830
 2449SOL    HW218807   2.209   1.373   1.929 -0.0584  0.2093 -0.2995
 2450SOL     OW18808   1.706   3.123   7.128 -0.0712 -0.4789  0.3452
 2450SOL    HW118809   1.696   3.218   7.118 -1.7680 -0.5580  1.3601
 2450SOL    HW218810   1.615   3.106   7.155 -0.6750  1.5947 -0.3612
 2451SOL     OW18811   0.651   0.240   2.566 -0.4857  0.5284  0.3077
 2451SOL    HW118812   0.681   0.263   2.478 -0.5259 -1.0933 -0.1362
 2451SOL    HW218813   0.736   0.228   2.608 -1.2658  0.4129  1.8558
 2452SOL     OW18814   3.419   3.629  11.576 -0.1494 -0.7768  0.4981
 2452SOL    HW118815   3.460   3.581  11.648 -0.9169 -0.8407  0.8859
 2452SOL    HW218816   3.457   3.591  11.496  0.5223  0.7676  0.0786
 2453SOL     OW18817   3.211   0.376   8.184 -0.4596 -0.2983  0.6415
 2453SOL    HW118818   3.210   0.290   8.143 -1.8129 -0.6751  1.4463
 2453SOL    HW218819   3.232   0.432   8.110 -0.9028 -0.7030  0.2100
 2454SOL     OW18820   0.158   3.204   2.748 -0.1496  0.1563 -0.2833
 2454SOL    HW118821   0.229   3.236   2.804  0.2321  0.0924 -0.7274
 2454SOL    HW218822   0.181   3.241   2.663  0.0458 -0.0042 -0.3010
 2455SOL     OW18823   3.880   3.002   1.617 -0.0630  0.5525 -0.2228
 2455SOL    HW118824   3.802   3.048   1.586 -1.3186 -1.3198  0.1585
 2455SOL    HW218825   3.929   3.020   1.537 -0.5953  1.4533 -0.3436
 2456SOL     OW18826   1.104   2.714   6.547 -0.2266  0.5529  0.2013
 2456SOL    HW118827   1.098   2.742   6.456 -2.9818  1.2830  0.6055
 2456SOL    HW218828   1.167   2.777   6.582 -0.2670  0.3817  0.5816
 2457SOL     OW18829   3.576   0.900   1.894  0.0057 -0.1017  0.0734
 2457SOL    HW118830   3.537   0.829   1.944  0.1926  0.6715  1.3137
 2457SOL    HW218831   3.605   0.960   1.962  1.8672  0.0133 -0.8365
 2458SOL     OW18832   3.713   3.695   9.188 -0.1836 -0.4610  0.0107
 2458SOL    HW118833   3.678   3.607   9.171 -0.4169 -0.4693  0.5061
 2458SOL    HW218834   3.787   3.680   9.248  1.1348  3.9485 -0.4997
 2459SOL     OW18835   0.590   3.107  17.677 -0.2732 -0.1120  0.1060
 2459SOL    HW118836   0.602   3.066  17.592 -0.3668  0.9772 -0.4386
 2459SOL    HW218837   0.600   3.197  17.647  1.0445 -0.3589 -0.1969
 2460SOL     OW18838   2.685   3.196   6.943  0.1679 -0.1272  0.0928
 2460SOL    HW118839   2.695   3.171   6.851 -0.4906 -2.5982  0.6859
 2460SOL    HW218840   2.778   3.209   6.958 -0.3440  3.8918 -0.0610
 2461SOL     OW18841   3.736   1.560   5.391 -0.3524  0.0692 -0.2709
 2461SOL    HW118842   3.706   1.488   5.337 -0.9348 -0.5112  0.8208
 2461SOL    HW218843   3.770   1.512   5.467 -2.0660  0.2178  0.6088
 2462SOL     OW18844   0.314   4.673  15.563 -0.0218 -0.2673 -0.0148
 2462SOL    HW118845   0.280   0.023  15.616  1.6008  0.4275  0.0741
 2462SOL    HW218846   0.407   4.693  15.553 -0.2445  0.3721 -0.7799
 2463SOL     OW18847   1.522   0.991   9.330  0.0243  0.3114  0.1908
 2463SOL    HW118848   1.539   0.901   9.357 -1.9263 -0.1391 -0.0976
 2463SOL    HW218849   1.493   0.977   9.240  0.7431 -0.0038  0.0096
 2464SOL     OW18850   2.972   2.749  10.455 -0.1807 -0.0144  0.0581
 2464SOL    HW118851   2.995   2.682  10.519  0.9599  1.1109  0.8104
 2464SOL    HW218852   2.965   2.830  10.506 -3.2348  0.3110 -0.8878
 2465SOL     OW18853   1.894   1.308   4.419  0.3709  0.4873  0.4491
 2465SOL    HW118854   1.965   1.257   4.458 -0.0859 -1.3550 -1.1312
 2465SOL    HW218855   1.828   1.244   4.392  1.1044 -0.0335 -0.1028
 2466SOL     OW18856   3.804   4.720   1.852 -0.0708 -0.0061  0.2140
 2466SOL    HW118857   3.859   0.072   1.827 -1.3616  0.7035 -0.4946
 2466SOL    HW218858   3.810   4.715   1.947  0.6822  0.7280  0.2083
 2467SOL     OW18859   3.983   1.148   1.992 -0.4777  0.0941  0.5539
 2467SOL    HW118860   3.941   1.149   1.906  0.1356 -1.0980  0.2382
 2467SOL    HW218861   4.067   1.103   1.982 -0.7788 -0.0954 -1.1622
 2468SOL     OW18862   2.343   1.479   7.825 -0.3785 -0.6686  0.2348
 2468SOL    HW118863   2.404   1.544   7.861  1.5845 -2.1984 -0.3391
 2468SOL    HW218864   2.372   1.399   7.869 -0.4553  0.7602  2.8879
 2469SOL     OW18865   4.526   0.063   1.499 -0.6872 -0.0053  0.6849
 2469SOL    HW118866   4.517   0.048   1.405  0.2641 -0.1788  0.6225
 2469SOL    HW218867   4.539   4.695   1.525 -0.9139  0.2836  1.7948
 2470SOL     OW18868   4.047   0.706   2.177  0.5516  0.5923 -0.2518
 2470SOL    HW118869   4.036   0.645   2.104 -0.2228  0.4476 -0.0176
 2470SOL    HW218870   4.091   0.777   2.130  0.1109  0.7939 -0.3687
 2471SOL     OW18871   1.014   2.795   1.700  0.8489  0.4474  0.2412
 2471SOL    HW118872   0.952   2.722   1.699 -0.0901  1.2536 -1.0851
 2471SOL    HW218873   1.097   2.751   1.717  1.3109  1.7736  1.4030
 2472SOL     OW18874   4.716   2.738   6.655 -0.3322 -0.5955 -0.0398
 2472SOL    HW118875   0.081   2.730   6.691  0.1759  0.7431 -0.9670
 2472SOL    HW218876   0.000   2.692   6.571  0.0304  0.9352 -0.8635
 2473SOL     OW18877   2.769   3.164   1.839  0.7248  0.0876 -0.0593
 2473SOL    HW118878   2.820   3.089   1.807 -0.2798 -0.2664 -0.8534
 2473SOL    HW218879   2.698   3.128   1.892  1.2142  0.7251  1.0213
 2474SOL     OW18880   3.675   0.765   8.735  0.2765  0.7495  0.4566
 2474SOL    HW118881   3.623   0.690   8.763 -2.7608  2.5855 -0.3461
 2474SOL    HW218882   3.624   0.838   8.770 -0.5333  1.4853 -2.2421
 2475SOL     OW18883   4.037   0.571  11.378  0.1907 -0.2514  0.0389
 2475SOL    HW118884   4.104   0.633  11.349  0.0952  0.4571  1.3185
 2475SOL    HW218885   4.001   0.618  11.454 -1.7108 -1.0288 -0.3913
 2476SOL     OW18886   2.320   1.065   4.006  0.0613  0.5056 -0.1949
 2476SOL    HW118887   2.321   0.989   4.065 -0.9484  0.4045 -0.3119
 2476SOL    HW218888   2.263   1.129   4.049 -0.4291 -2.3871  3.4647
 2477SOL     OW18889   2.752   1.757   2.406  0.2365 -0.0082 -0.2028
 2477SOL    HW118890   2.667   1.778   2.445 -0.0093 -0.1207 -0.6786
 2477SOL    HW218891   2.753   1.822   2.336 -0.3495  0.6456  0.3900
 2478SOL     OW18892   2.606   1.543   1.396 -0.5772  0.5471 -0.5766
 2478SOL    HW118893   2.633   1.563   1.306  0.6111 -1.3909 -0.6589
 2478SOL    HW218894   2.607   1.628   1.440  1.8931  0.0918  0.2475
 2479SOL     OW18895   1.834   1.018   3.738  0.1455 -0.5139  0.3679
 2479SOL    HW118896   1.914   1.024   3.790  2.1202 -0.0657 -2.7320
 2479SOL    HW218897   1.766   1.066   3.785 -0.7035  0.3668 -1.7335
 2480SOL     OW18898   0.066   3.086   3.621  0.0979  0.5911 -0.6307
 2480SOL    HW118899   0.013   3.053   3.693  0.4675  1.0312 -0.1593
 2480SOL    HW218900   0.113   3.162   3.656  1.9599  0.6552 -3.2591
 2481SOL     OW18901   2.625   0.294  10.175 -0.1058 -0.2136 -0.3634
 2481SOL    HW118902   2.710   0.307  10.218 -0.6889 -0.4672  0.8548
 2481SOL    HW218903   2.618   0.383  10.140 -0.6599  0.2489  0.9107
 2482SOL     OW18904   3.533   0.140   1.864  0.3087 -0.4427 -0.8571
 2482SOL    HW118905   3.622   0.107   1.849  0.2593 -1.2919  0.7067
 2482SOL    HW218906   3.559   0.224   1.902  1.9552 -0.9678 -0.8291
 2483SOL     OW18907   2.117   0.652  13.282  0.3642  0.3917 -0.2969
 2483SOL    HW118908   2.088   0.563  13.261  0.7775 -0.3728  2.3273
 2483SOL    HW218909   2.211   0.636  13.279  0.1492 -0.8174 -0.4768
 2484SOL     OW18910   1.878   4.017   4.562  0.5083  0.1356  0.1521
 2484SOL    HW118911   1.838   3.947   4.510  0.0159  0.9542 -0.5816
 2484SOL    HW218912   1.969   4.009   4.534  0.7312 -0.9463  1.1670
 2485SOL     OW18913   2.086   2.504   6.704  0.1465  0.5187 -0.6613
 2485SOL    HW118914   2.101   2.411   6.716  0.5124  0.5414 -0.9345
 2485SOL    HW218915   2.120   2.543   6.784  0.4254  1.7918 -1.3962
 2486SOL     OW18916   2.475   3.787   5.724 -0.0734 -1.0797 -0.1550
 2486SOL    HW118917   2.557   3.785   5.675 -0.1778  2.2643 -0.4332
 2486SOL    HW218918   2.413   3.779   5.651  0.8763 -0.5493 -1.0166
 2487SOL     OW18919   3.626   3.384   4.698  0.0970 -0.2092 -0.3146
 2487SOL    HW118920   3.564   3.453   4.676  0.2658  0.0793  0.1004
 2487SOL    HW218921   3.617   3.380   4.793  2.5397 -0.3085 -0.0722
 2488SOL     OW18922   2.544   3.340   4.989  0.0341 -0.5834 -0.1095
 2488SOL    HW118923   2.504   3.298   5.066 -0.3305 -0.0281  0.0032
 2488SOL    HW218924   2.465   3.378   4.950  0.8815 -0.6770 -1.8875
 2489SOL     OW18925   0.365   1.231   2.121  0.2314  0.0834 -0.2440
 2489SOL    HW118926   0.444   1.280   2.099  1.7365 -2.1072  0.3025
 2489SOL    HW218927   0.411   1.184   2.190  1.1399 -0.2783 -1.0858
 2490SOL     OW18928   1.832   2.232   8.919 -0.6852 -0.6361  0.1298
 2490SOL    HW118929   1.853   2.325   8.908  1.9816 -1.1076  1.1614
 2490SOL    HW218930   1.758   2.239   8.979  0.8642  0.2506  1.9563
 2491SOL     OW18931   3.733   4.219  16.542  0.1669 -0.2426 -0.2071
 2491SOL    HW118932   3.722   4.203  16.635 -1.5803  0.3897 -0.2944
 2491SOL    HW218933   3.680   4.299  16.533 -0.9424 -0.9017  0.4851
 2492SOL     OW18934   1.187   2.502  16.159 -0.4863 -0.0469  0.2117
 2492SOL    HW118935   1.136   2.429  16.125 -0.9215  1.5167 -2.4564
 2492SOL    HW218936   1.165   2.500  16.252 -2.1262 -2.0361 -0.2216
 2493SOL     OW18937   1.312   2.411   4.251 -0.0119  0.0539 -0.0420
 2493SOL    HW118938   1.346   2.500   4.248  0.7540 -0.2540 -0.5763
 2493SOL    HW218939   1.383   2.361   4.292 -1.3428 -0.2531  1.8738
 2494SOL     OW18940   1.605   4.523  12.898  0.4103 -0.4500 -0.2892
 2494SOL    HW118941   1.608   4.619  12.898  2.0634 -0.5067  1.6241
 2494SOL    HW218942   1.571   4.499  12.985 -1.7950 -1.6096 -1.4731
 2495SOL     OW18943   0.493   3.857   2.441  0.0471 -0.1881 -0.5694
 2495SOL    HW118944   0.451   3.943   2.445 -0.4856 -0.5598  1.8085
 2495SOL    HW218945   0.577   3.896   2.463 -0.5144  2.1750 -2.5848
 2496SOL     OW18946   1.492   0.359   2.787  0.1601 -0.6342  0.3159
 2496SOL    HW118947   1.524   0.283   2.835 -2.3904 -1.4461  0.6790
 2496SOL    HW218948   1.567   0.371   2.728  0.5756  0.6027  1.1096
 2497SOL     OW18949   4.626   3.109   4.725  0.0458 -0.6798 -0.0143
 2497SOL    HW118950   4.699   3.074   4.777 -0.2917  0.6098  1.3203
 2497SOL    HW218951   4.585   3.030   4.689 -1.3590  0.3204 -0.6008
 2498SOL     OW18952   2.635   0.106   7.097  0.0703 -0.4499 -0.2386
 2498SOL    HW118953   2.601   0.026   7.136 -0.7700  1.1987  2.3914
 2498SOL    HW218954   2.730   0.094   7.098  0.1399  0.1241 -0.1171
 2499SOL     OW18955   3.907   0.097   7.876  0.0242  0.4334  0.1235
 2499SOL    HW118956   3.851   0.021   7.860 -0.3587  1.0889 -1.6341
 2499SOL    HW218957   3.986   0.084   7.823  0.4720 -0.0385  0.9134
 2500SOL     OW18958   1.681   0.946   2.582  0.1848 -0.4007  0.6053
 2500SOL    HW118959   1.774   0.959   2.604  0.5198 -0.1886 -0.9777
 2500SOL    HW218960   1.686   0.861   2.538 -0.1047 -0.9588  1.6488
 2501SOL     OW18961   3.796   0.380  14.314 -0.2078  0.3736  0.0402
 2501SOL    HW118962   3.772   0.354  14.403 -1.5099 -1.5501 -0.8782
 2501SOL    HW218963   3.712   0.392  14.270 -0.8273 -2.3498  0.4859
 2502SOL     OW18964   0.835   3.787   3.348  0.0134  0.2378  0.8711
 2502SOL    HW118965   0.893   3.733   3.402  1.6811 -0.4100 -1.5728
 2502SOL    HW218966   0.752   3.739   3.341  0.2590 -0.1578  0.6648
 2503SOL     OW18967   2.012   3.029   4.591  0.7245 -0.0426 -0.1022
 2503SOL    HW118968   1.937   2.969   4.586  0.4371  0.3028  0.0765
 2503SOL    HW218969   2.011   3.052   4.684 -1.9565 -0.6727  0.0165
 2504SOL     OW18970   2.960   1.958   5.918 -0.3364 -0.6445 -0.2611
 2504SOL    HW118971   2.914   1.918   5.844 -1.0596  0.0692 -0.1882
 2504SOL    HW218972   3.032   1.990   5.864 -1.5563 -1.0297 -2.1218
 2505SOL     OW18973   1.284   4.430   1.889 -0.4368 -0.7741  0.1119
 2505SOL    HW118974   1.281   4.522   1.863  0.3073 -1.1378 -1.2733
 2505SOL    HW218975   1.331   4.437   1.972 -0.8992 -1.0291  0.3980
 2506SOL     OW18976   1.533   0.947   6.174 -0.1686 -0.6616  0.1660
 2506SOL    HW118977   1.474   0.873   6.161 -0.1438 -0.7443  0.5284
 2506SOL    HW218978   1.494   1.008   6.112  1.0848  0.3210  0.3535
 2507SOL     OW18979   0.014   1.472   8.521 -0.5708 -0.0829  0.5257
 2507SOL    HW118980   0.082   1.540   8.528  0.1294 -0.9523  2.0508
 2507SOL    HW218981   4.704   1.465   8.610 -0.3348 -0.5096  0.5775
 2508SOL     OW18982   4.104   1.421   1.609 -0.3379  0.0611 -0.5044
 2508SOL    HW118983   4.032   1.483   1.624  1.2240  1.4851  1.0385
 2508SOL    HW218984   4.097   1.397   1.516  0.7123 -3.2792  0.2817
 2509SOL     OW18985   1.950   3.471   7.015 -0.0385  0.3192  0.2666
 2509SOL    HW118986   1.938   3.433   6.928 -0.7913  0.8644  0.1404
 2509SOL    HW218987   1.863   3.450   7.050 -0.0541 -0.8997 -0.4801
 2510SOL     OW18988   3.286   0.259   8.825 -0.4215  0.2552  0.0047
 2510SOL    HW118989   3.306   0.177   8.871 -0.7186 -0.5386 -1.2831
 2510SOL    HW218990   3.235   0.302   8.892 -1.2674 -0.4996 -0.1551
 2511SOL     OW18991   1.402   2.542  15.964  0.3589  0.3515 -0.1749
 2511SOL    HW118992   1.329   2.577  16.015 -0.1936 -1.8630  0.5182
 2511SOL    HW218993   1.381   2.577  15.877  1.0223  1.9751  0.3171
 2512SOL     OW18994   4.623   1.333   3.071  0.3127  0.3489 -0.1675
 2512SOL    HW118995   4.660   1.419   3.088  0.4531  0.3583 -0.5101
 2512SOL    HW218996   4.701   1.280   3.089 -0.8327 -0.7832  1.4059
 2513SOL     OW18997   0.355   4.272  10.311  0.3130  0.1205 -0.1045
 2513SOL    HW118998   0.380   4.303  10.398 -0.8231 -0.4582  0.4278
 2513SOL    HW218999   0.444   4.247  10.284  0.3484  2.7279 -2.4404
 2514SOL     OW19000   0.526   0.736   2.787 -1.1582  0.0408  0.1559
 2514SOL    HW119001   0.445   0.784   2.774  0.1031  2.2574  0.4783
 2514SOL    HW219002   0.517   0.664   2.724  0.0543  0.8178 -0.8946
 2515SOL     OW19003   0.941   4.182   3.690  0.8236  1.0131  0.0902
 2515SOL    HW119004   0.865   4.140   3.651  1.1987 -1.6732  2.2600
 2515SOL    HW219005   1.011   4.133   3.647 -0.2233 -2.1639  2.0045
 2516SOL     OW19006   4.591   3.923   4.207 -0.0414 -0.3795  0.1271
 2516SOL    HW119007   4.497   3.915   4.224 -0.4929  1.9780 -1.3111
 2516SOL    HW219008   4.619   3.848   4.260  0.8891 -0.2852 -0.2361
 2517SOL     OW19009   3.841   2.411   2.661  0.0172  0.2432 -0.3136
 2517SOL    HW119010   3.771   2.469   2.630  0.1867 -0.7326 -2.5198
 2517SOL    HW219011   3.849   2.352   2.586  0.4775  0.0284 -0.0963
 2518SOL     OW19012   2.942   4.708   0.723 -0.3946  0.0246  0.2235
 2518SOL    HW119013   2.959   4.677   0.811 -1.3902  0.7234  0.6632
 2518SOL    HW219014   3.026   4.696   0.678 -1.1899  2.0443 -1.8476
 2519SOL     OW19015   4.554   2.904  10.705 -0.0253 -0.6240 -0.2480
 2519SOL    HW119016   4.511   2.889  10.621  0.8160 -2.4953 -0.3411
 2519SOL    HW219017   4.564   2.814  10.737  1.6861  0.2166  1.5665
 2520SOL     OW19018   4.371   4.571   7.578 -0.6185 -0.6174  0.1927
 2520SOL    HW119019   4.282   4.542   7.597 -0.8261 -0.5415 -0.6342
 2520SOL    HW219020   4.422   4.515   7.637  0.9455 -0.0600 -0.6258
 2521SOL     OW19021   0.666   2.500   2.527  0.0537  0.4888 -0.9862
 2521SOL    HW119022   0.722   2.520   2.602 -2.2380  2.6735  0.1426
 2521SOL    HW219023   0.587   2.549   2.550  0.5110 -0.2507  2.1248
 2522SOL     OW19024   1.955   4.479   4.389  0.5951  0.1907 -0.1258
 2522SOL    HW119025   1.974   4.463   4.296  0.1435  2.0548 -0.5470
 2522SOL    HW219026   1.901   4.403   4.409  0.1287  0.4766 -0.3072
 2523SOL     OW19027   1.417   2.768   7.930  0.5493 -0.0237 -0.6853
 2523SOL    HW119028   1.418   2.688   7.983 -0.9069  1.1937  1.1819
 2523SOL    HW219029   1.457   2.833   7.988 -1.6645 -0.6324  1.5248
 2524SOL     OW19030   1.403   2.380   7.264  0.0812 -0.0523  0.0146
 2524SOL    HW119031   1.479   2.416   7.218 -0.2061  0.4908 -0.0351
 2524SOL    HW219032   1.445   2.320   7.326  2.9623  1.1660 -0.7121
 2525SOL     OW19033   2.818   2.474   2.482 -0.0988 -0.3557 -0.1432
 2525SOL    HW119034   2.772   2.423   2.416  1.1059  0.2542 -1.4563
 2525SOL    HW219035   2.772   2.433   2.555 -0.6402 -1.6462 -1.1975
 2526SOL     OW19036   3.307   3.018   1.534  0.1499 -0.1232  0.1636
 2526SOL    HW119037   3.351   2.975   1.461  2.0278  1.4019  0.4026
 2526SOL    HW219038   3.292   2.938   1.585 -3.3358  0.3345 -0.1654
 2527SOL     OW19039   2.820   0.558   9.236 -0.2432 -0.5014 -0.6710
 2527SOL    HW119040   2.742   0.542   9.289  1.1903  1.9762  2.2061
 2527SOL    HW219041   2.887   0.579   9.302  0.6972 -2.3730 -1.0499
 2528SOL     OW19042   2.745   1.097  16.361 -0.4399  0.2052  0.2662
 2528SOL    HW119043   2.764   1.004  16.365 -0.6970  0.1924  1.0910
 2528SOL    HW219044   2.755   1.124  16.452  3.7309 -1.1335  0.1913
 2529SOL     OW19045   3.952   2.500   4.073  0.5140  0.0945 -0.1396
 2529SOL    HW119046   3.988   2.578   4.116  2.0046  0.6525 -2.3562
 2529SOL    HW219047   4.015   2.436   4.105  0.5631  0.3444  0.2680
 2530SOL     OW19048   4.521   2.342  10.347 -0.0130  0.2048 -0.2535
 2530SOL    HW119049   4.486   2.317  10.432 -2.0111 -2.2728 -1.8056
 2530SOL    HW219050   4.476   2.273  10.298 -1.9414  1.0993  0.2477
 2531SOL     OW19051   2.460   3.800   2.297 -0.2416  0.2085 -0.2964
 2531SOL    HW119052   2.483   3.867   2.360 -2.3061 -0.8170  1.5594
 2531SOL    HW219053   2.479   3.720   2.346 -2.4387 -0.3507 -0.3293
 2532SOL     OW19054   3.222   0.456   9.999 -0.5783  0.2797  0.4397
 2532SOL    HW119055   3.257   0.537  10.036 -0.3931 -0.0956  1.0677
 2532SOL    HW219056   3.159   0.485   9.932 -0.6382  0.8246  0.7366
 2533SOL     OW19057   3.435   0.992   3.311 -0.5169  0.4654  1.0319
 2533SOL    HW119058   3.505   1.053   3.290 -0.8391  0.6441  0.4586
 2533SOL    HW219059   3.423   0.950   3.225  1.6298  1.6601  0.1531
 2534SOL     OW19060   3.529   2.006   9.084 -0.1003  0.2833  0.7068
 2534SOL    HW119061   3.542   1.983   9.176  1.7136  0.5826  0.5345
 2534SOL    HW219062   3.564   1.930   9.038 -1.6465 -1.0078  1.6839
 2535SOL     OW19063   4.326   4.403   4.279  0.0123 -1.2501  0.6299
 2535SOL    HW119064   4.365   4.477   4.326 -1.1059 -0.0731 -0.2723
 2535SOL    HW219065   4.238   4.440   4.276  0.1840 -0.9284 -0.2809
 2536SOL     OW19066   0.024   0.449   2.897  0.0756  0.1133  0.1724
 2536SOL    HW119067   4.689   0.516   2.860 -0.3686 -0.1261  0.4288
 2536SOL    HW219068   0.080   0.431   2.822  1.6382 -1.0378  1.6305
 2537SOL     OW19069   2.835   0.583   3.725  0.0294  0.0316  0.1480
 2537SOL    HW119070   2.917   0.631   3.731  0.2525 -0.4553  1.0457
 2537SOL    HW219071   2.849   0.514   3.660 -0.0242  1.3697 -1.2984
 2538SOL     OW19072   1.606   3.455   1.729  0.1630  0.1187 -0.1166
 2538SOL    HW119073   1.544   3.515   1.688  0.1529  0.3250  0.1937
 2538SOL    HW219074   1.657   3.416   1.659 -1.1516 -0.9616 -0.4666
 2539SOL     OW19075   0.119   3.030   4.415 -1.4217  0.5025 -0.7380
 2539SOL    HW119076   0.180   3.084   4.365 -0.2518  0.6490  0.8294
 2539SOL    HW219077   0.084   3.094   4.478  1.9618  0.4591  1.2031
 2540SOL     OW19078   1.902   0.570  10.753  0.1243 -0.4713 -0.5171
 2540SOL    HW119079   1.950   0.521  10.819 -1.1684 -0.1611  0.6424
 2540SOL    HW219080   1.944   0.656  10.763  0.1393 -0.7043  1.4929
 2541SOL     OW19081   3.387   4.309   1.384  0.2596 -0.5119  0.4138
 2541SOL    HW119082   3.412   4.284   1.473  1.0925 -2.4383 -0.3576
 2541SOL    HW219083   3.472   4.349   1.363  0.3070 -0.8718 -0.0768
 2542SOL     OW19084   1.171   1.612   7.701  0.3677  0.6512  0.8120
 2542SOL    HW119085   1.222   1.535   7.675 -2.0475 -0.8312  0.3871
 2542SOL    HW219086   1.176   1.611   7.797  0.8027  2.9432  0.7974
 2543SOL     OW19087   4.670   1.957  10.788 -0.4643  0.5101  0.1901
 2543SOL    HW119088   4.642   2.046  10.767 -0.7559  0.3188 -0.2335
 2543SOL    HW219089   4.620   1.902  10.727  1.4934 -2.1376  0.9800
 2544SOL     OW19090   0.210   3.425   3.240  0.0253 -0.3715  0.6785
 2544SOL    HW119091   0.142   3.491   3.250  0.9089  0.5965  0.2245
 2544SOL    HW219092   0.157   3.351   3.210 -0.5490  0.3787 -0.1248
 2545SOL     OW19093   1.930   4.253  17.060  0.4614 -0.6474 -0.1706
 2545SOL    HW119094   1.913   4.331  17.111 -2.4576 -1.5887  0.2714
 2545SOL    HW219095   1.856   4.256  16.999 -0.6745  0.7198  1.3026
 2546SOL     OW19096   2.615   4.007   7.763  0.1867  0.2962 -0.5700
 2546SOL    HW119097   2.523   4.030   7.774 -0.3309 -2.1287  0.0820
 2546SOL    HW219098   2.664   4.077   7.807  0.5392 -0.5626  0.4060
 2547SOL     OW19099   2.132   3.000   5.802  0.0595 -0.2346  0.0501
 2547SOL    HW119100   2.172   3.011   5.888  2.2061 -0.1713 -0.9687
 2547SOL    HW219101   2.165   2.914   5.775 -1.6058 -0.2916 -1.7534
 2548SOL     OW19102   4.525   2.628  10.769  0.5907  0.1792  0.0160
 2548SOL    HW119103   4.548   2.605  10.859  0.6010 -0.6969 -0.2071
 2548SOL    HW219104   4.598   2.587  10.723  1.1930 -0.5372  1.6072
 2549SOL     OW19105   2.749   0.292   8.151 -0.0588  0.3422 -0.0234
 2549SOL    HW119106   2.759   0.253   8.237 -0.8687  1.1927  0.4661
 2549SOL    HW219107   2.711   0.215   8.108  1.8949 -0.6734  0.1171
 2550SOL     OW19108   2.938   0.772   1.930  0.1231  0.3117 -0.0899
 2550SOL    HW119109   3.010   0.786   1.869 -1.1631  0.1094 -1.6633
 2550SOL    HW219110   2.907   0.859   1.952  1.4212  0.4324  1.2173
 2551SOL     OW19111   0.583   2.207   3.696  0.0334  0.1474 -0.4419
 2551SOL    HW119112   0.564   2.158   3.616 -0.6458 -0.8272  0.3292
 2551SOL    HW219113   0.545   2.291   3.671 -0.1821 -0.2287 -1.3597
 2552SOL     OW19114   3.311   2.826   8.497 -0.4201  0.6189  0.0011
 2552SOL    HW119115   3.303   2.797   8.406  1.1839 -1.4878  0.5300
 2552SOL    HW219116   3.405   2.843   8.502 -0.1067 -0.5186 -1.8220
 2553SOL     OW19117   1.689   2.261   1.925 -0.0015  0.4117 -0.6862
 2553SOL    HW119118   1.751   2.309   1.871 -0.1828  1.9320  0.4554
 2553SOL    HW219119   1.663   2.197   1.858 -1.4585  0.9228 -0.6156
 2554SOL     OW19120   4.645   1.519   2.622  0.2748 -0.5586 -0.1352
 2554SOL    HW119121   4.602   1.460   2.684  0.8313 -1.8417 -0.9685
 2554SOL    HW219122   4.609   1.489   2.538 -0.9827  0.9577 -0.1299
 2555SOL     OW19123   0.894   0.008  16.513 -0.9448  0.0132  0.0468
 2555SOL    HW119124   0.942   0.084  16.547  1.1962 -1.8007  1.1101
 2555SOL    HW219125   0.877   0.026  16.420  2.1182  0.5053 -0.4256
 2556SOL     OW19126   0.083   3.112   5.202  0.1625 -0.0797  0.6644
 2556SOL    HW119127   0.123   3.042   5.151 -0.4883 -0.5722  0.8409
 2556SOL    HW219128   0.022   3.068   5.261 -2.2701  2.5397  0.1042
 2557SOL     OW19129   2.571   1.505  13.034 -0.2326  0.4861 -0.0187
 2557SOL    HW119130   2.658   1.470  13.055 -1.4407 -2.4496  0.2029
 2557SOL    HW219131   2.553   1.564  13.107 -1.8626 -1.5967  1.2526
 2558SOL     OW19132   0.772   0.501   3.784 -0.3320  0.5820  0.4460
 2558SOL    HW119133   0.783   0.596   3.779  0.8920  0.3702 -1.0329
 2558SOL    HW219134   0.727   0.496   3.868  0.8838 -0.6784  1.0276
 2559SOL     OW19135   3.112   2.588   0.377  0.1672  0.2188  0.2833
 2559SOL    HW119136   3.138   2.668   0.334  0.9133 -1.2847 -2.0421
 2559SOL    HW219137   3.197   2.561   0.412 -0.0880 -0.7748  0.1460
 2560SOL     OW19138   3.914   2.640   4.684 -0.2987  0.3159  0.0774
 2560SOL    HW119139   3.940   2.645   4.592  1.4152  0.8932  0.5767
 2560SOL    HW219140   3.903   2.731   4.712  2.3095  0.2331  1.3575
 2561SOL     OW19141   2.820   1.074   1.678  0.3423 -0.4201  0.3032
 2561SOL    HW119142   2.864   1.119   1.750  0.0998 -3.2512  2.1812
 2561SOL    HW219143   2.793   1.142   1.616  1.2050  0.1983  0.6056
 2562SOL     OW19144   1.653   0.775   1.808 -0.2592 -0.1203 -0.0945
 2562SOL    HW119145   1.700   0.851   1.773 -2.6028  1.0378 -0.7447
 2562SOL    HW219146   1.650   0.728   1.725 -0.9259  0.5709 -0.4708
 2563SOL     OW19147   2.442   2.163   1.000 -0.2712  0.0008 -0.2080
 2563SOL    HW119148   2.528   2.186   1.037  0.2354 -1.8535 -0.2542
 2563SOL    HW219149   2.390   2.243   1.007  1.7753  1.2845  0.6124
 2564SOL     OW19150   0.892   0.977   9.121  0.0773  0.2790  0.6681
 2564SOL    HW119151   0.855   0.932   9.197 -2.3575  0.6501 -0.3249
 2564SOL    HW219152   0.884   0.908   9.055 -2.1150  0.2434  0.9663
 2565SOL     OW19153   1.751   4.593   2.639  0.1371 -0.4328 -0.0823
 2565SOL    HW119154   1.708   4.508   2.632  1.1722 -1.0652  1.1839
 2565SOL    HW219155   1.814   4.584   2.710  0.3508 -0.7802 -0.3159
 2566SOL     OW19156   4.271   2.836   5.464  0.1559  0.3642  0.2157
 2566SOL    HW119157   4.315   2.771   5.518  1.0587  0.2052 -0.7223
 2566SOL    HW219158   4.230   2.890   5.532  0.7907  2.0221 -0.7405
 2567SOL     OW19159   2.795   2.169  16.416 -0.6326  0.1028 -0.1552
 2567SOL    HW119160   2.711   2.215  16.411 -1.4341 -0.8784  4.4909
 2567SOL    HW219161   2.849   2.227  16.361 -0.3106  0.3788  0.4517
 2568SOL     OW19162   3.803   2.443   9.112  0.0427 -0.2523 -0.2987
 2568SOL    HW119163   3.779   2.431   9.204  2.3956 -0.1144  0.3237
 2568SOL    HW219164   3.799   2.353   9.079 -0.2015  0.1610 -1.3864
 2569SOL     OW19165   1.581   1.599  15.507 -1.0174  0.0061 -0.4970
 2569SOL    HW119166   1.518   1.556  15.449 -1.1062 -0.0412 -0.3657
 2569SOL    HW219167   1.639   1.643  15.444 -1.0512 -1.5759 -1.6175
 2570SOL     OW19168   3.569   3.932   3.943  0.2596 -0.6589 -0.2609
 2570SOL    HW119169   3.510   3.997   3.981 -1.5048 -2.4107 -0.0169
 2570SOL    HW219170   3.627   3.989   3.892  0.8252 -0.0456  1.0596
 2571SOL     OW19171   2.688   0.791   2.258  0.0183 -0.0177  0.2613
 2571SOL    HW119172   2.618   0.793   2.323 -0.4462 -0.5598 -0.2304
 2571SOL    HW219173   2.757   0.818   2.319  1.6723 -3.5157 -0.0346
 2572SOL     OW19174   2.710   3.762  10.752 -0.5014  0.1422  0.4761
 2572SOL    HW119175   2.686   3.705  10.679  0.0202  0.5548 -0.0132
 2572SOL    HW219176   2.720   3.850  10.717  3.7807 -0.6772 -0.4497
 2573SOL     OW19177   3.979   3.052  13.512 -1.0228  0.2848 -0.3632
 2573SOL    HW119178   3.931   2.982  13.467  2.6444 -1.8705 -0.9025
 2573SOL    HW219179   3.915   3.123  13.516  0.1108  1.1671  1.6782
 2574SOL     OW19180   3.533   0.213  10.638  0.3676 -0.4290  0.7517
 2574SOL    HW119181   3.618   0.247  10.609  0.7657 -1.3388  0.8429
 2574SOL    HW219182   3.529   0.142  10.574 -0.4902  0.6781 -0.4318
 2575SOL     OW19183   2.748   4.201   5.986  0.1096 -0.1432 -0.3390
 2575SOL    HW119184   2.690   4.170   5.918  1.4562  1.1825 -2.0948
 2575SOL    HW219185   2.684   4.218   6.055  0.7437 -0.8976  0.4460
 2576SOL     OW19186   2.449   4.106  14.474  0.6239  0.0474  0.4491
 2576SOL    HW119187   2.370   4.131  14.522 -0.3780 -1.8627 -0.2412
 2576SOL    HW219188   2.406   4.075  14.395  2.5225  0.3138 -0.6748
 2577SOL     OW19189   0.513   2.150   0.061 -0.0171  0.6168  0.6069
 2577SOL    HW119190   0.520   2.237   0.021  1.1426  0.2157 -0.0482
 2577SOL    HW219191   0.474   2.091  17.689  1.5622  0.6907 -0.4023
 2578SOL     OW19192   1.566   1.195  17.267  0.2186  0.1836  0.2394
 2578SOL    HW119193   1.605   1.148  17.193  1.4746 -1.6175  2.0619
 2578SOL    HW219194   1.620   1.176  17.344 -1.4184 -2.4453  0.7267
 2579SOL     OW19195   0.425   2.751   3.916  0.1519  0.6499 -0.0861
 2579SOL    HW119196   0.339   2.765   3.954  0.1350 -1.0587  0.5163
 2579SOL    HW219197   0.480   2.757   3.994  0.7206 -0.1375 -0.4211
 2580SOL     OW19198   0.229   4.622   8.605  0.5725 -0.0831  0.3936
 2580SOL    HW119199   0.321   4.616   8.578  0.2255  0.8134 -1.0113
 2580SOL    HW219200   0.213   4.540   8.650 -1.3299  0.3301  0.4639
 2581SOL     OW19201   2.264   2.626  10.736 -0.5309  0.4725  0.8354
 2581SOL    HW119202   2.202   2.653  10.668 -0.6751 -3.7917 -0.7456
 2581SOL    HW219203   2.328   2.697  10.737  0.4421 -0.4237  2.3947
 2582SOL     OW19204   0.994   2.790   8.720  0.1664 -0.3115  0.8461
 2582SOL    HW119205   0.992   2.696   8.736 -1.8372 -0.1492  1.5628
 2582SOL    HW219206   1.017   2.789   8.627  1.4754  1.4798  1.1413
 2583SOL     OW19207   2.973   3.340   6.563 -0.5884  0.4927  0.1965
 2583SOL    HW119208   2.903   3.397   6.596 -0.4519  0.0529  1.2184
 2583SOL    HW219209   3.039   3.410   6.560  0.0456 -0.0675  1.4765
 2584SOL     OW19210   4.693   0.912  14.324  0.4720 -0.2802 -0.4465
 2584SOL    HW119211   0.012   0.831  14.295  1.5063  0.6508 -1.5616
 2584SOL    HW219212   0.013   0.973  14.263 -0.1716  1.1927  0.5733
 2585SOL     OW19213   1.860   3.722   8.097 -0.1996 -0.9358  0.7511
 2585SOL    HW119214   1.915   3.660   8.050 -0.5516  0.2934 -1.3095
 2585SOL    HW219215   1.831   3.666   8.169  1.7998 -2.0607  0.6779
 2586SOL     OW19216   3.556   3.142   8.030 -0.2507  0.3252  0.4256
 2586SOL    HW119217   3.524   3.067   8.080  0.0301  0.6265  1.0508
 2586SOL    HW219218   3.583   3.107   7.945 -0.4173  1.7882 -0.2295
 2587SOL     OW19219   2.560   0.681   0.307 -0.6664  0.0972 -0.2436
 2587SOL    HW119220   2.543   0.673   0.401  0.1631  0.8240 -0.0336
 2587SOL    HW219221   2.651   0.709   0.302 -1.3166  1.5268 -3.7920
 2588SOL     OW19222   0.089   2.261   2.847  0.0578  0.4478 -0.1383
 2588SOL    HW119223   0.152   2.329   2.871 -0.0299  0.0678  1.1675
 2588SOL    HW219224   0.078   2.286   2.755 -2.1242  0.4316  0.1033
 2589SOL     OW19225   0.691   2.939  15.463  0.5518 -0.5342 -0.2317
 2589SOL    HW119226   0.728   3.025  15.442 -0.5281  0.0865  0.4278
 2589SOL    HW219227   0.642   2.914  15.385  0.2284  2.6218 -1.0636
 2590SOL     OW19228   0.443   0.511  16.856 -0.2072  0.2443  0.5971
 2590SOL    HW119229   0.408   0.466  16.779 -1.8031  0.1361  1.3965
 2590SOL    HW219230   0.388   0.470  16.922 -0.1631 -0.1506  0.3880
 2591SOL     OW19231   2.507   2.534  11.433 -0.2336 -0.4694  0.9772
 2591SOL    HW119232   2.540   2.454  11.391 -1.1285 -0.7492  0.8056
 2591SOL    HW219233   2.462   2.584  11.365  3.0629  1.9988  0.6079
 2592SOL     OW19234   4.023   3.473   4.547 -0.0210 -0.1641  0.6501
 2592SOL    HW119235   4.069   3.543   4.499 -0.3525 -2.3351 -2.8489
 2592SOL    HW219236   4.081   3.469   4.623 -2.1105  1.9862  2.3397
 2593SOL     OW19237   0.775   2.396   2.026  0.1034 -0.2335  0.3950
 2593SOL    HW119238   0.830   2.351   1.961  4.5302  2.1034  2.5417
 2593SOL    HW219239   0.709   2.329   2.043 -0.6329  0.8872  1.8676
 2594SOL     OW19240   2.957   4.444   7.939  0.0489  0.2242 -0.4772
 2594SOL    HW119241   2.981   4.525   7.894 -1.4362  0.2353 -1.2502
 2594SOL    HW219242   2.864   4.431   7.925 -0.2184  0.2434  1.2563
 2595SOL     OW19243   1.160   0.548   8.520 -0.0892  0.1873  0.1801
 2595SOL    HW119244   1.102   0.472   8.523  0.1817  0.0152  1.1682
 2595SOL    HW219245   1.088   0.611   8.525 -0.5582 -0.3306 -0.0787
 2596SOL     OW19246   4.648   0.608   9.700  0.2800 -0.1366  0.0258
 2596SOL    HW119247   0.009   0.614   9.747 -2.1688 -1.2896  4.5902
 2596SOL    HW219248   4.616   0.698   9.703  3.7205  1.0378  1.9979
 2597SOL     OW19249   3.681   2.352  10.723  0.6140 -0.6703 -0.2233
 2597SOL    HW119250   3.697   2.320  10.812 -1.3836 -1.4531 -0.1427
 2597SOL    HW219251   3.773   2.358  10.695  0.4125 -0.6887 -0.8816
 2598SOL     OW19252   0.984   0.382   4.401  0.3570  0.4236  0.5616
 2598SOL    HW119253   0.949   0.343   4.321  0.6414  1.4049 -0.0495
 2598SOL    HW219254   1.080   0.388   4.399  0.4733 -2.0826 -1.5952
 2599SOL     OW19255   1.799   4.259   8.351 -0.5241 -0.4432  0.1947
 2599SOL    HW119256   1.820   4.219   8.436  1.9766  1.4633  0.4588
 2599SOL    HW219257   1.760   4.181   8.310 -0.6110 -0.2636 -0.0617
 2600SOL     OW19258   0.906   3.064   5.056 -0.3648  0.5502  0.3138
 2600SOL    HW119259   0.971   3.115   5.008 -1.3612 -0.0408 -1.6715
 2600SOL    HW219260   0.936   2.974   5.048 -0.6382  0.4792  0.0526
 2601SOL     OW19261   0.633   0.527   4.543 -0.1274 -0.5873  0.1305
 2601SOL    HW119262   0.645   0.579   4.464 -0.9990  3.1415  2.4331
 2601SOL    HW219263   0.555   0.568   4.581  0.9241  1.8467 -0.2863
 2602SOL     OW19264   1.420   0.799   0.840  0.1309 -0.0403  0.3375
 2602SOL    HW119265   1.427   0.891   0.816 -0.9189  0.5481  2.2655
 2602SOL    HW219266   1.395   0.807   0.932  0.0835 -0.7450  0.3862
 2603SOL     OW19267   3.313   4.394   3.469  0.7540  0.3943  0.9616
 2603SOL    HW119268   3.380   4.389   3.537 -0.4132  0.7182  2.1393
 2603SOL    HW219269   3.346   4.318   3.421 -2.7504 -1.4872  1.5533
 2604SOL     OW19270   1.870   0.702  11.648 -0.5539  0.3483  0.5996
 2604SOL    HW119271   1.884   0.683  11.555 -0.6196  3.7497 -0.0801
 2604SOL    HW219272   1.883   0.796  11.653  1.6450  0.0232  0.8807
 2605SOL     OW19273   2.750   1.258  14.899  0.6620  0.1193  0.4786
 2605SOL    HW119274   2.806   1.230  14.971 -0.1370 -0.2612  0.9553
 2605SOL    HW219275   2.662   1.222  14.911  1.3321 -1.3891  0.9219
 2606SOL     OW19276   0.436   3.555   5.844 -0.3745  0.7325 -0.0524
 2606SOL    HW119277   0.362   3.604   5.878 -0.3832  1.1305 -0.6412
 2606SOL    HW219278   0.426   3.475   5.895 -3.6521  0.3186 -1.3619
 2607SOL     OW19279   3.734   3.763   9.547  0.9411 -0.1979 -0.3673
 2607SOL    HW119280   3.814   3.809   9.522  0.4979  1.0379  0.5008
 2607SOL    HW219281   3.681   3.743   9.470  0.1606 -0.6444  0.2776
 2608SOL     OW19282   2.258   4.686   5.376  0.1582 -0.4157 -0.5186
 2608SOL    HW119283   2.245   4.600   5.416  1.1061 -0.4837 -0.3578
 2608SOL    HW219284   2.326   4.721   5.433 -0.4282  1.7466 -1.1429
 2609SOL     OW19285   4.519   1.788   3.166  0.1257 -0.3139 -0.3197
 2609SOL    HW119286   4.474   1.857   3.214 -0.1622 -0.2620 -0.6587
 2609SOL    HW219287   4.493   1.807   3.076 -1.5892  0.5034  0.3568
 2610SOL     OW19288   0.371   0.748  17.057 -0.0238 -0.0771 -0.1462
 2610SOL    HW119289   0.398   0.778  16.970  0.6266 -0.1779  0.0238
 2610SOL    HW219290   0.280   0.726  17.036  0.0620 -0.0692 -0.5270
 2611SOL     OW19291   4.392   1.361   3.758  0.5114 -0.4591  0.4306
 2611SOL    HW119292   4.396   1.284   3.701 -2.7769 -1.4161  1.4854
 2611SOL    HW219293   4.456   1.346   3.829  0.5923 -0.2096  0.4108
 2612SOL     OW19294   2.137   2.154   3.395 -0.1714 -0.5825 -0.2723
 2612SOL    HW119295   2.187   2.169   3.475  0.3363  0.7017 -0.8369
 2612SOL    HW219296   2.196   2.194   3.331 -1.8952  0.4593 -1.2065
 2613SOL     OW19297   0.778   0.876   1.770  0.3502 -0.1204  0.1778
 2613SOL    HW119298   0.752   0.789   1.740 -3.3602  0.0137  3.1447
 2613SOL    HW219299   0.777   0.918   1.684  3.1464  0.7877  0.5715
 2614SOL     OW19300   1.682   2.266   2.728 -0.2122  0.3929 -0.0142
 2614SOL    HW119301   1.763   2.287   2.683 -1.1067  1.7301 -0.9996
 2614SOL    HW219302   1.635   2.218   2.660  0.8651 -1.8924  0.8551
 2615SOL     OW19303   1.500   3.697   0.499 -0.0798  0.6409 -0.0924
 2615SOL    HW119304   1.543   3.777   0.529  1.7266 -0.4556  0.2759
 2615SOL    HW219305   1.494   3.710   0.405  0.0827  0.3552 -0.1439
 2616SOL     OW19306   4.089   4.317   5.240 -0.2734  0.0854 -0.1757
 2616SOL    HW119307   4.141   4.363   5.305 -2.5759  0.0005  1.7283
 2616SOL    HW219308   4.019   4.381   5.226  1.7219  2.4066  0.5564
 2617SOL     OW19309   4.519   1.765   5.829 -0.2686 -0.2976 -0.3022
 2617SOL    HW119310   4.592   1.719   5.787 -0.6386  0.1089 -1.3886
 2617SOL    HW219311   4.486   1.698   5.889  0.7496 -0.2134  0.3393
 2618SOL     OW19312   1.247   2.113   7.166  0.5625 -0.3217  0.2219
 2618SOL    HW119313   1.250   2.208   7.156 -1.6773 -0.4806 -1.8484
 2618SOL    HW219314   1.155   2.090   7.167  0.6563 -0.7276 -1.1719
 2619SOL     OW19315   1.428   4.512   5.711 -0.3654 -0.3176 -0.1308
 2619SOL    HW119316   1.345   4.493   5.668 -1.2252  1.2656  0.8378
 2619SOL    HW219317   1.437   4.602   5.679  0.0093  0.2329  1.5101
 2620SOL     OW19318   0.122   0.557   9.065  0.3294  0.5342 -0.0454
 2620SOL    HW119319   0.059   0.498   9.024 -0.3300 -0.6811  2.7152
 2620SOL    HW219320   0.174   0.570   8.986  1.6748  1.2018  0.9510
 2621SOL     OW19321   4.350   0.267   5.369 -0.2095 -0.5687  0.2316
 2621SOL    HW119322   4.361   0.318   5.289  1.6494  1.7106  1.9803
 2621SOL    HW219323   4.322   0.338   5.426 -0.6222 -0.5532  0.0142
 2622SOL     OW19324   2.290   3.586   5.249 -0.1673  1.1837 -0.4445
 2622SOL    HW119325   2.238   3.506   5.260 -0.1393  0.8939 -2.5825
 2622SOL    HW219326   2.223   3.649   5.222  1.1351  2.1320 -1.4448
 2623SOL     OW19327   1.907   3.175   4.852 -0.2032  0.3107  0.7419
 2623SOL    HW119328   1.845   3.206   4.787  0.9356 -3.0035 -1.9485
 2623SOL    HW219329   1.961   3.255   4.850  0.9839 -0.5546 -3.0754
 2624SOL     OW19330   4.144   0.904  17.291 -0.3418  0.1568 -0.1486
 2624SOL    HW119331   4.219   0.959  17.310  0.7533 -0.7786 -1.8249
 2624SOL    HW219332   4.176   0.815  17.274 -0.3734 -0.0415  0.8182
 2625SOL     OW19333   0.052   0.017   6.247  0.7534  0.1157  0.4156
 2625SOL    HW119334   4.702   0.072   6.219  1.8460 -0.0923 -2.8185
 2625SOL    HW219335   0.013   4.686   6.315 -1.2058 -0.5021 -1.1867
 2626SOL     OW19336   3.706   4.509   6.810 -0.2890  0.1006 -0.1510
 2626SOL    HW119337   3.786   4.550   6.843  1.1160 -2.7284 -0.0387
 2626SOL    HW219338   3.706   4.548   6.722  2.2829 -0.6648 -0.5011
 2627SOL     OW19339   3.285   1.289   0.173  0.2154  0.1967 -0.3308
 2627SOL    HW119340   3.239   1.369   0.148  2.4683  1.2329 -1.1525
 2627SOL    HW219341   3.222   1.277   0.244 -0.0690  0.4172 -0.5441
 2628SOL     OW19342   4.126   4.152   5.531  0.0803  0.2055 -0.4281
 2628SOL    HW119343   4.214   4.143   5.568 -0.4323 -1.9116  0.2937
 2628SOL    HW219344   4.132   4.242   5.500 -2.6083  0.1416 -1.1888
 2629SOL     OW19345   2.750   3.350   5.278  0.0149 -0.1550  0.3225
 2629SOL    HW119346   2.720   3.364   5.368  2.1571  3.7721  0.4521
 2629SOL    HW219347   2.678   3.314   5.227 -0.0233 -1.9417  1.6677
 2630SOL     OW19348   3.248   0.585   8.367  0.0813 -0.0395 -0.0713
 2630SOL    HW119349   3.333   0.585   8.411  0.5550 -0.4986 -0.9913
 2630SOL    HW219350   3.261   0.523   8.295 -1.2749 -1.9266  1.3184
 2631SOL     OW19351   2.609   4.140  15.488 -0.0151 -0.4932  0.4702
 2631SOL    HW119352   2.658   4.087  15.425 -0.3666 -2.4119  1.8330
 2631SOL    HW219353   2.596   4.074  15.556  0.4199 -1.2265 -0.1528
 2632SOL     OW19354   2.096   2.884  11.973  0.3282  0.2551  0.4829
 2632SOL    HW119355   2.007   2.917  11.959  0.7770  1.3476  0.1562
 2632SOL    HW219356   2.091   2.812  11.910 -0.5290  1.6997 -1.0988
 2633SOL     OW19357   0.170   4.464   2.104 -0.0082 -0.1064  0.7700
 2633SOL    HW119358   0.091   4.421   2.137 -0.0646  0.1667  0.9932
 2633SOL    HW219359   0.209   4.391   2.056  1.3299  2.6395 -2.3864
 2634SOL     OW19360   1.721   4.588   5.830 -0.0211 -0.1543  0.1452
 2634SOL    HW119361   1.806   4.625   5.857  0.5134 -1.0885 -0.2552
 2634SOL    HW219362   1.747   4.505   5.791 -0.2548 -0.4880  0.6916
 2635SOL     OW19363   1.055   2.287  15.474  0.2541 -0.3192 -0.2234
 2635SOL    HW119364   1.043   2.252  15.563 -1.7054 -0.6555 -0.6116
 2635SOL    HW219365   1.093   2.371  15.500 -1.2786  0.5657 -0.8378
 2636SOL     OW19366   0.966   3.003   3.852  0.1347 -0.6571  0.1998
 2636SOL    HW119367   0.942   3.026   3.762  2.5944  2.6975  0.3886
 2636SOL    HW219368   0.927   3.075   3.901 -0.7894 -0.2601 -1.1024
 2637SOL     OW19369   2.823   4.112   1.058 -0.5749  0.1349 -0.6041
 2637SOL    HW119370   2.731   4.117   1.030 -1.0916  1.1291  1.2694
 2637SOL    HW219371   2.824   4.167   1.135  3.1860  0.5446 -0.9495
 2638SOL     OW19372   2.082   3.275   9.276 -0.6215 -0.3827 -0.4982
 2638SOL    HW119373   2.142   3.283   9.201 -1.3511  1.2401 -0.9083
 2638SOL    HW219374   2.011   3.221   9.239 -0.2367  0.1124 -1.9818
 2639SOL     OW19375   2.746   1.695   8.789  0.3792  0.1662  0.6262
 2639SOL    HW119376   2.823   1.751   8.803  2.6532 -3.5922  2.9841
 2639SOL    HW219377   2.776   1.621   8.736  1.0037  2.3041 -2.0251
 2640SOL     OW19378   2.239   4.164  14.633  0.4825  0.0543 -0.1524
 2640SOL    HW119379   2.197   4.140  14.716  3.6848  2.7690  2.2577
 2640SOL    HW219380   2.261   4.254  14.658 -0.0983 -0.0582  0.7780
 2641SOL     OW19381   0.313   1.026   3.403 -0.4895  0.1215  0.2517
 2641SOL    HW119382   0.357   1.109   3.386 -1.7009  0.8842  0.8196
 2641SOL    HW219383   0.336   1.015   3.495  0.9591  1.2018  0.0150
 2642SOL     OW19384   2.930   2.989  10.049 -0.7152 -0.0687 -0.4545
 2642SOL    HW119385   2.870   2.954  10.115  0.3672 -0.2375  0.4390
 2642SOL    HW219386   2.998   2.923  10.034  1.6830  2.9609 -2.8404
 2643SOL     OW19387   2.969   0.608  13.835  0.2973  0.2293 -0.1562
 2643SOL    HW119388   2.946   0.700  13.845  0.4225  0.2114  0.3059
 2643SOL    HW219389   2.880   0.575  13.847  0.6368 -0.6947 -0.1648
 2644SOL     OW19390   3.281   1.250  10.026  0.3940  0.4989 -0.1126
 2644SOL    HW119391   3.358   1.275  10.078 -0.7946 -0.5759  2.1623
 2644SOL    HW219392   3.283   1.313   9.954 -3.5274  1.4203  0.5969
 2645SOL     OW19393   4.134   1.287  10.300 -0.3487  0.2059  0.0972
 2645SOL    HW119394   4.100   1.315  10.214  1.6826  0.3398 -0.6500
 2645SOL    HW219395   4.058   1.300  10.357  0.2026 -1.9525  1.3394
 2646SOL     OW19396   2.224   2.840   4.830 -0.4574  0.1304  0.7396
 2646SOL    HW119397   2.268   2.818   4.747  0.4124  0.0041  1.2351
 2646SOL    HW219398   2.275   2.920   4.846  0.6052 -0.6075  0.9806
 2647SOL     OW19399   0.963   3.552   6.829 -0.2096 -0.1097 -0.1225
 2647SOL    HW119400   1.054   3.545   6.798  0.6809 -0.5795  2.6017
 2647SOL    HW219401   0.968   3.644   6.852  0.3765  0.1258 -1.1667
 2648SOL     OW19402   2.581   1.334   1.797 -0.0869 -0.5714 -0.3392
 2648SOL    HW119403   2.521   1.277   1.845 -1.4578  0.4612 -0.8156
 2648SOL    HW219404   2.614   1.271   1.733 -0.3446  1.9782 -2.9635
 2649SOL     OW19405   0.959   0.785   8.105  0.2974  0.2934 -0.4005
 2649SOL    HW119406   0.937   0.847   8.174  0.3251 -0.9577  0.7352
 2649SOL    HW219407   1.050   0.765   8.129  0.2032  2.3632  1.6496
 2650SOL     OW19408   4.663   0.854   6.138 -0.1068 -0.0633  0.5164
 2650SOL    HW119409   4.676   0.788   6.206 -1.9514  0.1736  1.0832
 2650SOL    HW219410   4.701   0.934   6.177 -1.2115  0.0517  1.3545
 2651SOL     OW19411   1.226   1.820  11.506  0.4453  0.4040 -0.2674
 2651SOL    HW119412   1.302   1.761  11.512 -2.7854 -3.9030 -1.3813
 2651SOL    HW219413   1.162   1.751  11.488  3.8615 -2.5204 -1.2458
 2652SOL     OW19414   1.170   4.675   9.038 -0.2749 -0.4701  0.0321
 2652SOL    HW119415   1.158   0.047   9.046  0.4697 -0.5547  2.0239
 2652SOL    HW219416   1.219   4.663   8.957  0.5144  2.3146  0.1079
 2653SOL     OW19417   1.053   4.167   7.065 -0.8503  0.2192  0.2336
 2653SOL    HW119418   1.088   4.152   6.978  0.9739  0.7414  0.8759
 2653SOL    HW219419   1.014   4.253   7.050  0.0263  0.7047  0.7293
 2654SOL     OW19420   0.461   3.140   8.505 -0.6130  0.0247 -0.3186
 2654SOL    HW119421   0.442   3.118   8.597 -1.3296  0.6258 -0.3186
 2654SOL    HW219422   0.435   3.232   8.516  0.7685  0.4772 -0.7952
 2655SOL     OW19423   3.596   0.021   9.039 -0.1035 -0.2557  0.0660
 2655SOL    HW119424   3.619   0.004   8.947  0.3964 -3.3016  0.7818
 2655SOL    HW219425   3.678   0.055   9.076 -1.5396  3.2840  0.0655
 2656SOL     OW19426   3.812   3.251   4.169 -0.4025 -0.4570 -0.4529
 2656SOL    HW119427   3.815   3.296   4.253 -1.4019  0.1509 -0.7513
 2656SOL    HW219428   3.731   3.205   4.189 -1.0253  1.5794  1.6132
 2657SOL     OW19429   1.883   2.373   1.752 -0.1539 -0.2302 -0.4974
 2657SOL    HW119430   1.926   2.288   1.755  1.2691  0.5296  0.7180
 2657SOL    HW219431   1.921   2.408   1.672  1.9498  2.4346  1.6418
 2658SOL     OW19432   3.856   0.997   6.836 -0.2071 -0.1965  0.1292
 2658SOL    HW119433   3.815   1.040   6.910 -0.3370  2.8333 -1.6935
 2658SOL    HW219434   3.884   0.913   6.873  0.5524 -1.2907 -2.8961
 2659SOL     OW19435   2.965   2.394   1.209 -0.0633  0.1419 -0.3391
 2659SOL    HW119436   2.930   2.306   1.209 -1.2711  0.6235 -0.6974
 2659SOL    HW219437   2.885   2.445   1.194 -1.2176 -1.3861  0.6582
 2660SOL     OW19438   4.111   2.698   4.206 -0.1534  0.9218  0.3182
 2660SOL    HW119439   4.104   2.793   4.221 -1.3624  0.8775  0.0486
 2660SOL    HW219440   4.187   2.710   4.149  0.4724  3.3912  1.6905
 2661SOL     OW19441   3.135   0.767  17.565 -0.5054  0.4051 -0.1981
 2661SOL    HW119442   3.189   0.845  17.551 -0.8746  0.8290  0.7272
 2661SOL    HW219443   3.101   0.788  17.653 -2.1969 -2.6986 -0.1339
 2662SOL     OW19444   4.571   1.858   5.567 -0.2695 -0.5705 -0.1392
 2662SOL    HW119445   4.521   1.934   5.537  1.6923  0.4508 -0.8458
 2662SOL    HW219446   4.538   1.843   5.656 -0.0467 -3.6447 -0.5796
 2663SOL     OW19447   1.558   4.257  10.744 -0.3660  0.0609  0.1266
 2663SOL    HW119448   1.581   4.346  10.715 -0.5242  0.3371  0.8495
 2663SOL    HW219449   1.642   4.215  10.727  0.1795  0.0898  2.7395
 2664SOL     OW19450   2.010   3.391   4.742  0.1068 -0.3538  0.0702
 2664SOL    HW119451   2.082   3.371   4.682  0.7666  1.7431  0.1528
 2664SOL    HW219452   1.982   3.481   4.725 -0.2624 -0.5444 -0.3206
 2665SOL     OW19453   2.334   1.649   5.785 -0.1723  0.0485 -0.2143
 2665SOL    HW119454   2.262   1.654   5.848 -1.1720 -1.3662 -1.2512
 2665SOL    HW219455   2.318   1.726   5.731  1.0706 -0.3906 -1.2079
 2666SOL     OW19456   4.174   4.334   4.906 -0.0432  0.2512 -0.4051
 2666SOL    HW119457   4.124   4.396   4.852 -0.7050 -0.5121 -0.6531
 2666SOL    HW219458   4.099   4.283   4.937 -0.5457  0.9716 -0.4178
 2667SOL     OW19459   0.553   2.890   8.783  0.4798  0.1482  0.3379
 2667SOL    HW119460   0.515   2.968   8.823 -0.7539 -0.4140  0.2329
 2667SOL    HW219461   0.622   2.931   8.730 -0.4557  0.6597 -0.4892
 2668SOL     OW19462   3.906   4.689  13.499 -0.1616 -0.3027 -0.8158
 2668SOL    HW119463   3.872   4.654  13.581  0.3550 -0.3375 -0.6174
 2668SOL    HW219464   3.968   4.621  13.475 -1.3783 -0.7043 -2.8136
 2669SOL     OW19465   2.335   4.213   9.681  0.5818  0.2290  0.1651
 2669SOL    HW119466   2.323   4.122   9.654 -0.7224 -0.0860  1.8250
 2669SOL    HW219467   2.394   4.201   9.755 -1.0877  0.9244  1.5915
 2670SOL     OW19468   2.588   3.163   4.224  0.0847 -0.2997 -0.5783
 2670SOL    HW119469   2.619   3.085   4.270 -0.2215  0.2764  0.5958
 2670SOL    HW219470   2.616   3.137   4.136  2.6830 -0.0274  0.1649
 2671SOL     OW19471   2.007   0.100   5.454 -0.1410 -0.3237  0.6628
 2671SOL    HW119472   1.937   0.057   5.404 -0.8889  0.3201  1.1603
 2671SOL    HW219473   2.084   0.051   5.427  0.5954  1.2372 -0.0893
 2672SOL     OW19474   4.080   0.572  13.069 -0.5221  0.0303 -0.1270
 2672SOL    HW119475   4.000   0.568  13.018 -1.2463 -1.1937  1.1068
 2672SOL    HW219476   4.109   0.658  13.039 -0.4284  1.0556  2.8759
 2673SOL     OW19477   1.767   2.022   3.695  0.1866  0.4364 -0.2205
 2673SOL    HW119478   1.833   1.978   3.642 -0.3136  0.2652 -0.6897
 2673SOL    HW219479   1.764   1.967   3.774 -0.7081 -0.8031 -1.1129
 2674SOL     OW19480   1.713   1.050   2.300 -0.4568  0.0019  0.1425
 2674SOL    HW119481   1.639   1.071   2.243 -1.0821 -0.5904  0.7201
 2674SOL    HW219482   1.718   0.958   2.273 -1.1187 -0.2278  0.7925
 2675SOL     OW19483   4.287   1.781  17.649  0.1636 -0.2949  0.4729
 2675SOL    HW119484   4.333   1.862  17.673  1.7774 -1.8017  2.4856
 2675SOL    HW219485   4.250   1.745   0.037 -1.3181 -0.0845 -0.1196
 2676SOL     OW19486   3.316   4.419   6.750  0.3221  0.0234 -0.0084
 2676SOL    HW119487   3.375   4.393   6.821  0.8801  0.3920 -0.3277
 2676SOL    HW219488   3.275   4.502   6.775 -0.4949 -0.3178 -0.2453
 2677SOL     OW19489   1.866   2.004  12.923 -0.2216 -0.1919  0.1963
 2677SOL    HW119490   1.857   2.006  12.828  0.3147  2.3747  0.2010
 2677SOL    HW219491   1.897   1.914  12.931 -1.7424 -0.8079 -0.7900
 2678SOL     OW19492   1.307   2.601   5.885  0.2637  0.2463  0.2862
 2678SOL    HW119493   1.329   2.579   5.976  1.6598 -0.0740 -0.1264
 2678SOL    HW219494   1.392   2.616   5.843  1.2327 -2.0443  1.4303
 2679SOL     OW19495   2.712   3.197   6.092 -0.0389 -0.0810 -0.1389
 2679SOL    HW119496   2.799   3.212   6.129 -0.4963 -0.1180  0.9213
 2679SOL    HW219497   2.666   3.186   6.175 -2.1156  2.7608 -0.9266
 2680SOL     OW19498   2.530   2.926   0.178 -0.1907  0.2526 -0.2922
 2680SOL    HW119499   2.526   2.842   0.131  2.1583 -0.7232  1.2246
 2680SOL    HW219500   2.571   2.983   0.113  3.7779 -1.8598  0.3298
 2681SOL     OW19501   2.417   1.002   6.254  0.0248 -0.2990 -0.2191
 2681SOL    HW119502   2.490   1.051   6.214 -0.8727  0.8970 -0.3935
 2681SOL    HW219503   2.405   0.941   6.181 -1.7877 -0.6336  0.3754
 2682SOL     OW19504   4.477   3.785  17.246  0.3023  0.0004  0.0420
 2682SOL    HW119505   4.451   3.831  17.326 -0.9660  3.2079 -2.1859
 2682SOL    HW219506   4.445   3.697  17.266 -1.6585  1.2008  2.1626
 2683SOL     OW19507   2.894   3.341   7.516 -0.7714 -0.8140 -0.1346
 2683SOL    HW119508   2.911   3.430   7.546 -1.4382 -0.4739 -0.7840
 2683SOL    HW219509   2.894   3.296   7.601  0.4475 -0.8921 -0.1715
 2684SOL     OW19510   2.012   4.590  14.087  0.0107 -0.0667  0.1493
 2684SOL    HW119511   1.941   4.531  14.060 -0.0168 -0.3378  0.7913
 2684SOL    HW219512   2.033   4.560  14.176 -0.7044  0.7327  0.5870
 2685SOL     OW19513   4.635   4.319  14.991  0.0843 -0.4423  0.2408
 2685SOL    HW119514   4.694   4.248  14.967 -0.1319 -1.1452  1.7658
 2685SOL    HW219515   4.632   4.368  14.909  0.5512 -1.9204 -0.6463
 2686SOL     OW19516   0.689   2.974   8.541 -0.0462  0.0653 -0.9629
 2686SOL    HW119517   0.739   3.051   8.568  0.2596 -0.7024  0.6382
 2686SOL    HW219518   0.612   3.031   8.530 -0.4609 -0.1972  0.6858
 2687SOL     OW19519   0.164   4.675   3.572  0.4389  0.7944  0.1034
 2687SOL    HW119520   0.153   4.723   3.654  1.7828 -1.3917  1.5463
 2687SOL    HW219521   0.202   0.020   3.517  0.7175 -0.3965 -1.2046
 2688SOL     OW19522   2.742   3.933   6.736  0.0739 -0.2403 -0.5869
 2688SOL    HW119523   2.739   3.968   6.825 -2.7797 -2.3777  0.1538
 2688SOL    HW219524   2.677   3.997   6.707 -0.6171 -0.3602  0.7075
 2689SOL     OW19525   4.015   3.880   8.829 -0.0582 -0.0686  0.1970
 2689SOL    HW119526   3.997   3.804   8.885 -0.7640  0.9095  1.2939
 2689SOL    HW219527   4.007   3.945   8.899 -2.4546  0.3793 -0.4966
 2690SOL     OW19528   2.535   2.929  13.961  0.1276  0.1210 -0.4145
 2690SOL    HW119529   2.562   2.850  14.008 -1.1423  0.3408  0.6838
 2690SOL    HW219530   2.478   2.974  14.023  1.9129 -0.5766  1.7669
 2691SOL     OW19531   3.899   1.399  13.331 -0.1405  0.3462 -0.2620
 2691SOL    HW119532   3.973   1.453  13.302  0.3363 -0.7587 -1.1145
 2691SOL    HW219533   3.939   1.353  13.404 -1.2736 -1.1815 -0.6159
 2692SOL     OW19534   4.184   2.987   7.901  0.1983  0.1780 -0.1047
 2692SOL    HW119535   4.133   2.982   7.820 -1.2070  1.1359  0.7193
 2692SOL    HW219536   4.207   2.895   7.914 -1.9215 -0.0577  2.1105
 2693SOL     OW19537   2.314   0.703   8.796  0.0801 -0.2728 -0.2182
 2693SOL    HW119538   2.364   0.635   8.842 -0.7661 -0.8549 -0.1471
 2693SOL    HW219539   2.373   0.771   8.765 -0.4766 -0.5845 -1.9231
 2694SOL     OW19540   0.988   0.091   2.894  0.4993 -0.0403  0.2303
 2694SOL    HW119541   0.978   0.135   2.978 -1.5420 -1.4802  0.7260
 2694SOL    HW219542   0.938   0.010   2.906  1.3811 -0.5691  0.3741
 2695SOL     OW19543   3.847   2.391   7.278 -0.1874  0.4538 -0.0349
 2695SOL    HW119544   3.789   2.333   7.327  1.2223 -0.5706  0.4026
 2695SOL    HW219545   3.925   2.336   7.279  0.1427  0.9235  0.1172
 2696SOL     OW19546   2.095   4.125   7.152  0.6712  0.1772 -1.3801
 2696SOL    HW119547   2.071   4.057   7.214  0.6235  0.7847 -0.7422
 2696SOL    HW219548   2.044   4.197   7.188 -0.2177 -0.1767 -1.9341
 2697SOL     OW19549   0.437   0.771   4.220  0.1175 -0.4690  0.2264
 2697SOL    HW119550   0.356   0.722   4.235 -0.3535  0.7619  1.7199
 2697SOL    HW219551   0.414   0.863   4.234  0.6892 -0.5012  1.4595
 2698SOL     OW19552   0.313   0.915   3.913  0.0271  0.4551 -0.2032
 2698SOL    HW119553   0.324   0.951   4.001  1.2371  1.1848 -0.6525
 2698SOL    HW219554   0.218   0.900   3.915 -0.2613  2.2730  0.1485
 2699SOL     OW19555   2.620   0.933   9.283 -0.8660  0.7440  0.3502
 2699SOL    HW119556   2.664   0.927   9.368 -0.7813  2.7303  0.4534
 2699SOL    HW219557   2.532   0.903   9.305 -1.4304  0.4327 -2.3831
 2700SOL     OW19558   1.253   0.180   8.625 -0.4565 -0.3718 -0.1614
 2700SOL    HW119559   1.190   0.160   8.556 -0.3324  0.2463 -0.4591
 2700SOL    HW219560   1.299   0.257   8.591  0.1088 -1.3195 -1.5353
 2701SOL     OW19561   1.863   4.367  11.142 -0.2678  0.4801  0.4571
 2701SOL    HW119562   1.909   4.374  11.059  0.1957  0.3502  0.7050
 2701SOL    HW219563   1.850   4.457  11.171 -1.1968  0.8908 -1.2579
 2702SOL     OW19564   0.483   3.352  14.703 -0.0087 -0.0820  0.4439
 2702SOL    HW119565   0.515   3.275  14.657 -0.6567  0.6131 -1.1916
 2702SOL    HW219566   0.537   3.422  14.664  1.1730 -0.4180  1.5001
 2703SOL     OW19567   1.555   3.440   8.447 -0.4911  0.3086 -0.1194
 2703SOL    HW119568   1.550   3.385   8.525  1.5014 -0.7462 -0.7440
 2703SOL    HW219569   1.501   3.516   8.470  0.6780  1.7090 -1.9762
 2704SOL     OW19570   0.342   3.724   3.793  0.3717 -0.1955  0.7851
 2704SOL    HW119571   0.431   3.693   3.809 -0.7359 -3.5379  0.3177
 2704SOL    HW219572   0.297   3.652   3.836  0.0486 -1.5710 -1.8472
 2705SOL     OW19573   3.970   0.040   4.107  0.0895 -0.3945 -0.0218
 2705SOL    HW119574   3.899   4.708   4.141 -0.2932  0.7529  1.0064
 2705SOL    HW219575   3.928   0.124   4.089  2.8365  1.0169  0.1293
 2706SOL     OW19576   3.975   4.459   7.892  0.2670 -0.6796  0.0489
 2706SOL    HW119577   4.066   4.440   7.915 -0.0840 -1.5546  0.7470
 2706SOL    HW219578   3.930   4.397   7.949 -1.2516  1.4548  1.1382
 2707SOL     OW19579   4.564   0.228   7.079  0.7321 -0.1535 -0.4067
 2707SOL    HW119580   4.609   0.172   7.142  1.5027  0.5999 -0.2922
 2707SOL    HW219581   4.543   0.158   7.017 -1.4864 -1.8866  2.2835
 2708SOL     OW19582   2.471   2.666   0.903 -0.0306  0.4456 -0.3552
 2708SOL    HW119583   2.450   2.678   0.810 -0.4765 -1.0273 -0.4352
 2708SOL    HW219584   2.560   2.698   0.891  0.9022 -2.0794  0.0316
 2709SOL     OW19585   3.851   3.823  14.792 -0.1810 -0.3135  0.0478
 2709SOL    HW119586   3.768   3.778  14.812  0.2542 -0.7978  0.7710
 2709SOL    HW219587   3.827   3.912  14.820 -0.4003  0.3685 -2.3548
 2710SOL     OW19588   2.761   2.582  10.112  0.0271 -0.0606  0.5512
 2710SOL    HW119589   2.668   2.599  10.120  0.3244  1.8289 -0.0220
 2710SOL    HW219590   2.762   2.532  10.030  1.1723 -1.8447  1.6502
 2711SOL     OW19591   4.436   4.267  10.975 -0.1301  0.5598 -0.3705
 2711SOL    HW119592   4.390   4.293  11.055 -1.5264  1.1796 -1.3750
 2711SOL    HW219593   4.504   4.219  11.021 -1.9932 -2.4838 -0.7817
 2712SOL     OW19594   2.470   3.954   2.058  0.7741 -0.1617  0.3428
 2712SOL    HW119595   2.476   3.895   2.134 -0.7641 -1.3342 -0.4351
 2712SOL    HW219596   2.464   3.884   1.992 -0.5247  1.3315 -1.1129
 2713SOL     OW19597   1.778   3.830   8.533 -0.3114 -0.1483 -0.2175
 2713SOL    HW119598   1.750   3.864   8.618 -1.6414  1.5927 -1.3425
 2713SOL    HW219599   1.829   3.754   8.560 -0.4344  0.0682  0.6039
 2714SOL     OW19600   3.466   1.146   0.055 -0.1382 -0.0334 -0.3812
 2714SOL    HW119601   3.393   1.198   0.085  0.6227  1.7169 -1.5623
 2714SOL    HW219602   3.479   1.085   0.128 -2.2387  0.7103  0.5779
 2715SOL     OW19603   0.900   1.645   8.733  0.3769  0.6491  0.6341
 2715SOL    HW119604   0.965   1.716   8.734  0.0953  0.8750  3.7758
 2715SOL    HW219605   0.909   1.620   8.825  3.1282 -1.4561 -0.1892
 2716SOL     OW19606   4.178   2.252   6.004 -0.1193 -0.3492  0.0498
 2716SOL    HW119607   4.084   2.270   6.011 -0.0915 -0.3851  0.5271
 2716SOL    HW219608   4.194   2.343   5.977  2.3350 -0.7969 -0.0196
 2717SOL     OW19609   1.382   4.172   2.569 -0.2002 -0.8013 -0.5568
 2717SOL    HW119610   1.354   4.146   2.482  1.9299 -1.2275 -1.1266
 2717SOL    HW219611   1.325   4.118   2.623  0.8523 -1.7765 -0.4107
 2718SOL     OW19612   1.817   0.126   1.470  0.0825  0.1776  0.2493
 2718SOL    HW119613   1.896   0.133   1.523 -0.1695  0.1066  0.6312
 2718SOL    HW219614   1.773   0.211   1.480  1.1479  0.8682 -0.9406
 2719SOL     OW19615   0.179   2.695  17.562  0.3824  0.5265 -0.1264
 2719SOL    HW119616   0.266   2.722  17.530  0.6102 -0.1291 -0.0501
 2719SOL    HW219617   0.219   2.613  17.591 -0.0252  1.3317  2.7396
 2720SOL     OW19618   0.437   2.830   2.562  0.6717 -0.2359 -0.1329
 2720SOL    HW119619   0.390   2.815   2.480 -0.7070 -1.5482  0.8902
 2720SOL    HW219620   0.363   2.841   2.622  1.2200 -2.4410  0.9698
 2721SOL     OW19621   1.205   0.882   2.572 -0.5036  0.0486 -0.1921
 2721SOL    HW119622   1.279   0.821   2.570 -0.1340  0.5508 -1.5632
 2721SOL    HW219623   1.203   0.911   2.481  1.5338 -2.4223 -1.0299
 2722SOL     OW19624   4.630   3.823   0.976  0.4798  0.1759 -0.1919
 2722SOL    HW119625   4.667   3.839   0.889 -1.4755 -0.6898 -1.2006
 2722SOL    HW219626   4.707   3.808   1.031  0.2944  0.8199  0.2494
 2723SOL     OW19627   2.395   2.076   2.023 -0.0292 -0.0689 -0.1919
 2723SOL    HW119628   2.368   2.028   2.101 -0.9490  1.0724  0.1894
 2723SOL    HW219629   2.428   2.004   1.970  1.0316 -0.7750  1.4525
 2724SOL     OW19630   0.028   2.177  14.476 -0.0450  0.2168 -0.3638
 2724SOL    HW119631   4.691   2.127  14.420  1.5197  1.3813 -3.0830
 2724SOL    HW219632   0.016   2.270  14.455  0.2244 -0.1229 -2.0391
 2725SOL     OW19633   0.097   0.350   5.884 -0.1850 -0.6069  0.3699
 2725SOL    HW119634   0.134   0.383   5.966 -1.1579 -0.3017  0.6859
 2725SOL    HW219635   0.009   0.389   5.890 -0.3659 -1.0525  0.6115
 2726SOL     OW19636   1.718   3.532   4.269 -0.4976  0.2568 -0.5819
 2726SOL    HW119637   1.806   3.511   4.238  0.6387  0.5017  2.5069
 2726SOL    HW219638   1.682   3.569   4.188  1.4732  0.6078 -1.2972
 2727SOL     OW19639   3.902   0.999   4.512  0.4862 -0.2974  0.5891
 2727SOL    HW119640   3.886   0.942   4.437 -0.9645 -1.2526  1.5934
 2727SOL    HW219641   3.997   1.001   4.514  0.4935 -0.3598  0.2276
 2728SOL     OW19642   3.303   0.810  15.944 -0.3687  0.9083  0.3666
 2728SOL    HW119643   3.364   0.878  15.971  0.3741  0.1403  0.6160
 2728SOL    HW219644   3.363   0.742  15.912 -0.0324  1.3596  0.0332
 2729SOL     OW19645   2.973   2.446   5.152 -0.2775 -0.0680  0.6020
 2729SOL    HW119646   3.045   2.436   5.089 -0.4831  2.9866 -0.1124
 2729SOL    HW219647   2.926   2.517   5.106  2.8742 -0.6609 -3.5524
 2730SOL     OW19648   3.088   2.718  11.447  0.6473  0.3491 -0.0331
 2730SOL    HW119649   3.127   2.630  11.442 -3.6253 -1.4798 -1.2762
 2730SOL    HW219650   3.073   2.741  11.539  0.8818 -1.5463  0.4911
 2731SOL     OW19651   3.141   0.278  17.198  0.2814 -0.7668 -0.1228
 2731SOL    HW119652   3.160   0.263  17.105  0.1003 -0.5703 -0.1905
 2731SOL    HW219653   3.095   0.361  17.191  0.2396 -0.8658 -0.9697
 2732SOL     OW19654   2.702   3.775   2.695 -1.0875 -0.4896 -0.2575
 2732SOL    HW119655   2.614   3.778   2.658 -0.9481 -0.8479 -0.6199
 2732SOL    HW219656   2.700   3.689   2.737 -4.1172 -1.6061 -2.7025
 2733SOL     OW19657   1.831   3.933   6.697 -0.6022  0.1850  0.3165
 2733SOL    HW119658   1.819   3.848   6.740 -2.0814 -0.7245 -1.8964
 2733SOL    HW219659   1.919   3.928   6.660 -0.7404  0.0326  0.0120
 2734SOL     OW19660   0.006   1.968   3.118  0.8253 -0.0680  0.0473
 2734SOL    HW119661   4.715   2.063   3.123  0.0461 -0.2793  1.8261
 2734SOL    HW219662   4.639   1.938   3.130  0.7420  0.0976 -0.1552
 2735SOL     OW19663   3.744   1.574   7.045  0.1097  0.2824 -1.1025
 2735SOL    HW119664   3.825   1.527   7.026  0.2191 -0.1815  0.5784
 2735SOL    HW219665   3.744   1.556   7.139 -0.7194  2.4300 -0.6828
 2736SOL     OW19666   2.387   3.344   7.351 -0.2656 -0.5368  0.4518
 2736SOL    HW119667   2.305   3.296   7.363 -0.0150 -0.6444  1.7550
 2736SOL    HW219668   2.418   3.292   7.277  1.4531  1.3222 -0.1473
 2737SOL     OW19669   2.276   3.191   8.420 -0.0788 -0.0373 -0.2745
 2737SOL    HW119670   2.317   3.185   8.507  0.4026 -0.6626 -0.5435
 2737SOL    HW219671   2.196   3.140   8.433  1.6331 -3.4541 -3.1921
 2738SOL     OW19672   4.625   1.708   5.341 -0.2365  0.0235  0.2414
 2738SOL    HW119673   4.623   1.754   5.425  2.6344 -1.0017  0.8940
 2738SOL    HW219674   4.530   1.702   5.333 -0.2326  1.1073 -0.5417
 2739SOL     OW19675   1.709   0.291  12.002 -0.1476  0.4353 -0.0519
 2739SOL    HW119676   1.677   0.366  11.951 -2.1172  0.8735  1.8512
 2739SOL    HW219677   1.753   0.226  11.947  1.1793  0.0786  1.4083
 2740SOL     OW19678   0.063   0.173   3.948 -0.3084 -0.5404 -0.0022
 2740SOL    HW119679   0.082   0.214   3.864  0.4144 -2.5519 -0.7874
 2740SOL    HW219680   0.118   0.226   4.006  1.1507  0.0182 -1.9238
 2741SOL     OW19681   2.975   1.542   8.568  0.3522  0.2503 -0.5282
 2741SOL    HW119682   2.953   1.633   8.545 -0.0104  0.2078 -0.3513
 2741SOL    HW219683   3.012   1.563   8.654 -0.4242  0.5928 -0.2682
 2742SOL     OW19684   4.219   4.335   6.966 -0.5506  0.1582 -0.4802
 2742SOL    HW119685   4.146   4.357   7.023  1.0634  1.5791  1.0326
 2742SOL    HW219686   4.244   4.421   6.934  0.5374 -0.0938 -0.3226
 2743SOL     OW19687   4.168   4.593   9.816 -0.2599 -0.0912  0.0576
 2743SOL    HW119688   4.171   4.679   9.859  0.6734 -0.0468 -0.1059
 2743SOL    HW219689   4.249   4.594   9.765 -1.1986 -0.0112 -1.4235
 2744SOL     OW19690   1.556   3.927   3.039  0.0595  0.3435 -0.4660
 2744SOL    HW119691   1.505   3.927   2.959  1.0068 -0.9340 -1.0635
 2744SOL    HW219692   1.635   3.969   3.006  0.1439  0.2279 -0.4119
 2745SOL     OW19693   1.105   1.717  17.077  0.1658 -0.0098 -0.1662
 2745SOL    HW119694   1.145   1.639  17.038 -1.9164 -1.1799  0.0827
 2745SOL    HW219695   1.185   1.770  17.070 -0.2692  0.4536 -1.7636
 2746SOL     OW19696   3.713   0.926   5.545  0.4822  0.6314 -0.3908
 2746SOL    HW119697   3.695   0.893   5.633  1.5497  1.5567  0.1669
 2746SOL    HW219698   3.653   0.882   5.484  1.0075  0.2012 -0.6029
 2747SOL     OW19699   0.641   1.843   2.449 -0.2232  0.6322  0.0754
 2747SOL    HW119700   0.554   1.804   2.443  0.2377 -0.2278 -1.0669
 2747SOL    HW219701   0.651   1.859   2.543 -2.5701 -1.9008  0.7374
 2748SOL     OW19702   1.373   0.704  11.877 -0.4076  0.4748  0.0003
 2748SOL    HW119703   1.409   0.676  11.960 -2.3251 -0.2271  0.5935
 2748SOL    HW219704   1.430   0.659  11.815 -0.9957 -2.1259  1.3705
 2749SOL     OW19705   3.116   1.324  17.493  0.1290  0.3368  0.0537
 2749SOL    HW119706   3.056   1.386  17.536 -0.5975 -0.9401  0.8744
 2749SOL    HW219707   3.104   1.254  17.558  2.2042 -1.5330 -1.6012
 2750SOL     OW19708   0.583   1.048   8.008  0.1041 -0.6743  0.3578
 2750SOL    HW119709   0.529   1.004   8.073 -0.6462 -0.0868  0.1248
 2750SOL    HW219710   0.518   1.052   7.938  0.0961 -1.6722  0.2984
 2751SOL     OW19711   3.223   3.996   3.338  0.3998 -0.0671  0.0650
 2751SOL    HW119712   3.232   3.942   3.259 -2.8060 -0.0065 -0.3550
 2751SOL    HW219713   3.151   4.055   3.316 -0.5946 -0.6780  1.6941
 2752SOL     OW19714   0.910   2.634   8.064  0.3474  0.6621  0.5706
 2752SOL    HW119715   0.852   2.688   8.118 -1.0171 -0.5401  0.3008
 2752SOL    HW219716   0.938   2.685   7.988  0.1196  0.3381  0.2710
 2753SOL     OW19717   3.979   2.970   8.470 -0.2578  0.1251 -0.1726
 2753SOL    HW119718   3.897   2.960   8.420 -0.8709  2.0844  0.4339
 2753SOL    HW219719   3.975   2.893   8.527 -0.8347  2.1693  2.4954
 2754SOL     OW19720   1.776   3.098   5.584  0.5280  0.1896 -0.5247
 2754SOL    HW119721   1.786   3.066   5.494  0.6197  1.0870 -0.8380
 2754SOL    HW219722   1.802   3.021   5.634  0.6982  0.3359 -0.3867
 2755SOL     OW19723   2.312   2.003   9.038  0.5558 -0.2257  0.1208
 2755SOL    HW119724   2.242   2.036   8.982 -1.6391 -2.1648  1.7094
 2755SOL    HW219725   2.396   2.034   9.003  2.3402 -3.1984  1.7673
 2756SOL     OW19726   0.313   0.521  16.594  0.7287  0.3870  0.3987
 2756SOL    HW119727   0.249   0.585  16.564 -1.5737 -1.7083  0.7662
 2756SOL    HW219728   0.253   0.476  16.655  1.7998 -0.6364  0.6906
 2757SOL     OW19729   1.363   0.644   6.472 -0.2827 -0.2475 -0.3746
 2757SOL    HW119730   1.292   0.700   6.504  0.0700 -0.1990  0.3071
 2757SOL    HW219731   1.350   0.634   6.378 -0.2053 -3.1737 -0.0606
 2758SOL     OW19732   2.458   1.716   5.089 -0.5033  0.0703 -0.4400
 2758SOL    HW119733   2.398   1.786   5.065 -0.5386 -0.2419 -1.2866
 2758SOL    HW219734   2.463   1.676   5.002 -0.6841  1.1286 -0.9393
 2759SOL     OW19735   3.639   0.178   2.270  0.8897  0.3620  0.0341
 2759SOL    HW119736   3.554   0.206   2.237  0.6135 -0.0965  0.3652
 2759SOL    HW219737   3.609   0.113   2.333 -1.5586  0.6699 -0.8039
 2760SOL     OW19738   1.262   4.465   0.262  0.2617 -0.4261  0.2860
 2760SOL    HW119739   1.320   4.396   0.232 -0.6412 -1.3877  0.7689
 2760SOL    HW219740   1.241   4.516   0.183  0.9694  1.3239  1.2165
 2761SOL     OW19741   2.577   2.407   1.664 -0.2417 -0.3027  0.1997
 2761SOL    HW119742   2.484   2.431   1.671 -0.8293 -2.1828 -1.1912
 2761SOL    HW219743   2.617   2.466   1.728  0.1472 -0.3195 -0.0307
 2762SOL     OW19744   2.375   4.583   3.645  0.0195  0.1719 -0.1771
 2762SOL    HW119745   2.375   4.591   3.550  2.8770 -0.0940 -0.2157
 2762SOL    HW219746   2.408   4.493   3.650 -1.6155 -0.3103  1.8998
 2763SOL     OW19747   2.915   1.384   8.303  0.2021 -0.0525  0.8873
 2763SOL    HW119748   2.992   1.327   8.299  0.9364  0.9725  0.2520
 2763SOL    HW219749   2.940   1.436   8.380 -0.0544  0.5252  0.5726
 2764SOL     OW19750   3.777   0.420  11.349  0.2541  0.2676  0.1648
 2764SOL    HW119751   3.758   0.511  11.324 -0.6906  0.4250  1.4906
 2764SOL    HW219752   3.693   0.393  11.386  1.2462  0.4977  2.5772
 2765SOL     OW19753   1.270   1.038   2.322  0.4843  0.0308 -0.3051
 2765SOL    HW119754   1.338   1.069   2.382 -0.7803  0.8106  0.7147
 2765SOL    HW219755   1.274   1.111   2.260  0.8669  0.8181  0.6568
 2766SOL     OW19756   1.996   0.512   1.715  0.1620 -0.6947 -0.5170
 2766SOL    HW119757   1.959   0.540   1.632 -1.4487 -1.6747 -0.1159
 2766SOL    HW219758   1.982   0.417   1.711 -0.0311 -0.6967  0.2776
 2767SOL     OW19759   1.193   2.837   6.023  0.5311  0.7491  0.4555
 2767SOL    HW119760   1.280   2.856   5.988  0.0703 -2.3068 -2.3896
 2767SOL    HW219761   1.186   2.753   5.978 -1.4373  1.7406 -1.1152
 2768SOL     OW19762   3.615   1.828   6.740  0.1304  0.0544  0.3120
 2768SOL    HW119763   3.566   1.865   6.666 -0.2488 -0.9856  0.0415
 2768SOL    HW219764   3.667   1.761   6.695  0.3359  0.2887  0.2030
 2769SOL     OW19765   0.181   1.528   8.237 -0.0395  0.2274  0.0684
 2769SOL    HW119766   0.153   1.531   8.145  1.3288 -1.8174 -0.4259
 2769SOL    HW219767   0.188   1.623   8.253  3.1990  0.2281 -1.2026
 2770SOL     OW19768   3.814   0.256   7.349 -0.5672 -0.9328 -0.1206
 2770SOL    HW119769   3.909   0.266   7.360 -0.5911  1.0048 -1.7720
 2770SOL    HW219770   3.790   0.230   7.438  0.6734 -0.8509  0.2364
 2771SOL     OW19771   1.591   2.726   8.348 -0.0570 -0.2227 -0.1574
 2771SOL    HW119772   1.567   2.755   8.260 -0.8250 -1.8909 -0.4967
 2771SOL    HW219773   1.515   2.677   8.380  0.9342 -1.0638  0.9132
 2772SOL     OW19774   2.026   4.089  16.728  0.0279  0.5361 -0.6184
 2772SOL    HW119775   2.105   4.047  16.763  1.6482  2.7639 -1.6233
 2772SOL    HW219776   2.014   4.162  16.788 -0.7914  1.0390 -1.4045
 2773SOL     OW19777   2.091   4.582   2.911 -0.0180  0.2361  0.6791
 2773SOL    HW119778   2.079   4.677   2.917  0.2400  0.1939  1.7737
 2773SOL    HW219779   2.157   4.567   2.978  0.1323 -0.2113  0.4337
 2774SOL     OW19780   2.601   0.025   9.616  0.1301 -0.2063  0.0029
 2774SOL    HW119781   2.506   0.015   9.616  0.1676 -0.5284  1.2505
 2774SOL    HW219782   2.613   0.112   9.653  0.9054 -0.6802  0.8690
 2775SOL     OW19783   0.031   3.688   4.361 -0.2386  0.4208  0.6366
 2775SOL    HW119784   0.116   3.712   4.396 -0.3532 -0.1253  1.2938
 2775SOL    HW219785   0.054   3.604   4.322  0.1912  1.2173 -0.8004
 2776SOL     OW19786   1.257   2.039   3.762  0.0209 -0.2172  0.4575
 2776SOL    HW119787   1.235   2.098   3.834  1.6790 -0.2006  0.9440
 2776SOL    HW219788   1.283   2.108   3.702  1.5810  0.7263  2.2308
 2777SOL     OW19789   3.649   2.587   0.537 -0.1334 -0.1800 -0.3734
 2777SOL    HW119790   3.646   2.502   0.579  0.8402  0.0988  0.2580
 2777SOL    HW219791   3.585   2.630   0.595 -1.4801 -0.7999 -1.3913
 2778SOL     OW19792   3.343   0.508   4.049 -0.0263  0.1317 -0.0854
 2778SOL    HW119793   3.295   0.430   4.077 -0.1255  0.5282  0.8509
 2778SOL    HW219794   3.338   0.552   4.135 -0.9264 -0.9794  0.4233
 2779SOL     OW19795   1.891   2.652   2.663  0.2225 -0.1466  0.1901
 2779SOL    HW119796   1.897   2.699   2.746  1.2298  0.1152 -0.0364
 2779SOL    HW219797   1.812   2.598   2.666  1.0949 -1.3732  1.0563
 2780SOL     OW19798   2.847   1.059   2.041  0.0989 -0.2441 -0.3722
 2780SOL    HW119799   2.893   1.130   1.997 -0.0479 -0.3425 -0.6850
 2780SOL    HW219800   2.877   1.072   2.131  0.3222 -2.4173 -0.1086
 2781SOL     OW19801   3.035   3.891   7.936  0.3546  0.2531  0.1307
 2781SOL    HW119802   3.082   3.832   7.995 -1.1690 -0.4759  0.6173
 2781SOL    HW219803   3.027   3.974   7.983  1.8136  0.0355  0.7405
 2782SOL     OW19804   4.190   3.082   7.158 -0.0521 -0.5426 -0.5026
 2782SOL    HW119805   4.259   3.089   7.224 -0.7150  0.5328  0.0694
 2782SOL    HW219806   4.238   3.100   7.078  0.9417  0.8711  0.4121
 2783SOL     OW19807   1.259   1.796   2.430  0.1555 -0.6433  0.1005
 2783SOL    HW119808   1.283   1.887   2.449  1.6069 -0.7734 -1.1532
 2783SOL    HW219809   1.314   1.755   2.497 -0.4631  0.2139  1.1310
 2784SOL     OW19810   0.706   1.942   0.878  0.1700 -0.1988 -0.4493
 2784SOL    HW119811   0.619   1.955   0.842  0.3998  0.8006 -0.6591
 2784SOL    HW219812   0.694   1.939   0.972  0.4753 -0.3761 -0.4153
 2785SOL     OW19813   2.702   3.684   9.362 -0.2961 -0.2519 -0.3759
 2785SOL    HW119814   2.618   3.638   9.361  0.3268 -1.3899  0.7998
 2785SOL    HW219815   2.752   3.639   9.429  0.3236  1.4151  0.2836
 2786SOL     OW19816   2.325   0.813   1.523 -0.1618 -0.2460  0.3519
 2786SOL    HW119817   2.412   0.853   1.535  0.1408 -1.5873  2.5098
 2786SOL    HW219818   2.319   0.803   1.428  0.5986  0.2154  0.2504
 2787SOL     OW19819   0.103   3.364   5.124  0.7677  0.2387  0.3584
 2787SOL    HW119820   0.072   3.275   5.139  0.2661 -0.1171 -2.8534
 2787SOL    HW219821   0.180   3.361   5.182  0.7623 -1.2747  0.2936
 2788SOL     OW19822   2.317   3.858   8.350  0.0308  0.4252 -0.2991
 2788SOL    HW119823   2.328   3.945   8.388 -0.4238 -0.4985  1.9345
 2788SOL    HW219824   2.231   3.837   8.385 -0.9013  0.4529 -2.6127
 2789SOL     OW19825   3.860   3.330   3.075 -0.2241 -0.5240 -0.0829
 2789SOL    HW119826   3.938   3.287   3.111  0.2082 -0.5001 -0.9971
 2789SOL    HW219827   3.797   3.261   3.096  0.3062 -1.2929 -1.0559
 2790SOL     OW19828   1.952   0.646   1.471  0.1353  0.4264  0.1825
 2790SOL    HW119829   1.888   0.718   1.466 -0.7334 -0.3096  0.7233
 2790SOL    HW219830   2.007   0.664   1.394 -0.0925 -2.1327 -0.5549
 2791SOL     OW19831   1.066   2.433   7.589 -0.1270 -0.3141  0.1232
 2791SOL    HW119832   1.072   2.498   7.659  1.5652  1.1247 -1.3870
 2791SOL    HW219833   1.109   2.355   7.627 -0.0662 -0.6466 -0.6257
 2792SOL     OW19834   2.542   0.915   5.400  0.2701 -0.4926 -0.3287
 2792SOL    HW119835   2.613   0.974   5.428  0.2106 -0.2693 -0.6502
 2792SOL    HW219836   2.504   0.892   5.485  1.2075  1.1801  0.5632
 2793SOL     OW19837   4.722   0.322   0.203 -0.3145  0.4755  0.2927
 2793SOL    HW119838   4.647   0.295   0.149  0.1788 -2.4076  1.0860
 2793SOL    HW219839   4.682   0.389   0.259  0.0716  0.1123  0.9932
 2794SOL     OW19840   0.053   2.964   1.992  0.4963 -0.0334 -0.2589
 2794SOL    HW119841   0.096   2.895   1.941 -1.8106 -0.7463 -1.2360
 2794SOL    HW219842   0.056   2.936   2.084 -0.2179  0.8481  0.0325
 2795SOL     OW19843   4.459   1.639  11.377 -0.2578  0.4211 -0.1598
 2795SOL    HW119844   4.484   1.588  11.300 -3.5688  0.9798 -1.5857
 2795SOL    HW219845   4.437   1.558  11.423  2.3543 -1.1323 -1.6183
 2796SOL     OW19846   2.097   0.381  10.572 -0.0895  0.2363 -0.0661
 2796SOL    HW119847   2.178   0.341  10.539 -1.0233  0.1851 -2.2988
 2796SOL    HW219848   2.132   0.399  10.659  0.5622  3.5384 -0.9677
 2797SOL     OW19849   3.562   0.721   2.970  0.7265 -1.0773  0.0020
 2797SOL    HW119850   3.610   0.735   2.888  0.6043  2.6532  0.5762
 2797SOL    HW219851   3.607   0.642   3.000  0.6797 -1.2656 -0.4304
 2798SOL     OW19852   2.782   0.763   7.093  0.3624 -0.2052 -0.2028
 2798SOL    HW119853   2.736   0.847   7.096  0.1491 -0.3658  0.9810
 2798SOL    HW219854   2.745   0.729   7.174 -1.7803  1.4001 -0.5046
 2799SOL     OW19855   1.193   0.089  16.711 -0.2744 -0.0119  0.4222
 2799SOL    HW119856   1.134   0.162  16.694 -0.0153 -0.1207 -0.9485
 2799SOL    HW219857   1.261   0.121  16.652  0.3448  1.4146  1.9096
 2800SOL     OW19858   4.278   2.335   7.729  0.5191  0.0713 -0.3802
 2800SOL    HW119859   4.369   2.363   7.721  0.3030  0.6380 -0.8337
 2800SOL    HW219860   4.290   2.252   7.776 -1.4739  1.3837  2.4814
 2801SOL     OW19861   1.763   3.329   5.095 -0.4383  0.0668 -0.2845
 2801SOL    HW119862   1.779   3.305   5.004  2.2139  1.2768 -0.1300
 2801SOL    HW219863   1.796   3.419   5.095 -0.7441  0.1772  1.1445
 2802SOL     OW19864   2.533   4.447   9.047  0.2875 -0.3745 -0.1316
 2802SOL    HW119865   2.511   4.433   8.955 -0.5023 -0.6064  0.0893
 2802SOL    HW219866   2.461   4.506   9.069 -0.5473 -1.3344 -0.2905
 2803SOL     OW19867   0.260   1.351   2.710  0.1554 -0.3331 -0.1158
 2803SOL    HW119868   0.217   1.432   2.739  1.6542 -0.0532  1.3725
 2803SOL    HW219869   0.270   1.371   2.617  1.3745  2.1647  0.5411
 2804SOL     OW19870   3.407   1.340  14.418 -0.3900  0.4572 -0.5660
 2804SOL    HW119871   3.352   1.357  14.342  2.2802  0.9170 -2.4035
 2804SOL    HW219872   3.490   1.366  14.378  0.6358  1.0680  1.9824
 2805SOL     OW19873   2.769   4.456   6.334 -0.2103 -0.4115  0.2054
 2805SOL    HW119874   2.772   4.361   6.317  1.2187 -0.5591  1.2835
 2805SOL    HW219875   2.828   4.473   6.407  1.7543  1.6643 -1.8680
 2806SOL     OW19876   1.735   3.154   8.366 -0.3894 -0.8174  0.5870
 2806SOL    HW119877   1.751   3.062   8.388 -0.5339 -1.2208 -1.0116
 2806SOL    HW219878   1.664   3.133   8.307 -1.5658  2.4258  0.8412
 2807SOL     OW19879   4.495   1.748   4.718 -0.3671  0.4930  0.2026
 2807SOL    HW119880   4.418   1.802   4.733 -2.1192 -1.5335 -1.5021
 2807SOL    HW219881   4.502   1.757   4.623  0.5906 -1.7727  0.0386
 2808SOL     OW19882   2.669   4.368   8.519 -0.9799  0.0030  0.0504
 2808SOL    HW119883   2.764   4.363   8.504 -1.2296  3.1402 -2.5194
 2808SOL    HW219884   2.653   4.284   8.562  1.0488  0.0736  0.9390
 2809SOL     OW19885   0.316   1.247   6.675 -0.7605  0.3324  0.5212
 2809SOL    HW119886   0.312   1.165   6.725  0.6827 -1.0238 -1.5612
 2809SOL    HW219887   0.406   1.275   6.693  0.4576 -3.1846  0.0151
 2810SOL     OW19888   2.736   2.635   8.044 -0.0080 -0.3573 -0.0812
 2810SOL    HW119889   2.737   2.679   8.129  2.9045 -0.2720 -0.1582
 2810SOL    HW219890   2.676   2.563   8.062  1.4484 -0.7411  3.1378
 2811SOL     OW19891   3.794   1.672   4.147  0.1252  0.5127  0.1203
 2811SOL    HW119892   3.712   1.626   4.166  0.5209 -0.0943  0.3173
 2811SOL    HW219893   3.787   1.676   4.051 -2.1645 -0.9296  0.2297
 2812SOL     OW19894   3.203   3.286  10.100 -0.0639  0.0099 -0.9730
 2812SOL    HW119895   3.118   3.249  10.075  0.8797 -1.7937 -1.5486
 2812SOL    HW219896   3.172   3.344  10.169  2.5348 -1.5196  1.5048
 2813SOL     OW19897   1.777   1.259   7.368  0.1787 -0.2807 -0.7480
 2813SOL    HW119898   1.742   1.347   7.353 -0.9962 -0.7496 -0.7620
 2813SOL    HW219899   1.736   1.236   7.451  1.9226  0.1325  0.2382
 2814SOL     OW19900   1.423   3.074   3.058 -0.7997 -0.4725 -0.1872
 2814SOL    HW119901   1.502   3.069   3.005  0.0785 -1.9420  1.2640
 2814SOL    HW219902   1.357   3.101   2.994 -1.1334 -0.9112 -0.0296
 2815SOL     OW19903   3.560   4.206   4.687  0.2941  0.1922  0.2896
 2815SOL    HW119904   3.628   4.232   4.624  0.5664 -3.0712 -0.7565
 2815SOL    HW219905   3.564   4.276   4.753  2.5370  0.5774 -0.2484
 2816SOL     OW19906   3.330   2.624   7.703 -0.1180 -0.5746  0.3505
 2816SOL    HW119907   3.331   2.592   7.613  1.6402  1.3320 -0.2957
 2816SOL    HW219908   3.367   2.549   7.749  0.1760 -0.5214  0.1986
 2817SOL     OW19909   1.915   0.265   1.875 -0.0917 -0.0924  0.2473
 2817SOL    HW119910   1.892   0.286   1.966  0.4392 -0.8448  0.5514
 2817SOL    HW219911   1.839   0.215   1.844  0.3726 -1.2708  1.0078
 2818SOL     OW19912   2.378   0.347   6.684  0.1661  0.2759  0.3423
 2818SOL    HW119913   2.455   0.305   6.721 -0.1324 -2.7427 -2.5241
 2818SOL    HW219914   2.399   0.439   6.701 -0.9456  0.9475 -1.8893
 2819SOL     OW19915   1.008   4.719   6.290  0.9416  0.6846 -0.0099
 2819SOL    HW119916   1.060   0.004   6.210  0.3813 -2.8931 -0.7591
 2819SOL    HW219917   0.946   0.068   6.284 -0.1913 -0.3491 -0.7828
 2820SOL     OW19918   3.349   1.205   2.682  0.2208 -1.0273  0.0348
 2820SOL    HW119919   3.354   1.178   2.774 -3.1385  0.3006  0.6199
 2820SOL    HW219920   3.358   1.300   2.692 -0.2933 -0.9873  0.1231
 2821SOL     OW19921   4.693   0.699   8.744 -0.0111  0.8996  0.4354
 2821SOL    HW119922   4.651   0.643   8.679  1.8445  1.1173 -0.9732
 2821SOL    HW219923   0.058   0.660   8.741 -0.3740  0.0675  0.8048
 2822SOL     OW19924   4.434   0.633   3.049  0.0830 -0.4662 -0.5401
 2822SOL    HW119925   4.460   0.544   3.070 -3.9126 -0.9210  2.4609
 2822SOL    HW219926   4.437   0.636   2.953 -2.2208  2.9664 -0.5361
 2823SOL     OW19927   2.659   1.585   0.760  0.1226  0.0668  0.0882
 2823SOL    HW119928   2.703   1.518   0.813  1.9309  0.9113 -0.3416
 2823SOL    HW219929   2.696   1.669   0.789 -0.9826 -0.0909  1.9680
 2824SOL     OW19930   2.017   1.082  16.337 -0.0787 -0.3478  0.4405
 2824SOL    HW119931   2.092   1.109  16.285  0.1381 -3.2818 -0.7777
 2824SOL    HW219932   1.949   1.129  16.289  0.2817 -1.1818 -0.8846
 2825SOL     OW19933   2.958   3.410   4.590 -0.8489 -0.4383 -0.3214
 2825SOL    HW119934   2.899   3.336   4.578 -1.2936 -0.3787  1.4860
 2825SOL    HW219935   2.983   3.433   4.500 -2.3937 -0.5716 -0.7826
 2826SOL     OW19936   4.406   1.409   5.279 -0.7020  0.0325 -0.6477
 2826SOL    HW119937   4.374   1.496   5.254  0.1862  0.7272  0.6318
 2826SOL    HW219938   4.378   1.394   5.369 -0.4227 -1.3640 -0.7967
 2827SOL     OW19939   1.407   1.591  16.241  0.2600  1.1085  0.3154
 2827SOL    HW119940   1.449   1.532  16.178 -1.4048  1.2542 -0.9357
 2827SOL    HW219941   1.405   1.532  16.316 -0.7948 -2.3796 -2.4187
 2828SOL     OW19942   3.997   3.114   3.993 -0.3898  0.0789  0.0576
 2828SOL    HW119943   3.956   3.176   4.054 -0.4205  1.5266 -1.4235
 2828SOL    HW219944   3.950   3.039   4.029 -0.3297  0.0987  0.1757
 2829SOL     OW19945   3.761   2.095   7.184 -0.3634  0.2121  0.8251
 2829SOL    HW119946   3.837   2.153   7.175  0.1607 -0.7897 -1.0280
 2829SOL    HW219947   3.732   2.095   7.093  1.6969  2.7573  0.1585
 2830SOL     OW19948   2.716   1.672  10.508 -0.0625 -0.7319  0.0111
 2830SOL    HW119949   2.782   1.734  10.477 -1.3156  0.7557  0.3266
 2830SOL    HW219950   2.653   1.732  10.547 -1.2542  0.1733 -3.3501
 2831SOL     OW19951   1.385   3.345   5.775  0.3730  0.5426 -0.0957
 2831SOL    HW119952   1.463   3.290   5.783 -1.5165 -2.0340  0.8840
 2831SOL    HW219953   1.331   3.305   5.844  0.5770 -1.3490 -1.0306
 2832SOL     OW19954   3.266   2.496   4.935  0.2330 -0.0701  0.0223
 2832SOL    HW119955   3.346   2.538   4.904  0.9747 -0.4663  1.4107
 2832SOL    HW219956   3.221   2.494   4.851  2.2276  2.7721 -1.1133
 2833SOL     OW19957   1.297   1.316  11.607  0.0815 -0.2179 -0.0231
 2833SOL    HW119958   1.361   1.372  11.562  0.2650 -0.1001  0.3845
 2833SOL    HW219959   1.231   1.381  11.631  0.4001  1.0700 -2.6797
 2834SOL     OW19960   0.423   3.308  13.402  0.1430  0.1285  0.1463
 2834SOL    HW119961   0.412   3.311  13.497 -0.2342  1.5275  0.0612
 2834SOL    HW219962   0.333   3.280  13.383 -0.2054  2.0763 -1.0891
 2835SOL     OW19963   4.077   3.204   1.549  0.4744 -0.3139  0.4409
 2835SOL    HW119964   3.999   3.173   1.504 -0.5001  1.2528  1.0387
 2835SOL    HW219965   4.145   3.141   1.526  0.7666 -0.7422  2.4914
 2836SOL     OW19966   1.270   1.662   4.963  0.5145 -0.7649  0.7281
 2836SOL    HW119967   1.264   1.647   5.058 -0.5691 -0.3630  0.7174
 2836SOL    HW219968   1.361   1.690   4.950 -0.1390  0.9266 -0.0894
 2837SOL     OW19969   3.847   4.121   7.697  0.3638 -0.6673  0.0009
 2837SOL    HW119970   3.755   4.118   7.726  0.3849 -0.2635  0.1094
 2837SOL    HW219971   3.854   4.208   7.659 -1.2933  0.3517  1.9720
 2838SOL     OW19972   4.219   1.728   9.161 -0.0738  0.2291 -0.7318
 2838SOL    HW119973   4.159   1.695   9.094 -2.3019  0.6258  1.0752
 2838SOL    HW219974   4.155   1.761   9.223  0.1969 -1.4970  0.4736
 2839SOL     OW19975   3.270   1.202   2.938  0.2013  0.1922  0.7643
 2839SOL    HW119976   3.272   1.136   3.007 -1.3385 -0.4469  0.1941
 2839SOL    HW219977   3.306   1.281   2.977 -0.1163  0.9566 -0.4919
 2840SOL     OW19978   0.931   2.437   7.365 -0.0304  0.3251 -0.5804
 2840SOL    HW119979   0.979   2.421   7.447  0.6795 -0.0210 -1.0574
 2840SOL    HW219980   0.846   2.469   7.395  1.2038  2.3121  0.8495
 2841SOL     OW19981   0.096   1.748   9.497  0.3799  0.3398  0.3335
 2841SOL    HW119982   0.171   1.739   9.556  0.4036  0.4503  0.3203
 2841SOL    HW219983   0.146   1.808   9.441 -2.3360  0.2711 -2.1280
 2842SOL     OW19984   3.599   3.914  15.603 -0.3645 -0.2758  0.2134
 2842SOL    HW119985   3.579   3.983  15.539  0.1716 -1.0381 -0.7691
 2842SOL    HW219986   3.593   3.839  15.545 -0.5706  0.7393 -1.0951
 2843SOL     OW19987   0.920   0.870   6.794 -0.0988  0.4915 -0.8210
 2843SOL    HW119988   0.957   0.918   6.720 -3.2683  1.6780 -1.6104
 2843SOL    HW219989   0.906   0.782   6.760  1.3589 -0.0974  0.1235
 2844SOL     OW19990   1.919   4.547   2.442  0.3780  0.2697 -0.0193
 2844SOL    HW119991   1.857   4.565   2.512 -0.7666 -1.8007 -0.4839
 2844SOL    HW219992   2.001   4.557   2.491  1.7976 -1.3504 -2.0451
 2845SOL     OW19993   2.959   2.514  10.655  0.0198 -0.2476  0.6344
 2845SOL    HW119994   3.019   2.509  10.729 -0.5287 -0.0740  1.0937
 2845SOL    HW219995   2.876   2.539  10.696 -0.2177 -0.8800  0.5521
 2846SOL     OW19996   2.518   3.755   5.204  0.4480  0.3242 -0.0428
 2846SOL    HW119997   2.442   3.700   5.222  2.0596 -1.0772  2.5100
 2846SOL    HW219998   2.488   3.828   5.150 -2.3760 -0.6438  0.2660
 2847SOL     OW19999   1.551   2.682   5.768  0.3439 -0.2706  0.1689
 2847SOL    HW120000   1.617   2.745   5.798 -0.1551  0.0849  0.5118
 2847SOL    HW220001   1.504   2.735   5.703  1.3486 -1.9205 -1.9233
 2848SOL     OW20002   4.431   2.414  15.501 -0.1693  0.7670  0.0341
 2848SOL    HW120003   4.486   2.400  15.578  1.1288 -1.1124 -1.2057
 2848SOL    HW220004   4.493   2.460  15.444  1.2669 -1.0699  0.1014
 2849SOL     OW20005   0.832   2.588   1.643 -0.5982 -0.0984  0.4412
 2849SOL    HW120006   0.896   2.599   1.573 -1.9233  0.5156 -0.6853
 2849SOL    HW220007   0.763   2.646   1.609  0.9065 -0.4078 -3.1414
 2850SOL     OW20008   3.161   1.737   5.655  0.1126  0.3948  0.0681
 2850SOL    HW120009   3.238   1.771   5.701  0.5292 -0.6641  0.1675
 2850SOL    HW220010   3.190   1.667   5.596 -0.5426 -1.1299  1.5674
 2851SOL     OW20011   0.570   3.242   2.863  0.4102  0.6295 -0.1519
 2851SOL    HW120012   0.643   3.199   2.906  0.0489 -2.1193 -2.2692
 2851SOL    HW220013   0.538   3.183   2.795 -1.8752 -0.0818  1.5148
 2852SOL     OW20014   3.872   1.314   5.465  0.0115 -0.4009  0.5332
 2852SOL    HW120015   3.892   1.265   5.545  1.9599 -0.8360 -0.2116
 2852SOL    HW220016   3.930   1.268   5.404 -0.5451 -1.9100  1.1362
 2853SOL     OW20017   0.080   3.907   1.858 -0.2789  0.3204 -0.7523
 2853SOL    HW120018   0.136   3.930   1.933 -1.4794 -0.6215  0.4379
 2853SOL    HW220019   0.012   3.974   1.860 -1.5867 -1.1225  2.5553
 2854SOL     OW20020   2.949   1.078  16.757  0.2713  0.2619 -0.4309
 2854SOL    HW120021   2.974   0.994  16.719  1.4455  0.1395  0.5908
 2854SOL    HW220022   2.983   1.063  16.845  0.6698 -0.2470 -0.6699
 2855SOL     OW20023   4.362   2.024   4.578 -0.7214 -0.2852 -0.4566
 2855SOL    HW120024   4.311   1.993   4.652  0.8660  0.2731  0.8778
 2855SOL    HW220025   4.354   2.118   4.590  2.9734 -0.0075  0.0881
 2856SOL     OW20026   3.129   4.570   4.963 -0.0298 -0.5265  0.6274
 2856SOL    HW120027   3.065   4.530   5.021 -2.0340  3.8692  1.4878
 2856SOL    HW220028   3.153   4.492   4.913  0.4482  0.4377 -0.6603
 2857SOL     OW20029   4.032   1.741   0.609 -0.4990 -0.2391  0.6825
 2857SOL    HW120030   4.071   1.663   0.649 -1.1905 -0.9161  0.0378
 2857SOL    HW220031   4.007   1.715   0.520 -0.1934  0.2891  0.4443
 2858SOL     OW20032   1.976   2.192   7.205  0.2285 -0.0205 -0.1651
 2858SOL    HW120033   1.946   2.193   7.296 -0.7273 -1.6608 -0.4600
 2858SOL    HW220034   2.051   2.134   7.217 -0.3768 -0.6110  0.8232
 2859SOL     OW20035   2.052   4.430  13.594  0.0711  0.2412 -0.3127
 2859SOL    HW120036   2.039   4.521  13.618  1.7887  0.1803  0.8430
 2859SOL    HW220037   1.980   4.419  13.532  0.4534 -0.3472 -0.6526
 2860SOL     OW20038   1.208   3.506   8.272 -0.4805 -0.0360  0.6223
 2860SOL    HW120039   1.138   3.565   8.301  0.0119  1.7056 -1.7556
 2860SOL    HW220040   1.259   3.487   8.351 -1.1714  1.8996  1.5418
 2861SOL     OW20041   4.572   0.914   8.623 -0.0254 -0.2424  0.6279
 2861SOL    HW120042   4.599   0.967   8.698 -0.6434  1.1110 -0.1105
 2861SOL    HW220043   4.597   0.831   8.663 -0.5181 -0.7309 -0.1008
 2862SOL     OW20044   1.344   4.345   5.018  0.3593  0.0032 -0.2441
 2862SOL    HW120045   1.381   4.277   4.962 -1.4172  0.6138 -2.1339
 2862SOL    HW220046   1.399   4.421   5.001 -2.2507  1.2990 -2.7512
 2863SOL     OW20047   1.761   1.270   8.691  0.2351  0.1280  0.4415
 2863SOL    HW120048   1.794   1.312   8.611 -2.7693  0.3558 -0.6832
 2863SOL    HW220049   1.670   1.300   8.698  0.0482 -0.3170 -0.0249
 2864SOL     OW20050   1.372   0.960   4.648  0.3815 -0.1995  0.0490
 2864SOL    HW120051   1.314   0.885   4.658  2.2195 -1.6068  0.1419
 2864SOL    HW220052   1.368   0.996   4.737  0.4792 -1.4545  0.5678
 2865SOL     OW20053   3.724   2.899  15.064 -0.0755 -0.0691 -0.4867
 2865SOL    HW120054   3.739   2.879  15.156  0.3397  0.2171 -0.4913
 2865SOL    HW220055   3.714   2.815  15.020  0.9424 -0.3437 -0.2051
 2866SOL     OW20056   4.545   3.170   6.035  0.5903 -0.2511 -0.4779
 2866SOL    HW120057   4.540   3.265   6.043 -2.0779 -0.4602  0.3028
 2866SOL    HW220058   4.521   3.142   6.123  1.7133  2.2267  0.5872
 2867SOL     OW20059   3.667   3.157   1.560 -0.2338  0.0539 -0.3175
 2867SOL    HW120060   3.572   3.163   1.561 -0.1834  0.8579 -0.7726
 2867SOL    HW220061   3.679   3.251   1.545  2.7345 -0.3224 -0.2433
 2868SOL     OW20062   1.485   4.436   3.146 -0.2045  0.1433 -0.1833
 2868SOL    HW120063   1.415   4.444   3.210 -0.7980  0.1844 -0.8327
 2868SOL    HW220064   1.503   4.341   3.147 -1.3062 -0.0483  0.8235
 2869SOL     OW20065   1.769   2.728   6.482  0.1623  0.0814 -0.1141
 2869SOL    HW120066   1.770   2.824   6.481 -1.1771  0.1612  4.4774
 2869SOL    HW220067   1.823   2.717   6.560 -1.0666 -2.9171  0.2917
 2870SOL     OW20068   1.592   4.408   1.816 -0.1061 -0.1471 -0.1561
 2870SOL    HW120069   1.519   4.353   1.786 -1.0108  0.1006  1.6003
 2870SOL    HW220070   1.640   4.400   1.734 -1.7500 -1.3446 -1.0223
 2871SOL     OW20071   2.848   1.787   4.459 -0.1898  0.0381 -0.0496
 2871SOL    HW120072   2.868   1.732   4.535  2.1696 -0.5323 -1.0884
 2871SOL    HW220073   2.943   1.797   4.454 -0.1412  0.0074  0.7981
 2872SOL     OW20074   4.035   3.345   8.458 -0.3218  0.2805 -0.3788
 2872SOL    HW120075   3.940   3.336   8.473  0.2140 -0.2638  2.5719
 2872SOL    HW220076   4.068   3.263   8.496 -1.1735  0.0928 -0.0395
 2873SOL     OW20077   0.060   1.154   4.334  0.3295 -0.0073 -0.1389
 2873SOL    HW120078   4.694   1.116   4.331  1.1076 -1.6449 -3.3516
 2873SOL    HW220079   0.079   1.166   4.427  2.3582  0.2008 -0.5921
 2874SOL     OW20080   4.221   2.870   4.613  0.3786 -0.7075 -0.1690
 2874SOL    HW120081   4.152   2.915   4.563 -0.1990 -0.1825  1.0895
 2874SOL    HW220082   4.178   2.857   4.698  2.6126 -2.1439  0.7410
 2875SOL     OW20083   4.282   0.804   7.988 -0.2884  0.7634  0.6561
 2875SOL    HW120084   4.341   0.733   7.965 -1.4163  0.5068 -1.4669
 2875SOL    HW220085   4.329   0.847   8.060  0.1431  0.7814  0.3636
 2876SOL     OW20086   3.913   3.903  16.536  0.3223 -0.1239  0.4745
 2876SOL    HW120087   3.925   3.852  16.456 -1.6000  1.6871 -0.9653
 2876SOL    HW220088   3.994   3.871  16.575 -0.5831  0.0109  2.4811
 2877SOL     OW20089   1.134   3.737   5.679  0.4962  0.1945 -0.5260
 2877SOL    HW120090   1.047   3.698   5.668  0.9236 -0.3133 -2.1327
 2877SOL    HW220091   1.128   3.737   5.775 -1.2830 -0.9975 -0.6397
 2878SOL     OW20092   4.566   2.670   1.150 -0.2915  0.3515 -0.4380
 2878SOL    HW120093   4.590   2.578   1.150 -0.1000  0.4043 -1.4271
 2878SOL    HW220094   4.645   2.716   1.179 -0.9288  2.0001 -1.3013
 2879SOL     OW20095   1.534   3.616   5.026 -0.2254  0.5382 -0.0788
 2879SOL    HW120096   1.507   3.525   5.036  3.3285 -0.3381  1.3809
 2879SOL    HW220097   1.576   3.644   5.107  2.5312 -0.0063 -1.3166
 2880SOL     OW20098   3.246   4.148  16.614  0.2437  0.4963 -0.0523
 2880SOL    HW120099   3.171   4.091  16.632  1.0508 -0.9871 -1.3025
 2880SOL    HW220100   3.306   4.080  16.583  1.0608  1.8030 -1.3393
 2881SOL     OW20101   2.608   4.010   3.194  0.6503  0.3029 -0.8949
 2881SOL    HW120102   2.517   3.996   3.220  0.7340 -0.0277 -0.7807
 2881SOL    HW220103   2.662   3.973   3.264  0.6331  1.3741 -0.3079
 2882SOL     OW20104   1.442   1.869   7.447 -0.4576 -0.3649 -0.2926
 2882SOL    HW120105   1.363   1.863   7.500  0.0467  2.4337  0.8096
 2882SOL    HW220106   1.501   1.890   7.519  0.0236 -0.7389 -0.5749
 2883SOL     OW20107   3.115   2.324   3.719 -0.5705  0.0305 -0.3402
 2883SOL    HW120108   3.121   2.250   3.658  0.4255 -0.7301  0.6783
 2883SOL    HW220109   3.121   2.399   3.660 -0.9745 -0.0555 -0.4907
 2884SOL     OW20110   2.798   2.037   7.506  0.1158  0.0187 -0.5522
 2884SOL    HW120111   2.744   2.092   7.562  1.4167  0.6704  0.0572
 2884SOL    HW220112   2.877   2.091   7.495 -0.5183  0.7620 -1.4585
 2885SOL     OW20113   2.669   2.273   7.579  0.0085  0.2063  0.0863
 2885SOL    HW120114   2.603   2.262   7.510 -2.0349  0.5582  1.9491
 2885SOL    HW220115   2.617   2.323   7.643 -0.3214  2.4743 -1.9164
 2886SOL     OW20116   2.782   2.249   3.649  0.3484 -0.2387  0.5337
 2886SOL    HW120117   2.838   2.245   3.572  0.2958  1.4679  0.3927
 2886SOL    HW220118   2.700   2.285   3.615  0.2462 -0.5924  0.4092
 2887SOL     OW20119   1.390   0.002   1.327 -0.2929  0.1706 -0.5935
 2887SOL    HW120120   1.408   0.096   1.321  0.6127  0.0708  0.4991
 2887SOL    HW220121   1.343   4.705   1.246  1.7503 -0.8248 -1.5448
 2888SOL     OW20122   2.674   2.293  10.345 -0.3134  0.0406 -0.7160
 2888SOL    HW120123   2.767   2.314  10.356 -0.1355 -0.1468 -1.9346
 2888SOL    HW220124   2.642   2.359  10.285 -1.1075  0.4309  0.1315
 2889SOL     OW20125   4.404   4.205   3.721  0.6311 -0.3342 -0.0419
 2889SOL    HW120126   4.343   4.278   3.710  1.1373  0.2395  0.9674
 2889SOL    HW220127   4.415   4.166   3.635  1.0134  1.9152 -1.0029
 2890SOL     OW20128   3.651   2.603   5.151  0.4892 -0.3955 -0.4536
 2890SOL    HW120129   3.740   2.571   5.164  0.3337 -0.7376 -0.2418
 2890SOL    HW220130   3.610   2.584   5.236  2.1152  1.3781  0.7154
 2891SOL     OW20131   0.843   1.544   2.394 -0.0198 -0.2448 -0.3287
 2891SOL    HW120132   0.924   1.515   2.436  0.0451 -2.0321 -1.7032
 2891SOL    HW220133   0.872   1.568   2.306 -0.2673  0.1649 -0.2996
 2892SOL     OW20134   0.759   2.848   7.712  0.1171 -0.5850  0.0967
 2892SOL    HW120135   0.696   2.856   7.640 -2.2939  1.8953  2.4680
 2892SOL    HW220136   0.726   2.915   7.772  1.1504  0.8970 -1.0149
 2893SOL     OW20137   1.480   2.182   7.463 -0.7803 -0.5171  0.4017
 2893SOL    HW120138   1.523   2.121   7.524  0.9698  0.6235  0.3331
 2893SOL    HW220139   1.387   2.162   7.475 -0.4891 -1.8037  0.5285
 2894SOL     OW20140   2.388   3.412  11.817 -0.3315 -0.3138 -0.4334
 2894SOL    HW120141   2.379   3.365  11.900 -3.1547  0.3349 -0.3792
 2894SOL    HW220142   2.467   3.375  11.776  1.6330  0.1747  2.8903
 2895SOL     OW20143   0.403   2.159   7.460 -0.0362 -0.0249  0.5089
 2895SOL    HW120144   0.345   2.156   7.536 -0.2826  0.0013  0.3199
 2895SOL    HW220145   0.464   2.086   7.473 -0.9690 -1.1962 -1.5649
 2896SOL     OW20146   1.266   3.084  11.276 -0.0728 -0.2426  0.2575
 2896SOL    HW120147   1.247   3.119  11.364 -0.2884  0.7381 -0.1806
 2896SOL    HW220148   1.362   3.089  11.276 -0.0731 -0.3301 -2.7266
 2897SOL     OW20149   4.569   2.801   2.154  0.0515 -0.0044  0.2204
 2897SOL    HW120150   4.496   2.826   2.098 -0.0156  0.8777  0.7111
 2897SOL    HW220151   4.631   2.762   2.092  1.5824 -0.1058  1.8137
 2898SOL     OW20152   4.373   1.667   4.952 -0.1512  0.3440 -0.5266
 2898SOL    HW120153   4.347   1.625   4.870  0.8877  1.5713 -1.4722
 2898SOL    HW220154   4.457   1.699   4.920 -0.5250  1.8771  0.0513
 2899SOL     OW20155   2.433   3.036   4.876  0.1438  0.5320 -0.0388
 2899SOL    HW120156   2.410   3.108   4.818  1.5881 -0.6654 -2.1014
 2899SOL    HW220157   2.523   3.061   4.898  0.1646  0.2630  0.1835
 2900SOL     OW20158   1.780   2.336   4.238 -0.0658 -0.2375 -0.2318
 2900SOL    HW120159   1.859   2.289   4.210 -0.4402 -1.3355  0.5237
 2900SOL    HW220160   1.755   2.376   4.156 -0.2833 -1.3705 -0.7212
 2901SOL     OW20161   3.992   3.185  15.440  0.4927  0.4085 -0.0552
 2901SOL    HW120162   3.964   3.250  15.505  2.4519  0.1553  1.0514
 2901SOL    HW220163   3.916   3.189  15.381  0.7092  0.8217 -0.3098
 2902SOL     OW20164   1.886   0.676   5.363 -0.6096 -0.3668  0.3027
 2902SOL    HW120165   1.931   0.719   5.290  1.2715  1.2880  2.4412
 2902SOL    HW220166   1.920   0.587   5.371 -2.4317 -1.0954 -0.0816
 2903SOL     OW20167   4.282   0.070   3.389 -0.0064  0.5838 -0.0171
 2903SOL    HW120168   4.236   0.118   3.458  0.2988  0.0485  0.5539
 2903SOL    HW220169   4.374   0.065   3.412 -0.1501 -1.4056  0.1488
 2904SOL     OW20170   3.090   3.075   2.009  0.0920 -0.0118  0.2415
 2904SOL    HW120171   3.084   3.016   2.085 -1.2998  2.0664  1.7552
 2904SOL    HW220172   3.038   3.019   1.951 -0.5717  1.6368 -0.7415
 2905SOL     OW20173   2.722   4.600   4.598 -0.1386  0.2654 -0.2239
 2905SOL    HW120174   2.647   4.631   4.547 -1.3324 -0.9171  0.8009
 2905SOL    HW220175   2.785   4.569   4.534 -0.1242 -0.0845 -0.0404
 2906SOL     OW20176   2.595   3.987   4.654  0.2927  0.1994  0.9172
 2906SOL    HW120177   2.680   3.959   4.688  0.2918 -0.8870  0.0413
 2906SOL    HW220178   2.607   3.971   4.561  1.4493  2.2641  0.7157
 2907SOL     OW20179   4.325   2.292   2.687  0.6476 -0.1460 -0.4325
 2907SOL    HW120180   4.320   2.291   2.591 -2.0427  0.6550 -0.2969
 2907SOL    HW220181   4.389   2.222   2.705  1.7024  1.3176  1.4796
 2908SOL     OW20182   1.614   2.830   2.219 -0.2798  0.6787  0.1131
 2908SOL    HW120183   1.651   2.902   2.168  0.5763 -0.8329 -1.3867
 2908SOL    HW220184   1.542   2.873   2.266  0.1441  1.5047  0.0055
 2909SOL     OW20185   3.983   0.190   1.810  0.6673 -0.5697 -0.5194
 2909SOL    HW120186   3.999   0.231   1.724 -0.5385 -0.9722 -0.9457
 2909SOL    HW220187   4.069   0.177   1.849  1.2058  0.9431 -1.1822
 2910SOL     OW20188   0.450   3.830   6.359  0.0716 -0.1506  0.7039
 2910SOL    HW120189   0.401   3.751   6.335  0.9687 -0.9839  1.6219
 2910SOL    HW220190   0.450   3.887   6.282 -0.8707  0.0520  0.8602
 2911SOL     OW20191   3.172   2.615   6.187  0.4427  0.2956 -0.1526
 2911SOL    HW120192   3.117   2.646   6.116  1.2022 -0.3893 -1.0347
 2911SOL    HW220193   3.231   2.559   6.136 -0.1290 -0.1700 -0.3054
 2912SOL     OW20194   2.844   0.637  11.030 -0.1391  0.1370 -0.3981
 2912SOL    HW120195   2.847   0.632  10.934  0.2824  1.6105 -0.4657
 2912SOL    HW220196   2.921   0.586  11.054 -1.2372 -0.4600  1.8151
 2913SOL     OW20197   1.762   0.274   2.453  0.3087  0.4189 -0.3893
 2913SOL    HW120198   1.825   0.310   2.390  0.9841  0.2987  0.2095
 2913SOL    HW220199   1.686   0.261   2.397 -0.1578 -0.6541  0.4888
 2914SOL     OW20200   1.304   0.175   7.915  0.3287 -0.0123 -0.5004
 2914SOL    HW120201   1.324   0.120   7.839 -1.0179  2.5279 -2.7144
 2914SOL    HW220202   1.285   0.252   7.861  0.4866 -0.3647 -1.0649
 2915SOL     OW20203   1.481   1.362   8.666 -0.5074 -0.1887  0.8102
 2915SOL    HW120204   1.458   1.290   8.607 -2.2002 -1.4539  3.0152
 2915SOL    HW220205   1.394   1.364   8.708 -0.4290  0.8898  0.9400
 2916SOL     OW20206   3.646   3.490   0.557 -0.0438  0.2528 -0.1997
 2916SOL    HW120207   3.628   3.582   0.579  1.0570  0.6416 -0.9557
 2916SOL    HW220208   3.558   3.480   0.520  0.3363  1.0079 -1.2999
 2917SOL     OW20209   3.260   4.504   8.039  0.2891 -0.1712  0.2795
 2917SOL    HW120210   3.288   4.543   7.957 -3.5730 -1.5016 -1.7030
 2917SOL    HW220211   3.220   4.579   8.083  0.1805  1.1928 -2.1430
 2918SOL     OW20212   1.601   0.648   1.295  0.3274  0.3073 -0.0832
 2918SOL    HW120213   1.561   0.632   1.210 -1.2251  1.9833  0.3195
 2918SOL    HW220214   1.689   0.677   1.274 -0.1138  1.5399 -0.2349
 2919SOL     OW20215   2.930   1.818   8.527  0.1194  0.6382  0.0112
 2919SOL    HW120216   2.965   1.880   8.463 -1.4466  0.1528 -1.3126
 2919SOL    HW220217   2.863   1.877   8.561 -1.3497 -1.1516  0.1910
 2920SOL     OW20218   1.843   2.174   7.453  0.1038  0.3149  0.2160
 2920SOL    HW120219   1.887   2.186   7.537  3.0087 -2.4429 -0.9510
 2920SOL    HW220220   1.774   2.240   7.461  0.6074  1.1426 -2.1005
 2921SOL     OW20221   0.918   0.495   6.439 -0.3006 -0.6766  0.4060
 2921SOL    HW120222   0.994   0.496   6.381 -0.2986  1.3939  0.4201
 2921SOL    HW220223   0.876   0.411   6.425 -1.8875  0.1316  0.3253
 2922SOL     OW20224   3.821   4.645  15.014  0.3146 -0.0521 -0.2966
 2922SOL    HW120225   3.790   4.555  15.029 -0.6745 -0.0623 -2.2892
 2922SOL    HW220226   3.794   4.679  15.099 -1.9982 -0.7567 -0.7298
 2923SOL     OW20227   0.435   1.128  10.326  0.2731 -0.3532  0.0057
 2923SOL    HW120228   0.433   1.189  10.400 -0.2342 -0.1007 -0.2121
 2923SOL    HW220229   0.515   1.150  10.278 -0.9733  1.9808 -1.0353
 2924SOL     OW20230   4.484   0.281   3.745 -1.1075 -0.2513 -0.3079
 2924SOL    HW120231   4.411   0.315   3.693  1.1452  0.3338 -3.0991
 2924SOL    HW220232   4.546   0.354   3.745  0.7440 -1.8409 -0.9860
 2925SOL     OW20233   2.876   1.045   5.570  0.2162  0.1805 -0.3205
 2925SOL    HW120234   2.866   1.040   5.665  0.1920 -0.4912 -0.3576
 2925SOL    HW220235   2.900   1.138   5.563 -0.9787  0.5340  0.3068
 2926SOL     OW20236   4.655   2.932   2.772 -0.4028 -0.1263  0.2249
 2926SOL    HW120237   4.630   2.848   2.734  0.6854  0.2420 -1.2919
 2926SOL    HW220238   4.627   2.920   2.863  3.7708  1.5577  1.7314
 2927SOL     OW20239   3.942   0.791   2.913 -0.4986 -0.0355  0.1567
 2927SOL    HW120240   4.000   0.794   2.989  0.7334 -0.8031 -0.7551
 2927SOL    HW220241   4.007   0.753   2.854  1.8462  0.0795  2.6381
 2928SOL     OW20242   2.858   2.132  10.690 -0.3987 -0.1588  0.4592
 2928SOL    HW120243   2.943   2.145  10.647 -0.1915 -0.3247  0.8188
 2928SOL    HW220244   2.872   2.056  10.746  1.6234  0.4392  0.7874
 2929SOL     OW20245   2.257   3.954   1.301  0.1522 -0.0217  0.3274
 2929SOL    HW120246   2.323   3.983   1.364  0.3493 -0.1591  0.1867
 2929SOL    HW220247   2.283   3.862   1.293 -1.9345 -0.1896 -4.6164
 2930SOL     OW20248   1.788   3.994   4.059 -0.1501 -0.0218 -0.2605
 2930SOL    HW120249   1.801   3.900   4.046 -1.5153 -0.2442 -0.0399
 2930SOL    HW220250   1.742   3.996   4.143 -0.6849  1.2501 -0.5902
 2931SOL     OW20251   2.469   1.852  14.712 -0.1607  0.2569  0.4757
 2931SOL    HW120252   2.515   1.934  14.692  1.4593 -1.2323 -1.8715
 2931SOL    HW220253   2.474   1.799  14.633 -2.3782 -1.1283  1.2629
 2932SOL     OW20254   2.892   2.753   6.273 -0.3445  0.2204  0.3314
 2932SOL    HW120255   2.934   2.677   6.231  2.4489  2.0960 -0.2661
 2932SOL    HW220256   2.938   2.750   6.356 -0.9317  1.6750  0.6982
 2933SOL     OW20257   1.399   0.808   2.199  0.2914 -0.1927 -0.3853
 2933SOL    HW120258   1.369   0.872   2.263 -0.0290  1.7757 -2.5330
 2933SOL    HW220259   1.391   0.850   2.113 -0.8840 -1.3456 -0.8359
 2934SOL     OW20260   2.425   3.419   7.844  0.2910  0.3972  0.5046
 2934SOL    HW120261   2.407   3.467   7.924 -1.4935  1.1442 -0.3508
 2934SOL    HW220262   2.472   3.345   7.881  0.7525  0.5403  0.2066
 2935SOL     OW20263   4.530   2.315   7.127 -0.0535 -0.5304  0.3365
 2935SOL    HW120264   4.588   2.271   7.065  4.1727  1.0292  3.1736
 2935SOL    HW220265   4.522   2.252   7.199 -2.8608 -1.3076 -0.6422
 2936SOL     OW20266   2.710   0.376   8.721 -0.2391  0.1714 -0.0172
 2936SOL    HW120267   2.702   0.433   8.798  0.4105  2.7324 -1.8380
 2936SOL    HW220268   2.666   0.429   8.655 -1.6824  0.7562  1.4107
 2937SOL     OW20269   2.220   3.398   7.107 -0.1855  0.1765  0.1419
 2937SOL    HW120270   2.194   3.370   7.194 -2.3138  2.6790  0.2895
 2937SOL    HW220271   2.136   3.430   7.074  0.2710  1.0168 -0.2162
 2938SOL     OW20272   2.188   0.647   3.078 -0.5502 -0.4938 -0.8912
 2938SOL    HW120273   2.251   0.607   3.138 -0.1529  2.5527  0.7297
 2938SOL    HW220274   2.109   0.640   3.132  0.7831 -0.6081  1.0574
 2939SOL     OW20275   3.048   3.864   6.195 -0.5956  0.2220  0.1405
 2939SOL    HW120276   2.972   3.840   6.248  1.3945 -1.4313  2.2186
 2939SOL    HW220277   3.026   3.811   6.118 -1.9096 -0.3799  0.9407
 2940SOL     OW20278   1.267   1.276   6.693  0.0434  0.4600  0.0390
 2940SOL    HW120279   1.211   1.257   6.768 -0.4912  3.1666  0.3337
 2940SOL    HW220280   1.325   1.201   6.700  0.1674  0.4183 -1.5679
 2941SOL     OW20281   3.743   0.855   6.124 -0.2739 -0.1445 -0.0737
 2941SOL    HW120282   3.713   0.943   6.102  0.9525  0.1559 -0.5414
 2941SOL    HW220283   3.726   0.857   6.218 -1.6225  1.2657 -0.3453
 2942SOL     OW20284   1.610   4.039   4.280  0.1030  0.1950  0.0442
 2942SOL    HW120285   1.600   3.991   4.362 -0.8736 -1.0974 -0.8296
 2942SOL    HW220286   1.517   4.049   4.258  0.4916  1.4418 -1.0438
 2943SOL     OW20287   4.056   0.444   7.181  0.0676 -0.4654  0.4070
 2943SOL    HW120288   4.138   0.394   7.179  0.8163  0.7778 -1.2823
 2943SOL    HW220289   4.007   0.418   7.103  2.8935 -2.8741 -0.5803
 2944SOL     OW20290   1.697   1.132   5.285 -0.3533  0.4232  0.6135
 2944SOL    HW120291   1.739   1.129   5.199  1.6418  1.6255  1.5547
 2944SOL    HW220292   1.772   1.168   5.332  0.9918  0.5031 -1.6015
 2945SOL     OW20293   0.400   0.568  13.415  0.0441  0.1966 -0.6054
 2945SOL    HW120294   0.480   0.582  13.465 -1.1921  0.3757  1.3523
 2945SOL    HW220295   0.341   0.619  13.471  0.6085  1.7122 -1.3996
 2946SOL     OW20296   3.533   2.254  15.895  0.4512 -0.8110 -0.3367
 2946SOL    HW120297   3.523   2.286  15.806 -0.6998 -1.9122 -0.6058
 2946SOL    HW220298   3.484   2.172  15.889 -0.3395 -0.4694  1.2335
 2947SOL     OW20299   4.259   3.644   3.879 -0.2400  0.3383  0.0247
 2947SOL    HW120300   4.295   3.685   3.800 -0.6416  2.4760  0.9454
 2947SOL    HW220301   4.176   3.686   3.899 -1.3997 -1.3290 -1.3184
 2948SOL     OW20302   4.596   0.964  15.457 -0.1968  0.6731  0.6713
 2948SOL    HW120303   4.602   0.910  15.379 -1.2837 -0.4931  1.3901
 2948SOL    HW220304   4.672   0.931  15.506  1.0461  0.9579 -1.0439
 2949SOL     OW20305   0.839   2.142  16.046  0.1577 -0.2056  0.2205
 2949SOL    HW120306   0.779   2.067  16.045 -1.0951  0.8094  0.2474
 2949SOL    HW220307   0.800   2.200  15.981 -0.5222 -0.3797  0.4724
 2950SOL     OW20308   3.307   3.914   3.087 -0.2706  0.1014  0.2879
 2950SOL    HW120309   3.338   3.866   3.010 -1.3788  1.3927 -0.9729
 2950SOL    HW220310   3.286   4.001   3.053  0.6143  0.6540  1.1595
 2951SOL     OW20311   0.328   0.781   8.471 -0.0944 -0.3815  0.0119
 2951SOL    HW120312   0.250   0.803   8.420  0.6850  1.8563 -0.2083
 2951SOL    HW220313   0.363   0.714   8.412 -1.4071  1.8222 -3.2493
 2952SOL     OW20314   3.555   2.439   7.215 -0.2159  0.5078 -0.5201
 2952SOL    HW120315   3.534   2.462   7.306 -1.8603  0.7840 -0.9698
 2952SOL    HW220316   3.647   2.414   7.210 -0.5772 -0.6572 -1.3374
 2953SOL     OW20317   1.405   1.693   3.327  0.3332  0.5879  0.2326
 2953SOL    HW120318   1.389   1.620   3.386  1.5304 -1.0759 -1.4916
 2953SOL    HW220319   1.344   1.761   3.355  0.1170 -1.0319  3.6527
 2954SOL     OW20320   0.878   4.475   9.100  0.0491  0.0157 -0.0240
 2954SOL    HW120321   0.908   4.550   9.152  0.8940  0.3009 -0.9225
 2954SOL    HW220322   0.928   4.481   9.019 -0.5056  0.1164 -0.3589
 2955SOL     OW20323   3.735   0.321  13.862 -0.0221 -0.7251  0.3217
 2955SOL    HW120324   3.688   0.253  13.814 -0.1449 -0.8284  0.5878
 2955SOL    HW220325   3.782   0.269  13.928  2.2708 -0.1734 -0.8615
 2956SOL     OW20326   0.867   3.211   2.034 -0.4367 -0.0534  0.3541
 2956SOL    HW120327   0.962   3.219   2.031 -0.7318  3.1456  0.0435
 2956SOL    HW220328   0.838   3.200   1.944  1.0884  0.5250 -0.2084
 2957SOL     OW20329   4.540   1.581   8.321  0.2992  0.1762 -0.0939
 2957SOL    HW120330   4.605   1.526   8.365 -0.3926 -1.1512 -0.7294
 2957SOL    HW220331   4.488   1.513   8.279  1.6366 -1.0046  0.1563
 2958SOL     OW20332   2.952   1.209  15.074  0.5965  0.3741 -0.1648
 2958SOL    HW120333   3.012   1.272  15.033  0.5190  2.7503  3.3359
 2958SOL    HW220334   3.004   1.156  15.134 -0.7791 -0.5477  0.2079
 2959SOL     OW20335   4.396   3.916   4.423  0.3032 -0.0732  0.4808
 2959SOL    HW120336   4.404   3.855   4.496 -0.8956 -0.9660 -0.1418
 2959SOL    HW220337   4.464   3.978   4.451  1.2672 -0.7642 -0.3248
 2960SOL     OW20338   3.746   1.215   7.944  0.4826  0.4276  0.4292
 2960SOL    HW120339   3.805   1.161   7.891  0.4113 -0.6114  1.4315
 2960SOL    HW220340   3.702   1.154   8.003  1.8968 -1.8785 -0.9137
 2961SOL     OW20341   2.182   1.944   6.084 -0.3154  0.0495  0.0776
 2961SOL    HW120342   2.146   2.031   6.068  0.1195  0.0478 -0.9340
 2961SOL    HW220343   2.130   1.888   6.025 -0.2352 -0.6181  0.6443
 2962SOL     OW20344   3.950   1.960   7.371 -0.1091 -0.1066 -0.0950
 2962SOL    HW120345   3.875   2.007   7.334 -1.3127 -2.0892 -0.1786
 2962SOL    HW220346   3.926   1.960   7.464 -0.1446  2.8208 -0.0994
 2963SOL     OW20347   3.952   3.535   7.746 -0.1839 -0.2786 -0.1031
 2963SOL    HW120348   3.912   3.620   7.767 -0.1561 -0.3023  0.0435
 2963SOL    HW220349   3.885   3.480   7.786  0.4906  0.1171  1.5945
 2964SOL     OW20350   3.399   2.693  15.365 -0.9240 -0.3224 -0.0437
 2964SOL    HW120351   3.448   2.774  15.378 -2.3131  0.2275  1.6399
 2964SOL    HW220352   3.414   2.686  15.271 -1.5757  0.5134 -0.2093
 2965SOL     OW20353   1.023   1.833   7.184 -0.2500  0.1430  1.0149
 2965SOL    HW120354   1.118   1.836   7.177 -0.4225 -1.2368 -2.1317
 2965SOL    HW220355   0.992   1.849   7.095  1.0124 -1.4280  0.2915
 2966SOL     OW20356   0.529   1.621   4.636 -0.0809  0.2198  0.1617
 2966SOL    HW120357   0.486   1.705   4.622 -1.8605 -1.1185 -2.2220
 2966SOL    HW220358   0.513   1.615   4.730 -0.5421  1.0654  0.1264
 2967SOL     OW20359   3.793   2.197   7.507 -0.1042 -0.1490 -0.0913
 2967SOL    HW120360   3.769   2.108   7.536  1.6137 -0.3332  0.7512
 2967SOL    HW220361   3.859   2.219   7.573 -1.1117 -0.2041  0.9422
 2968SOL     OW20362   0.883   4.512   4.095  0.3600 -0.3673 -0.2947
 2968SOL    HW120363   0.837   4.582   4.143  0.1636 -0.2288 -0.6902
 2968SOL    HW220364   0.857   4.432   4.140 -1.1804  0.6200  0.5867
 2969SOL     OW20365   1.954   0.438   7.391  0.4924  0.1586  0.1869
 2969SOL    HW120366   1.920   0.368   7.446  0.8001  0.1731  0.3939
 2969SOL    HW220367   2.046   0.413   7.387  0.5927  0.9518 -2.2939
 2970SOL     OW20368   2.004   3.789   2.214 -0.0278 -0.2501 -0.3410
 2970SOL    HW120369   1.942   3.785   2.287 -0.4349 -0.8065 -0.7166
 2970SOL    HW220370   2.074   3.731   2.241 -0.1206 -0.3903 -0.4034
 2971SOL     OW20371   4.031   2.367   1.417 -0.2401 -0.3490  0.1584
 2971SOL    HW120372   4.047   2.379   1.323 -2.5263  2.6189  0.1249
 2971SOL    HW220373   4.118   2.393   1.447 -0.2385  0.1575 -0.2670
 2972SOL     OW20374   4.120   1.732   3.183  0.1099  0.2783  0.1255
 2972SOL    HW120375   4.174   1.660   3.149  0.4683  0.4601  0.3065
 2972SOL    HW220376   4.074   1.761   3.104  0.6191 -1.0499 -0.6707
 2973SOL     OW20377   1.836   0.498   6.235 -0.4540 -0.2778  0.0852
 2973SOL    HW120378   1.839   0.572   6.174 -2.1905 -0.9040 -0.7845
 2973SOL    HW220379   1.767   0.529   6.293  1.3180  3.3955  0.1884
 2974SOL     OW20380   3.922   4.388  13.364 -0.0810  0.6160  0.4366
 2974SOL    HW120381   3.916   4.351  13.276  1.1127  1.8724 -0.1799
 2974SOL    HW220382   3.991   4.454  13.361 -0.3120  0.8927  1.1725
 2975SOL     OW20383   4.434   1.489   5.685 -0.1597 -0.1443 -0.3222
 2975SOL    HW120384   4.521   1.503   5.722 -0.2522 -2.0127  0.6093
 2975SOL    HW220385   4.427   1.394   5.679 -0.9906 -0.1094 -0.0318
 2976SOL     OW20386   3.898   2.995   7.148 -0.2616  0.1118 -0.0231
 2976SOL    HW120387   3.990   2.972   7.161 -0.2685  0.7678  1.1250
 2976SOL    HW220388   3.886   2.914   7.099  0.4713 -0.5682  0.9254
 2977SOL     OW20389   2.558   4.557   6.619 -0.0186  0.1188 -0.3317
 2977SOL    HW120390   2.601   4.486   6.667 -1.2849 -0.3520  0.1126
 2977SOL    HW220391   2.619   4.629   6.633  0.6721 -0.4622 -0.2985
 2978SOL     OW20392   2.839   2.903   3.816  0.4247  0.6235 -0.0759
 2978SOL    HW120393   2.778   2.862   3.755 -0.6243 -0.9991  2.0926
 2978SOL    HW220394   2.911   2.915   3.753  0.8642  0.2652  0.3586
 2979SOL     OW20395   1.944   0.308  14.645  0.2149 -0.2229 -0.4265
 2979SOL    HW120396   1.885   0.299  14.570  0.7652  1.2282 -1.0437
 2979SOL    HW220397   1.986   0.223  14.660  0.4264 -0.3451 -1.7100
 2980SOL     OW20398   4.355   1.747   3.691  0.1828  0.3638 -0.1768
 2980SOL    HW120399   4.332   1.778   3.603 -2.3553  0.3131  0.4749
 2980SOL    HW220400   4.353   1.653   3.672 -2.0634  0.4174 -0.1403
 2981SOL     OW20401   1.862   1.671   6.429 -0.4551  0.1885 -0.2162
 2981SOL    HW120402   1.795   1.684   6.496  0.3307  1.6404  0.2885
 2981SOL    HW220403   1.934   1.716   6.474 -1.8179  0.8919  1.2771
 2982SOL     OW20404   4.544   0.763   1.869  0.2768 -0.2362  0.2249
 2982SOL    HW120405   4.627   0.791   1.909  0.1597 -1.9984  1.6799
 2982SOL    HW220406   4.579   0.691   1.817 -1.6840 -1.3559  0.4780
 2983SOL     OW20407   4.279   3.337   7.340 -0.1814  0.1551 -0.2358
 2983SOL    HW120408   4.311   3.247   7.340 -2.7043 -0.7391 -2.0967
 2983SOL    HW220409   4.192   3.323   7.377  0.5998 -4.1522  0.0221
 2984SOL     OW20410   0.131   2.126   8.552  0.0297  0.4356 -0.5123
 2984SOL    HW120411   0.180   2.205   8.533 -0.2550  0.4329 -1.2476
 2984SOL    HW220412   0.158   2.068   8.480 -0.3373 -1.0731  0.5465
 2985SOL     OW20413   0.601   0.615   6.300 -0.2248 -0.3128 -0.2810
 2985SOL    HW120414   0.686   0.658   6.301 -1.2404  1.6940 -0.8588
 2985SOL    HW220415   0.599   0.570   6.385  1.1108  1.7895  0.8648
 2986SOL     OW20416   0.734   0.298   6.887 -0.1155 -0.1190 -0.2109
 2986SOL    HW120417   0.754   0.370   6.827 -0.7416  0.7341  0.6248
 2986SOL    HW220418   0.810   0.240   6.882  1.3888  1.7793  0.8021
 2987SOL     OW20419   2.357   1.628   4.562  0.3928 -0.7718  0.0217
 2987SOL    HW120420   2.443   1.589   4.555  0.1943 -1.1395 -0.3310
 2987SOL    HW220421   2.310   1.548   4.536 -0.4662 -0.8659  1.8474
 2988SOL     OW20422   3.577   3.856  11.988 -0.0467 -0.5561  0.3005
 2988SOL    HW120423   3.649   3.873  11.927  1.0316  1.2049  2.0736
 2988SOL    HW220424   3.613   3.889  12.070  1.7835  0.6548 -0.9701
 2989SOL     OW20425   3.826   4.562   1.219 -0.3496 -0.3654  0.5617
 2989SOL    HW120426   3.873   4.645   1.211 -1.2361 -0.0282 -1.0877
 2989SOL    HW220427   3.756   4.588   1.280 -1.0256  3.1823 -1.6762
 2990SOL     OW20428   4.469   3.326   3.146 -0.4592  0.2552 -0.2070
 2990SOL    HW120429   4.420   3.352   3.224 -0.9989  0.5756 -0.6519
 2990SOL    HW220430   4.491   3.408   3.103 -4.6655  0.5923 -1.6995
 2991SOL     OW20431   1.952   4.552  15.571  1.0506  0.1983 -0.2953
 2991SOL    HW120432   1.916   4.473  15.613 -0.7384  1.1644 -0.0122
 2991SOL    HW220433   2.042   4.537  15.601  1.2391 -0.5776 -1.2426
 2992SOL     OW20434   3.877   0.509   7.629  0.2219 -0.1784  0.4611
 2992SOL    HW120435   3.907   0.535   7.542  1.1613 -1.8430  0.2911
 2992SOL    HW220436   3.950   0.451   7.649 -1.4571 -2.1031  1.0201
 2993SOL     OW20437   0.940   2.814   2.834 -0.1529  0.3366  0.4693
 2993SOL    HW120438   0.860   2.848   2.873 -0.4616  0.0381  0.0985
 2993SOL    HW220439   0.977   2.793   2.920  0.5453  1.2663  0.3931
 2994SOL     OW20440   1.309   1.123   8.991 -0.4639  0.0929 -0.1382
 2994SOL    HW120441   1.353   1.040   9.010  0.7146  0.1903 -2.3857
 2994SOL    HW220442   1.291   1.108   8.898  1.5952 -1.4517 -0.3010
 2995SOL     OW20443   1.315   0.260  16.471  0.3631  0.2452 -0.3083
 2995SOL    HW120444   1.262   0.196  16.423 -1.2523  0.0802  1.6905
 2995SOL    HW220445   1.324   0.331  16.407  2.4487  1.1896  1.0560
 2996SOL     OW20446   0.566   0.972   2.451 -0.9535  0.5262  0.5400
 2996SOL    HW120447   0.650   0.936   2.479  0.1189  1.0946 -1.9187
 2996SOL    HW220448   0.521   0.893   2.422  0.7572  0.3588 -1.7005
 2997SOL     OW20449   4.165   3.302   3.898  0.5004  0.2699 -0.4201
 2997SOL    HW120450   4.113   3.225   3.918 -0.0452  0.1620 -2.2030
 2997SOL    HW220451   4.164   3.359   3.975  0.1748  0.1728 -0.3531
 2998SOL     OW20452   1.320   0.027  14.892 -0.2018  0.3643  0.2722
 2998SOL    HW120453   1.327   0.123  14.899  1.7313  0.1079  2.0641
 2998SOL    HW220454   1.227   0.007  14.887 -0.1718  0.1585  0.5432
 2999SOL     OW20455   0.304   1.348   7.057  0.3141  0.3098 -0.3957
 2999SOL    HW120456   0.296   1.265   7.104 -0.2524 -0.2466 -1.4575
 2999SOL    HW220457   0.296   1.402   7.136  2.3704  1.9477 -1.3222
 3000SOL     OW20458   3.120   0.185   3.428 -0.0958 -0.1108  0.3611
 3000SOL    HW120459   3.061   0.125   3.473  0.9126 -1.4477 -0.0974
 3000SOL    HW220460   3.167   0.130   3.365  3.2784  2.0891  0.9226
 3001SOL     OW20461   4.667   2.495   2.988  0.3705  0.2697  0.2209
 3001SOL    HW120462   4.711   2.489   3.073 -0.3657 -0.0059  0.5816
 3001SOL    HW220463   0.016   2.497   2.925  0.9258 -1.7637  0.7747
 3002SOL     OW20464   2.118   1.174   7.924 -0.3142 -0.2069  0.2571
 3002SOL    HW120465   2.055   1.109   7.955  0.3885 -0.7121  0.6386
 3002SOL    HW220466   2.157   1.122   7.853  2.4367  0.9492  0.9249
 3003SOL     OW20467   0.505   1.305   7.399  0.1415  0.5213 -0.2332
 3003SOL    HW120468   0.590   1.273   7.429  0.6643  1.4041 -0.7952
 3003SOL    HW220469   0.462   1.289   7.483 -0.0861  1.6406 -0.1494
 3004SOL     OW20470   3.991   0.377  11.619 -0.0257  0.1936 -0.2498
 3004SOL    HW120471   4.003   0.450  11.680  1.3363 -1.6675  1.7415
 3004SOL    HW220472   4.069   0.323  11.633 -0.1440 -0.2045 -1.1412
 3005SOL     OW20473   1.586   1.301  15.094 -0.1010  0.7102  0.5337
 3005SOL    HW120474   1.491   1.313  15.098  0.2324  3.1343  1.5166
 3005SOL    HW220475   1.607   1.233  15.158 -1.4854  0.3505  0.6112
 3006SOL     OW20476   0.837   0.893   4.543 -0.0475  0.4344 -0.5956
 3006SOL    HW120477   0.779   0.966   4.564 -1.2512 -0.9209  0.8082
 3006SOL    HW220478   0.854   0.902   4.450 -0.4235  0.6208 -0.6441
 3007SOL     OW20479   1.983   0.959   7.949 -0.2662  0.4039 -0.0163
 3007SOL    HW120480   1.968   0.907   7.870  0.7253  1.6826 -1.0495
 3007SOL    HW220481   1.927   0.908   8.008 -0.0966 -0.9904 -1.0620
 3008SOL     OW20482   4.520   0.422   9.254 -0.2486 -0.0401 -0.1388
 3008SOL    HW120483   4.542   0.342   9.302 -0.3926 -0.2809 -0.4704
 3008SOL    HW220484   4.570   0.490   9.298 -2.0751  0.9337  0.4528
 3009SOL     OW20485   0.935   3.288   6.197 -0.2428 -0.3756  0.3111
 3009SOL    HW120486   0.982   3.209   6.170 -0.9772 -0.8509  0.4460
 3009SOL    HW220487   0.998   3.360   6.188  1.3327 -1.9583 -1.2441
 3010SOL     OW20488   0.311   0.792   8.022 -0.3653 -0.3440 -0.0965
 3010SOL    HW120489   0.359   0.711   8.036 -1.1394 -0.9555 -1.0642
 3010SOL    HW220490   0.321   0.845   8.102  0.9220  1.2475 -1.3040
 3011SOL     OW20491   2.184   1.048   2.849  0.2106 -0.6917  0.1634
 3011SOL    HW120492   2.182   0.956   2.823 -0.0762 -0.3454 -1.0227
 3011SOL    HW220493   2.090   1.068   2.848  0.1988 -0.6687  1.6234
 3012SOL     OW20494   2.279   2.559   3.110 -0.4763  0.1966  0.0486
 3012SOL    HW120495   2.313   2.565   3.020 -1.3930  0.3183 -0.2901
 3012SOL    HW220496   2.287   2.651   3.133 -1.7157  0.2918  0.0752
 3013SOL     OW20497   2.116   3.118   2.339 -0.0909 -0.1036  0.6451
 3013SOL    HW120498   2.185   3.052   2.346  0.4891  0.6470  1.9312
 3013SOL    HW220499   2.156   3.174   2.272 -1.3104 -0.4602 -0.4035
 3014SOL     OW20500   0.588   4.592   8.232 -0.2943  0.0794 -0.2548
 3014SOL    HW120501   0.547   4.606   8.146 -0.1894 -0.9018 -0.4714
 3014SOL    HW220502   0.628   4.505   8.223  2.0148  1.0469  0.7178
 3015SOL     OW20503   4.624   2.532  12.777  0.2276 -0.3429 -0.7073
 3015SOL    HW120504   4.715   2.560  12.768 -0.2867  1.9127  1.1435
 3015SOL    HW220505   4.593   2.614  12.815  2.1310 -0.3271  0.8371
 3016SOL     OW20506   0.200   3.460   2.507 -0.2164 -0.1619  0.3620
 3016SOL    HW120507   0.185   3.546   2.468 -0.5197 -1.4647 -2.3684
 3016SOL    HW220508   0.143   3.475   2.583 -0.6124  0.3626 -0.0352
 3017SOL     OW20509   3.487   1.451   6.374  0.2866 -0.2004 -0.1906
 3017SOL    HW120510   3.561   1.502   6.340  0.8292 -1.0241 -0.2273
 3017SOL    HW220511   3.482   1.503   6.455 -1.0672  0.2871 -0.5800
 3018SOL     OW20512   2.415   0.330   4.352 -0.1712  0.2703 -0.4383
 3018SOL    HW120513   2.330   0.360   4.384 -0.2337  0.1380 -0.4794
 3018SOL    HW220514   2.447   0.304   4.438 -1.7657  0.6448  0.2657
 3019SOL     OW20515   3.713   3.129   3.175  0.4217  0.9243  0.3470
 3019SOL    HW120516   3.668   3.062   3.227  1.5275  0.6494  0.9508
 3019SOL    HW220517   3.770   3.165   3.244 -0.7378 -0.4207  2.0157
 3020SOL     OW20518   3.764   1.152   2.488 -0.5840  0.3179  0.6250
 3020SOL    HW120519   3.796   1.194   2.408 -2.5532 -2.0544 -1.3991
 3020SOL    HW220520   3.845   1.112   2.518 -0.0253 -0.0269 -1.3615
 3021SOL     OW20521   3.928   4.080   8.638  0.9387  0.1625  0.3565
 3021SOL    HW120522   3.915   4.013   8.705  0.4426  0.0720  0.1722
 3021SOL    HW220523   3.996   4.135   8.678  0.7137 -1.8152  3.4771
 3022SOL     OW20524   3.195   1.811   1.338 -0.0613  0.2723  0.3721
 3022SOL    HW120525   3.205   1.716   1.345 -3.7003 -0.0942  0.4315
 3022SOL    HW220526   3.223   1.838   1.426 -0.0917  0.3735  0.3494
 3023SOL     OW20527   3.288   2.226   4.368  0.6217 -0.1509 -0.4472
 3023SOL    HW120528   3.259   2.292   4.305  2.3847  1.7071  0.7208
 3023SOL    HW220529   3.201   2.186   4.372 -0.1114  1.7288  2.5070
 3024SOL     OW20530   1.754   0.723   2.472 -0.4253  0.3100  0.7017
 3024SOL    HW120531   1.770   0.756   2.384 -0.8660 -0.4537  0.3349
 3024SOL    HW220532   1.846   0.712   2.497 -0.3452 -0.2791  0.1515
 3025SOL     OW20533   3.599   1.161   1.299  0.1823 -0.2925  0.2413
 3025SOL    HW120534   3.612   1.069   1.324 -1.9336 -0.4046  0.9656
 3025SOL    HW220535   3.623   1.154   1.207  2.0224  2.3732  0.5403
 3026SOL     OW20536   2.513   2.208   8.335  1.0665 -0.5419 -0.0366
 3026SOL    HW120537   2.567   2.264   8.390  0.1916  1.4855 -1.2442
 3026SOL    HW220538   2.561   2.126   8.336 -0.6764 -1.5639  0.0570
 3027SOL     OW20539   3.745   0.747   4.694 -0.0958  0.4127 -0.6320
 3027SOL    HW120540   3.743   0.750   4.790 -0.8542 -2.6309 -0.5262
 3027SOL    HW220541   3.664   0.700   4.675 -0.9019  1.2850  0.7204
 3028SOL     OW20542   1.042   0.129   2.436 -0.3308 -0.4647 -0.0370
 3028SOL    HW120543   0.983   0.075   2.384 -0.6434 -0.2103  0.0508
 3028SOL    HW220544   1.000   0.121   2.522 -0.4940 -1.5251 -0.2251
 3029SOL     OW20545   1.563   3.391  12.197 -0.0738  0.4169  0.2748
 3029SOL    HW120546   1.471   3.416  12.190 -0.6398 -1.1913  2.2171
 3029SOL    HW220547   1.588   3.462  12.255  0.2162  0.4051  0.1672
 3030SOL     OW20548   2.124   2.336   6.427 -0.2827  0.0008 -0.0566
 3030SOL    HW120549   2.045   2.382   6.456 -0.6754 -0.3234 -0.6157
 3030SOL    HW220550   2.183   2.404   6.396 -0.2865  0.4058  0.8195
 3031SOL     OW20551   1.047   1.905   8.557 -0.0791 -0.0824 -0.1038
 3031SOL    HW120552   0.980   1.956   8.512  0.0176 -0.6685 -0.9193
 3031SOL    HW220553   1.085   1.871   8.475 -0.2498  0.4409 -0.4017
 3032SOL     OW20554   0.275   3.461   8.861 -0.2686  0.2091 -0.2839
 3032SOL    HW120555   0.246   3.463   8.953 -1.9563 -1.7408 -0.7876
 3032SOL    HW220556   0.316   3.546   8.842  0.2915  0.0129  0.0127
 3033SOL     OW20557   4.560   4.461   7.078  0.3316 -0.1768  0.6193
 3033SOL    HW120558   4.548   4.379   7.031  1.7724  0.7966 -1.4560
 3033SOL    HW220559   4.623   4.431   7.143  1.4573 -0.8214 -0.7825
 3034SOL     OW20560   1.744   2.580   7.927  0.3211  0.3944 -0.2849
 3034SOL    HW120561   1.701   2.647   7.874  1.2695  1.5855  0.4341
 3034SOL    HW220562   1.683   2.507   7.930 -0.2341  0.8811  0.3251
 3035SOL     OW20563   1.130   2.365   7.943 -0.2099  0.3685 -0.3693
 3035SOL    HW120564   1.186   2.288   7.952 -0.5095 -0.0352 -2.1194
 3035SOL    HW220565   1.134   2.407   8.029  0.3534 -0.8331  0.1917
 3036SOL     OW20566   0.127   3.371   7.926  0.1948 -0.3428 -0.6140
 3036SOL    HW120567   0.222   3.366   7.913  0.5223  0.7720  1.2877
 3036SOL    HW220568   0.104   3.279   7.917 -1.6076  0.0859 -0.4127
 3037SOL     OW20569   3.722   4.008   3.184 -0.3019  0.1760  0.4600
 3037SOL    HW120570   3.815   3.983   3.188 -0.7918 -1.2936  2.4195
 3037SOL    HW220571   3.693   3.940   3.122 -0.4089  0.8435 -0.2193
 3038SOL     OW20572   0.907   1.488   7.482 -0.4150  0.3419 -0.3727
 3038SOL    HW120573   0.944   1.513   7.566  2.4306 -0.6570 -1.3212
 3038SOL    HW220574   0.878   1.399   7.503 -0.4153  0.3408 -0.3776
 3039SOL     OW20575   3.878   0.858   7.318 -0.5042 -0.2944  0.5486
 3039SOL    HW120576   3.863   0.924   7.386 -0.8778 -0.2505  0.4234
 3039SOL    HW220577   3.794   0.857   7.272  0.5249 -2.5862 -1.3058
 3040SOL     OW20578   0.102   4.693  10.346  0.0672  0.8211  0.0573
 3040SOL    HW120579   0.008   4.686  10.361  0.2204 -0.4167  0.4515
 3040SOL    HW220580   0.105   4.713  10.253 -0.5062 -0.0664 -0.1515
 3041SOL     OW20581   2.877   0.862  17.361  0.4700 -0.0191  0.0260
 3041SOL    HW120582   2.849   0.916  17.434 -1.8670 -0.5112 -0.5113
 3041SOL    HW220583   2.842   0.909  17.285 -0.5556 -0.9485 -0.0789
 3042SOL     OW20584   3.498   0.046   0.722 -0.2374 -0.0551 -0.3489
 3042SOL    HW120585   3.483   0.005   0.637 -2.7916  2.0880 -0.9549
 3042SOL    HW220586   3.484   4.692   0.778 -0.0912  1.7912  2.2549
 3043SOL     OW20587   2.160   0.678   6.602 -0.3103  0.3019  0.4124
 3043SOL    HW120588   2.135   0.721   6.521 -0.1189 -0.2414  0.0690
 3043SOL    HW220589   2.253   0.697   6.597 -0.3880  0.2327 -1.1399
 3044SOL     OW20590   0.156   3.950   2.699  0.0947 -0.5566 -0.9013
 3044SOL    HW120591   0.107   4.027   2.727  0.3092 -1.1653  1.1865
 3044SOL    HW220592   0.202   3.923   2.779  0.0202  3.7442  0.6095
 3045SOL     OW20593   1.663   1.051   6.795 -0.7775  0.5946  0.8770
 3045SOL    HW120594   1.660   0.956   6.808 -0.1455  0.4280 -0.2166
 3045SOL    HW220595   1.731   1.067   6.860  0.8687 -2.1701 -0.1594
 3046SOL     OW20596   1.806   2.362   3.631  0.3394 -0.2782 -0.1197
 3046SOL    HW120597   1.842   2.406   3.554  1.1941  1.0877  1.0540
 3046SOL    HW220598   1.758   2.291   3.588  0.2891 -0.4467  0.2131
 3047SOL     OW20599   0.219   0.132   2.828  0.1484 -0.0597 -0.2205
 3047SOL    HW120600   0.267   0.080   2.764 -1.2658 -1.3589 -0.2450
 3047SOL    HW220601   0.285   0.137   2.896 -0.5942  1.2026  0.4120
 3048SOL     OW20602   3.301   4.002   2.175  0.9879  0.3034  0.3202
 3048SOL    HW120603   3.283   4.063   2.103 -1.7454 -0.3738  0.4272
 3048SOL    HW220604   3.396   3.998   2.181  1.1326  1.6005 -1.1253
 3049SOL     OW20605   1.259   1.481   8.293  0.3041 -0.2569  0.4647
 3049SOL    HW120606   1.194   1.441   8.349  0.7631 -2.0315 -0.2777
 3049SOL    HW220607   1.346   1.448   8.314  0.7603  0.7258  0.1461
 3050SOL     OW20608   2.654   1.794  13.547 -0.2842 -0.0350  0.0767
 3050SOL    HW120609   2.724   1.804  13.482 -3.1216 -1.5942 -3.2080
 3050SOL    HW220610   2.701   1.751  13.618  0.7561 -1.0227 -1.2079
 3051SOL     OW20611   2.141   3.118   8.021 -0.2505 -0.2993 -0.1043
 3051SOL    HW120612   2.126   3.173   7.944  0.7459  1.6980  1.1244
 3051SOL    HW220613   2.062   3.131   8.073 -1.4111  0.9250 -2.1428
 3052SOL     OW20614   4.666   3.172   1.820  0.4622  0.6643  0.0004
 3052SOL    HW120615   4.722   3.110   1.867  0.0865  0.2683 -0.0790
 3052SOL    HW220616   0.008   3.231   1.781  1.5875 -0.6744 -0.1701
 3053SOL     OW20617   3.017   0.338   8.599 -0.0176  0.0575  0.7671
 3053SOL    HW120618   2.990   0.268   8.659  0.2237  0.3592  1.2290
 3053SOL    HW220619   3.051   0.410   8.651  0.5468  1.5390 -1.6710
 3054SOL     OW20620   4.320   3.211  12.598  0.0806 -0.2656  0.3830
 3054SOL    HW120621   4.403   3.190  12.555 -0.1435  0.6511 -0.5140
 3054SOL    HW220622   4.319   3.142  12.664 -2.9614  0.1083  0.7555
 3055SOL     OW20623   2.029   1.047   3.182 -0.1798  0.2831  0.7075
 3055SOL    HW120624   2.101   0.984   3.179 -1.7359 -1.4506 -0.3872
 3055SOL    HW220625   2.004   1.066   3.092  0.3943 -0.7545  0.3205
 3056SOL     OW20626   1.002   3.743   7.922 -0.0268 -0.2155 -0.3238
 3056SOL    HW120627   0.961   3.729   8.008  0.9514  0.9269  0.3340
 3056SOL    HW220628   0.960   3.676   7.868 -0.5672 -1.5163  1.6697
 3057SOL     OW20629   1.449   0.827   5.352 -0.0252  0.4192  0.2131
 3057SOL    HW120630   1.518   0.802   5.412 -0.2392 -2.3237 -0.6859
 3057SOL    HW220631   1.465   0.771   5.276 -1.3711 -0.4285  0.5615
 3058SOL     OW20632   2.709   4.274  17.294  0.3967 -0.3606 -0.4055
 3058SOL    HW120633   2.671   4.333  17.228 -1.4497  0.8444  1.7166
 3058SOL    HW220634   2.701   4.187  17.256 -2.5965  0.3589 -1.4523
 3059SOL     OW20635   0.084   3.206   5.777 -0.6660 -0.0513  0.2521
 3059SOL    HW120636   4.717   3.213   5.744 -0.1289  1.0018 -0.9894
 3059SOL    HW220637   0.102   3.114   5.797 -3.6738 -0.1566  2.4015
 3060SOL     OW20638   2.114   1.892  17.094  0.5788 -0.3219 -0.0239
 3060SOL    HW120639   2.108   1.981  17.060 -0.0612  0.3558  1.8727
 3060SOL    HW220640   2.023   1.885  17.122  0.2569  0.1119 -0.9400
 3061SOL     OW20641   0.685   0.263   3.173 -0.0107  0.1805 -0.1754
 3061SOL    HW120642   0.696   0.331   3.240  0.2550 -1.0772  1.0444
 3061SOL    HW220643   0.615   0.217   3.219  2.9582 -2.6808  1.4163
 3062SOL     OW20644   3.015   0.536  17.097  0.8546  0.3156 -0.3709
 3062SOL    HW120645   3.035   0.542  17.003  1.0179  1.5829 -0.2535
 3062SOL    HW220646   3.060   0.613  17.131 -0.9104  0.4294  1.7122
 3063SOL     OW20647   4.330   0.493  10.175  0.4391  0.2431  0.2988
 3063SOL    HW120648   4.285   0.411  10.155  1.7548 -0.7866  1.5328
 3063SOL    HW220649   4.290   0.555  10.114 -0.7781  1.2580  2.1398
 3064SOL     OW20650   3.784   2.239   1.459  0.0204 -0.1478 -0.4984
 3064SOL    HW120651   3.870   2.278   1.443 -0.0423 -0.2690 -1.1357
 3064SOL    HW220652   3.731   2.304   1.412  0.0749  0.8835  0.8612
 3065SOL     OW20653   1.241   4.176   5.427  0.7112  0.1287 -0.5974
 3065SOL    HW120654   1.223   4.160   5.519 -2.2868  0.6628 -1.0799
 3065SOL    HW220655   1.279   4.091   5.403 -0.5377  0.1995 -2.8913
 3066SOL     OW20656   3.432   3.073   4.604 -0.2245 -0.5082  0.4986
 3066SOL    HW120657   3.408   3.150   4.554 -0.7956 -1.4653 -0.7071
 3066SOL    HW220658   3.419   3.010   4.533  1.3277  1.2828 -1.3704
 3067SOL     OW20659   0.331   0.261   8.067 -0.3148  0.3544  0.3608
 3067SOL    HW120660   0.320   0.228   7.978  1.5413 -3.5028  1.5709
 3067SOL    HW220661   0.245   0.297   8.086  0.5873  1.8026  1.6909
 3068SOL     OW20662   1.290   3.582   5.391 -0.1463  0.1363 -0.0513
 3068SOL    HW120663   1.379   3.606   5.419  0.6504 -0.1695 -2.3257
 3068SOL    HW220664   1.239   3.559   5.468  0.2255 -0.2734  0.0727
 3069SOL     OW20665   3.298   2.532   7.414 -0.4363  0.1912 -0.0964
 3069SOL    HW120666   3.204   2.520   7.395 -0.6583 -0.4923  1.4376
 3069SOL    HW220667   3.327   2.441   7.415  0.7583  0.6084  2.4080
 3070SOL     OW20668   0.086   3.519   5.490  0.0368 -0.2197  0.2054
 3070SOL    HW120669   0.040   3.439   5.465 -1.2744  0.9145 -1.0272
 3070SOL    HW220670   0.171   3.485   5.518 -0.6482 -0.7582  1.6536
 3071SOL     OW20671   3.071   1.956   4.727  0.1196 -0.0388 -0.3860
 3071SOL    HW120672   2.981   1.988   4.730  0.1761  0.1127 -0.3582
 3071SOL    HW220673   3.114   2.027   4.679  0.8002 -1.4293 -1.8580
 3072SOL     OW20674   3.103   4.231  10.368 -0.1188  0.1193  0.5725
 3072SOL    HW120675   3.126   4.190  10.285 -0.8280 -0.5178  0.6925
 3072SOL    HW220676   3.139   4.317  10.345 -2.6139  0.9476 -0.2354
 3073SOL     OW20677   1.736   1.252  12.693 -0.0860  0.1195 -0.4663
 3073SOL    HW120678   1.749   1.199  12.615 -2.5624 -2.3574  0.8182
 3073SOL    HW220679   1.642   1.239  12.703 -0.5044  1.1655 -2.8869
 3074SOL     OW20680   3.345   3.701   2.029  0.2149 -0.2183  0.0987
 3074SOL    HW120681   3.347   3.695   2.125 -1.5931  0.4286  0.1686
 3074SOL    HW220682   3.320   3.613   1.998  0.4877  0.3657 -1.7592
 3075SOL     OW20683   3.670   1.327   5.744  0.0204 -0.3035  0.6533
 3075SOL    HW120684   3.612   1.253   5.760 -0.5719 -0.1921 -1.0256
 3075SOL    HW220685   3.747   1.278   5.713  0.6474  1.8195 -1.1385
 3076SOL     OW20686   4.453   2.458   5.864  0.1392  0.1630 -0.1749
 3076SOL    HW120687   4.367   2.476   5.902  1.1890  0.4016  2.0845
 3076SOL    HW220688   4.512   2.476   5.937 -1.7084  0.3217  1.2780
 3077SOL     OW20689   2.890   3.994   3.841  0.5938  0.1409 -0.1797
 3077SOL    HW120690   2.842   3.918   3.874  0.7249 -0.6995 -1.9734
 3077SOL    HW220691   2.970   3.952   3.810  2.3428  2.2729  1.4522
 3078SOL     OW20692   0.276   0.084   7.849  0.2055 -0.4582 -0.2592
 3078SOL    HW120693   0.196   0.036   7.870  0.2525 -0.6369 -0.4904
 3078SOL    HW220694   0.265   0.097   7.755 -0.1872  0.9185 -0.0404
 3079SOL     OW20695   0.873   2.114   1.906 -0.3696 -0.4416 -0.6492
 3079SOL    HW120696   0.959   2.078   1.882  0.9833  2.5396 -0.2945
 3079SOL    HW220697   0.857   2.161   1.824  3.6912 -0.9770 -1.7675
 3080SOL     OW20698   3.433   1.403   3.037  0.0455  0.3380 -0.4306
 3080SOL    HW120699   3.401   1.491   3.014  1.2511  1.2559  1.3315
 3080SOL    HW220700   3.449   1.424   3.129 -0.7627 -1.7261  0.1711
 3081SOL     OW20701   0.200   2.726   7.592 -0.3569  0.6406  0.3583
 3081SOL    HW120702   0.184   2.690   7.504 -2.5295  0.9083  0.6430
 3081SOL    HW220703   0.244   2.657   7.640  0.8575  0.6636 -0.7154
 3082SOL     OW20704   0.942   4.357   1.594  1.0130  0.2446 -0.1286
 3082SOL    HW120705   1.006   4.286   1.597 -0.6248 -1.2930 -1.7420
 3082SOL    HW220706   0.862   4.306   1.584  1.3074 -0.1677 -0.3454
 3083SOL     OW20707   2.768   3.802   7.889  1.0111 -0.2064  0.6150
 3083SOL    HW120708   2.741   3.868   7.825  0.5518  0.2909  1.3188
 3083SOL    HW220709   2.861   3.818   7.902  0.8537 -0.4232  2.0080
 3084SOL     OW20710   3.376   3.719  16.290 -0.1624 -0.0982  0.2765
 3084SOL    HW120711   3.437   3.667  16.341  1.9316  0.2813 -1.8385
 3084SOL    HW220712   3.416   3.706  16.204  0.1500 -2.4724  0.7737
 3085SOL     OW20713   0.414   3.393  12.798 -0.2639 -0.2293 -0.2257
 3085SOL    HW120714   0.465   3.469  12.827  1.1111 -0.9283 -0.8004
 3085SOL    HW220715   0.333   3.418  12.841  0.0280  0.5750 -0.1331
 3086SOL     OW20716   0.607   2.521  12.000 -0.6335  0.8701  0.0502
 3086SOL    HW120717   0.622   2.446  11.942  1.1025  0.1305  1.4639
 3086SOL    HW220718   0.668   2.585  11.963 -1.2764  0.8653 -1.0189
 3087SOL     OW20719   1.900   3.896  16.927 -0.7437 -0.6108 -0.3445
 3087SOL    HW120720   1.950   3.972  16.957 -2.2408  1.2524 -2.5754
 3087SOL    HW220721   1.959   3.850  16.868  0.3544 -0.1459  0.3961
 3088SOL     OW20722   3.883   0.835   3.782 -0.7288 -0.5409  0.2324
 3088SOL    HW120723   3.871   0.740   3.786 -0.6265 -0.5608  0.0818
 3088SOL    HW220724   3.976   0.847   3.800 -0.6911 -0.6888  0.1396
 3089SOL     OW20725   0.798   2.711   4.936  0.7793 -0.5426 -0.4507
 3089SOL    HW120726   0.849   2.697   4.856 -0.3304 -1.4857 -0.9887
 3089SOL    HW220727   0.723   2.753   4.894  0.3583  0.5928  1.4803
 3090SOL     OW20728   4.694   1.484  10.015 -0.0238 -0.0863  0.2107
 3090SOL    HW120729   0.034   1.438  10.071  0.7969  0.7089 -0.0645
 3090SOL    HW220730   4.622   1.422  10.024  0.7462 -0.5858  3.1278
 3091SOL     OW20731   3.566   2.916  17.296  0.2632  0.0441  0.7081
 3091SOL    HW120732   3.593   2.837  17.342  3.0435  1.3236  1.2886
 3091SOL    HW220733   3.610   2.908  17.212  0.2250 -1.1891  0.8158
 3092SOL     OW20734   2.516   2.817  16.369  0.0592 -0.1115 -0.2163
 3092SOL    HW120735   2.577   2.749  16.398 -1.0123 -0.2323  1.7017
 3092SOL    HW220736   2.560   2.858  16.294  0.8639  0.8674  0.7998
 3093SOL     OW20737   0.695   1.390   4.572  0.6369 -0.4618 -0.7120
 3093SOL    HW120738   0.782   1.426   4.589 -0.6298  3.0820 -1.7139
 3093SOL    HW220739   0.646   1.469   4.595  0.4739 -0.7500 -0.0709
 3094SOL     OW20740   0.468   1.732   3.402  0.0894  0.0704 -0.4376
 3094SOL    HW120741   0.399   1.777   3.450  0.6816 -1.5339  1.9738
 3094SOL    HW220742   0.453   1.641   3.431 -1.1657  0.2236 -0.5940
 3095SOL     OW20743   0.490   0.962   5.055  0.2347 -0.2206  0.2043
 3095SOL    HW120744   0.456   0.877   5.084  0.6281 -0.8755 -1.2164
 3095SOL    HW220745   0.502   0.938   4.963 -2.0021 -1.9519  0.3729
 3096SOL     OW20746   4.098   4.080   1.728 -0.2587 -0.3887 -0.3355
 3096SOL    HW120747   4.073   4.171   1.742  0.8645  0.0421 -1.1197
 3096SOL    HW220748   4.118   4.054   1.818  0.2864 -4.5888 -1.6667
 3097SOL     OW20749   0.403   0.163   2.613  0.1197  0.2515  0.3297
 3097SOL    HW120750   0.489   0.197   2.590 -0.1840  0.2784 -0.7561
 3097SOL    HW220751   0.389   0.104   2.538  0.8392  2.7158 -1.7346
 3098SOL     OW20752   1.581   1.877  16.233  0.2782  0.6799  0.5948
 3098SOL    HW120753   1.550   1.802  16.183  1.4972  0.0950  0.7330
 3098SOL    HW220754   1.533   1.948  16.189  0.4975  0.9199  0.7421
 3099SOL     OW20755   4.134   3.478   4.113  0.2121  0.7975  0.2896
 3099SOL    HW120756   4.071   3.506   4.047  0.0081 -0.2444  0.0578
 3099SOL    HW220757   4.208   3.537   4.100  0.1660  1.0156  0.9778
 3100SOL     OW20758   2.870   1.310  13.400  0.3721 -0.0869 -0.0095
 3100SOL    HW120759   2.829   1.394  13.422  2.6133  0.8610  0.5403
 3100SOL    HW220760   2.872   1.313  13.304 -0.4620  0.3789 -0.0130
 3101SOL     OW20761   4.190   3.124   8.544  0.3829 -0.1575  0.4032
 3101SOL    HW120762   4.119   3.060   8.553  2.9197 -2.8999  1.2674
 3101SOL    HW220763   4.254   3.080   8.601  0.9505  0.3867  0.1893
 3102SOL     OW20764   1.940   4.226   7.989 -0.9417  0.2862  0.3332
 3102SOL    HW120765   1.848   4.220   7.964 -0.5557 -1.1297 -0.7539
 3102SOL    HW220766   1.937   4.165   8.063 -0.5243  0.1426  0.2322
 3103SOL     OW20767   4.581   0.681   2.783 -0.0783  0.4731  0.1154
 3103SOL    HW120768   4.512   0.711   2.724  0.1474 -1.5392 -1.2095
 3103SOL    HW220769   4.650   0.747   2.776 -0.2505  0.8385  2.0608
 3104SOL     OW20770   3.617   4.714   7.399 -0.2480  0.3499 -0.1064
 3104SOL    HW120771   3.702   4.686   7.366  0.4836  3.6148 -1.0231
 3104SOL    HW220772   3.564   4.663   7.338 -1.7429  1.1260  0.5418
 3105SOL     OW20773   0.375   0.943   4.526 -0.2158 -0.0941  0.4837
 3105SOL    HW120774   0.404   0.986   4.446  2.1986  2.3549  2.6707
 3105SOL    HW220775   0.311   0.882   4.491 -0.8283  0.0247  1.3939
 3106SOL     OW20776   0.953   1.344   4.029 -0.6206  0.3334  0.0798
 3106SOL    HW120777   0.971   1.259   3.987  0.3295  0.3685  0.4129
 3106SOL    HW220778   0.980   1.400   3.956  0.4508  1.5429  1.4149
 3107SOL     OW20779   4.227   1.977   0.961  0.0839  0.0509  0.3682
 3107SOL    HW120780   4.306   1.924   0.961  0.8248  1.1395 -0.6576
 3107SOL    HW220781   4.224   2.020   0.875 -0.7400  0.9690  0.8516
 3108SOL     OW20782   3.270   4.372   2.323 -0.0391 -0.1583  0.0757
 3108SOL    HW120783   3.359   4.351   2.348  0.0026 -0.8061 -0.6217
 3108SOL    HW220784   3.227   4.291   2.351  0.1539  0.1161  1.1656
 3109SOL     OW20785   2.205   0.717   1.865 -0.1806 -0.6431  0.7254
 3109SOL    HW120786   2.291   0.751   1.840 -1.1707  2.2103  1.2533
 3109SOL    HW220787   2.202   0.644   1.803 -1.1217 -1.4296  1.6971
 3110SOL     OW20788   4.217   1.109   2.938 -0.3066  0.0222  0.4584
 3110SOL    HW120789   4.263   1.033   2.974  0.2585  0.2875  0.3134
 3110SOL    HW220790   4.225   1.172   3.009  0.2922 -0.0694  0.4780
 3111SOL     OW20791   4.648   1.050   7.732  0.1250 -0.4590  0.2321
 3111SOL    HW120792   4.681   0.964   7.706 -1.5560 -0.7014 -1.1097
 3111SOL    HW220793   4.558   1.019   7.743 -0.2544  0.5027 -0.1116
 3112SOL     OW20794   3.810   1.067   7.461 -0.4653 -0.6362 -0.2424
 3112SOL    HW120795   3.756   1.083   7.539 -1.0331  3.2888 -1.4539
 3112SOL    HW220796   3.809   1.153   7.421  0.7687 -0.1286  0.8183
 3113SOL     OW20797   1.851   2.716   0.937 -0.1929  0.1772  0.9319
 3113SOL    HW120798   1.938   2.754   0.943 -0.0990 -0.0493  1.0235
 3113SOL    HW220799   1.832   2.695   0.846  0.3210 -0.4956  0.9778
 3114SOL     OW20800   0.918   4.196   2.017 -0.2340 -0.5383  0.0936
 3114SOL    HW120801   1.003   4.179   1.978 -0.1109 -0.8596  0.4996
 3114SOL    HW220802   0.874   4.114   1.996  2.4202 -1.5298 -1.5166
 3115SOL     OW20803   3.923   1.525   2.243 -0.4055  0.3318  0.4663
 3115SOL    HW120804   3.976   1.478   2.307  0.5128 -2.8175 -2.6248
 3115SOL    HW220805   3.969   1.512   2.161 -0.6125  3.2848 -0.1232
 3116SOL     OW20806   0.037   4.674  12.814 -0.3539 -0.1520 -0.6374
 3116SOL    HW120807   0.081   4.629  12.886  1.0111 -1.3778 -2.2508
 3116SOL    HW220808   4.669   4.645  12.817 -0.1336 -0.7549  0.2903
 3117SOL     OW20809   1.295   3.129  14.176 -0.2708  0.0239  0.1647
 3117SOL    HW120810   1.310   3.223  14.186  0.0820  0.0429 -0.5938
 3117SOL    HW220811   1.315   3.100  14.265 -2.5431  3.0298  1.6668
 3118SOL     OW20812   0.713   1.715   0.574  0.0271 -0.3232 -0.2195
 3118SOL    HW120813   0.642   1.650   0.572 -0.3140  0.1741 -4.7498
 3118SOL    HW220814   0.660   1.791   0.552  0.7833 -0.0206 -0.9791
 3119SOL     OW20815   0.897   0.845   5.924 -0.6541  1.0240  0.4938
 3119SOL    HW120816   0.911   0.867   5.832  0.3914 -1.0629  0.1620
 3119SOL    HW220817   0.806   0.818   5.920 -0.2954 -0.3335  1.7998
 3120SOL     OW20818   0.671   4.646  11.823  0.1260  0.7385 -0.0344
 3120SOL    HW120819   0.742   4.582  11.814  0.2225  0.3697  3.4709
 3120SOL    HW220820   0.635   4.608  11.903 -0.0849 -1.9237 -1.3773
 3121SOL     OW20821   2.785   4.093   5.562  0.2812  0.0347 -0.0753
 3121SOL    HW120822   2.870   4.131   5.583  0.5640 -1.1175  0.8987
 3121SOL    HW220823   2.803   4.056   5.476  0.2408 -0.6437  0.2073
 3122SOL     OW20824   2.052   3.598  16.157  0.2151  0.0103 -0.0210
 3122SOL    HW120825   2.148   3.600  16.158  0.2096  0.4628 -0.2769
 3122SOL    HW220826   2.043   3.648  16.076  2.1012  0.2104 -0.1104
 3123SOL     OW20827   2.404   4.010   3.417  0.0742 -0.2603 -0.0528
 3123SOL    HW120828   2.451   3.938   3.459 -0.0093 -0.8151 -0.9080
 3123SOL    HW220829   2.324   3.970   3.384 -0.8236  0.8747  0.7664
 3124SOL     OW20830   3.120   4.358  17.494 -0.6410  0.2695  0.2073
 3124SOL    HW120831   3.087   4.439  17.533 -0.6242  0.9416 -1.1836
 3124SOL    HW220832   3.153   4.320  17.576  3.1045  1.1886 -0.8766
 3125SOL     OW20833   3.353   0.717  10.026  0.5368 -0.3067  0.7253
 3125SOL    HW120834   3.333   0.800   9.983  1.6593  0.2016  1.1844
 3125SOL    HW220835   3.443   0.702   9.997  0.5889  2.0803 -0.3462
 3126SOL     OW20836   3.523   0.494   3.257  0.4716 -0.0303  0.2366
 3126SOL    HW120837   3.443   0.526   3.217 -0.7620  0.4745  3.0839
 3126SOL    HW220838   3.559   0.581   3.276 -0.3468  0.3727 -0.0785
 3127SOL     OW20839   1.206   1.229   0.884  0.0876  0.1646  0.2621
 3127SOL    HW120840   1.236   1.321   0.882 -2.3127  0.9111 -1.0396
 3127SOL    HW220841   1.114   1.237   0.859  0.4956  1.9390 -0.7274
 3128SOL     OW20842   3.413   3.574   8.737  0.2204 -0.4877 -0.2576
 3128SOL    HW120843   3.502   3.572   8.771  0.6659 -0.5704 -1.4375
 3128SOL    HW220844   3.410   3.524   8.655  1.3105 -1.1378  0.1024
 3129SOL     OW20845   2.145   0.288   6.574 -0.3122 -0.1465  0.1696
 3129SOL    HW120846   2.233   0.298   6.610 -0.9869  0.1969  1.7001
 3129SOL    HW220847   2.120   0.380   6.561 -1.0790 -0.7837 -2.9556
 3130SOL     OW20848   0.916   1.794  11.641 -0.5478 -0.1769 -0.1887
 3130SOL    HW120849   0.828   1.756  11.638 -0.2311 -0.8361 -1.0273
 3130SOL    HW220850   0.971   1.737  11.587 -1.2868 -0.0961 -1.0182
 3131SOL     OW20851   1.221   3.557  16.716 -0.0529  0.3852  0.6662
 3131SOL    HW120852   1.292   3.563  16.652 -0.4140 -0.2439  0.2014
 3131SOL    HW220853   1.269   3.589  16.791  0.8080  1.5717 -0.4056
 3132SOL     OW20854   1.989   2.643   4.396  0.4542  0.4608  0.1841
 3132SOL    HW120855   1.964   2.678   4.311 -0.1029  0.1304  0.2148
 3132SOL    HW220856   1.954   2.714   4.450  1.6829  0.5489  0.8682
 3133SOL     OW20857   1.430   1.489   3.580  0.4438 -0.0091  0.4091
 3133SOL    HW120858   1.498   1.502   3.646  1.1919  1.0478 -0.5882
 3133SOL    HW220859   1.458   1.406   3.542  1.9446  0.5814  0.2373
 3134SOL     OW20860   1.354   3.636   2.577  0.0822  0.7969  0.1842
 3134SOL    HW120861   1.320   3.594   2.498  3.1130 -0.4919 -0.4151
 3134SOL    HW220862   1.343   3.566   2.641  0.9665 -0.8435 -1.4575
 3135SOL     OW20863   0.162   0.735   4.381  0.5766  0.8037  0.3333
 3135SOL    HW120864   0.157   0.683   4.460 -0.3193 -0.6019 -0.6412
 3135SOL    HW220865   0.094   0.685   4.335  0.5720 -0.2049  1.4528
 3136SOL     OW20866   0.081   2.473   8.309 -0.7449  0.5384 -0.4829
 3136SOL    HW120867   0.044   2.447   8.225 -0.0400 -2.8183  0.2828
 3136SOL    HW220868   0.020   2.542   8.334 -0.3030  1.3361 -1.6058
 3137SOL     OW20869   0.214   1.279  11.013  0.0733 -0.3796 -0.2994
 3137SOL    HW120870   0.306   1.287  10.991  0.5854 -0.7065  1.6746
 3137SOL    HW220871   0.194   1.188  10.989  1.1705 -0.9509  0.9662
 3138SOL     OW20872   2.568   1.308  16.950 -0.2592 -0.3944  0.9171
 3138SOL    HW120873   2.498   1.360  16.912 -0.0285  1.1350  2.5944
 3138SOL    HW220874   2.539   1.308  17.041  1.3421  1.8299  1.4287
 3139SOL     OW20875   0.724   0.977   7.526  0.4693  0.7842  0.0868
 3139SOL    HW120876   0.720   0.942   7.615  1.1360  1.3790  0.3540
 3139SOL    HW220877   0.756   0.899   7.481 -0.0722 -0.6126  2.1156
 3140SOL     OW20878   3.413   4.281   7.937 -0.3879  0.2288 -0.6903
 3140SOL    HW120879   3.379   4.363   7.972  0.1827  0.1327  0.0832
 3140SOL    HW220880   3.453   4.244   8.016  0.9525  0.5440 -1.2394
 3141SOL     OW20881   0.763   0.008   5.272 -0.3875  0.6731  0.8354
 3141SOL    HW120882   0.673   0.018   5.243  0.2082  2.2082 -0.4780
 3141SOL    HW220883   0.762   0.013   5.368  0.2994  2.4466  0.7489
 3142SOL     OW20884   2.515   2.188  14.987 -0.1906  0.1310  0.1938
 3142SOL    HW120885   2.604   2.161  15.009 -0.1882  1.6944  2.0420
 3142SOL    HW220886   2.471   2.143  15.059  1.0251 -1.1514  0.1534
 3143SOL     OW20887   0.875   1.557   7.206 -0.2996  0.2463  0.4804
 3143SOL    HW120888   0.885   1.541   7.300 -1.3581  0.7948  0.6906
 3143SOL    HW220889   0.946   1.622   7.199 -0.0659 -0.2808 -2.0445
 3144SOL     OW20890   2.187   3.013  11.682 -0.1958  0.2637 -0.4337
 3144SOL    HW120891   2.188   3.095  11.634  1.3527  0.3547 -0.2584
 3144SOL    HW220892   2.178   3.046  11.771 -1.2340 -0.6587 -0.1924
 3145SOL     OW20893   1.032   3.933  12.694 -0.8887 -0.0562  0.2567
 3145SOL    HW120894   0.966   3.993  12.661 -2.2191 -1.8218 -0.3022
 3145SOL    HW220895   1.117   3.977  12.683  0.2057 -2.1167  0.4296
 3146SOL     OW20896   0.159   2.146   1.725 -0.7576  0.2233  0.2220
 3146SOL    HW120897   0.176   2.052   1.736  3.0204  0.8944  0.2062
 3146SOL    HW220898   0.119   2.164   1.810 -1.0457  1.0042 -0.0834
 3147SOL     OW20899   2.296   3.641  17.235 -0.4689 -0.2834 -0.4831
 3147SOL    HW120900   2.236   3.604  17.299 -1.6047  0.3560 -1.1693
 3147SOL    HW220901   2.378   3.639  17.285 -2.2028  1.9347  2.4042
 3148SOL     OW20902   2.156   2.601   1.086 -0.0857  0.3950  0.0243
 3148SOL    HW120903   2.128   2.688   1.057 -0.5621 -0.8181 -3.2391
 3148SOL    HW220904   2.215   2.620   1.158 -0.3826 -1.3272  0.7079
 3149SOL     OW20905   4.232   1.333   4.914  0.6108  0.0332  0.7130
 3149SOL    HW120906   4.238   1.405   4.851  0.2118  0.3091  0.9941
 3149SOL    HW220907   4.152   1.285   4.889  1.1395  0.3431 -1.6011
 3150SOL     OW20908   0.920   0.683   8.489 -0.1307  0.2439  0.4608
 3150SOL    HW120909   0.838   0.687   8.537 -0.1434 -0.9256  0.5257
 3150SOL    HW220910   0.879   0.640   8.414 -1.4006  0.4027  1.0767
 3151SOL     OW20911   4.693   0.686  13.268  0.2762 -0.1554  0.2768
 3151SOL    HW120912   4.639   0.742  13.324 -1.3949 -0.4069 -1.0773
 3151SOL    HW220913   4.620   0.642  13.225  1.2786 -0.9746 -0.5915
 3152SOL     OW20914   1.106   3.059   5.392  0.5495 -0.8210 -0.5740
 3152SOL    HW120915   1.092   3.135   5.335  1.1662  0.2882  0.7292
 3152SOL    HW220916   1.131   3.104   5.473 -0.1268  0.6559 -1.1849
 3153SOL     OW20917   1.319   3.248   8.485 -0.0847 -0.1390 -0.0088
 3153SOL    HW120918   1.270   3.247   8.567  0.6090  3.0297  0.4301
 3153SOL    HW220919   1.328   3.343   8.478 -0.9427 -0.2123 -2.3325
 3154SOL     OW20920   3.863   3.079  16.995  0.9527 -0.0090 -0.0062
 3154SOL    HW120921   3.952   3.109  17.014  0.8679 -1.4439  2.5989
 3154SOL    HW220922   3.828   3.155  16.948 -0.1268 -0.0400  0.7546
 3155SOL     OW20923   2.384   4.024   7.510  0.4183 -0.1141  0.0819
 3155SOL    HW120924   2.369   3.931   7.527 -0.3755  0.3576  2.0288
 3155SOL    HW220925   2.303   4.059   7.549  0.3567 -0.8908  0.6473
 3156SOL     OW20926   2.067   2.118   0.247  0.2185  0.9666  0.3418
 3156SOL    HW120927   2.053   2.213   0.238  1.9913  1.4558  2.7675
 3156SOL    HW220928   2.091   2.108   0.339  1.4878 -0.8281 -0.1877
 3157SOL     OW20929   1.980   4.470   1.696  0.3913 -0.2851 -0.4232
 3157SOL    HW120930   1.898   4.465   1.647  1.5271 -1.1012 -2.2219
 3157SOL    HW220931   1.959   4.535   1.764  0.2989 -0.2941 -0.4428
 3158SOL     OW20932   1.372   2.393   0.400  0.1684 -0.2539 -0.4255
 3158SOL    HW120933   1.435   2.354   0.461  3.1598 -1.1358 -4.0364
 3158SOL    HW220934   1.444   2.422   0.344 -0.0840  0.5816 -0.3063
 3159SOL     OW20935   4.240   3.864  12.904 -0.3442 -0.1528 -0.3195
 3159SOL    HW120936   4.177   3.918  12.857  1.3153  1.5629 -0.5709
 3159SOL    HW220937   4.212   3.778  12.872 -0.3925  0.0969 -0.9472
 3160SOL     OW20938   2.771   1.548  17.275  0.1714 -0.0150 -0.5070
 3160SOL    HW120939   2.718   1.628  17.270 -0.3731 -0.2095  2.0602
 3160SOL    HW220940   2.793   1.538  17.183  0.3433  1.0601 -0.5857
 3161SOL     OW20941   4.017   4.061  12.806  0.4898 -0.5177  0.1412
 3161SOL    HW120942   3.926   4.074  12.834  0.1914 -1.6813 -0.2816
 3161SOL    HW220943   4.018   4.081  12.712  0.5864 -1.2264 -0.0111
 3162SOL     OW20944   2.777   1.310   7.113  0.2858  0.8798  0.4458
 3162SOL    HW120945   2.743   1.377   7.172 -0.3913  0.0658  0.9622
 3162SOL    HW220946   2.816   1.252   7.178  1.0793  1.2424  0.2924
 3163SOL     OW20947   0.701   2.375  11.809  0.5088  0.2271  0.4881
 3163SOL    HW120948   0.674   2.316  11.739  1.1270 -1.8587  2.0052
 3163SOL    HW220949   0.728   2.451  11.757  0.3419  1.2502  1.8966
 3164SOL     OW20950   0.620   4.633  11.312  0.3550 -0.3400  0.3133
 3164SOL    HW120951   0.703   4.680  11.318  1.2540 -1.8436 -0.2329
 3164SOL    HW220952   0.608   4.612  11.404 -1.6120 -3.0261 -0.5520
 3165SOL     OW20953   1.652   1.262   7.658  0.3503  0.4562  0.6879
 3165SOL    HW120954   1.704   1.184   7.640 -0.0734  0.1078  0.9859
 3165SOL    HW220955   1.586   1.226   7.718  0.4803 -2.6907 -1.0259
 3166SOL     OW20956   2.129   0.516   9.277 -0.2970  0.1938 -0.2716
 3166SOL    HW120957   2.151   0.472   9.195  0.0392  1.2748 -0.7633
 3166SOL    HW220958   2.053   0.568   9.250 -0.2933  0.8190  0.8953
 3167SOL     OW20959   0.524   1.120   8.914  0.0205 -0.8960  0.1437
 3167SOL    HW120960   0.441   1.152   8.948  0.8889 -1.0393  2.3581
 3167SOL    HW220961   0.500   1.059   8.845  0.7256  0.6670 -1.4959
 3168SOL     OW20962   2.977   1.755   6.605  0.2296 -0.5661  0.9208
 3168SOL    HW120963   2.953   1.684   6.545 -0.2852  0.2005  0.2212
 3168SOL    HW220964   2.892   1.789   6.630  0.8835  1.1270  0.8388
 3169SOL     OW20965   3.817   1.782   2.224 -0.2383 -0.3739 -0.1444
 3169SOL    HW120966   3.875   1.722   2.271 -0.3507  0.2124  0.7457
 3169SOL    HW220967   3.848   1.778   2.134  1.1495 -0.2218  0.3332
 3170SOL     OW20968   4.128   1.698   1.302  0.0181 -0.5653  0.0240
 3170SOL    HW120969   4.102   1.723   1.213  0.9607  1.9352  0.4384
 3170SOL    HW220970   4.053   1.649   1.335  1.5764 -2.3161  0.9651
 3171SOL     OW20971   3.728   1.386   9.162  0.4954 -0.1146  0.3406
 3171SOL    HW120972   3.685   1.356   9.082  1.5792  2.4236 -1.2389
 3171SOL    HW220973   3.810   1.337   9.171 -0.1986 -1.5862 -1.3243
 3172SOL     OW20974   1.914   0.953  11.936 -0.2241  0.0019 -0.0858
 3172SOL    HW120975   1.975   1.014  11.978 -0.1007 -0.7030  0.7431
 3172SOL    HW220976   1.829   0.995  11.949  0.3087  1.3575 -0.9666
 3173SOL     OW20977   1.684   1.415   4.129 -0.5648  0.2549  0.6349
 3173SOL    HW120978   1.661   1.327   4.159  1.1415 -1.2668 -2.4799
 3173SOL    HW220979   1.677   1.468   4.208 -0.5921 -0.7110  1.2834
 3174SOL     OW20980   2.209   0.937   2.479  0.3785 -0.2592  0.1987
 3174SOL    HW120981   2.174   0.978   2.400  0.6738 -0.7819 -0.2016
 3174SOL    HW220982   2.177   0.847   2.472  0.9384 -0.4300 -0.1153
 3175SOL     OW20983   0.300   3.495   9.602 -0.8173 -0.1093  0.0425
 3175SOL    HW120984   0.205   3.484   9.598 -0.5439 -2.2364 -0.6466
 3175SOL    HW220985   0.320   3.407   9.633  2.5463  0.6977  0.1525
 3176SOL     OW20986   3.695   3.411   6.856 -0.4425 -0.3460  0.3466
 3176SOL    HW120987   3.766   3.473   6.871 -2.7308  2.0027  1.3889
 3176SOL    HW220988   3.721   3.340   6.915  0.6620  1.2105  1.7435
 3177SOL     OW20989   2.046   1.694   8.947  0.3778 -0.3114 -0.5134
 3177SOL    HW120990   1.951   1.707   8.954  0.6248  0.5435  1.0764
 3177SOL    HW220991   2.042   1.599   8.936  2.5565 -0.4728  0.1720
 3178SOL     OW20992   1.792   0.238   6.666 -0.0614 -0.4996 -0.1742
 3178SOL    HW120993   1.816   0.330   6.659  0.5292 -0.9132 -3.2144
 3178SOL    HW220994   1.879   0.200   6.683 -0.3518 -0.3584  1.6312
 3179SOL     OW20995   0.762   3.909   2.979  0.3665  0.3855 -0.4209
 3179SOL    HW120996   0.851   3.943   2.989 -0.5510  2.7265 -0.1608
 3179SOL    HW220997   0.713   3.952   3.049  1.2562  0.3107  0.2594
 3180SOL     OW20998   3.989   0.723   9.671  0.3773 -0.1013  0.0958
 3180SOL    HW120999   4.032   0.797   9.714 -1.4761  0.4950  0.9605
 3180SOL    HW221000   3.950   0.759   9.591  0.4583  1.5236  0.7761
 3181SOL     OW21001   2.173   1.603   4.904  0.0174 -0.0822  0.2337
 3181SOL    HW121002   2.147   1.584   4.994 -1.0401  0.1231 -0.0343
 3181SOL    HW221003   2.101   1.569   4.850  0.8816 -0.1846 -0.8559
 3182SOL     OW21004   1.383   3.871   5.722 -0.1627 -0.1000 -0.3172
 3182SOL    HW121005   1.447   3.818   5.770 -0.8594 -0.6035  0.0515
 3182SOL    HW221006   1.313   3.805   5.721 -1.1524  0.9710 -0.9102
 3183SOL     OW21007   0.208   4.722  11.078 -0.6322 -0.0433  0.4180
 3183SOL    HW121008   0.293   4.679  11.069  1.4063  4.6509 -2.4339
 3183SOL    HW221009   0.230   0.057  11.152 -0.0723 -0.1141  0.3081
 3184SOL     OW21010   2.282   0.409   9.581 -0.2587 -0.6507  0.0473
 3184SOL    HW121011   2.293   0.375   9.670  0.8610  0.4668  0.3276
 3184SOL    HW221012   2.205   0.357   9.555  0.0751 -1.3386  0.4316
 3185SOL     OW21013   3.189   0.123  13.042  0.2135  0.6609 -0.2590
 3185SOL    HW121014   3.156   0.171  13.119  1.9625  1.7359 -0.1938
 3185SOL    HW221015   3.283   0.121  13.060 -0.2925 -2.0017  2.1202
 3186SOL     OW21016   1.417   2.984   4.024  0.1595  0.0589 -0.3628
 3186SOL    HW121017   1.392   3.049   4.090  0.7155  0.1703 -0.2665
 3186SOL    HW221018   1.495   3.018   3.981  0.4828  1.0686  1.0276
 3187SOL     OW21019   4.336   4.324   0.127  0.0635  0.2210 -0.0770
 3187SOL    HW121020   4.314   4.384   0.198  1.9741  0.8543 -0.0084
 3187SOL    HW221021   4.430   4.310   0.139  0.3828  0.9870 -1.7127
 3188SOL     OW21022   2.792   3.657   5.245 -0.3830 -0.6483 -0.0918
 3188SOL    HW121023   2.747   3.575   5.229  0.1047 -1.1446  1.0802
 3188SOL    HW221024   2.730   3.719   5.206 -0.2293 -0.9856 -0.8834
 3189SOL     OW21025   1.606   0.854   7.537 -0.3812 -0.1732  0.0038
 3189SOL    HW121026   1.601   0.811   7.452  1.8927 -0.4327  0.0029
 3189SOL    HW221027   1.681   0.805   7.571 -1.9506 -0.9025  2.4231
 3190SOL     OW21028   2.671   3.487   0.892 -0.0416  0.1183 -0.0259
 3190SOL    HW121029   2.736   3.518   0.829 -1.4846  3.2463 -0.0074
 3190SOL    HW221030   2.611   3.562   0.887  1.1194  0.9801 -0.9554
 3191SOL     OW21031   2.683   1.585   7.250 -0.0728  0.6325  0.3724
 3191SOL    HW121032   2.738   1.635   7.191  0.2442 -1.1378 -0.8353
 3191SOL    HW221033   2.696   1.626   7.336 -2.2269 -0.8993  1.4352
 3192SOL     OW21034   0.505   2.948  14.352  0.3587 -0.2907 -0.2562
 3192SOL    HW121035   0.540   3.029  14.390 -2.8292  0.2598  1.4446
 3192SOL    HW221036   0.413   2.950  14.377  0.6496  0.1627  0.7579
 3193SOL     OW21037   3.343   1.951   5.088  0.4004  0.6160 -0.2563
 3193SOL    HW121038   3.399   1.969   5.163 -1.7962  2.6490  0.9189
 3193SOL    HW221039   3.285   2.027   5.085  1.6595  1.5832  0.1262
 3194SOL     OW21040   2.231   1.284   6.202 -0.7456 -0.4166  0.2509
 3194SOL    HW121041   2.315   1.273   6.159 -1.0054 -2.2094  0.2166
 3194SOL    HW221042   2.217   1.378   6.213  0.3340 -0.1576 -0.6997
 3195SOL     OW21043   4.326   3.975   2.448 -0.4990 -0.0048  0.2554
 3195SOL    HW121044   4.284   3.912   2.391 -0.3499 -1.0442  1.2864
 3195SOL    HW221045   4.366   3.909   2.506  0.7786  0.2095 -0.3727
 3196SOL     OW21046   2.042   1.390  10.007  0.4700 -0.4288  0.4410
 3196SOL    HW121047   1.950   1.388   9.982 -0.0429  0.4849  2.2657
 3196SOL    HW221048   2.032   1.453  10.078  0.7784  0.1203 -0.0056
 3197SOL     OW21049   4.708   2.055  17.638 -0.3241 -0.1347  0.3680
 3197SOL    HW121050   4.630   2.015  17.677  1.8432 -2.6918  2.0956
 3197SOL    HW221051   0.016   1.995  17.570 -0.3680  0.2685 -0.0118
 3198SOL     OW21052   1.672   2.560   3.752  0.1207  0.0658 -0.5162
 3198SOL    HW121053   1.584   2.521   3.763  0.7939 -0.7793  2.0282
 3198SOL    HW221054   1.713   2.482   3.714 -2.3077 -0.6385 -1.7324
 3199SOL     OW21055   4.532   3.332  14.636 -0.2219  0.6218  0.0023
 3199SOL    HW121056   4.571   3.305  14.553 -0.4187  0.7154 -0.1202
 3199SOL    HW221057   4.460   3.270  14.641 -0.2471  0.8273  2.3519
 3200SOL     OW21058   3.440   0.637  11.326 -0.2693 -0.0324  0.1053
 3200SOL    HW121059   3.520   0.674  11.289  0.2289 -1.0499  0.1480
 3200SOL    HW221060   3.383   0.639  11.250  1.2326 -0.9785 -1.0476
 3201SOL     OW21061   0.474   4.047   8.435  0.0623  0.2433  0.1680
 3201SOL    HW121062   0.440   4.027   8.348  0.2741  0.2122  0.0933
 3201SOL    HW221063   0.401   4.106   8.455 -0.9066 -0.5474 -1.0588
 3202SOL     OW21064   4.070   2.950   6.825  0.1887  0.2155  0.2288
 3202SOL    HW121065   4.147   2.908   6.864 -0.1623 -2.4015 -1.8985
 3202SOL    HW221066   4.002   2.906   6.877 -1.8132  1.3673 -1.4150
 3203SOL     OW21067   2.982   2.318   0.597  0.1796 -0.9185  0.0550
 3203SOL    HW121068   2.955   2.395   0.547 -0.1581 -2.0750 -1.5653
 3203SOL    HW221069   3.071   2.304   0.565 -0.5532 -0.0377 -2.4070
 3204SOL     OW21070   4.390   0.514   8.962 -0.0799 -0.1130 -1.0531
 3204SOL    HW121071   4.456   0.462   9.008 -0.4215 -0.3362 -0.8226
 3204SOL    HW221072   4.408   0.606   8.982 -1.4164  0.1091 -0.8893
 3205SOL     OW21073   1.651   0.217   6.276 -0.0314  0.4488 -0.6834
 3205SOL    HW121074   1.615   0.129   6.262  1.4054  0.2500 -3.0484
 3205SOL    HW221075   1.730   0.200   6.327 -1.4675 -0.2718  1.3007
 3206SOL     OW21076   2.376   1.391  13.770 -0.4338  0.1393 -0.2123
 3206SOL    HW121077   2.291   1.351  13.752  0.1809 -1.5477  0.6549
 3206SOL    HW221078   2.437   1.374  13.698 -0.5982  0.3450 -0.4008
 3207SOL     OW21079   0.815   3.493  17.475 -0.5443  0.2028 -0.1615
 3207SOL    HW121080   0.824   3.438  17.397  0.4390 -0.8346  0.7039
 3207SOL    HW221081   0.876   3.557  17.438  1.1292 -0.2175  1.8745
 3208SOL     OW21082   2.820   2.540   3.495  0.3270  0.1475 -0.2832
 3208SOL    HW121083   2.848   2.487   3.420 -0.8317 -2.0975  0.8718
 3208SOL    HW221084   2.904   2.544   3.542  0.3345  1.4229 -0.4066
 3209SOL     OW21085   2.239   0.533   0.301  0.0651  0.2572  0.1506
 3209SOL    HW121086   2.313   0.477   0.276 -0.8392 -1.3252  0.9783
 3209SOL    HW221087   2.262   0.554   0.392 -3.2021  3.1660  0.3115
 3210SOL     OW21088   1.202   3.693  15.866 -0.7845  0.4747  0.0554
 3210SOL    HW121089   1.250   3.759  15.816 -0.2139  1.2999  1.6684
 3210SOL    HW221090   1.118   3.731  15.889  0.4073  2.0433  1.8303
 3211SOL     OW21091   2.461   4.374   1.118  0.3105 -0.0201  0.2964
 3211SOL    HW121092   2.430   4.306   1.178  1.6134 -0.2867  0.6690
 3211SOL    HW221093   2.506   4.439   1.172  1.7875 -1.5616  0.9476
 3212SOL     OW21094   0.938   3.396  10.496 -0.0898 -0.2369 -0.4270
 3212SOL    HW121095   0.896   3.364  10.576 -1.3684  0.9002 -0.6408
 3212SOL    HW221096   0.870   3.462  10.486 -1.3401 -1.0908  2.3441
 3213SOL     OW21097   0.746   1.806   5.742 -0.0085  0.8347 -0.6394
 3213SOL    HW121098   0.683   1.850   5.685 -0.0614  0.7751 -0.6279
 3213SOL    HW221099   0.708   1.806   5.831 -1.7885 -0.6455 -1.3888
 3214SOL     OW21100   1.305   2.055   2.478  0.6020 -0.6396 -0.2440
 3214SOL    HW121101   1.225   2.088   2.436  0.3865 -0.1559  0.5627
 3214SOL    HW221102   1.298   2.094   2.564  0.7659  1.3231 -1.1264
 3215SOL     OW21103   2.508   3.734  13.746 -0.0124  0.4364  0.5578
 3215SOL    HW121104   2.455   3.654  13.748  0.5060  0.0810  0.2648
 3215SOL    HW221105   2.446   3.787  13.696 -1.4358 -0.3450  1.4943
 3216SOL     OW21106   1.487   0.880   1.369  0.6098 -0.4321 -0.3101
 3216SOL    HW121107   1.537   0.805   1.336  3.8985  1.4534  0.4546
 3216SOL    HW221108   1.395   0.854   1.359  0.4126  0.7256 -1.6276
 3217SOL     OW21109   0.328   1.754   0.658 -0.2853  0.1169  0.0242
 3217SOL    HW121110   0.390   1.820   0.688 -0.5205 -0.4321  1.6886
 3217SOL    HW221111   0.357   1.679   0.709  2.0629 -0.1696 -1.7035
 3218SOL     OW21112   4.573   2.235  14.735 -0.3925 -0.0855  0.2376
 3218SOL    HW121113   4.663   2.236  14.768 -0.6040 -1.9460  0.8246
 3218SOL    HW221114   4.525   2.288  14.799 -2.7472 -0.7366 -0.9822
 3219SOL     OW21115   0.034   3.703  11.145 -0.3347 -0.0625 -0.1580
 3219SOL    HW121116   0.125   3.683  11.121  0.1557 -0.1956  1.8358
 3219SOL    HW221117   0.022   3.782  11.092  1.9585  0.3888 -0.0184
 3220SOL     OW21118   2.281   0.300   2.872  0.3022  0.2920  0.4116
 3220SOL    HW121119   2.334   0.288   2.794 -2.1226 -1.2433 -1.0165
 3220SOL    HW221120   2.240   0.214   2.881  0.6801  0.2772  1.9755
 3221SOL     OW21121   4.102   4.175   8.329  0.4917 -0.1169 -0.2855
 3221SOL    HW121122   4.152   4.101   8.364  0.3929 -0.2396 -0.3992
 3221SOL    HW221123   4.028   4.131   8.286  2.6709 -2.7285 -1.3820
 3222SOL     OW21124   1.301   4.581  12.747  0.0973 -0.2997 -0.1107
 3222SOL    HW121125   1.309   4.602  12.654 -0.2952 -0.5979 -0.2095
 3222SOL    HW221126   1.344   4.655  12.790  1.6764 -1.5461  0.4688
 3223SOL     OW21127   4.666   0.081   9.124  0.0726 -0.2969  0.1660
 3223SOL    HW121128   4.703   0.138   9.057 -1.4284  2.8472  1.9933
 3223SOL    HW221129   4.707   4.720   9.102  0.3102 -0.1248 -0.0363
 3224SOL     OW21130   2.425   4.277   3.539  0.1465  0.5378 -0.0281
 3224SOL    HW121131   2.503   4.257   3.589  2.2233  1.5688 -2.8599
 3224SOL    HW221132   2.425   4.198   3.486  0.0786  0.0790  0.6608
 3225SOL     OW21133   1.992   2.228   3.831  0.2344  0.5191 -1.2501
 3225SOL    HW121134   1.898   2.241   3.842 -0.0891 -1.4317 -1.7805
 3225SOL    HW221135   2.012   2.311   3.788 -0.7072  0.4106 -1.8950
 3226SOL     OW21136   2.707   0.540   1.514 -0.0078 -0.0729  0.3962
 3226SOL    HW121137   2.786   0.564   1.465 -0.2578 -0.5938 -0.2676
 3226SOL    HW221138   2.719   0.595   1.591  1.6374  0.2151 -0.0557
 3227SOL     OW21139   1.361   2.351   1.989  0.4494  0.5971 -0.2393
 3227SOL    HW121140   1.289   2.409   2.014  0.7644  0.9846 -0.2250
 3227SOL    HW221141   1.418   2.359   2.066  2.3946  0.6358 -1.6863
 3228SOL     OW21142   2.532   2.445  11.708 -0.2524  0.3207 -0.3528
 3228SOL    HW121143   2.613   2.477  11.749  0.2849 -2.1274  0.5315
 3228SOL    HW221144   2.533   2.507  11.635 -0.1744  1.8876  0.9796
 3229SOL     OW21145   4.148   1.866   5.212 -0.2568 -0.1651  0.5971
 3229SOL    HW121146   4.069   1.812   5.211 -1.3535  1.4154  0.3589
 3229SOL    HW221147   4.140   1.909   5.126  2.3794 -1.4147 -0.2504
 3230SOL     OW21148   0.901   2.079   5.014 -0.0177 -0.1288 -0.6759
 3230SOL    HW121149   0.901   2.136   5.091  0.9687 -0.4947 -0.4088
 3230SOL    HW221150   0.965   2.015   5.044 -1.5884 -1.0354  0.7555
 3231SOL     OW21151   3.717   3.176   1.190 -0.2903  0.5107  0.3255
 3231SOL    HW121152   3.626   3.202   1.203  0.1884  2.0623  0.5891
 3231SOL    HW221153   3.710   3.082   1.175  0.0087  0.5426 -0.0128
 3232SOL     OW21154   0.927   0.980   5.412  0.0740 -0.7589 -0.5472
 3232SOL    HW121155   0.959   0.919   5.477  0.4435  1.3091  1.2104
 3232SOL    HW221156   1.008   1.029   5.395 -0.6353  0.5780 -0.1147
 3233SOL     OW21157   0.832   4.403   6.011  0.0302  0.1262  0.3656
 3233SOL    HW121158   0.871   4.335   6.065 -0.4505 -0.9804 -0.6715
 3233SOL    HW221159   0.753   4.354   5.985  0.1797 -0.6583  1.3868
 3234SOL     OW21160   1.128   4.439   3.799  0.6271  0.2250  0.2792
 3234SOL    HW121161   1.096   4.515   3.751  3.8524  0.0660 -2.1183
 3234SOL    HW221162   1.075   4.364   3.772  1.8281 -0.9100  1.0864
 3235SOL     OW21163   1.695   2.945  12.204  0.0035  0.1679  0.7417
 3235SOL    HW121164   1.698   3.031  12.164  1.4080 -0.6638 -0.9687
 3235SOL    HW221165   1.780   2.903  12.188 -0.4606 -0.4126 -0.2278
 3236SOL     OW21166   4.212   3.074   5.617 -0.4338 -0.5052  0.2872
 3236SOL    HW121167   4.192   3.128   5.541  0.3702 -2.0972 -1.0380
 3236SOL    HW221168   4.193   3.147   5.677 -0.6807  1.0662 -1.6954
 3237SOL     OW21169   2.053   1.026  16.620  0.0029 -0.1429  0.0166
 3237SOL    HW121170   2.029   1.055  16.532  0.8053 -1.5506 -0.6620
 3237SOL    HW221171   2.148   1.017  16.609 -0.0990  1.7105 -2.5911
 3238SOL     OW21172   4.303   1.905  10.337  0.4086  0.3606 -0.5656
 3238SOL    HW121173   4.339   1.863  10.259 -0.7858 -0.9206 -0.4156
 3238SOL    HW221174   4.237   1.845  10.370  1.1796  0.9878  2.1237
 3239SOL     OW21175   3.437   3.210   6.345 -0.6174  0.2099 -0.1742
 3239SOL    HW121176   3.433   3.141   6.411  1.2621  3.0179  2.8582
 3239SOL    HW221177   3.501   3.267   6.386 -1.0940  0.8511 -0.3261
 3240SOL     OW21178   2.730   1.181   1.226  0.1776  0.1536 -0.2764
 3240SOL    HW121179   2.824   1.178   1.211 -0.1076  4.1655 -3.1400
 3240SOL    HW221180   2.746   1.233   1.305  0.1530 -0.3733  0.0758
 3241SOL     OW21181   1.962   4.481   8.126 -0.2397 -0.1641 -0.2172
 3241SOL    HW121182   1.931   4.397   8.091  0.0496 -0.8113  1.0893
 3241SOL    HW221183   1.941   4.475   8.219  1.9601 -0.6091  0.2589
 3242SOL     OW21184   1.342   0.139   7.448  0.2685  0.3424 -0.2337
 3242SOL    HW121185   1.251   0.112   7.432  0.1896  0.5955 -0.2138
 3242SOL    HW221186   1.378   0.113   7.364 -1.1829 -0.6294 -0.5489
 3243SOL     OW21187   4.565   1.033  14.017  0.0461  0.4920  0.4811
 3243SOL    HW121188   4.509   1.023  14.094 -0.7082 -2.9557 -0.4982
 3243SOL    HW221189   4.570   1.128  14.003 -1.2404  0.3073 -1.1955
 3244SOL     OW21190   0.268   1.104   2.923 -0.3643  0.3171  0.4984
 3244SOL    HW121191   0.294   1.013   2.906 -0.8190  0.1357  0.7916
 3244SOL    HW221192   0.189   1.110   2.870 -0.6957  0.2808  0.9936
 3245SOL     OW21193   1.904   3.687   6.802 -0.2877 -0.1180 -0.1530
 3245SOL    HW121194   1.883   3.718   6.890  2.3543  2.8381 -0.5674
 3245SOL    HW221195   1.872   3.597   6.797  1.8644 -0.9277  0.6550
 3246SOL     OW21196   2.496   2.897   8.168 -0.0367 -0.2392 -0.2605
 3246SOL    HW121197   2.508   2.992   8.172  3.2865 -0.7312  2.0205
 3246SOL    HW221198   2.561   2.854   8.224 -2.3355 -3.1385  0.1841
 3247SOL     OW21199   3.661   0.492   7.055  0.0160 -0.0530  0.3832
 3247SOL    HW121200   3.567   0.501   7.066 -0.1124 -1.5518  0.5063
 3247SOL    HW221201   3.695   0.518   7.141  1.7938 -1.0860 -0.0051
 3248SOL     OW21202   3.127   1.046  10.104  0.6830  0.0511 -0.2591
 3248SOL    HW121203   3.061   1.108  10.137 -2.4382 -2.1193 -2.4475
 3248SOL    HW221204   3.198   1.107  10.086  0.2318  0.8262  0.5517
 3249SOL     OW21205   4.015   1.380  10.062 -0.0487 -0.1907  0.4367
 3249SOL    HW121206   4.003   1.458  10.007 -3.7736 -0.1995  1.2189
 3249SOL    HW221207   3.941   1.326  10.032 -0.3028  0.7402 -0.6595
 3250SOL     OW21208   1.834   3.346   8.541  0.1458 -1.0187  0.1916
 3250SOL    HW121209   1.791   3.305   8.617  1.3031 -0.7344  1.0006
 3250SOL    HW221210   1.774   3.306   8.478 -2.7410  1.1800  1.5274
 3251SOL     OW21211   3.531   3.879   1.933 -0.5524  0.1479 -0.3059
 3251SOL    HW121212   3.464   3.813   1.950  0.1076  0.1871  2.4698
 3251SOL    HW221213   3.510   3.917   1.847  0.6237  0.2365 -0.5522
 3252SOL     OW21214   0.734   4.086   8.106 -0.4920 -0.0837 -0.1253
 3252SOL    HW121215   0.677   4.116   8.176  0.2151 -0.0249  0.4266
 3252SOL    HW221216   0.702   4.135   8.030 -1.9107  3.1406  2.5736
 3253SOL     OW21217   3.274   3.153   5.153  0.1323 -0.1684  0.0378
 3253SOL    HW121218   3.206   3.204   5.197 -0.5668 -1.6557  0.6963
 3253SOL    HW221219   3.235   3.159   5.066  1.1978  3.3211 -0.2178
 3254SOL     OW21220   0.978   0.183   3.425  0.0525  0.4150  0.3832
 3254SOL    HW121221   0.926   0.222   3.495 -0.7585 -0.4969  0.2993
 3254SOL    HW221222   0.930   0.104   3.398  2.8370 -0.7672 -1.1049
 3255SOL     OW21223   4.229   1.330   1.844 -0.3260 -0.0561  0.5892
 3255SOL    HW121224   4.195   1.332   1.754  0.9383  1.7577  0.1499
 3255SOL    HW221225   4.290   1.256   1.849  0.4473  0.5187 -0.1807
 3256SOL     OW21226   3.781   2.807  17.125  0.4629 -0.2524 -0.3855
 3256SOL    HW121227   3.837   2.811  17.048  1.1491 -0.7716  0.0842
 3256SOL    HW221228   3.772   2.713  17.134  0.3805 -0.3946 -1.9471
 3257SOL     OW21229   2.264   3.699   8.945  0.5305  0.1960  0.0976
 3257SOL    HW121230   2.191   3.641   8.966  0.5510  0.1358  0.0017
 3257SOL    HW221231   2.321   3.673   9.017  0.2804  1.4623  0.7528
 3258SOL     OW21232   3.656   4.380  13.417 -0.3749 -0.4204 -0.3633
 3258SOL    HW121233   3.740   4.413  13.386 -1.1548 -0.4668 -2.4806
 3258SOL    HW221234   3.677   4.293  13.451  2.3777  0.1129 -0.7007
 3259SOL     OW21235   3.736   0.100   3.614 -0.3118  0.0411 -0.2173
 3259SOL    HW121236   3.713   0.191   3.631 -0.4076 -0.2036  1.0092
 3259SOL    HW221237   3.808   0.117   3.553  0.7726  0.6658  1.2421
 3260SOL     OW21238   1.081   1.309   8.494 -0.2655  0.6530 -0.4401
 3260SOL    HW121239   1.015   1.323   8.426 -0.4529  0.5553 -0.2790
 3260SOL    HW221240   1.027   1.330   8.571  0.6508  2.1608 -0.2084
 3261SOL     OW21241   1.332   0.658   4.229 -0.1716 -0.2038  0.4119
 3261SOL    HW121242   1.302   0.574   4.263 -1.0875 -0.7831 -1.8295
 3261SOL    HW221243   1.346   0.645   4.135 -2.3208 -0.1472  0.0840
 3262SOL     OW21244   4.367   3.343   9.875 -0.3382 -0.1257 -0.1025
 3262SOL    HW121245   4.383   3.429   9.913 -0.7260  0.0279 -0.2947
 3262SOL    HW221246   4.446   3.292   9.896  1.8458  2.5877 -1.7706
 3263SOL     OW21247   4.087   2.454   0.083 -0.0154 -0.2158  0.6269
 3263SOL    HW121248   4.162   2.413   0.040 -1.2995 -1.4177 -0.4948
 3263SOL    HW221249   4.126   2.514   0.145  1.0560 -0.9783  0.6982
 3264SOL     OW21250   3.078   0.968   1.716 -0.0354  0.3029  0.0364
 3264SOL    HW121251   2.986   0.991   1.708  0.4665  2.5408  0.7824
 3264SOL    HW221252   3.113   0.982   1.628 -1.7461 -3.1291 -1.1981
 3265SOL     OW21253   1.779   2.308   0.778 -0.0338  0.3936 -0.2448
 3265SOL    HW121254   1.845   2.375   0.761  1.0879 -0.4336  0.8973
 3265SOL    HW221255   1.707   2.357   0.818 -0.1393  0.4919 -0.5535
 3266SOL     OW21256   1.534   4.591   3.619  0.7445 -0.4457  0.4003
 3266SOL    HW121257   1.462   4.543   3.660  2.1636  1.5926  5.2809
 3266SOL    HW221258   1.515   4.678   3.656 -0.8020 -0.0403 -1.2947
 3267SOL     OW21259   0.420   3.392   3.442 -0.2547  0.3544  0.4478
 3267SOL    HW121260   0.449   3.481   3.461  0.3342  0.9267 -3.1746
 3267SOL    HW221261   0.359   3.387   3.369 -1.1705 -0.9727  1.2923
 3268SOL     OW21262   3.874   2.462  11.341  0.3576  0.3093  0.1354
 3268SOL    HW121263   3.858   2.396  11.408  0.9511 -0.3370 -0.3563
 3268SOL    HW221264   3.914   2.532  11.392 -0.0687 -0.1199  1.0495
 3269SOL     OW21265   2.314   0.251   6.261 -0.2150 -0.9994  0.4080
 3269SOL    HW121266   2.227   0.280   6.237 -0.1057 -0.5117  0.5965
 3269SOL    HW221267   2.301   0.158   6.241 -2.7586 -0.5874  0.2123
 3270SOL     OW21268   4.704   3.218   3.183  0.0999  0.0005  0.5674
 3270SOL    HW121269   4.617   3.253   3.166  0.0718  0.2054  1.1378
 3270SOL    HW221270   4.700   3.137   3.132  0.9713  0.3612 -0.0804
 3271SOL     OW21271   0.374   4.130  16.579 -0.1228 -0.3543  0.2576
 3271SOL    HW121272   0.433   4.182  16.524 -0.3354 -1.0279 -0.5859
 3271SOL    HW221273   0.293   4.133  16.529 -0.5818  0.5942  1.0463
 3272SOL     OW21274   1.752   0.867   4.395  0.0763  0.6182  1.2857
 3272SOL    HW121275   1.660   0.887   4.413 -0.0669  0.5678  0.6445
 3272SOL    HW221276   1.786   0.834   4.478 -1.0863  1.4165  2.0751
 3273SOL     OW21277   0.973   4.138   2.284 -0.4396 -0.1038  0.1398
 3273SOL    HW121278   0.973   4.148   2.188  0.2380 -1.6773 -0.0262
 3273SOL    HW221279   0.939   4.224   2.308  0.9433  1.1119 -2.2063
 3274SOL     OW21280   1.934   4.289   3.198 -0.0715  0.0491  0.6679
 3274SOL    HW121281   1.969   4.278   3.109 -0.3760  0.6449  0.4798
 3274SOL    HW221282   1.891   4.374   3.188  1.7973  0.4941 -3.5392
 3275SOL     OW21283   2.390   1.286  11.573 -0.0062  0.4424 -0.7736
 3275SOL    HW121284   2.415   1.194  11.570 -3.3471 -0.4851 -0.0138
 3275SOL    HW221285   2.323   1.282  11.640  1.2394  1.0326  0.5091
 3276SOL     OW21286   3.113   2.067  16.959  0.1139  0.3510  0.2066
 3276SOL    HW121287   3.160   2.146  16.936  0.6349  0.2610  0.9755
 3276SOL    HW221288   3.181   2.008  16.928 -1.3935 -1.1507 -0.2973
 3277SOL     OW21289   1.856   0.366   5.510  0.0910 -0.2046  0.0041
 3277SOL    HW121290   1.920   0.385   5.442 -1.9790  1.7157 -1.3818
 3277SOL    HW221291   1.894   0.298   5.567  1.4900  0.0852 -0.5656
 3278SOL     OW21292   0.809   1.226   2.284 -0.2517  0.0491 -0.4609
 3278SOL    HW121293   0.881   1.284   2.258 -0.2096  0.3580  0.3485
 3278SOL    HW221294   0.782   1.253   2.371  0.3308  0.9383 -0.5522
 3279SOL     OW21295   0.799   1.204   3.068  0.3558  0.0468  0.6746
 3279SOL    HW121296   0.835   1.124   3.030  0.1846 -0.6440  1.9683
 3279SOL    HW221297   0.718   1.179   3.112  0.2240 -0.7140 -0.0081
 3280SOL     OW21298   3.830   1.290  12.950 -0.0129  0.5758 -0.6225
 3280SOL    HW121299   3.787   1.345  12.885  1.3581  0.4581 -1.6206
 3280SOL    HW221300   3.921   1.307  12.924 -0.2552  2.4737 -0.2293
 3281SOL     OW21301   4.134   0.175   4.336 -0.7460  0.2000 -0.5842
 3281SOL    HW121302   4.112   0.169   4.243 -3.2460 -2.1654  0.1345
 3281SOL    HW221303   4.157   0.268   4.336  1.9372 -0.4452  0.1707
 3282SOL     OW21304   3.653   1.334   6.064 -0.0947  0.3089  0.1087
 3282SOL    HW121305   3.624   1.344   5.974  0.7730 -0.5021 -0.2622
 3282SOL    HW221306   3.642   1.242   6.086  3.4271 -0.1139  0.1544
 3283SOL     OW21307   1.588   4.518   7.846  0.1115  0.2468  0.3161
 3283SOL    HW121308   1.673   4.562   7.837 -0.4005  1.0957 -0.3520
 3283SOL    HW221309   1.539   4.581   7.899 -1.1031 -0.0208 -0.5006
 3284SOL     OW21310   3.064   2.264  15.161 -0.1897  0.4501  0.3563
 3284SOL    HW121311   3.020   2.183  15.137  0.6848 -0.4509  1.8118
 3284SOL    HW221312   3.140   2.216  15.195 -0.1864  0.2430  0.0495
 3285SOL     OW21313   2.044   2.259   6.797  0.4626  0.2192 -0.7254
 3285SOL    HW121314   2.121   2.254   6.855 -0.5393 -2.5390  0.3707
 3285SOL    HW221315   1.972   2.289   6.853  0.5032  1.4793 -1.3562
 3286SOL     OW21316   3.712   2.614   1.785  0.1106 -0.0612 -0.1348
 3286SOL    HW121317   3.745   2.566   1.709 -0.5901  1.4788 -1.4126
 3286SOL    HW221318   3.776   2.684   1.778  2.6751 -2.2221  1.7032
 3287SOL     OW21319   1.041   1.786  11.238  0.0614  0.0546  0.2358
 3287SOL    HW121320   1.044   1.703  11.192 -2.1680 -0.0538  0.2994
 3287SOL    HW221321   1.043   1.746  11.324  0.6728 -0.9772 -0.2534
 3288SOL     OW21322   1.525   1.636   8.703  0.3887 -0.2392  0.0127
 3288SOL    HW121323   1.529   1.543   8.680  1.3242 -0.3749  0.7289
 3288SOL    HW221324   1.592   1.685   8.656  0.0476  0.7044  0.4937
 3289SOL     OW21325   1.905   1.745   3.624 -0.3445 -0.4069  0.0388
 3289SOL    HW121326   1.953   1.737   3.707  0.2501 -1.0379 -0.3706
 3289SOL    HW221327   1.961   1.693   3.567  1.3921 -0.3320  1.6473
 3290SOL     OW21328   2.426   0.496  15.929  0.2345 -0.2515  0.0706
 3290SOL    HW121329   2.433   0.592  15.936  2.0078 -0.3881  0.1078
 3290SOL    HW221330   2.504   0.471  15.978 -0.0528  2.4520  1.9333
 3291SOL     OW21331   1.217   3.457  10.845 -0.3564 -0.3605  0.8390
 3291SOL    HW121332   1.220   3.383  10.906 -0.3924 -0.3983  0.7946
 3291SOL    HW221333   1.222   3.524  10.913  2.5493  1.5384 -1.2435
 3292SOL     OW21334   3.588   0.830   7.556  0.1169 -0.2250  0.1856
 3292SOL    HW121335   3.657   0.863   7.500  1.5215 -0.9350  1.5029
 3292SOL    HW221336   3.605   0.739   7.530  2.2423  0.5723 -1.1825
 3293SOL     OW21337   0.093   0.150   5.691 -0.3072 -0.0804  0.7546
 3293SOL    HW121338   0.187   0.161   5.701 -0.3137  0.7391 -0.0550
 3293SOL    HW221339   0.063   0.208   5.761 -3.2308 -1.2194  0.4670
 3294SOL     OW21340   1.240   2.124   7.512  0.3846  0.0987  0.9154
 3294SOL    HW121341   1.183   2.135   7.436 -0.0600  1.3874  1.4325
 3294SOL    HW221342   1.226   2.033   7.540 -0.4115 -0.6527 -1.9428
 3295SOL     OW21343   4.135   4.366  16.327  0.2233 -0.0385 -0.0744
 3295SOL    HW121344   4.084   4.295  16.366  0.6248  0.9850  2.2823
 3295SOL    HW221345   4.111   4.441  16.380  1.8522  1.2899 -1.2103
 3296SOL     OW21346   1.745   1.724   7.421  0.2258  0.7148  0.6547
 3296SOL    HW121347   1.834   1.754   7.406  0.5739 -0.3892  0.4957
 3296SOL    HW221348   1.699   1.805   7.398  0.3865  0.6971  0.2667
 3297SOL     OW21349   2.957   3.788   6.627 -0.2580 -0.7946 -0.0165
 3297SOL    HW121350   2.895   3.833   6.684 -0.0413  0.2689 -0.6081
 3297SOL    HW221351   3.034   3.845   6.629 -2.0698  1.6421  0.0973
 3298SOL     OW21352   2.931   2.378  10.410 -0.3055 -0.2238 -0.2938
 3298SOL    HW121353   3.017   2.336  10.417 -0.2442 -0.1698 -0.7122
 3298SOL    HW221354   2.931   2.432  10.488 -2.2620 -0.1112 -0.3815
 3299SOL     OW21355   1.790   0.085  11.843 -0.0181  0.2167  0.3359
 3299SOL    HW121356   1.713   0.049  11.798  0.7338 -1.1912  0.1732
 3299SOL    HW221357   1.825   0.010  11.891 -0.7478 -0.5136 -0.2593
 3300SOL     OW21358   3.773   0.057  15.896  0.4662 -0.3769 -0.5088
 3300SOL    HW121359   3.707   0.053  15.827 -0.2471  0.9098  0.1040
 3300SOL    HW221360   3.793   4.687  15.903 -1.2793 -0.6752  0.4879
 3301SOL     OW21361   0.597   0.419   6.097  0.1453  0.4443 -0.1912
 3301SOL    HW121362   0.603   0.490   6.033 -0.9783 -1.4536 -2.4121
 3301SOL    HW221363   0.632   0.471   6.169  2.6004 -1.3445 -0.1151
 3302SOL     OW21364   3.671   3.885  13.829  0.0009  0.2707 -0.8827
 3302SOL    HW121365   3.593   3.838  13.800  1.5865 -2.3486 -0.9541
 3302SOL    HW221366   3.735   3.819  13.800  0.2869  0.1930 -0.0842
 3303SOL     OW21367   3.465   3.629   2.481  0.1411 -0.3057  0.3477
 3303SOL    HW121368   3.540   3.675   2.444 -0.8850  2.1063  1.2576
 3303SOL    HW221369   3.513   3.562   2.529  0.6956 -0.2564 -0.1410
 3304SOL     OW21370   4.491   3.352   2.005 -0.2228  0.2931  0.4764
 3304SOL    HW121371   4.557   3.301   1.958  0.3578  1.1379  0.3728
 3304SOL    HW221372   4.497   3.433   1.956  0.8009  0.5399  1.0078
 3305SOL     OW21373   4.701   0.246   3.080 -0.3271 -0.2592 -0.0013
 3305SOL    HW121374   4.700   0.327   3.028  2.1942  0.0600  0.4234
 3305SOL    HW221375   4.698   0.181   3.009 -2.1598  1.0856 -1.1459
 3306SOL     OW21376   1.061   3.826   9.890  0.4122 -0.4230  0.4556
 3306SOL    HW121377   1.152   3.796   9.887  0.6399  0.2936  0.1187
 3306SOL    HW221378   1.018   3.770   9.954 -2.6607  1.2392 -0.1691
 3307SOL     OW21379   3.704   1.922   7.523 -0.0755 -0.9222  0.0900
 3307SOL    HW121380   3.734   1.862   7.592 -2.5531 -1.6664  0.5390
 3307SOL    HW221381   3.684   1.872   7.444  0.0280 -1.6678  0.5285
 3308SOL     OW21382   3.287   1.302   4.574  0.4304 -0.6788 -0.5978
 3308SOL    HW121383   3.370   1.255   4.564  2.2422  2.0372  1.8654
 3308SOL    HW221384   3.334   1.383   4.591  1.6538 -1.2626 -1.1925
 3309SOL     OW21385   0.808   2.029  11.727 -0.6948 -0.4010 -0.6032
 3309SOL    HW121386   0.846   1.952  11.685  1.1327  1.5449 -2.5102
 3309SOL    HW221387   0.856   2.099  11.683 -0.7374  1.4279  2.1884
 3310SOL     OW21388   2.616   4.722   2.023  0.1664  0.0916 -0.5311
 3310SOL    HW121389   2.711   0.003   2.008  0.1851  0.7089 -0.2762
 3310SOL    HW221390   2.613   4.650   2.085 -0.5934  0.2289 -0.4086
 3311SOL     OW21391   4.135   2.352  16.515  0.3303  0.1490 -0.4569
 3311SOL    HW121392   4.097   2.431  16.477 -3.1563 -0.8134  1.0574
 3311SOL    HW221393   4.227   2.376  16.505 -0.0268  0.7630 -2.3012
 3312SOL     OW21394   2.314   2.318   4.011  0.4501  0.1477 -0.3729
 3312SOL    HW121395   2.285   2.287   3.925  0.5822 -0.2346 -0.2761
 3312SOL    HW221396   2.330   2.242   4.066 -2.4686 -1.7175 -2.1162
 3313SOL     OW21397   0.987   4.187  11.395 -0.0859  0.1481 -0.2417
 3313SOL    HW121398   0.924   4.197  11.324 -0.0680 -1.4014 -0.4944
 3313SOL    HW221399   1.068   4.219  11.356 -0.1396  1.4872  0.7649
 3314SOL     OW21400   1.230   4.564   3.046  0.0402  0.3485  0.1627
 3314SOL    HW121401   1.245   4.521   3.130 -0.9055  2.3008  1.3273
 3314SOL    HW221402   1.311   4.613   3.032  0.7093 -0.3916  1.4965
 3315SOL     OW21403   2.340   3.268   4.122 -0.1142  0.1016  0.1177
 3315SOL    HW121404   2.419   3.237   4.167  0.5740  2.3324  0.4678
 3315SOL    HW221405   2.278   3.199   4.144  0.2038 -0.1145  0.3342
 3316SOL     OW21406   3.074   2.953  13.305 -0.4111 -0.1281  0.2139
 3316SOL    HW121407   3.062   2.871  13.257 -1.5929 -1.9149  3.5634
 3316SOL    HW221408   3.164   2.950  13.337  0.2741 -1.7488 -1.8958
 3317SOL     OW21409   2.838   2.604   3.830 -0.2411 -0.1224 -0.0536
 3317SOL    HW121410   2.911   2.559   3.787 -0.0242 -1.7055  2.0058
 3317SOL    HW221411   2.802   2.658   3.759  1.6982  0.5476 -0.5520
 3318SOL     OW21412   1.625   0.624   6.356 -0.6132  0.1172 -0.1976
 3318SOL    HW121413   1.540   0.619   6.399 -0.4694  0.6363  0.1443
 3318SOL    HW221414   1.667   0.666   6.430 -0.0285 -1.1855  0.1954
 3319SOL     OW21415   0.032   2.387  17.454 -0.0871  0.2205  0.0340
 3319SOL    HW121416   0.057   2.422  17.369  0.5142  0.8918  0.4974
 3319SOL    HW221417   0.116   2.352  17.483 -0.1024  0.1186 -0.0433
 3320SOL     OW21418   2.238   0.101   5.801 -0.7006 -0.4148 -0.0677
 3320SOL    HW121419   2.143   0.112   5.804 -0.7849 -1.3017  0.6034
 3320SOL    HW221420   2.270   0.145   5.880 -0.3179  0.6200 -0.7918
 3321SOL     OW21421   2.916   4.245   8.686  0.6346  0.0104  0.3558
 3321SOL    HW121422   2.959   4.320   8.726  0.0183  0.2886  0.4906
 3321SOL    HW221423   2.829   4.241   8.725 -0.8878  3.0310 -2.6732
 3322SOL     OW21424   2.830   1.439   0.932 -0.2184  0.2185 -0.0079
 3322SOL    HW121425   2.923   1.427   0.949 -0.4627 -0.6587  0.6644
 3322SOL    HW221426   2.822   1.381   0.857 -0.2463 -1.9630  1.7018
 3323SOL     OW21427   0.596   2.660   4.726  0.4804 -0.6301  1.0711
 3323SOL    HW121428   0.629   2.582   4.770 -0.6635 -1.7822 -0.1621
 3323SOL    HW221429   0.620   2.642   4.635  2.1754 -3.2451  2.0372
 3324SOL     OW21430   1.380   0.472   1.538  0.5015  0.2691  0.1770
 3324SOL    HW121431   1.373   0.435   1.450  0.9362 -0.9801  0.6633
 3324SOL    HW221432   1.426   0.397   1.574 -2.2901 -0.3902  2.4429
 3325SOL     OW21433   3.723   3.809   6.784 -0.3590 -0.3295 -0.1296
 3325SOL    HW121434   3.766   3.730   6.816 -1.0332 -0.9418 -0.7289
 3325SOL    HW221435   3.637   3.776   6.758 -1.2448  0.3852  1.9263
 3326SOL     OW21436   1.879   2.655   3.579  0.1325  0.0571  0.2831
 3326SOL    HW121437   1.819   2.593   3.620  1.4491  0.8245  3.3341
 3326SOL    HW221438   1.926   2.600   3.516 -0.6536  0.0313 -0.2890
 3327SOL     OW21439   3.483   3.465   8.501 -0.0819 -0.2715 -0.3119
 3327SOL    HW121440   3.573   3.494   8.489 -0.6095  1.7752  0.6529
 3327SOL    HW221441   3.423   3.518   8.448  1.2910  0.7818 -0.7965
 3328SOL     OW21442   3.110   3.982   5.845 -1.0895 -0.3847  0.8100
 3328SOL    HW121443   3.154   3.930   5.778  0.8204 -0.4929  2.1330
 3328SOL    HW221444   3.172   3.989   5.918 -1.5520  1.5977  1.0230
 3329SOL     OW21445   1.117   1.940   5.548  0.3296  0.1494 -0.5404
 3329SOL    HW121446   1.092   1.992   5.624  2.3418 -0.4589  0.5320
 3329SOL    HW221447   1.185   2.000   5.519  0.6974 -0.0644 -0.1174
 3330SOL     OW21448   0.618   1.874   3.687 -0.8848 -0.4323  0.1068
 3330SOL    HW121449   0.629   1.877   3.592 -3.0384  0.1025 -0.1137
 3330SOL    HW221450   0.710   1.877   3.714 -0.8399  1.0042 -0.1684
 3331SOL     OW21451   1.532   2.855   4.944  0.0676  0.1268 -0.4534
 3331SOL    HW121452   1.490   2.933   4.908  0.4781  1.5074  2.0900
 3331SOL    HW221453   1.488   2.849   5.029  2.4255  1.5079  0.8735
 3332SOL     OW21454   2.818   2.275   7.129  1.1184 -0.2942 -0.6676
 3332SOL    HW121455   2.801   2.192   7.174 -1.5311  0.2526 -0.6536
 3332SOL    HW221456   2.913   2.273   7.126  1.1414  1.7139 -0.7867
 3333SOL     OW21457   0.873   4.251  12.930  0.0282  0.5414  0.1362
 3333SOL    HW121458   0.828   4.331  12.904  0.1372 -0.0349 -1.8563
 3333SOL    HW221459   0.799   4.201  12.966  0.3448  0.0506  0.1150
 3334SOL     OW21460   4.145   2.186   8.758  0.5273 -0.5741  0.3614
 3334SOL    HW121461   4.227   2.151   8.723 -0.4127 -0.4025 -1.9892
 3334SOL    HW221462   4.086   2.151   8.691  1.2829 -0.2084 -0.4889
 3335SOL     OW21463   1.161   1.928   5.842  0.1395  0.0300  0.1400
 3335SOL    HW121464   1.191   1.839   5.858  1.4676  0.3840 -0.3517
 3335SOL    HW221465   1.237   1.975   5.807  1.3020  0.3461  3.1032
 3336SOL     OW21466   3.493   3.564   6.279  0.3759 -0.2523 -0.1513
 3336SOL    HW121467   3.477   3.515   6.199  0.4981 -0.7543  0.1343
 3336SOL    HW221468   3.409   3.536   6.315 -0.4019 -0.2432 -1.9371
 3337SOL     OW21469   2.017   1.789  10.804 -0.2582  0.7831 -0.2187
 3337SOL    HW121470   1.966   1.860  10.844  1.2793  2.6967 -1.6405
 3337SOL    HW221471   1.954   1.720  10.824  0.2381  0.2726 -0.4530
 3338SOL     OW21472   0.372   2.156   4.825  0.0516 -0.0496  0.0324
 3338SOL    HW121473   0.450   2.135   4.876  0.0937  0.2054  0.0740
 3338SOL    HW221474   0.304   2.126   4.884 -1.6941  3.0192 -0.4014
 3339SOL     OW21475   0.423   2.425   9.337 -0.2074 -0.5334 -0.9411
 3339SOL    HW121476   0.331   2.438   9.313 -0.0096  0.6869 -1.0215
 3339SOL    HW221477   0.473   2.481   9.277  1.2614  0.2420  1.0254
 3340SOL     OW21478   2.980   3.051   6.680  0.0069  0.6379  0.4261
 3340SOL    HW121479   3.010   3.142   6.672 -0.7326  0.9031  0.7248
 3340SOL    HW221480   2.893   3.070   6.714  0.7187  2.8968  1.0173
 3341SOL     OW21481   0.048   3.106   2.461 -0.1878 -0.6309  0.0505
 3341SOL    HW121482   0.108   3.179   2.448 -0.2383 -0.9953 -2.1383
 3341SOL    HW221483   4.685   3.148   2.447 -0.1249 -0.3121  0.5734
 3342SOL     OW21484   2.055   0.439  12.747 -0.2487 -0.0621  0.3861
 3342SOL    HW121485   2.115   0.444  12.673 -2.8293 -0.4093 -1.6789
 3342SOL    HW221486   2.076   0.522  12.790 -0.2555  0.2542 -0.2301
 3343SOL     OW21487   0.336   0.183  10.570 -0.1214 -0.4329  0.5159
 3343SOL    HW121488   0.364   0.111  10.514  0.8959 -0.3203  0.8878
 3343SOL    HW221489   0.282   0.135  10.632 -0.1915  0.1417  0.9006
 3344SOL     OW21490   1.715   3.633   0.803  0.2620 -0.3209  0.1686
 3344SOL    HW121491   1.684   3.605   0.889 -0.9538 -0.8413 -0.4401
 3344SOL    HW221492   1.642   3.624   0.741 -0.8350  0.6567  1.3283
 3345SOL     OW21493   4.293   4.715   3.730  0.7737  0.2477 -0.5740
 3345SOL    HW121494   4.214   0.042   3.753  1.8963  0.7233  2.1600
 3345SOL    HW221495   4.358   0.021   3.794 -0.0758  0.1157  0.3415
 3346SOL     OW21496   0.342   2.472   6.823 -0.3758  0.5844 -0.0114
 3346SOL    HW121497   0.414   2.423   6.863 -1.1789  1.0103  1.9253
 3346SOL    HW221498   0.279   2.402   6.808 -0.2055  0.4758 -0.2277
 3347SOL     OW21499   3.066   1.828   0.774 -0.0523  0.0265 -0.2892
 3347SOL    HW121500   3.081   1.921   0.754  2.1799 -0.0353  1.1229
 3347SOL    HW221501   3.109   1.787   0.699 -0.2186 -1.8443  0.6618
 3348SOL     OW21502   3.930   2.055   7.803 -0.2639  0.1926 -0.1627
 3348SOL    HW121503   3.947   1.980   7.861 -1.6379  1.8087  2.2970
 3348SOL    HW221504   3.842   2.074   7.835  0.3875  0.6383  1.3706
 3349SOL     OW21505   2.712   2.555  16.940 -0.4014  0.2921 -0.0465
 3349SOL    HW121506   2.733   2.466  16.913  2.8910  1.7302 -2.2359
 3349SOL    HW221507   2.799   2.578  16.972  0.1486  0.3724 -1.6169
 3350SOL     OW21508   0.110   2.902  13.690  0.5385 -0.1977 -0.2657
 3350SOL    HW121509   0.097   2.879  13.782  0.0910 -1.9818 -0.7830
 3350SOL    HW221510   0.204   2.919  13.687  0.5660 -0.1633  0.6851
 3351SOL     OW21511   1.200   4.568   4.785 -0.4343 -0.0927 -0.1493
 3351SOL    HW121512   1.259   4.527   4.847 -1.9555 -0.9916  0.6865
 3351SOL    HW221513   1.220   4.662   4.775 -0.2254 -0.1069  0.1517
 3352SOL     OW21514   1.722   0.029   8.434  0.0320  0.0778  0.0527
 3352SOL    HW121515   1.653   0.041   8.369  2.7250  0.6705 -2.7575
 3352SOL    HW221516   1.756   4.665   8.412  0.1447  0.2575 -0.4848
 3353SOL     OW21517   2.301   1.650  10.307 -0.2394 -0.3359  0.3416
 3353SOL    HW121518   2.264   1.717  10.250  0.7909  0.5199  0.6972
 3353SOL    HW221519   2.396   1.656  10.301 -0.2236 -1.6830 -0.9528
 3354SOL     OW21520   0.189   1.744   3.149  0.0431 -0.1106 -0.2441
 3354SOL    HW121521   0.118   1.802   3.174  1.5936  1.3708  0.7111
 3354SOL    HW221522   0.259   1.804   3.121 -1.7785  0.4785 -3.5516
 3355SOL     OW21523   0.214   2.143   7.642  0.0090  0.0443 -0.3308
 3355SOL    HW121524   0.230   2.181   7.728  1.2833 -2.1943  0.4155
 3355SOL    HW221525   0.152   2.072   7.659 -0.5696  0.5619 -0.2659
 3356SOL     OW21526   1.797   4.095   3.575 -0.0076 -0.7874  0.7727
 3356SOL    HW121527   1.702   4.085   3.573 -0.1711  0.7055  1.3989
 3356SOL    HW221528   1.797   4.180   3.620  1.3154 -0.7415  0.6885
 3357SOL     OW21529   3.415   1.242   8.428  0.8416  0.6842  0.3738
 3357SOL    HW121530   3.457   1.297   8.361  2.6607 -0.6091  0.4521
 3357SOL    HW221531   3.328   1.281   8.436  0.1169 -0.8996  0.1999
 3358SOL     OW21532   0.549   2.611   3.706  0.0863 -0.2639  0.4709
 3358SOL    HW121533   0.520   2.650   3.788 -0.6199 -0.0718  0.1313
 3358SOL    HW221534   0.644   2.625   3.715  0.1492  0.2561 -1.0120
 3359SOL     OW21535   2.605   1.625   3.752  0.6556 -0.1301 -0.1974
 3359SOL    HW121536   2.521   1.624   3.707  0.6158 -0.3786 -0.1181
 3359SOL    HW221537   2.632   1.716   3.742  1.8998 -0.4205  0.4674
 3360SOL     OW21538   0.935   0.751   5.616 -0.4876  0.4745  0.2565
 3360SOL    HW121539   1.017   0.702   5.608 -0.8690  0.0428 -0.9976
 3360SOL    HW221540   0.874   0.678   5.606  0.7968 -0.4814 -0.6690
 3361SOL     OW21541   0.771   0.572   1.786  0.3496  0.5444  0.1900
 3361SOL    HW121542   0.683   0.573   1.824  1.1219  1.5037  1.9204
 3361SOL    HW221543   0.819   0.601   1.864  0.7414 -1.9516  0.8608
 3362SOL     OW21544   1.870   4.145   2.751 -0.4675  0.3563  0.2193
 3362SOL    HW121545   1.948   4.200   2.757 -0.2343 -0.1708  2.2422
 3362SOL    HW221546   1.867   4.131   2.656  0.8573  0.9490  0.0899
 3363SOL     OW21547   2.678   0.972   9.542 -0.6138  0.0913 -0.1566
 3363SOL    HW121548   2.597   0.949   9.588 -1.3757  2.8224 -0.1116
 3363SOL    HW221549   2.719   1.043   9.592 -1.5577  1.6722 -1.6331
 3364SOL     OW21550   2.464   3.794   1.128 -0.0540  0.5641  0.0738
 3364SOL    HW121551   2.531   3.812   1.194  0.9255 -0.2291 -0.7050
 3364SOL    HW221552   2.503   3.823   1.045  0.9322 -0.3948  0.2060
 3365SOL     OW21553   1.153   3.138   4.944  0.1990 -0.1150  0.3031
 3365SOL    HW121554   1.172   3.190   4.867  0.3734 -1.5678 -0.6450
 3365SOL    HW221555   1.244   3.115   4.963  0.0641  0.9438  2.1953
 3366SOL     OW21556   2.094   0.909  15.058 -0.2489 -0.0621  0.9145
 3366SOL    HW121557   2.127   0.823  15.082  1.2510  0.5276  0.9172
 3366SOL    HW221558   2.008   0.921  15.100 -0.0773 -0.0453  1.2638
 3367SOL     OW21559   4.697   3.338   8.955 -0.7288 -0.3384  0.5581
 3367SOL    HW121560   4.616   3.353   9.003  0.3852  1.1268  1.9661
 3367SOL    HW221561   0.039   3.394   8.999 -0.6815 -0.5060  0.7003
 3368SOL     OW21562   3.029   1.324   3.605  0.3580  0.2933 -0.3857
 3368SOL    HW121563   2.986   1.390   3.550 -2.8432 -0.1073  1.6854
 3368SOL    HW221564   3.057   1.369   3.685 -0.2695  0.3187 -0.1819
 3369SOL     OW21565   2.053   3.487  12.304 -0.4659 -0.0122 -0.4088
 3369SOL    HW121566   2.133   3.497  12.252  0.0185  1.5600  0.6591
 3369SOL    HW221567   1.995   3.547  12.257 -1.1073  0.0086  0.4050
 3370SOL     OW21568   0.271   0.345   4.060 -0.0708 -0.4215  0.2264
 3370SOL    HW121569   0.272   0.406   3.986  2.0548  1.0952  1.5254
 3370SOL    HW221570   0.242   0.395   4.136  0.3971 -0.0238  0.1374
 3371SOL     OW21571   3.122   2.701   2.846  0.5673  0.3386  0.1240
 3371SOL    HW121572   3.150   2.749   2.768  0.0627 -1.1030 -0.9247
 3371SOL    HW221573   3.032   2.733   2.856  0.6413  0.4629  0.4059
 3372SOL     OW21574   2.026   0.450  13.465  0.1146  0.5518  0.0102
 3372SOL    HW121575   2.035   0.413  13.377 -0.0613 -1.9103  1.0451
 3372SOL    HW221576   1.933   0.471  13.472 -0.1242  0.1181 -1.7944
 3373SOL     OW21577   1.602   0.988   5.830 -0.3215 -0.1639 -0.0644
 3373SOL    HW121578   1.550   1.065   5.854  0.7761  1.2098 -2.1227
 3373SOL    HW221579   1.543   0.915   5.814 -0.5765 -0.1980  1.0014
 3374SOL     OW21580   0.652   3.236   1.476 -0.3533  0.2561 -0.0291
 3374SOL    HW121581   0.732   3.280   1.448 -1.7375  3.4061  0.9098
 3374SOL    HW221582   0.685   3.147   1.465  0.6410  0.3316  2.2953
 3375SOL     OW21583   2.811   0.002   2.548  0.0664 -0.1673 -0.5950
 3375SOL    HW121584   2.774   0.056   2.617 -1.3189 -3.2348  1.0965
 3375SOL    HW221585   2.733   4.708   2.494  0.3817  1.1451 -1.4517
 3376SOL     OW21586   1.910   1.420   6.311 -0.1446  0.8572 -0.0364
 3376SOL    HW121587   1.990   1.443   6.263 -0.8515  2.0261 -0.6453
 3376SOL    HW221588   1.883   1.507   6.339 -1.4842  0.1356  0.8916
 3377SOL     OW21589   4.669   4.240   4.303  0.5453 -0.1534 -0.7796
 3377SOL    HW121590   4.616   4.177   4.253 -2.5169  1.4987  0.3821
 3377SOL    HW221591   0.008   4.184   4.349  1.6859  0.8410 -1.1101
 3378SOL     OW21592   2.194   0.565   7.846 -0.2047  0.4236 -0.1720
 3378SOL    HW121593   2.236   0.513   7.915 -0.1877  1.2423  0.4353
 3378SOL    HW221594   2.266   0.609   7.801 -1.4819 -0.5339 -3.2001
 3379SOL     OW21595   2.083   1.396   9.236 -0.0381  0.0924 -0.1902
 3379SOL    HW121596   2.117   1.311   9.264 -0.9914  1.0314  3.7610
 3379SOL    HW221597   2.001   1.376   9.191 -0.2510  0.5252  0.0121
 3380SOL     OW21598   3.043   0.358   2.878 -0.3198 -0.1990  0.0894
 3380SOL    HW121599   3.011   0.370   2.968 -1.1920  0.5846 -0.3158
 3380SOL    HW221600   3.013   0.440   2.838 -0.8345 -0.6751 -0.5145
 3381SOL     OW21601   2.268   0.549   5.214 -0.2868 -0.2628  0.1050
 3381SOL    HW121602   2.325   0.615   5.175  1.6346 -1.4148  0.9487
 3381SOL    HW221603   2.305   0.467   5.181 -2.5496 -0.7644 -1.1651
 3382SOL     OW21604   3.840   1.579   8.820  0.0260  0.3486 -0.4234
 3382SOL    HW121605   3.806   1.490   8.826 -0.8395  0.6368 -0.9456
 3382SOL    HW221606   3.761   1.624   8.789  1.3570  1.4875 -2.1324
 3383SOL     OW21607   3.531   1.876   3.510 -0.0620 -0.6330 -0.2702
 3383SOL    HW121608   3.537   1.879   3.415  2.5215  1.8415 -0.0373
 3383SOL    HW221609   3.590   1.948   3.529  0.7986 -1.3676 -0.1346
 3384SOL     OW21610   2.652   4.495   2.163  0.8754  0.7213  0.4742
 3384SOL    HW121611   2.748   4.491   2.168  0.7782  0.1569  2.0592
 3384SOL    HW221612   2.633   4.403   2.180 -1.7366  0.8793 -1.7044
 3385SOL     OW21613   3.324   2.356  17.418 -0.1090 -0.3012 -0.1153
 3385SOL    HW121614   3.342   2.292  17.350  0.9857  0.3099 -0.4052
 3385SOL    HW221615   3.250   2.321  17.467 -1.0529  1.5285 -0.2229
 3386SOL     OW21616   3.961   4.184  16.403  0.4387 -0.7042 -0.2160
 3386SOL    HW121617   3.931   4.110  16.455  2.3555 -0.8534  0.6697
 3386SOL    HW221618   3.879   4.232  16.415  0.6265  0.1786 -2.4295
 3387SOL     OW21619   0.414   2.221   5.242 -0.2614  0.6358  0.5450
 3387SOL    HW121620   0.481   2.154   5.255 -0.7989  0.5289  2.7988
 3387SOL    HW221621   0.466   2.295   5.211  1.7498 -0.4588  1.3314
 3388SOL     OW21622   2.309   1.077   5.350  0.2955 -0.1874  0.1986
 3388SOL    HW121623   2.375   1.144   5.362  1.9966 -2.0348  1.1963
 3388SOL    HW221624   2.361   0.998   5.365 -0.6560 -1.1742 -1.7329
 3389SOL     OW21625   3.493   3.342  12.080  0.2415  0.3349 -0.2242
 3389SOL    HW121626   3.516   3.316  12.169  0.9558 -0.2407 -0.5823
 3389SOL    HW221627   3.489   3.437  12.095 -2.6305  0.3251 -0.9673
 3390SOL     OW21628   0.478   2.404   3.549  0.0295  0.3945 -0.4551
 3390SOL    HW121629   0.392   2.405   3.592 -0.3389 -1.4547 -1.1362
 3390SOL    HW221630   0.520   2.476   3.596 -1.5781  1.0292 -0.0014
 3391SOL     OW21631   0.044   3.912   3.999  0.3172  0.4006  0.4534
 3391SOL    HW121632   4.709   3.920   4.074 -0.6278  0.9899 -0.3381
 3391SOL    HW221633   0.035   3.817   3.997 -0.2989  0.5269 -3.0100
 3392SOL     OW21634   2.259   3.096   7.537 -0.2936 -0.0091 -0.7076
 3392SOL    HW121635   2.325   3.059   7.596 -0.1103 -0.0214 -0.9221
 3392SOL    HW221636   2.230   3.011   7.506 -0.1621  0.0151 -0.8964
 3393SOL     OW21637   2.693   1.998   8.363  0.2128  0.5237  0.5342
 3393SOL    HW121638   2.715   1.993   8.456 -0.7173  0.9393  0.7725
 3393SOL    HW221639   2.649   1.914   8.348 -0.7643  0.9853  0.8564
 3394SOL     OW21640   0.799   4.582   6.405 -0.4140 -0.5298 -0.2728
 3394SOL    HW121641   0.782   4.490   6.387 -2.3713 -0.5640  1.7832
 3394SOL    HW221642   0.882   4.594   6.358  0.5366  0.0395  1.5426
 3395SOL     OW21643   4.263   1.297   2.494  0.2627  0.3391 -0.1022
 3395SOL    HW121644   4.252   1.234   2.566 -3.7328  2.2582  0.9336
 3395SOL    HW221645   4.276   1.239   2.419 -0.9832  0.7229 -0.6151
 3396SOL     OW21646   0.709   0.202   2.294  0.6492  0.4674 -0.2455
 3396SOL    HW121647   0.766   0.206   2.217  0.2654  1.2292 -0.4950
 3396SOL    HW221648   0.629   0.178   2.247  0.4156 -0.7614  0.7959
 3397SOL     OW21649   0.109   1.901   5.706  0.3180 -0.1966  0.0978
 3397SOL    HW121650   0.074   1.909   5.794 -0.7477  1.3073 -0.4587
 3397SOL    HW221651   0.047   1.845   5.658  0.1581  0.4968 -0.5067
 3398SOL     OW21652   0.542   2.755   6.722 -0.2518  0.6583  0.4089
 3398SOL    HW121653   0.636   2.754   6.705 -0.4997 -2.0553 -0.7405
 3398SOL    HW221654   0.538   2.731   6.814  2.8333 -1.1825  0.0420
 3399SOL     OW21655   1.675   4.158   6.664 -0.0659 -0.2172 -0.1892
 3399SOL    HW121656   1.714   4.245   6.659 -0.1951 -0.0748  1.1609
 3399SOL    HW221657   1.745   4.100   6.694  1.0122  1.1555 -0.0181
 3400SOL     OW21658   4.187   1.288  12.034  0.5527  0.1484 -0.0302
 3400SOL    HW121659   4.261   1.325  11.987  0.5927 -1.1300 -0.9587
 3400SOL    HW221660   4.137   1.239  11.968  1.5401 -0.1543 -0.5459
 3401SOL     OW21661   3.756   1.726  15.306 -0.1921 -0.3436 -0.3439
 3401SOL    HW121662   3.842   1.741  15.267  0.6315 -1.6154  0.9798
 3401SOL    HW221663   3.700   1.713  15.229  0.6052 -2.1230 -0.6378
 3402SOL     OW21664   4.263   1.589   6.195 -0.0962  0.4898  0.1467
 3402SOL    HW121665   4.236   1.525   6.260  3.3466 -1.8896 -0.7631
 3402SOL    HW221666   4.180   1.606   6.152 -0.1872 -1.7297 -0.5744
 3403SOL     OW21667   2.364   3.238   8.172 -0.2061  0.3525 -0.5500
 3403SOL    HW121668   2.287   3.203   8.127  0.4957 -0.1773 -1.3423
 3403SOL    HW221669   2.344   3.218   8.263 -3.1084 -0.3277 -1.3404
 3404SOL     OW21670   4.536   3.218  13.244 -0.4416  0.0053  0.2068
 3404SOL    HW121671   4.469   3.209  13.175  0.2979 -1.3792 -0.3290
 3404SOL    HW221672   4.529   3.314  13.247 -0.8348  0.0332 -1.1408
 3405SOL     OW21673   2.816   2.826  10.246 -0.1260  0.2657 -0.3938
 3405SOL    HW121674   2.794   2.738  10.214  1.3988  0.1365 -1.0653
 3405SOL    HW221675   2.871   2.805  10.322 -1.8693 -0.7283  0.5933
 3406SOL     OW21676   2.090   4.413   4.633 -0.3339 -0.0874 -0.0268
 3406SOL    HW121677   2.067   4.438   4.543 -1.1664 -1.8728 -0.3101
 3406SOL    HW221678   2.090   4.493   4.684 -1.6663 -0.5840  0.7563
 3407SOL     OW21679   4.012   4.545   0.393  0.8897 -0.2285 -0.4200
 3407SOL    HW121680   4.105   4.549   0.374  1.1076 -0.2821  0.6245
 3407SOL    HW221681   4.014   4.509   0.482 -1.2331  0.6414 -0.0036
 3408SOL     OW21682   0.334   3.773   1.782 -0.4961  0.7858  0.2300
 3408SOL    HW121683   0.351   3.798   1.692  0.8982 -1.0374 -0.0171
 3408SOL    HW221684   0.249   3.816   1.787 -0.6498  0.6185 -0.9310
 3409SOL     OW21685   2.609   2.576   6.467 -0.4038 -0.2470 -0.1670
 3409SOL    HW121686   2.615   2.481   6.467 -2.8392 -0.4054  0.1584
 3409SOL    HW221687   2.672   2.595   6.536  0.6157  0.1196 -1.1954
 3410SOL     OW21688   4.622   4.486   4.400  0.7642  0.2176 -0.5852
 3410SOL    HW121689   4.710   4.480   4.437  1.4706  0.1550 -2.2759
 3410SOL    HW221690   4.616   4.402   4.355  0.2771 -0.2563  0.3545
 3411SOL     OW21691   1.085   2.523  10.500  0.4114 -0.3042  0.4413
 3411SOL    HW121692   1.106   2.593  10.439 -0.8265 -0.8461 -0.5998
 3411SOL    HW221693   1.147   2.535  10.572  1.6467 -0.0141 -0.6727
 3412SOL     OW21694   2.911   3.007   6.228  0.6191  0.0234 -0.2767
 3412SOL    HW121695   2.938   3.003   6.137  0.9184  0.1313 -0.1926
 3412SOL    HW221696   2.888   2.917   6.253  2.0322 -0.3247 -0.2248
 3413SOL     OW21697   4.119   1.292   8.641 -0.4006  0.1164 -0.4855
 3413SOL    HW121698   4.048   1.277   8.703 -0.4278  0.2370 -0.4877
 3413SOL    HW221699   4.105   1.216   8.586  0.6367  0.1929 -0.8577
 3414SOL     OW21700   4.055   3.065  11.967  0.2049 -0.4641 -0.6434
 3414SOL    HW121701   3.990   3.071  11.896  0.4507  1.3269 -0.7314
 3414SOL    HW221702   3.995   3.061  12.042  2.6388  0.5381  1.3299
 3415SOL     OW21703   3.870   2.417   8.428  0.7239 -0.4596  0.3035
 3415SOL    HW121704   3.936   2.438   8.494 -0.8756 -0.9470  2.0465
 3415SOL    HW221705   3.809   2.369   8.484  0.7990 -0.3752  0.4576
 3416SOL     OW21706   2.761   1.628   1.133  0.4043  0.4755 -0.3735
 3416SOL    HW121707   2.843   1.613   1.179  0.7582 -1.3816 -1.5806
 3416SOL    HW221708   2.769   1.574   1.054  1.7346 -0.1004  0.1566
 3417SOL     OW21709   3.250   1.917   2.054  0.4097  0.2542 -0.4045
 3417SOL    HW121710   3.169   1.867   2.067  1.2080 -1.4844 -2.2414
 3417SOL    HW221711   3.287   1.962   2.130  1.2018 -0.2392 -0.4989
 3418SOL     OW21712   3.994   0.904   5.823 -0.3901 -0.0060  0.4241
 3418SOL    HW121713   4.001   0.881   5.915 -0.4122 -0.3986  0.3283
 3418SOL    HW221714   4.085   0.930   5.809 -0.6007  0.4547 -0.0955
 3419SOL     OW21715   3.750   4.617   6.373  0.1006 -0.0047  0.6027
 3419SOL    HW121716   3.663   4.582   6.391 -0.3320  1.5393  1.5177
 3419SOL    HW221717   3.762   4.579   6.285  2.6452 -1.1263  1.4328
 3420SOL     OW21718   1.756   4.721   6.414  0.1681  0.3734 -0.4824
 3420SOL    HW121719   1.773   4.671   6.334 -0.5216 -0.8412  0.1216
 3420SOL    HW221720   1.835   0.051   6.424 -0.0758  0.5755  0.3376
 3421SOL     OW21721   2.641   1.306   3.554  0.1840  0.1433  0.4103
 3421SOL    HW121722   2.680   1.335   3.636  0.5917 -0.5412  0.4579
 3421SOL    HW221723   2.630   1.212   3.570  1.5279 -0.2090 -0.8069
 3422SOL     OW21724   0.526   3.940   5.054  0.0502 -0.3093  0.4435
 3422SOL    HW121725   0.549   4.025   5.016 -1.3829  0.3193  0.9922
 3422SOL    HW221726   0.490   3.886   4.985  0.6123  0.4903 -0.4770
 3423SOL     OW21727   0.772   2.769   3.863  0.5203 -0.1173  0.5199
 3423SOL    HW121728   0.764   2.721   3.946  3.0944  0.4618  1.0877
 3423SOL    HW221729   0.802   2.855   3.894 -2.3173  1.9260 -2.3742
 3424SOL     OW21730   4.387   0.927   2.381  0.6883  0.4451  0.3449
 3424SOL    HW121731   4.417   0.933   2.471 -0.6166  0.0917  0.7923
 3424SOL    HW221732   4.465   0.885   2.343 -0.5772 -1.7417  0.1614
 3425SOL     OW21733   4.506   3.844  12.987  0.1624  0.4527  0.0517
 3425SOL    HW121734   4.420   3.864  12.951 -0.0579  0.8874  0.8215
 3425SOL    HW221735   4.514   3.753  12.958  0.8252  0.1264  1.2329
 3426SOL     OW21736   0.853   1.838   5.176  0.4991  0.5205  0.0750
 3426SOL    HW121737   0.921   1.847   5.109 -0.1066  0.1943 -0.5842
 3426SOL    HW221738   0.906   1.835   5.255  0.5325  4.4917  0.2243
 3427SOL     OW21739   3.527   0.555   1.528 -0.4241  0.3481 -0.1690
 3427SOL    HW121740   3.600   0.614   1.510  0.3648 -0.6452 -0.2136
 3427SOL    HW221741   3.560   0.516   1.609  0.1541  0.3089 -0.4200
 3428SOL     OW21742   2.896   0.847  13.862  0.3040  0.0655 -0.1926
 3428SOL    HW121743   2.963   0.900  13.819  1.0803 -1.8424 -1.3155
 3428SOL    HW221744   2.814   0.874  13.822 -0.1712 -2.4498 -0.9056
 3429SOL     OW21745   4.653   2.303  13.574 -0.5973  0.0088  0.0353
 3429SOL    HW121746   4.662   2.267  13.662  0.2162  1.8546  0.7097
 3429SOL    HW221747   4.568   2.272  13.542  0.1409  0.3021 -2.2223
 3430SOL     OW21748   1.505   1.987  15.915 -0.3199  0.3910  0.1976
 3430SOL    HW121749   1.562   1.948  15.848  0.6671  1.1817  0.5761
 3430SOL    HW221750   1.564   2.043  15.965 -1.6150 -1.4508  3.8138
 3431SOL     OW21751   1.232   2.618  17.102 -0.0068 -0.5306 -0.2838
 3431SOL    HW121752   1.311   2.672  17.100  0.2519 -0.9075 -0.5767
 3431SOL    HW221753   1.163   2.681  17.118 -0.2775 -0.8757 -0.1074
 3432SOL     OW21754   1.736   0.504   3.170  0.4785  0.3285 -0.3642
 3432SOL    HW121755   1.722   0.458   3.253 -2.1814 -0.2596 -1.1342
 3432SOL    HW221756   1.651   0.487   3.128 -1.2881  0.7967  3.0310
 3433SOL     OW21757   3.315   4.391   9.082 -0.0676  0.3168  0.3586
 3433SOL    HW121758   3.227   4.427   9.084 -0.2668 -0.1116 -0.5890
 3433SOL    HW221759   3.300   4.306   9.124 -2.0614  1.3118  1.6353
 3434SOL     OW21760   2.519   4.276   9.254 -0.2019 -0.0410 -0.1676
 3434SOL    HW121761   2.495   4.317   9.171  2.3079  1.5277 -0.0918
 3434SOL    HW221762   2.433   4.278   9.296  0.0406 -0.9412  0.3656
 3435SOL     OW21763   2.678   2.037  10.427 -0.2472 -0.3884 -0.4658
 3435SOL    HW121764   2.634   2.012  10.346  0.5734 -1.5468 -0.5511
 3435SOL    HW221765   2.687   2.131  10.413 -0.3798 -0.1371  1.0827
 3436SOL     OW21766   2.171   2.059   9.282  0.4108  0.1158  0.0712
 3436SOL    HW121767   2.204   2.009   9.207 -2.6422 -0.7074 -0.7341
 3436SOL    HW221768   2.173   1.988   9.346 -0.4012  0.6978  0.7451
 3437SOL     OW21769   0.148   1.877  15.976  0.0287 -0.1194 -0.1183
 3437SOL    HW121770   0.107   1.826  16.046 -1.8529  0.6797 -0.6185
 3437SOL    HW221771   0.141   1.808  15.910  2.9907 -1.2694  0.7679
 3438SOL     OW21772   4.684   3.144  13.902  0.0977  0.0501  0.4694
 3438SOL    HW121773   0.026   3.207  13.869 -0.9684  0.4729 -0.8276
 3438SOL    HW221774   4.601   3.186  13.877  0.3295 -0.7239 -1.5517
 3439SOL     OW21775   4.629   1.170   4.955  0.1405  0.1868 -0.2848
 3439SOL    HW121776   4.634   1.264   4.970  0.6008 -0.1038  1.3847
 3439SOL    HW221777   4.682   1.151   4.877 -4.7090  0.3410 -3.6190
 3440SOL     OW21778   1.709   3.652  10.265 -0.0122  0.5877 -0.4663
 3440SOL    HW121779   1.792   3.668  10.309 -1.3442 -0.3153  2.3001
 3440SOL    HW221780   1.663   3.608  10.336  0.9710 -0.8583 -0.7275
 3441SOL     OW21781   0.826   0.132   4.701  0.2504  0.0830  0.2331
 3441SOL    HW121782   0.884   0.208   4.698 -0.7516  0.8319 -0.2785
 3441SOL    HW221783   0.870   0.076   4.637 -1.8895 -0.5047 -0.7370
 3442SOL     OW21784   4.299   1.713   5.556 -0.4415  0.4294 -1.0543
 3442SOL    HW121785   4.281   1.639   5.497  0.6726 -0.0642 -0.7717
 3442SOL    HW221786   4.318   1.651   5.626  2.4959  1.1601 -1.2206
 3443SOL     OW21787   4.377   2.833   7.212  0.1500 -0.3353  0.2949
 3443SOL    HW121788   4.367   2.828   7.308  3.4793  1.6286  0.7427
 3443SOL    HW221789   4.395   2.741   7.193 -1.9041 -1.0501  1.7411
 3444SOL     OW21790   0.851   4.700   3.313  0.2901 -0.3618  0.6243
 3444SOL    HW121791   0.901   4.619   3.310  2.3936  1.0145 -1.1233
 3444SOL    HW221792   0.762   4.666   3.324  0.5949 -0.9452  1.3095
 3445SOL     OW21793   0.916   0.544   0.180 -0.2668  0.3286  0.3323
 3445SOL    HW121794   0.984   0.478   0.171  0.9285  1.6343 -0.1899
 3445SOL    HW221795   0.898   0.547   0.274 -0.5826 -0.2647  0.2929
 3446SOL     OW21796   1.079   2.259  16.097 -0.0106 -0.0756  0.2762
 3446SOL    HW121797   1.127   2.176  16.086  2.1545  1.3666 -1.2055
 3446SOL    HW221798   0.990   2.234  16.072 -0.0943 -2.2400  2.7476
 3447SOL     OW21799   3.975   2.290  16.732 -0.0500 -0.8167 -0.5012
 3447SOL    HW121800   3.925   2.225  16.682 -1.4832 -0.6257  0.6828
 3447SOL    HW221801   4.040   2.313  16.666 -1.1687  3.6167 -0.0445
 3448SOL     OW21802   0.909   0.118  12.293 -0.1459 -0.6734  0.4419
 3448SOL    HW121803   0.867   0.104  12.208 -0.5209 -1.3996  0.7444
 3448SOL    HW221804   0.932   0.027  12.313  1.3391 -0.3965 -0.0136
 3449SOL     OW21805   1.915   2.937   6.979 -0.6839  0.3948 -0.3046
 3449SOL    HW121806   2.010   2.930   6.967 -0.5330  1.4312  0.2848
 3449SOL    HW221807   1.914   2.926   7.074 -0.1172 -0.0106 -0.3448
 3450SOL     OW21808   3.447   1.341   4.855 -0.1860 -0.0700 -0.2882
 3450SOL    HW121809   3.529   1.390   4.862  0.3202 -0.8657 -0.5377
 3450SOL    HW221810   3.380   1.405   4.878 -0.0778  0.0389 -0.2797
 3451SOL     OW21811   2.533   2.149   8.706  0.8927  0.6273 -0.2730
 3451SOL    HW121812   2.562   2.237   8.730  3.0385 -0.3020  0.5581
 3451SOL    HW221813   2.472   2.160   8.634 -0.8899 -2.9562  0.6422
 3452SOL     OW21814   0.604   0.306  13.464  0.1604 -0.4638  0.1564
 3452SOL    HW121815   0.591   0.227  13.411  2.4227 -0.0171 -1.0794
 3452SOL    HW221816   0.548   0.282  13.537 -1.9765 -2.4071 -2.1335
 3453SOL     OW21817   4.582   0.888  10.577  0.0937  0.5619  0.0786
 3453SOL    HW121818   4.624   0.875  10.492  0.3228  1.1631  0.1026
 3453SOL    HW221819   4.595   0.982  10.592  1.2027  0.3951  0.1672
 3454SOL     OW21820   0.596   4.310   4.927 -0.3616 -0.1569 -0.0399
 3454SOL    HW121821   0.672   4.258   4.953 -1.2931 -1.1743  0.6712
 3454SOL    HW221822   0.621   4.401   4.938 -0.2380 -0.2686  0.6010
 3455SOL     OW21823   0.725   3.204   8.773  0.2207  0.1326 -0.9706
 3455SOL    HW121824   0.816   3.206   8.802  0.0084 -3.0061 -0.0716
 3455SOL    HW221825   0.671   3.199   8.852  1.5603 -2.3939 -0.2371
 3456SOL     OW21826   4.244   0.069  10.628  0.8988  0.1180 -0.0669
 3456SOL    HW121827   4.246   0.074  10.533 -1.6846  0.8855 -0.0852
 3456SOL    HW221828   4.152   0.089  10.644  1.2347  1.2888  0.3843
 3457SOL     OW21829   4.455   2.574   1.571  0.2142 -0.1368 -0.1456
 3457SOL    HW121830   4.462   2.669   1.580 -0.7123 -0.3808  3.0802
 3457SOL    HW221831   4.526   2.544   1.628  0.0661 -2.8520 -1.3643
 3458SOL     OW21832   2.187   2.711   8.660  0.2380 -0.0718  0.7325
 3458SOL    HW121833   2.229   2.734   8.578 -0.2576  0.5074  0.6390
 3458SOL    HW221834   2.176   2.618   8.641  0.3579 -0.0323  0.4794
 3459SOL     OW21835   2.972   4.068   8.431  0.8529 -0.1547 -0.6858
 3459SOL    HW121836   3.036   3.996   8.432  0.1964 -0.6981  0.8995
 3459SOL    HW221837   2.963   4.087   8.524 -0.4449  0.7317 -0.9996
 3460SOL     OW21838   0.895   0.257  13.410  0.2840 -0.3514  0.0626
 3460SOL    HW121839   0.940   0.336  13.441 -1.4027  0.7711 -0.3399
 3460SOL    HW221840   0.801   0.271  13.419 -0.0734 -2.8000 -0.0561
 3461SOL     OW21841   0.034   1.365   7.275 -0.2563  0.6577 -1.1493
 3461SOL    HW121842   0.010   1.322   7.193  3.3539 -0.2218 -1.7485
 3461SOL    HW221843   0.000   1.298   7.335 -0.7658  0.3820 -1.7418
 3462SOL     OW21844   2.485   3.132   6.307  0.0594 -0.0663  0.3601
 3462SOL    HW121845   2.508   3.052   6.260  0.1144  0.1706 -0.0105
 3462SOL    HW221846   2.563   3.125   6.362 -0.1450 -0.7209  0.5654
 3463SOL     OW21847   3.324   2.482   6.002  0.3388 -0.1072  0.0762
 3463SOL    HW121848   3.252   2.473   5.939 -0.4058 -1.3603  1.1078
 3463SOL    HW221849   3.392   2.491   5.935  2.3989  1.0822  2.3741
 3464SOL     OW21850   0.440   1.650  11.101  0.0400  0.4577 -0.1841
 3464SOL    HW121851   0.435   1.594  11.024  1.2430 -1.3989  1.0937
 3464SOL    HW221852   0.371   1.604  11.148 -0.9849 -0.0967 -2.2420
 3465SOL     OW21853   3.819   0.981  10.829  0.1054 -0.0868 -0.1745
 3465SOL    HW121854   3.734   0.935  10.828 -0.1807  0.4733 -1.3022
 3465SOL    HW221855   3.869   0.921  10.774 -1.1079 -0.0776 -1.2887
 3466SOL     OW21856   4.610   2.102   8.309  0.4743  0.2986  0.0061
 3466SOL    HW121857   4.614   2.017   8.352  0.7660 -0.0191 -0.6503
 3466SOL    HW221858   4.528   2.135   8.346  0.8164  2.3341 -1.0419
 3467SOL     OW21859   4.449   1.866   2.426 -0.1149 -0.2364 -0.0274
 3467SOL    HW121860   4.540   1.836   2.432  0.8221  3.0077  2.0593
 3467SOL    HW221861   4.408   1.800   2.371 -4.1600  2.3162 -0.0638
 3468SOL     OW21862   2.393   2.211   7.636  0.4912  0.1404  0.3684
 3468SOL    HW121863   2.397   2.242   7.546  2.7977  0.1100  0.4518
 3468SOL    HW221864   2.343   2.284   7.672  0.3598 -0.5169  1.5314
 3469SOL     OW21865   1.313   0.794  13.525  0.1121 -0.1625 -0.7387
 3469SOL    HW121866   1.245   0.816  13.461  2.1528  3.2436 -1.7361
 3469SOL    HW221867   1.257   0.756  13.593  0.9047 -2.9117 -1.6049
 3470SOL     OW21868   3.362   3.374  16.183  0.9895  0.2938 -0.3179
 3470SOL    HW121869   3.349   3.363  16.277 -0.7872  1.1426 -0.4584
 3470SOL    HW221870   3.443   3.425  16.182  1.2893 -0.1334  1.6346
 3471SOL     OW21871   3.011   0.104   5.152 -0.1195  0.2645 -1.0854
 3471SOL    HW121872   2.999   0.187   5.197  0.6387  0.1142 -0.5975
 3471SOL    HW221873   3.009   0.042   5.225  0.7792  0.6737 -0.7141
 3472SOL     OW21874   4.175   1.901   3.887  0.0605 -0.4377  0.0181
 3472SOL    HW121875   4.124   1.828   3.920  1.6751 -2.2667 -1.5411
 3472SOL    HW221876   4.236   1.854   3.829 -1.6828 -0.1606 -2.0339
 3473SOL     OW21877   0.164   2.915   2.629 -0.5502 -0.0300 -0.1176
 3473SOL    HW121878   0.152   3.010   2.626  0.0140  0.0254 -0.6580
 3473SOL    HW221879   0.086   2.899   2.682 -0.1933 -0.5910  0.2342
 3474SOL     OW21880   3.824   4.034   1.874 -0.1935  0.9853 -0.2254
 3474SOL    HW121881   3.778   3.952   1.854  0.4356  0.9713 -1.5748
 3474SOL    HW221882   3.911   4.005   1.901 -0.8180 -0.3297  0.3879
 3475SOL     OW21883   4.503   4.624   6.364  0.6797  0.1513  0.2777
 3475SOL    HW121884   4.472   4.653   6.449 -1.3911 -1.7843  0.1866
 3475SOL    HW221885   4.531   4.535   6.384 -2.3500 -0.7577  0.4822
 3476SOL     OW21886   0.435   3.529  10.589  0.1138  0.0058  0.3403
 3476SOL    HW121887   0.436   3.505  10.497 -1.0512  3.8458 -0.6751
 3476SOL    HW221888   0.355   3.485  10.618 -0.6956  1.9475  1.1350
 3477SOL     OW21889   2.019   2.243   5.266  0.8289 -0.2239 -0.2870
 3477SOL    HW121890   1.955   2.283   5.324  1.3514 -1.3703  1.0862
 3477SOL    HW221891   2.096   2.300   5.269  0.0943  0.6385  2.0952
 3478SOL     OW21892   2.896   0.924  11.121 -0.0584  0.0299  0.3905
 3478SOL    HW121893   2.977   0.964  11.152 -1.3379  0.9114  2.5630
 3478SOL    HW221894   2.931   0.853  11.067  1.4422  0.6587  0.5246
 3479SOL     OW21895   2.231   2.996   6.511 -0.3941 -0.0940 -0.4212
 3479SOL    HW121896   2.263   3.042   6.588  0.3459  1.2928 -1.5520
 3479SOL    HW221897   2.283   3.043   6.445  1.4258 -0.4257  0.7904
 3480SOL     OW21898   0.218   0.576   8.759 -0.2284  0.3608 -0.1509
 3480SOL    HW121899   0.311   0.598   8.762 -0.1178 -0.0012 -1.0698
 3480SOL    HW221900   0.215   0.526   8.678  0.1885 -0.9856  0.6715
 3481SOL     OW21901   4.071   1.969   4.984 -0.3937  0.3440 -0.4721
 3481SOL    HW121902   4.060   2.064   4.987  0.7323  0.5224 -1.9724
 3481SOL    HW221903   4.034   1.957   4.896 -0.9393  1.1351 -0.3411
 3482SOL     OW21904   3.458   3.707   6.736 -1.0804 -0.3966  0.0041
 3482SOL    HW121905   3.450   3.615   6.711 -1.0202 -0.3281 -0.2681
 3482SOL    HW221906   3.479   3.738   6.648  0.9046 -0.3376  0.5007
 3483SOL     OW21907   0.207   1.150   5.319 -0.4049  0.2139  0.9010
 3483SOL    HW121908   0.129   1.181   5.366 -1.1090 -0.2370  0.0289
 3483SOL    HW221909   0.243   1.101   5.393 -0.2216 -1.4035 -0.2628
 3484SOL     OW21910   3.826   2.114  17.074  0.8910  1.1745  0.3493
 3484SOL    HW121911   3.766   2.130  17.147 -1.5168 -0.6159 -1.2092
 3484SOL    HW221912   3.882   2.051  17.118 -1.1877  0.2877  1.7539
 3485SOL     OW21913   3.388   4.544   1.653 -0.1640 -0.3778  0.2054
 3485SOL    HW121914   3.376   4.617   1.714  0.1865 -0.4223  0.3274
 3485SOL    HW221915   3.405   4.470   1.712 -0.4385 -0.6398 -0.0437
 3486SOL     OW21916   3.666   1.300  13.193  0.6111  0.7162 -0.3609
 3486SOL    HW121917   3.720   1.299  13.114 -1.2298 -0.5256 -1.5858
 3486SOL    HW221918   3.729   1.344  13.250  1.5164  0.5143 -1.1963
 3487SOL     OW21919   1.974   4.571   8.607 -0.4155 -0.1865 -0.6373
 3487SOL    HW121920   1.969   4.642   8.671  0.5559 -1.1892  0.5429
 3487SOL    HW221921   1.954   4.491   8.656 -4.1982 -0.4366 -2.5165
 3488SOL     OW21922   2.453   2.687  14.955 -0.0919  0.0540  0.2141
 3488SOL    HW121923   2.523   2.751  14.955 -0.1294  0.1018 -0.7841
 3488SOL    HW221924   2.491   2.639  14.881  0.6774  2.2723 -0.8219
 3489SOL     OW21925   2.257   3.372   7.630  0.1298  0.1973 -0.2985
 3489SOL    HW121926   2.321   3.390   7.699 -1.1368 -0.8717  1.1517
 3489SOL    HW221927   2.314   3.347   7.557 -0.9758  0.7797 -1.3571
 3490SOL     OW21928   2.698   3.343  10.146  0.2384  0.3638  0.7345
 3490SOL    HW121929   2.625   3.286  10.168  1.4228 -0.1060  3.4052
 3490SOL    HW221930   2.660   3.431  10.156  2.0016  1.2197 -0.0853
 3491SOL     OW21931   4.139   2.188   8.309  0.0218  0.3874 -0.1198
 3491SOL    HW121932   4.102   2.265   8.353  0.1102  0.1550  0.3551
 3491SOL    HW221933   4.217   2.164   8.358 -0.6870  0.9444  1.2748
 3492SOL     OW21934   2.964   2.834   8.385 -1.1682  0.0155  0.1944
 3492SOL    HW121935   3.030   2.894   8.421  0.0114 -0.2692 -1.4608
 3492SOL    HW221936   2.959   2.767   8.453  3.4933 -2.1502 -1.5566
 3493SOL     OW21937   3.207   4.124   1.661  0.2728 -0.3017 -0.3444
 3493SOL    HW121938   3.163   4.173   1.730  0.3252 -0.4562 -0.2010
 3493SOL    HW221939   3.287   4.175   1.643  0.2536 -0.3654 -0.6113
 3494SOL     OW21940   2.147   3.787   2.531  0.0428  0.4657  0.5462
 3494SOL    HW121941   2.170   3.875   2.501 -2.2961  0.5381 -1.0031
 3494SOL    HW221942   2.067   3.813   2.577  0.6815 -0.2876  2.0666
 3495SOL     OW21943   1.406   3.839   3.686  0.2336  0.7506  0.3940
 3495SOL    HW121944   1.444   3.884   3.610 -0.4574  3.9011  1.9014
 3495SOL    HW221945   1.425   3.748   3.666 -0.3324  0.9925 -1.2963
 3496SOL     OW21946   2.025   4.470  15.232 -0.3380  0.0602 -0.4958
 3496SOL    HW121947   2.118   4.446  15.231 -0.5903 -0.9931  1.1037
 3496SOL    HW221948   2.011   4.475  15.326  0.4058  1.0491 -0.4345
 3497SOL     OW21949   0.838   1.415   6.994  0.4760  0.0013 -0.3202
 3497SOL    HW121950   0.878   1.472   7.060 -1.5647  1.4586 -0.3569
 3497SOL    HW221951   0.763   1.371   7.033 -0.4767  1.2800 -0.7048
 3498SOL     OW21952   4.214   4.551   1.807  0.4842 -0.0392  0.0521
 3498SOL    HW121953   4.226   4.639   1.842  0.5569  0.2300 -0.6508
 3498SOL    HW221954   4.277   4.500   1.859  0.4325  0.8517  0.9828
 3499SOL     OW21955   4.266   0.698   6.119 -0.0655 -0.1636 -0.8495
 3499SOL    HW121956   4.183   0.746   6.126 -0.1858 -0.3260 -1.1477
 3499SOL    HW221957   4.225   0.615   6.093 -1.5980  0.9219 -1.9447
 3500SOL     OW21958   1.224   3.634   7.816 -0.2031 -0.0952  0.2690
 3500SOL    HW121959   1.150   3.678   7.857 -1.9917 -3.3167  0.4767
 3500SOL    HW221960   1.265   3.591   7.891 -0.9377 -0.1780  0.6136
 3501SOL     OW21961   3.574   4.688  13.986 -0.0711  0.9291 -0.2810
 3501SOL    HW121962   3.610   4.606  14.021 -0.0112  0.7439 -0.7700
 3501SOL    HW221963   3.489   4.658  13.953  0.0675 -0.5756  0.7083
 3502SOL     OW21964   4.410   0.928   3.038  1.2326  0.4400  0.1918
 3502SOL    HW121965   4.495   0.942   3.080  1.3450  0.1498  0.0582
 3502SOL    HW221966   4.413   0.836   3.012 -2.7864 -0.2124  1.9518
 3503SOL     OW21967   4.027   0.972   1.663  0.3757  0.1553  0.4711
 3503SOL    HW121968   3.941   0.932   1.672  0.1756  0.3153 -0.6966
 3503SOL    HW221969   4.011   1.024   1.584  0.9517 -1.0385 -0.4379
 3504SOL     OW21970   3.402   4.054   0.925  0.4379  0.1893 -0.3177
 3504SOL    HW121971   3.338   3.983   0.933  0.9635 -0.1272  0.9888
 3504SOL    HW221972   3.359   4.105   0.994  0.6445  1.7120 -1.3252
 3505SOL     OW21973   3.837   2.784   2.768 -0.3600  0.5471  0.4341
 3505SOL    HW121974   3.843   2.717   2.836  1.7247  0.9097  0.5843
 3505SOL    HW221975   3.756   2.829   2.796 -1.6701 -0.0499 -2.3883
 3506SOL     OW21976   2.818   1.978   1.058  0.2390  0.2063  0.1383
 3506SOL    HW121977   2.901   1.944   1.091  0.0808  0.4010  0.7346
 3506SOL    HW221978   2.804   2.055   1.114  0.2798 -0.0976  0.5704
 3507SOL     OW21979   4.237   4.144   5.844  0.2737  0.2368 -0.1189
 3507SOL    HW121980   4.288   4.215   5.804 -1.2338  0.9303 -0.8186
 3507SOL    HW221981   4.163   4.197   5.876  1.8074  0.9019  2.3211
 3508SOL     OW21982   3.620   2.284   2.365 -0.1034  0.0665  0.8296
 3508SOL    HW121983   3.615   2.231   2.286  0.6079 -0.4999  1.1657
 3508SOL    HW221984   3.537   2.267   2.409 -0.4055  0.7404  0.5164
 3509SOL     OW21985   3.222   3.775   7.461  0.7537  0.2247 -0.0239
 3509SOL    HW121986   3.197   3.798   7.551  0.2622  1.8319 -0.5750
 3509SOL    HW221987   3.139   3.734   7.435  0.7349  0.9307 -1.0376
 3510SOL     OW21988   4.423   1.935  11.553  0.6515 -0.1477  0.0611
 3510SOL    HW121989   4.491   1.869  11.536 -1.1465 -1.9274 -0.2542
 3510SOL    HW221990   4.427   1.981  11.470  0.2078  1.2856  0.8312
 3511SOL     OW21991   1.632   0.130   4.390 -0.1430 -0.1669 -0.4190
 3511SOL    HW121992   1.676   0.119   4.475  1.9291 -3.0348 -1.8344
 3511SOL    HW221993   1.679   0.196   4.339  0.9222 -0.6540 -0.0852
 3512SOL     OW21994   0.920   0.240   2.666  0.2550 -0.4785  0.8979
 3512SOL    HW121995   0.982   0.310   2.685  0.3622 -0.1491 -0.6815
 3512SOL    HW221996   0.941   0.192   2.746  2.8098 -1.5836 -0.3962
 3513SOL     OW21997   0.796   0.357   5.424  0.4051  0.5980  0.2657
 3513SOL    HW121998   0.761   0.278   5.384  0.6695  0.8430 -0.4504
 3513SOL    HW221999   0.882   0.361   5.383 -0.1771  0.7096 -0.9283
 3514SOL     OW22000   0.698   3.705   7.931  0.2745 -0.6166 -0.2149
 3514SOL    HW122001   0.730   3.719   8.020  1.4973 -1.6338 -0.4881
 3514SOL    HW222002   0.753   3.638   7.890  1.9255  0.4575  0.2262
 3515SOL     OW22003   0.836   0.635   7.002  0.2163  0.0453 -0.0015
 3515SOL    HW122004   0.761   0.593   7.045 -0.2330  0.3020 -0.5391
 3515SOL    HW222005   0.910   0.602   7.054  1.0973  0.6668 -0.8565
 3516SOL     OW22006   4.380   3.168   8.918 -0.2002  0.4460 -0.0780
 3516SOL    HW122007   4.441   3.202   8.852  0.6732 -1.9331 -0.5087
 3516SOL    HW222008   4.317   3.125   8.860  0.2910 -0.9536  0.4158
 3517SOL     OW22009   2.826   2.919   4.531 -0.4934  0.1014  0.4928
 3517SOL    HW122010   2.759   2.883   4.473  0.1228  1.0197 -0.7889
 3517SOL    HW222011   2.789   3.005   4.550 -1.5509 -0.4251  0.8397
 3518SOL     OW22012   0.844   2.809   4.367  0.2162  0.8098  0.0976
 3518SOL    HW122013   0.832   2.731   4.421  2.1742  0.8564  0.6080
 3518SOL    HW222014   0.920   2.849   4.411  1.9061 -0.5292 -1.6405
 3519SOL     OW22015   2.917   3.197   7.754  0.3086  0.3962  0.1439
 3519SOL    HW122016   2.895   3.238   7.838  2.1165 -0.1231  0.8636
 3519SOL    HW222017   2.871   3.115   7.770  0.9694  0.0112  0.0649
 3520SOL     OW22018   4.335   0.758   4.220 -0.9224  0.4053 -0.0240
 3520SOL    HW122019   4.408   0.801   4.264 -1.0155  2.1176 -1.5602
 3520SOL    HW222020   4.280   0.834   4.201  0.0836  0.3104 -3.2706
 3521SOL     OW22021   2.551   2.866  12.452  0.0722  0.3193 -0.4205
 3521SOL    HW122022   2.543   2.790  12.393  0.9693 -0.7010  0.7677
 3521SOL    HW222023   2.558   2.813  12.532  3.2842  0.4221 -0.6392
 3522SOL     OW22024   4.711   1.277   6.670 -0.7128 -0.1463 -0.3838
 3522SOL    HW122025   4.683   1.195   6.629 -1.3347 -0.2174  0.1816
 3522SOL    HW222026   0.064   1.245   6.718  0.1049 -0.2959 -1.7707
 3523SOL     OW22027   2.791   3.517   8.522  0.4521  0.1380  0.6192
 3523SOL    HW122028   2.818   3.589   8.579 -0.1560 -0.4548  1.6513
 3523SOL    HW222029   2.820   3.556   8.440 -2.0840 -0.9183 -0.7686
 3524SOL     OW22030   1.566   2.379  10.031  0.1871  0.1922 -0.1772
 3524SOL    HW122031   1.553   2.451   9.969 -1.1616 -1.5215 -1.8874
 3524SOL    HW222032   1.591   2.306   9.974  0.3831  1.1025 -1.2721
 3525SOL     OW22033   0.648   0.281  14.499 -0.2064 -0.0971 -0.2204
 3525SOL    HW122034   0.582   0.345  14.526 -0.7868  0.5722 -3.2779
 3525SOL    HW222035   0.707   0.338  14.450  0.5076  0.7787  1.6412
 3526SOL     OW22036   3.387   0.562   7.614 -0.1973  0.2131 -0.1671
 3526SOL    HW122037   3.429   0.476   7.615  0.0258  0.3347  2.2818
 3526SOL    HW222038   3.392   0.602   7.701  2.3176 -0.7056  0.1157
 3527SOL     OW22039   1.799   4.042   1.200 -0.0195  0.3412  0.1454
 3527SOL    HW122040   1.836   4.112   1.254 -2.2776  0.9917  0.8669
 3527SOL    HW222041   1.708   4.061   1.223 -0.2663 -2.3379  1.3604
 3528SOL     OW22042   1.990   1.855  14.981  0.1623 -0.2818  0.1325
 3528SOL    HW122043   1.988   1.847  14.886 -1.9710  0.1996  0.1483
 3528SOL    HW222044   2.024   1.944  14.994  2.2540 -0.6127 -2.9685
 3529SOL     OW22045   0.783   0.452   0.473 -0.1584 -0.5099  0.0839
 3529SOL    HW122046   0.804   0.395   0.548  0.0088  0.4546  0.7747
 3529SOL    HW222047   0.748   0.398   0.402  1.0655  2.1602 -2.5417
 3530SOL     OW22048   2.856   0.815   9.122  0.2104 -0.1078 -0.0669
 3530SOL    HW122049   2.778   0.859   9.154  1.2312  1.8212 -0.2395
 3530SOL    HW222050   2.847   0.724   9.151  1.1976 -0.4746 -0.8852
 3531SOL     OW22051   1.011   1.956   2.700  0.0497 -0.6927  0.1544
 3531SOL    HW122052   0.996   1.978   2.608 -0.4752  1.4669  0.7325
 3531SOL    HW222053   1.024   1.862   2.700  0.1065 -0.6854 -0.1956
 3532SOL     OW22054   0.844   2.733   6.630  0.4520 -0.3553  0.4104
 3532SOL    HW122055   0.937   2.718   6.613  0.5114  1.3093 -0.7126
 3532SOL    HW222056   0.803   2.663   6.580  0.2414  1.1773 -1.5812
 3533SOL     OW22057   2.575   1.653  10.259 -0.7648 -0.3378 -0.0626
 3533SOL    HW122058   2.598   1.568  10.222  0.2026 -0.4880  0.8864
 3533SOL    HW222059   2.639   1.656  10.330 -0.8584  0.5954 -0.0218
 3534SOL     OW22060   2.499   4.134  10.825 -0.1210  0.6338 -0.1574
 3534SOL    HW122061   2.540   4.171  10.903  1.0562 -2.2090  0.5786
 3534SOL    HW222062   2.468   4.052  10.865 -1.9604  1.4103 -0.0118
 3535SOL     OW22063   4.412   4.127   2.163  0.1093  0.4119  0.0147
 3535SOL    HW122064   4.377   4.216   2.164 -0.0563  0.3306  1.4794
 3535SOL    HW222065   4.339   4.084   2.118 -0.0724  1.2025 -0.4341
 3536SOL     OW22066   4.588   1.792   7.067 -0.4796 -0.0761 -0.0219
 3536SOL    HW122067   4.587   1.698   7.087 -1.0575  0.3249  1.8191
 3536SOL    HW222068   4.681   1.806   7.049 -0.0505 -1.6198  1.0308
 3537SOL     OW22069   3.862   3.279  11.159  0.0025 -0.0677  0.4044
 3537SOL    HW122070   3.923   3.335  11.208  0.1155  0.0302  0.1491
 3537SOL    HW222071   3.775   3.310  11.184 -0.8168 -1.8455 -0.2716
 3538SOL     OW22072   0.801   1.589   1.823  0.3618  0.4323 -0.5708
 3538SOL    HW122073   0.806   1.509   1.771 -1.2916  0.3503 -0.6264
 3538SOL    HW222074   0.848   1.556   1.900  3.8209  0.9183 -2.4750
 3539SOL     OW22075   4.278   1.627   8.728  0.0155  0.6662 -0.2817
 3539SOL    HW122076   4.319   1.541   8.722 -0.1188  0.7090 -1.7867
 3539SOL    HW222077   4.200   1.615   8.673  0.6724 -0.8815 -0.8613
 3540SOL     OW22078   2.805   1.511   5.300 -0.0643  0.2601  0.1370
 3540SOL    HW122079   2.820   1.582   5.237  1.9868  0.4284  0.8054
 3540SOL    HW222080   2.868   1.518   5.371 -0.4510 -2.0285  0.6884
 3541SOL     OW22081   1.368   3.365   6.276 -0.6017  0.4688  0.6040
 3541SOL    HW122082   1.375   3.458   6.253 -1.2103  0.1289 -0.9842
 3541SOL    HW222083   1.390   3.356   6.368 -0.0358 -0.2917  0.3882
 3542SOL     OW22084   3.859   1.768   7.973 -0.1893 -0.7132 -0.5450
 3542SOL    HW122085   3.796   1.786   7.903 -0.2601  0.5351 -0.1669
 3542SOL    HW222086   3.806   1.786   8.051  1.1677  2.9577 -0.4370
 3543SOL     OW22087   2.924   3.528   5.621 -0.5393  0.6344  0.1665
 3543SOL    HW122088   2.870   3.561   5.693  0.1257 -0.5476  1.2204
 3543SOL    HW222089   2.913   3.594   5.553  0.9026 -1.8163 -2.4280
 3544SOL     OW22090   2.766   2.093   2.393 -0.2284 -0.1059  0.2441
 3544SOL    HW122091   2.724   2.056   2.316  0.5042 -0.0228 -0.1923
 3544SOL    HW222092   2.858   2.081   2.369  0.0648  1.4215  0.6248
 3545SOL     OW22093   3.991   2.909  15.477 -0.1309 -0.0639 -0.0200
 3545SOL    HW122094   3.987   2.843  15.407 -1.2458  1.4000 -1.3458
 3545SOL    HW222095   4.029   2.983  15.431  0.6360 -1.4037 -1.5558
 3546SOL     OW22096   0.695   2.927   6.931  0.1860  0.3269  0.7170
 3546SOL    HW122097   0.615   2.922   6.984  0.1581 -1.6622  0.5097
 3546SOL    HW222098   0.692   2.834   6.906 -0.7854  0.4503  0.3721
 3547SOL     OW22099   1.404   2.742  14.046 -0.5639  0.1668 -0.2374
 3547SOL    HW122100   1.350   2.742  14.125 -0.0330 -1.8652  0.1175
 3547SOL    HW222101   1.355   2.800  13.988 -0.3690 -0.9113 -1.5031
 3548SOL     OW22102   4.446   3.515   7.803 -0.1482 -0.1295  0.1703
 3548SOL    HW122103   4.463   3.425   7.774 -0.3324 -0.1687  0.1787
 3548SOL    HW222104   4.395   3.499   7.883  0.6381 -1.2379  0.4428
 3549SOL     OW22105   2.566   2.614   4.289 -0.3696  0.0778 -0.0936
 3549SOL    HW122106   2.575   2.520   4.307  0.4039  0.0457 -0.6113
 3549SOL    HW222107   2.516   2.603   4.208  0.8705 -0.0678 -0.8500
 3550SOL     OW22108   2.018   1.574   7.388  0.4934  0.1161 -0.2953
 3550SOL    HW122109   2.104   1.542   7.417 -0.3119 -1.6850  0.1024
 3550SOL    HW222110   2.020   1.665   7.417 -1.1509 -0.1756  0.7364
 3551SOL     OW22111   4.496   3.271   8.709  0.6722 -0.2766 -0.7967
 3551SOL    HW122112   4.464   3.303   8.625 -0.5697  0.0230 -0.2170
 3551SOL    HW222113   4.559   3.341   8.726  0.1718  0.5805 -2.4430
 3552SOL     OW22114   3.592   0.107  15.655 -0.2385  0.5786  0.2566
 3552SOL    HW122115   3.560   0.196  15.672 -2.3566 -0.1911  0.3509
 3552SOL    HW222116   3.512   0.059  15.678  0.1808 -0.0546  0.3748
 3553SOL     OW22117   1.496   1.444   6.614  0.6880  0.2640  0.0202
 3553SOL    HW122118   1.414   1.399   6.630  1.0689  0.6269  2.9170
 3553SOL    HW222119   1.549   1.366   6.628 -2.2563 -1.6273  0.5258
 3554SOL     OW22120   3.751   4.083   9.313  0.5792  0.1033 -0.0418
 3554SOL    HW122121   3.701   4.035   9.247  0.1303  0.0415  0.3406
 3554SOL    HW222122   3.728   4.172   9.287  0.5754  0.2762  0.5636
 3555SOL     OW22123   0.569   2.163  15.107  0.2984 -0.3207 -0.2227
 3555SOL    HW122124   0.552   2.176  15.014  1.6341  1.3817 -0.2201
 3555SOL    HW222125   0.654   2.204  15.122  0.8108 -0.8834 -1.5685
 3556SOL     OW22126   3.950   1.525   0.872 -0.0171  0.1272 -0.0330
 3556SOL    HW122127   3.898   1.604   0.878 -1.0107 -0.5728  0.6168
 3556SOL    HW222128   4.039   1.552   0.848  1.0628 -3.6128 -0.3405
 3557SOL     OW22129   2.505   0.389  17.654 -0.0569  0.1486  0.2836
 3557SOL    HW122130   2.506   0.416  17.562 -2.0253  0.5410  0.3872
 3557SOL    HW222131   2.537   0.299  17.650 -0.5761 -0.0626  0.9059
 3558SOL     OW22132   0.242   0.448   9.267  0.4096 -0.4648 -0.7007
 3558SOL    HW122133   0.307   0.514   9.292  0.0024 -0.7302  1.0771
 3558SOL    HW222134   0.199   0.502   9.201  1.9292 -0.2656 -1.5421
 3559SOL     OW22135   0.784   0.966  10.051  0.8901  0.3466 -0.1358
 3559SOL    HW122136   0.833   0.896  10.093  0.1230 -0.6376 -0.8987
 3559SOL    HW222137   0.791   1.039  10.112  0.8066 -1.5739  2.1390
 3560SOL     OW22138   4.641   1.846   8.425  0.2229 -0.1123 -0.1908
 3560SOL    HW122139   4.589   1.775   8.388 -0.0206 -1.8728  3.4806
 3560SOL    HW222140   4.718   1.797   8.457 -1.2143 -1.3741  1.3765
 3561SOL     OW22141   4.582   2.180   1.384  0.2185  0.1266 -0.1571
 3561SOL    HW122142   4.592   2.137   1.469 -0.8921  1.5881  0.7264
 3561SOL    HW222143   4.492   2.165   1.356  0.8525 -0.2776 -1.9895
 3562SOL     OW22144   2.675   4.449  17.523 -0.1215  0.3097  0.1015
 3562SOL    HW122145   2.758   4.496  17.518  1.5048 -2.6699 -1.4733
 3562SOL    HW222146   2.691   4.398  17.444  2.4435 -0.2833  0.9979
 3563SOL     OW22147   0.087   4.589   7.252  0.2281 -0.2626  0.4878
 3563SOL    HW122148   0.175   4.597   7.288 -0.1004 -0.6263  1.3747
 3563SOL    HW222149   0.041   4.522   7.303 -1.0349 -1.3032 -1.9983
 3564SOL     OW22150   0.802   0.053  15.009  0.3975  0.0729  0.5824
 3564SOL    HW122151   0.739   4.712  14.976  0.1256  0.4283  0.4253
 3564SOL    HW222152   0.743   0.112  15.055 -0.5569 -1.0516  0.7897
 3565SOL     OW22153   0.916   0.232   8.875 -0.0793  0.0847 -0.4138
 3565SOL    HW122154   1.012   0.235   8.883 -0.3206  2.1636  1.5909
 3565SOL    HW222155   0.882   0.275   8.953  1.5769 -0.7497  0.7750
 3566SOL     OW22156   1.990   0.071   3.595 -1.4168 -0.1046 -0.0596
 3566SOL    HW122157   2.010   4.720   3.538  0.9073  1.0335 -0.7184
 3566SOL    HW222158   1.903   0.098   3.566 -1.2819 -0.4960 -0.8244
 3567SOL     OW22159   1.531   3.331   6.542 -0.0649 -0.6594 -0.6957
 3567SOL    HW122160   1.624   3.316   6.522  0.8536  2.4593  1.3079
 3567SOL    HW222161   1.534   3.297   6.631 -2.1052  0.8291 -0.0599
 3568SOL     OW22162   1.524   0.106   4.856 -0.1603 -0.2370 -0.3211
 3568SOL    HW122163   1.562   0.135   4.939  0.3700 -0.7599 -0.3816
 3568SOL    HW222164   1.602   0.103   4.800  1.0924 -1.3884  1.5023
 3569SOL     OW22165   3.482   3.057   0.635 -0.1241  1.0314  0.3920
 3569SOL    HW122166   3.394   3.024   0.619 -0.0803  0.7056  0.8198
 3569SOL    HW222167   3.527   3.000   0.573  0.7534  3.4843 -1.2233
 3570SOL     OW22168   1.379   2.534   6.163 -0.1306 -0.4867  0.3630
 3570SOL    HW122169   1.389   2.447   6.200  2.7566 -1.9648 -3.8507
 3570SOL    HW222170   1.455   2.584   6.192  1.7263 -0.6482 -4.2033
 3571SOL     OW22171   3.913   0.476   9.847 -0.1787  0.1991  0.0083
 3571SOL    HW122172   4.002   0.510   9.854 -0.4747  1.2330 -1.4419
 3571SOL    HW222173   3.871   0.512   9.769  1.6277  0.0331 -1.0352
 3572SOL     OW22174   4.658   3.344   9.265  0.2354 -0.3996  0.0324
 3572SOL    HW122175   4.687   3.381   9.349  1.4861  0.0560 -0.6012
 3572SOL    HW222176   0.015   3.347   9.213  0.0442 -1.4398 -0.3141
 3573SOL     OW22177   1.095   1.974   1.017 -0.6740  0.1249 -0.7430
 3573SOL    HW122178   1.134   1.938   1.097 -0.8526 -1.1557 -1.2378
 3573SOL    HW222179   1.007   2.003   1.042 -0.5095 -0.3633  0.4144
 3574SOL     OW22180   4.434   3.321  17.034 -0.2991  0.6759 -0.6315
 3574SOL    HW122181   4.384   3.311  16.952 -1.4902 -1.6829  0.3813
 3574SOL    HW222182   4.496   3.248  17.034 -1.2515 -0.1379  0.7445
 3575SOL     OW22183   3.041   0.786   7.890 -0.2841  0.0819 -0.1402
 3575SOL    HW122184   2.985   0.732   7.834 -0.4970  1.7699 -1.5795
 3575SOL    HW222185   3.097   0.725   7.937 -1.5192  1.0076  2.5293
 3576SOL     OW22186   4.375   0.511  12.448  0.3602  0.7402 -0.1653
 3576SOL    HW122187   4.362   0.536  12.356 -0.4329 -2.3245 -0.8754
 3576SOL    HW222188   4.462   0.550  12.457  0.8250 -0.0598 -1.0968
 3577SOL     OW22189   4.437   3.265   7.688  0.6226 -0.2360 -0.0495
 3577SOL    HW122190   4.468   3.184   7.648  1.0689  0.9800 -2.1547
 3577SOL    HW222191   4.343   3.264   7.668  0.4336  1.5876  0.7502
 3578SOL     OW22192   0.617   1.206  12.803 -0.6929  0.2019  0.5533
 3578SOL    HW122193   0.667   1.169  12.876  0.6013 -0.7728 -0.8279
 3578SOL    HW222194   0.691   1.220  12.743 -0.1437 -1.8045  0.7634
 3579SOL     OW22195   3.208   3.821  13.280 -0.3649 -0.0175  0.1350
 3579SOL    HW122196   3.223   3.733  13.315 -1.8147 -0.8202 -1.2454
 3579SOL    HW222197   3.248   3.812  13.193 -1.8881 -0.5304 -0.5145
 3580SOL     OW22198   1.495   2.462   3.348  0.3135  0.4750  0.1628
 3580SOL    HW122199   1.558   2.465   3.275 -1.2206 -2.7734 -1.2816
 3580SOL    HW222200   1.526   2.384   3.393 -1.1363  0.0599  0.4312
 3581SOL     OW22201   2.214   2.968   1.940 -0.1513 -0.1520 -0.6567
 3581SOL    HW122202   2.125   2.935   1.945  0.1789 -0.7331  1.5282
 3581SOL    HW222203   2.217   3.010   1.854 -3.2095  0.3182 -0.5410
 3582SOL     OW22204   3.629   2.583   6.420 -0.1702  0.1689 -0.5000
 3582SOL    HW122205   3.622   2.672   6.385  1.8755  0.4330 -0.2548
 3582SOL    HW222206   3.601   2.535   6.342 -0.4430  0.6846 -0.7201
 3583SOL     OW22207   3.171   0.618   0.232 -0.4973 -0.1347 -0.5370
 3583SOL    HW122208   3.137   0.703   0.203  0.4010  0.2990 -0.3129
 3583SOL    HW222209   3.222   0.596   0.155  2.5384  2.0084  0.8613
 3584SOL     OW22210   4.689   1.140   4.617 -0.2486  0.4076 -0.2142
 3584SOL    HW122211   4.656   1.224   4.649  1.6432  1.2733 -0.5546
 3584SOL    HW222212   4.610   1.087   4.608 -0.3881  0.4140  0.9524
 3585SOL     OW22213   3.242   3.006   5.397 -0.9261 -0.1685 -0.4538
 3585SOL    HW122214   3.191   2.935   5.359 -0.9490 -0.1320 -0.4906
 3585SOL    HW222215   3.264   3.032   5.308 -0.0421 -2.5470 -0.9197
 3586SOL     OW22216   0.592   4.234  10.174  0.4688 -0.3490 -0.2126
 3586SOL    HW122217   0.614   4.292  10.101 -2.4288  1.1340  0.0684
 3586SOL    HW222218   0.677   4.197  10.196  0.7271 -0.0604 -0.7221
 3587SOL     OW22219   0.938   0.365   4.662 -0.4682 -0.2347 -0.0053
 3587SOL    HW122220   0.891   0.446   4.681 -0.1629 -0.3016  1.0412
 3587SOL    HW222221   0.969   0.370   4.571 -0.3545 -1.6361 -0.0433
 3588SOL     OW22222   3.091   1.495   6.143 -0.1659  0.1619  0.0165
 3588SOL    HW122223   3.000   1.471   6.126 -0.3266  0.0118  1.1298
 3588SOL    HW222224   3.083   1.583   6.107  1.4257  0.9488  1.6151
 3589SOL     OW22225   4.582   3.270  16.446 -0.5232  0.5691  0.4443
 3589SOL    HW122226   4.503   3.217  16.437 -0.0710  0.3372 -2.2439
 3589SOL    HW222227   4.582   3.308  16.358  0.2967  0.7006  0.5012
 3590SOL     OW22228   1.526   2.921  13.776  0.2651 -0.4649 -0.4997
 3590SOL    HW122229   1.457   2.988  13.778 -0.0937 -0.8029 -1.2447
 3590SOL    HW222230   1.476   2.847  13.810  1.2638  0.1362  2.2704
 3591SOL     OW22231   1.794   4.230   7.704  0.6349 -0.2794  0.5673
 3591SOL    HW122232   1.750   4.186   7.777 -0.9369  2.0621  1.0444
 3591SOL    HW222233   1.805   4.169   7.631 -3.2779  1.4897 -1.5570
 3592SOL     OW22234   0.755   4.517   4.990  0.0506  0.2775  0.2852
 3592SOL    HW122235   0.750   4.611   4.974 -0.9108 -0.1100 -1.7043
 3592SOL    HW222236   0.811   4.517   5.067 -0.8198  1.9271  0.9172
 3593SOL     OW22237   0.139   3.606   0.063 -0.1689  0.0739 -0.4294
 3593SOL    HW122238   0.079   3.602   0.137 -0.0702 -0.2400 -0.3655
 3593SOL    HW222239   0.105   3.684   0.018 -0.2440  1.0432  1.3122
 3594SOL     OW22240   1.625   2.177   6.230 -0.6579 -0.1330 -0.1624
 3594SOL    HW122241   1.657   2.113   6.167  2.2567  1.0591  0.0960
 3594SOL    HW222242   1.705   2.184   6.282 -1.1618 -1.4184  0.7768
 3595SOL     OW22243   0.516   0.515   2.616  0.2277  0.2257 -0.8100
 3595SOL    HW122244   0.503   0.425   2.585 -1.7548  0.5263 -0.8424
 3595SOL    HW222245   0.484   0.562   2.540  2.1406  0.2402 -1.5942
 3596SOL     OW22246   3.343   2.341   7.893 -0.5159 -0.7599 -0.4914
 3596SOL    HW122247   3.378   2.314   7.978  0.6620 -0.2429 -0.7997
 3596SOL    HW222248   3.261   2.293   7.894 -0.6821 -0.4625  0.9553
 3597SOL     OW22249   1.112   3.647   9.094 -0.1605  0.1260 -0.9324
 3597SOL    HW122250   1.152   3.624   9.178 -0.2111  0.1077 -0.9131
 3597SOL    HW222251   1.065   3.569   9.065  1.8642 -1.0063 -1.1254
 3598SOL     OW22252   4.626   3.780  17.013  0.2442  0.8578  0.0689
 3598SOL    HW122253   4.633   3.685  17.002  1.3298  0.9198  0.2418
 3598SOL    HW222254   4.569   3.778  17.089  0.6663  1.7275  0.4020
 3599SOL     OW22255   0.960   3.426   2.404  0.2093 -0.3497  0.7071
 3599SOL    HW122256   0.888   3.464   2.455 -0.1770 -0.4320  0.2313
 3599SOL    HW222257   0.981   3.358   2.468 -0.8402  0.0744  1.5048
 3600SOL     OW22258   4.345   1.458  10.313 -0.2510 -0.2082  0.2733
 3600SOL    HW122259   4.286   1.525  10.349 -1.6371 -1.3681  0.1680
 3600SOL    HW222260   4.291   1.385  10.282 -0.6748  0.7538 -1.2439
 3601SOL     OW22261   0.994   2.165   7.273  0.4692  0.3226 -0.1757
 3601SOL    HW122262   0.958   2.253   7.284  0.9427  0.7183 -1.7406
 3601SOL    HW222263   0.920   2.107   7.253  0.9134 -0.2926 -0.0377
 3602SOL     OW22264   0.142   2.268   6.331 -0.3389  0.0535 -0.4435
 3602SOL    HW122265   0.067   2.257   6.389  0.1198 -0.7263 -0.0004
 3602SOL    HW222266   0.208   2.307   6.388  0.8453 -0.0963 -1.7010
 3603SOL     OW22267   2.302   1.613   7.070  0.5072  0.3993 -0.4703
 3603SOL    HW122268   2.367   1.547   7.098 -0.9321 -0.8979 -0.2055
 3603SOL    HW222269   2.246   1.559   7.014  0.1880 -1.4020  1.5653
 3604SOL     OW22270   0.998   2.018  16.413  0.3598  0.7524  0.9927
 3604SOL    HW122271   1.012   1.961  16.489  0.3100 -1.8072 -0.9008
 3604SOL    HW222272   0.904   2.023  16.396  0.2763  0.2901  1.3145
 3605SOL     OW22273   1.077   2.783   5.321 -0.0853  0.1697 -0.2798
 3605SOL    HW122274   1.106   2.871   5.344 -0.7855 -0.0540  1.4880
 3605SOL    HW222275   1.093   2.790   5.227  3.2474  0.3971  0.2999
 3606SOL     OW22276   0.984   1.499   9.337  0.2244  0.1280  0.3197
 3606SOL    HW122277   0.942   1.464   9.259  1.1777 -0.2700 -0.0243
 3606SOL    HW222278   1.073   1.463   9.329  0.2734  0.1704  0.6418
 3607SOL     OW22279   1.004   3.469   7.337 -0.1446  0.5144 -0.4306
 3607SOL    HW122280   0.918   3.451   7.376  0.6234  2.0121  1.9517
 3607SOL    HW222281   0.987   3.550   7.289  0.4647  0.4919 -0.6808
 3608SOL     OW22282   3.796   2.284  15.837  0.1697 -0.0723 -0.0421
 3608SOL    HW122283   3.828   2.373  15.854 -4.3679  1.1336  2.2850
 3608SOL    HW222284   3.705   2.294  15.866  0.0353  0.6354 -0.7075
 3609SOL     OW22285   2.342   2.285  13.800  0.3828  0.9582 -0.6953
 3609SOL    HW122286   2.367   2.314  13.887  1.3276  1.5478 -1.1639
 3609SOL    HW222287   2.422   2.251  13.759 -0.2096 -2.0887  0.6785
 3610SOL     OW22288   0.101   3.456   4.230 -0.1547  0.3066  0.0670
 3610SOL    HW122289   0.184   3.431   4.189 -0.0718 -1.0935  1.0798
 3610SOL    HW222290   0.083   3.389   4.296  0.3767 -1.1788 -1.3052
 3611SOL     OW22291   0.626   1.287   2.094 -0.3264 -0.3815 -1.2347
 3611SOL    HW122292   0.702   1.265   2.147 -2.2595 -1.5106  1.0698
 3611SOL    HW222293   0.660   1.279   2.005  2.8557 -0.0862 -0.0294
 3612SOL     OW22294   2.745   2.016  12.903 -0.0842 -0.2105 -0.3037
 3612SOL    HW122295   2.832   2.041  12.934 -0.3312 -1.1054  1.1104
 3612SOL    HW222296   2.720   2.097  12.858 -2.0733  0.4375  1.9894
 3613SOL     OW22297   0.159   3.802   5.039  0.0814  0.2194 -0.0299
 3613SOL    HW122298   0.238   3.788   4.987 -0.1547 -1.4569  0.0395
 3613SOL    HW222299   0.185   3.766   5.124 -1.8524 -1.9532 -0.3614
 3614SOL     OW22300   3.179   4.490  10.410 -0.2862 -0.1367 -0.0784
 3614SOL    HW122301   3.129   4.533  10.480 -1.6789 -1.4141 -0.3037
 3614SOL    HW222302   3.255   4.549  10.413 -0.4836  0.0161  2.2790
 3615SOL     OW22303   2.929   3.819   1.004 -0.0901  0.4433 -0.4201
 3615SOL    HW122304   2.950   3.887   1.068 -1.6466 -2.8192  3.5108
 3615SOL    HW222305   2.953   3.746   1.061  1.3831  1.7246  0.6027
 3616SOL     OW22306   2.154   0.686  16.539  0.0502 -0.6899 -0.4769
 3616SOL    HW122307   2.101   0.733  16.475  0.4746 -0.3234 -0.5601
 3616SOL    HW222308   2.213   0.652  16.472  1.3785  0.5443  0.0572
 3617SOL     OW22309   0.557   1.436  16.230  0.2818 -0.3887  0.1232
 3617SOL    HW122310   0.607   1.474  16.158 -0.5569  1.3146  0.4262
 3617SOL    HW222311   0.491   1.502  16.250 -1.2777 -1.0430 -2.8621
 3618SOL     OW22312   2.314   3.695   3.754  0.4718  0.2661  0.0855
 3618SOL    HW122313   2.251   3.760   3.783 -1.6270 -2.1021  0.8855
 3618SOL    HW222314   2.257   3.629   3.715 -0.5490  0.1279  1.8273
 3619SOL     OW22315   4.198   0.654   1.466  0.0230  0.1351  0.3516
 3619SOL    HW122316   4.233   0.685   1.550  3.4275  0.0691 -1.0515
 3619SOL    HW222317   4.110   0.623   1.488  0.8958 -1.7434  1.2073
 3620SOL     OW22318   3.337   0.462  14.680  0.1595  0.6761 -0.0505
 3620SOL    HW122319   3.267   0.526  14.665  0.7819  1.9813  2.6877
 3620SOL    HW222320   3.349   0.467  14.775  1.6532 -1.5923 -0.1266
 3621SOL     OW22321   3.939   1.843   5.459  0.5257 -0.0139  0.1319
 3621SOL    HW122322   3.914   1.828   5.368  2.6100  0.6024 -0.5609
 3621SOL    HW222323   3.960   1.754   5.487  3.1288  0.7954  0.8411
 3622SOL     OW22324   3.223   0.475   4.980  0.9051 -0.0055  0.0303
 3622SOL    HW122325   3.283   0.426   5.036  0.8961  0.2598  0.2713
 3622SOL    HW222326   3.259   0.450   4.895 -0.6014  1.0160 -0.9029
 3623SOL     OW22327   1.369   0.186   1.568  0.0922 -0.1536  0.1051
 3623SOL    HW122328   1.279   0.214   1.583  0.6619  2.5038 -1.5293
 3623SOL    HW222329   1.377   0.198   1.473  2.0364 -0.2419  0.2596
 3624SOL     OW22330   0.974   4.619   8.438 -0.1703 -0.0897 -0.1579
 3624SOL    HW122331   0.920   4.547   8.470  1.2714 -1.3174 -0.4657
 3624SOL    HW222332   0.943   4.695   8.487  0.8006  0.2620 -0.0922
 3625SOL     OW22333   3.929   2.555  14.225  0.1546 -0.5297 -0.1500
 3625SOL    HW122334   3.911   2.476  14.175 -0.1287 -0.4006 -0.2543
 3625SOL    HW222335   3.965   2.615  14.160 -0.6920  0.2862  0.1273
 3626SOL     OW22336   3.114   1.314   4.964 -0.3408  0.1938 -0.6320
 3626SOL    HW122337   3.154   1.399   4.943  0.6148 -0.4491 -1.4556
 3626SOL    HW222338   3.149   1.247   4.905  0.3407  0.5820 -0.6661
 3627SOL     OW22339   2.034   1.264   8.531  0.0258 -0.0154 -0.2262
 3627SOL    HW122340   1.941   1.287   8.538  0.1740  1.5093 -3.2098
 3627SOL    HW222341   2.039   1.185   8.584 -1.4170 -0.5183 -0.8497
 3628SOL     OW22342   0.088   0.648   3.896 -0.7668 -0.2693  0.2417
 3628SOL    HW122343   0.016   0.586   3.899 -0.7889 -0.3908 -2.7572
 3628SOL    HW222344   0.045   0.728   3.924  0.0417  0.1462  0.3184
 3629SOL     OW22345   0.573   1.016   4.270 -0.0039  0.1042  0.7423
 3629SOL    HW122346   0.590   0.930   4.232  0.4016  0.7573 -0.5276
 3629SOL    HW222347   0.547   1.068   4.195 -0.9440 -3.1143 -1.1769
 3630SOL     OW22348   4.608   1.872   2.683 -0.1906  0.3057 -0.3243
 3630SOL    HW122349   4.652   1.873   2.598 -0.8520  0.8067 -0.6656
 3630SOL    HW222350   4.678   1.857   2.747 -0.2283 -0.7622 -0.5385
 3631SOL     OW22351   1.241   4.109   5.692  1.0508  0.0664 -0.2753
 3631SOL    HW122352   1.295   4.031   5.705 -0.3543 -1.3567 -3.0272
 3631SOL    HW222353   1.235   4.139   5.782  0.0008  0.3901 -0.4560
 3632SOL     OW22354   0.126   1.587   7.984  0.1310 -0.1233  0.3083
 3632SOL    HW122355   0.036   1.573   7.954 -0.2865  1.4163  0.8610
 3632SOL    HW222356   0.177   1.550   7.911  0.6241  0.7954  0.1930
 3633SOL     OW22357   3.376   0.155  14.746  1.1257 -0.3490  0.5778
 3633SOL    HW122358   3.373   0.237  14.697  1.4676 -1.7053 -1.6970
 3633SOL    HW222359   3.403   0.190  14.831 -0.0519  2.2746 -0.1205
 3634SOL     OW22360   4.120   1.245  16.654  0.5415 -0.2631 -0.3143
 3634SOL    HW122361   4.213   1.239  16.676  0.2606 -2.9852  0.1330
 3634SOL    HW222362   4.098   1.338  16.661  0.4579 -0.2268 -1.0520
 3635SOL     OW22363   4.113   3.883   4.009  0.3525 -0.0371  0.4580
 3635SOL    HW122364   4.088   3.961   4.059 -1.7695 -0.6590  0.3801
 3635SOL    HW222365   4.190   3.908   3.958  1.2587  0.2146  1.9225
 3636SOL     OW22366   2.429   3.733  12.658  0.6675 -0.3471  0.3904
 3636SOL    HW122367   2.356   3.749  12.598  0.5025 -2.5879 -0.0114
 3636SOL    HW222368   2.439   3.639  12.643 -1.1344 -0.4946  0.1391
 3637SOL     OW22369   4.596   3.676  11.924  0.7286  0.5837 -0.1402
 3637SOL    HW122370   4.599   3.769  11.947 -0.3465  0.6989 -0.4748
 3637SOL    HW222371   4.513   3.643  11.960  0.9508  1.5704  1.2745
 3638SOL     OW22372   3.508   3.593   9.460 -0.0232  0.1936 -0.6742
 3638SOL    HW122373   3.467   3.633   9.536  0.1769 -4.7112  1.9801
 3638SOL    HW222374   3.447   3.626   9.394  1.1578 -0.5621 -2.1454
 3639SOL     OW22375   2.429   3.718   2.603  0.2424 -0.2820 -0.5392
 3639SOL    HW122376   2.338   3.734   2.580 -0.1805  0.8729  1.8981
 3639SOL    HW222377   2.418   3.720   2.698  2.5257  0.1919 -0.2798
 3640SOL     OW22378   2.002   0.444   5.284 -0.0813 -0.1504 -0.0565
 3640SOL    HW122379   2.078   0.499   5.264  0.4495 -0.3829  1.2845
 3640SOL    HW222380   2.021   0.369   5.228 -1.2823 -0.0608 -0.5954
 3641SOL     OW22381   0.388   2.336  12.497  0.7989 -0.5253 -0.1346
 3641SOL    HW122382   0.301   2.301  12.481  1.6469 -2.1030 -1.2525
 3641SOL    HW222383   0.436   2.328  12.414  1.9876 -1.3375  0.6327
 3642SOL     OW22384   2.136   4.683   9.854  0.2299 -0.1212 -0.4474
 3642SOL    HW122385   2.124   4.711   9.945 -0.2303 -1.6493 -0.0475
 3642SOL    HW222386   2.048   4.681   9.817 -0.5859  1.2877  1.4441
 3643SOL     OW22387   4.434   2.566   2.281  0.0008 -0.1469  0.3877
 3643SOL    HW122388   4.460   2.483   2.320  0.6393 -0.1891 -0.1104
 3643SOL    HW222389   4.512   2.623   2.284  0.7611 -0.9967 -2.4439
 3644SOL     OW22390   3.369   3.354   3.490  0.0375  0.2324  0.0659
 3644SOL    HW122391   3.285   3.389   3.461  0.4567  1.3632  0.2463
 3644SOL    HW222392   3.385   3.289   3.421  3.3920  0.7740  0.3234
 3645SOL     OW22393   3.583   1.312   4.356  0.4553 -0.3539 -0.2392
 3645SOL    HW122394   3.513   1.270   4.306  0.0895 -1.2287  1.0259
 3645SOL    HW222395   3.574   1.256   4.433  0.5543 -0.5351 -0.3591
 3646SOL     OW22396   0.138   0.659  16.946 -0.4220 -0.5610  0.2998
 3646SOL    HW122397   0.118   0.596  17.015 -2.4462  1.3654  1.4750
 3646SOL    HW222398   0.153   0.594  16.877 -2.9921  0.3771 -1.1509
 3647SOL     OW22399   4.587   4.564  16.888 -0.2414  0.5530  0.2580
 3647SOL    HW122400   4.536   4.557  16.968 -0.7333  0.3011 -0.0801
 3647SOL    HW222401   4.648   4.628  16.925  1.3205 -0.1815 -1.0619
 3648SOL     OW22402   3.756   2.842   7.864  0.1783  0.3770  0.2643
 3648SOL    HW122403   3.685   2.904   7.845 -0.7523 -0.8131 -0.1539
 3648SOL    HW222404   3.774   2.849   7.958  0.8668 -0.5326  0.2034
 3649SOL     OW22405   3.626   1.969  17.246  1.0187 -0.1597 -0.0321
 3649SOL    HW122406   3.668   1.965  17.331  0.0713  1.1761  0.4977
 3649SOL    HW222407   3.553   2.026  17.271  0.1873 -1.5584  0.7564
 3650SOL     OW22408   1.404   0.051   2.792 -0.1192 -0.0464  0.5332
 3650SOL    HW122409   1.413   0.078   2.883 -1.0036  0.9547  0.3323
 3650SOL    HW222410   1.496   0.035   2.771  0.1592  0.3650  1.4597
 3651SOL     OW22411   3.101   1.145   4.300 -0.0542  0.2980  0.0800
 3651SOL    HW122412   3.078   1.134   4.208 -0.1089 -2.7123  0.4596
 3651SOL    HW222413   3.014   1.160   4.338  0.0965  2.2938 -0.3728
 3652SOL     OW22414   0.250   2.332   3.695  0.1404  0.0468 -0.4750
 3652SOL    HW122415   0.277   2.335   3.787 -2.2813 -2.1812  0.3209
 3652SOL    HW222416   0.155   2.337   3.704 -0.0117 -0.0345 -2.0280
 3653SOL     OW22417   1.699   1.518   2.733  0.1436 -0.8221 -0.4105
 3653SOL    HW122418   1.736   1.524   2.821  2.3216  2.0207 -1.5286
 3653SOL    HW222419   1.760   1.467   2.681 -0.6012  0.5009 -2.5736
 3654SOL     OW22420   4.075   1.647   3.957  0.1533  0.2463 -0.2257
 3654SOL    HW122421   4.116   1.563   3.979  0.8022  0.9528  1.2239
 3654SOL    HW222422   3.997   1.622   3.907 -1.5042  0.1173  2.4241
 3655SOL     OW22423   1.661   0.319  12.873 -0.2325  0.2641  0.5068
 3655SOL    HW122424   1.609   0.281  12.802 -0.1103 -1.0804  1.1392
 3655SOL    HW222425   1.651   0.411  12.851 -1.4530 -0.0063 -0.0262
 3656SOL     OW22426   0.238   0.916   0.708  0.2134 -0.0354  0.1000
 3656SOL    HW122427   0.234   1.007   0.678  0.1449  0.5515  1.8690
 3656SOL    HW222428   0.329   0.888   0.702  0.0961 -0.2469 -0.7451
 3657SOL     OW22429   4.420   4.061  13.789 -0.2542 -0.1682 -0.3624
 3657SOL    HW122430   4.505   4.081  13.827  0.0950 -0.8426 -0.7915
 3657SOL    HW222431   4.429   3.971  13.757 -1.0252 -0.7579  1.0481
 3658SOL     OW22432   0.368   2.309   7.239  0.4720  0.8603  0.1377
 3658SOL    HW122433   0.369   2.274   7.328  0.7325 -0.0472 -0.2266
 3658SOL    HW222434   0.352   2.234   7.181 -0.9684  0.6798  0.7668
 3659SOL     OW22435   4.041   4.276   0.243  0.3964  0.5824  0.3546
 3659SOL    HW122436   4.064   4.236   0.159  0.0091 -0.5631  0.7970
 3659SOL    HW222437   4.074   4.207   0.301 -0.2477 -1.9072 -2.2655
 3660SOL     OW22438   2.812   4.388   4.094  0.3711 -0.2211  0.5497
 3660SOL    HW122439   2.816   4.314   4.155  0.3687 -1.5136 -1.0296
 3660SOL    HW222440   2.872   4.360   4.025  0.7673 -1.6359  1.4593
 3661SOL     OW22441   0.281   2.850   5.143 -0.3759  0.3700  0.3574
 3661SOL    HW122442   0.375   2.860   5.130 -0.6551  1.2757 -1.0062
 3661SOL    HW222443   0.287   2.842   5.238  2.6192  1.6363  0.2807
 3662SOL     OW22444   4.275   3.949   1.514  0.4799  0.0851  0.1789
 3662SOL    HW122445   4.205   3.980   1.573 -0.1146  0.5001 -0.7518
 3662SOL    HW222446   4.233   3.967   1.430  0.4425 -0.4503  0.0837
 3663SOL     OW22447   3.601   3.115   8.771  0.2623 -0.3285  0.1231
 3663SOL    HW122448   3.659   3.101   8.696  0.8968  1.0534  0.3577
 3663SOL    HW222449   3.605   3.028   8.811  1.5729  0.5399  1.8531
 3664SOL     OW22450   3.969   0.295   6.623  0.6737 -0.2509 -0.5913
 3664SOL    HW122451   3.894   0.279   6.565  2.4760  0.2154 -3.0277
 3664SOL    HW222452   3.938   0.263   6.708 -1.4511  0.8887 -0.9515
 3665SOL     OW22453   0.681   0.740   7.314 -0.2410 -1.0463 -0.4360
 3665SOL    HW122454   0.638   0.672   7.262 -0.8070 -1.7269  0.9387
 3665SOL    HW222455   0.774   0.721   7.302 -0.1018  0.3601 -1.7343
 3666SOL     OW22456   4.656   3.113  13.592  0.5274  0.1382 -0.4997
 3666SOL    HW122457   4.566   3.094  13.617  1.2619  1.4468  3.0557
 3666SOL    HW222458   4.704   3.031  13.604 -1.7615 -1.1999 -0.4984
 3667SOL     OW22459   2.566   1.706  11.611  0.1424  0.0098  0.4798
 3667SOL    HW122460   2.637   1.719  11.673  0.9463  1.7984 -0.8013
 3667SOL    HW222461   2.591   1.748  11.528 -0.6370 -1.6280 -0.6003
 3668SOL     OW22462   0.689   2.540   6.539 -0.1925  0.3577 -0.3423
 3668SOL    HW122463   0.733   2.474   6.485 -1.1596  0.1844 -0.9117
 3668SOL    HW222464   0.611   2.551   6.484 -0.0651  1.5491 -0.2977
 3669SOL     OW22465   3.716   3.196   7.302 -0.4729  0.1886  0.3330
 3669SOL    HW122466   3.649   3.240   7.251  1.4084  1.4558 -1.0419
 3669SOL    HW222467   3.769   3.153   7.235  0.7324 -0.6426  1.8119
 3670SOL     OW22468   2.834   2.773   2.581  0.0151 -0.5454 -0.4180
 3670SOL    HW122469   2.912   2.798   2.531  0.0397 -1.3126 -0.7665
 3670SOL    HW222470   2.778   2.724   2.521 -0.3973 -0.7184  0.1072
 3671SOL     OW22471   3.674   1.061  12.943 -0.0426 -0.4148  0.0423
 3671SOL    HW122472   3.662   1.039  13.036  1.2655 -0.0765  0.2883
 3671SOL    HW222473   3.730   1.139  12.938 -0.4254 -0.1835 -0.5908
 3672SOL     OW22474   2.167   1.952  12.993 -0.7518 -0.3785  0.2228
 3672SOL    HW122475   2.119   2.034  12.980 -3.2654 -2.2259 -2.1681
 3672SOL    HW222476   2.097   1.887  12.989  1.3775 -2.6406 -0.5461
 3673SOL     OW22477   3.502   1.184   3.567  0.4030 -0.1070 -0.0569
 3673SOL    HW122478   3.513   1.091   3.586  3.8543 -0.0169 -1.5517
 3673SOL    HW222479   3.540   1.169   3.480  0.9614  1.1533 -0.0321
 3674SOL     OW22480   0.442   2.932   5.968  0.5852  0.4357 -0.1163
 3674SOL    HW122481   0.457   3.026   5.963 -1.2814  0.7033 -0.5710
 3674SOL    HW222482   0.501   2.903   6.037 -0.0730 -0.1646  0.1942
 3675SOL     OW22483   1.924   4.514   9.042 -0.5227 -0.5766 -0.7040
 3675SOL    HW122484   1.902   4.429   9.079  0.4850 -0.2843  0.5642
 3675SOL    HW222485   1.850   4.515   8.980  0.2460 -0.0919 -1.6153
 3676SOL     OW22486   4.474   3.860  17.663  0.4337  0.2636 -0.0969
 3676SOL    HW122487   4.563   3.829  17.643 -0.0335 -1.5707  0.6450
 3676SOL    HW222488   4.472   3.935  17.604  0.8618 -0.0438 -0.5115
 3677SOL     OW22489   0.929   3.081   6.839  0.2136 -0.1779 -0.1629
 3677SOL    HW122490   0.983   3.007   6.866  0.4620  0.2079  0.3869
 3677SOL    HW222491   0.846   3.037   6.856  0.2685  0.2392  1.1979
 3678SOL     OW22492   1.953   0.584   5.843 -0.1503 -0.2708  0.1776
 3678SOL    HW122493   1.895   0.660   5.843  0.4876  0.2218 -0.9961
 3678SOL    HW222494   2.020   0.614   5.781 -1.0633  2.9049  0.7525
 3679SOL     OW22495   1.795   0.393   4.105 -0.0168 -0.1385  0.1277
 3679SOL    HW122496   1.888   0.377   4.084 -0.1028 -1.0265  0.4074
 3679SOL    HW222497   1.790   0.450   4.182 -0.0765 -0.0005  0.0201
 3680SOL     OW22498   3.312   1.811   2.467  0.0981  0.0369  0.7178
 3680SOL    HW122499   3.237   1.857   2.429 -0.7071 -0.4957  1.6692
 3680SOL    HW222500   3.378   1.846   2.408  0.1273 -4.3835 -1.8159
 3681SOL     OW22501   1.481   1.826   4.667  0.3502  0.8475 -0.3946
 3681SOL    HW122502   1.478   1.833   4.763 -3.1884 -0.6080 -0.3883
 3681SOL    HW222503   1.390   1.826   4.640  0.3146  3.4580 -0.2260
 3682SOL     OW22504   3.532   0.749   8.303 -0.3859 -0.1732 -0.3551
 3682SOL    HW122505   3.620   0.782   8.320 -0.5979  0.2433 -0.0739
 3682SOL    HW222506   3.494   0.731   8.389  2.5359 -2.1403  0.5251
 3683SOL     OW22507   4.421   3.408  13.749  0.1188 -0.1283  0.2125
 3683SOL    HW122508   4.460   3.449  13.826  3.6080 -2.8829 -0.0862
 3683SOL    HW222509   4.399   3.322  13.785 -1.0450 -0.7996 -2.0959
 3684SOL     OW22510   0.491   1.470   3.577  0.3860 -0.5381 -0.4219
 3684SOL    HW122511   0.551   1.405   3.541 -2.0961 -3.2878  0.4614
 3684SOL    HW222512   0.544   1.502   3.650  0.6079 -2.1845  0.1415
 3685SOL     OW22513   1.896   1.600   4.093 -0.3774 -0.2256 -0.1260
 3685SOL    HW122514   1.943   1.619   4.174  0.1372  1.2271 -0.7546
 3685SOL    HW222515   1.810   1.567   4.121 -0.5778 -0.9171 -1.5258
 3686SOL     OW22516   1.774   0.998   8.564  0.1151 -0.0658  0.6859
 3686SOL    HW122517   1.690   0.983   8.519 -1.7239  3.7108  2.8218
 3686SOL    HW222518   1.811   1.065   8.508 -0.5018 -1.1141 -0.9684
 3687SOL     OW22519   3.141   3.609   8.697 -0.5219 -0.8781  0.0412
 3687SOL    HW122520   3.232   3.612   8.727 -0.6289  0.2199  0.2358
 3687SOL    HW222521   3.133   3.517   8.670 -1.2397 -0.7368 -0.2266
 3688SOL     OW22522   4.027   1.597  15.622 -0.7373 -0.1477  0.4755
 3688SOL    HW122523   4.021   1.566  15.713 -1.5891 -0.0549  0.4552
 3688SOL    HW222524   4.033   1.513  15.576 -1.0843  0.9098 -1.5095
 3689SOL     OW22525   4.162   4.436   8.160 -0.6278  0.1000  0.1345
 3689SOL    HW122526   4.212   4.390   8.092 -0.6201 -1.5006  1.2281
 3689SOL    HW222527   4.144   4.368   8.225  1.8459 -1.0221 -0.3754
 3690SOL     OW22528   1.385   1.425  12.919  0.2720 -0.4859 -0.3314
 3690SOL    HW122529   1.334   1.448  12.841  0.7900  1.4266 -0.0994
 3690SOL    HW222530   1.341   1.346  12.951  0.4061 -1.1071 -1.6557
 3691SOL     OW22531   1.010   0.527  12.012  0.3897 -0.0213 -0.2275
 3691SOL    HW122532   1.080   0.474  11.975 -1.8525 -0.8915 -3.1918
 3691SOL    HW222533   1.051   0.610  12.036 -0.2278  0.2959 -0.2568
 3692SOL     OW22534   0.213   4.231   5.075  0.0574  0.1228 -0.7228
 3692SOL    HW122535   0.124   4.195   5.067 -0.0835  0.4381 -0.5797
 3692SOL    HW222536   0.211   4.313   5.025  0.2552  2.3547  2.9931
 3693SOL     OW22537   1.574   4.695   1.537  0.6293  0.0305  0.1137
 3693SOL    HW122538   1.654   0.015   1.507 -0.5393  2.0784 -0.0644
 3693SOL    HW222539   1.506   4.701   1.470 -0.4117 -0.7463  1.1077
 3694SOL     OW22540   1.112   1.214   3.236 -0.7791  0.1612  0.2183
 3694SOL    HW122541   1.131   1.208   3.142 -1.9338 -1.6990  0.0889
 3694SOL    HW222542   1.156   1.131   3.253  0.7432  1.1161  0.8630
 3695SOL     OW22543   4.615   0.979  16.330 -0.1263 -0.4043  0.7205
 3695SOL    HW122544   4.630   1.005  16.239  0.9616 -2.1463  0.3917
 3695SOL    HW222545   4.577   0.891  16.319 -0.7189 -0.2739  1.8165
 3696SOL     OW22546   1.319   1.747  15.987  0.1005  0.8160  0.0555
 3696SOL    HW122547   1.339   1.700  16.068 -0.3483  1.2740  0.4306
 3696SOL    HW222548   1.408   1.769  15.958  1.8648 -1.3739  3.7215
 3697SOL     OW22549   2.950   0.455   8.347 -0.2649 -0.2499  0.1497
 3697SOL    HW122550   2.957   0.402   8.427  0.7863  0.2462  0.3816
 3697SOL    HW222551   3.042   0.456   8.320 -0.6979  3.0895 -1.1281
 3698SOL     OW22552   0.387   4.604   6.684 -0.2011  0.4850 -0.0222
 3698SOL    HW122553   0.381   4.544   6.759  0.1610  1.7481  1.0158
 3698SOL    HW222554   0.447   4.674   6.712  0.1061  0.2473 -0.0834
 3699SOL     OW22555   2.685   3.353   5.742 -0.2682 -0.7865  0.6168
 3699SOL    HW122556   2.622   3.382   5.809  0.3823  1.0318  0.4491
 3699SOL    HW222557   2.760   3.405   5.770 -0.7556 -0.1401  0.7408
 3700SOL     OW22558   0.489   4.260   8.154 -0.4874  0.3461  0.1421
 3700SOL    HW122559   0.504   4.266   8.059 -0.5576  0.5662  0.1444
 3700SOL    HW222560   0.394   4.252   8.159 -0.3705 -0.7160  0.5449
 3701SOL     OW22561   0.608   1.336   6.682  0.4058 -0.2891 -0.2915
 3701SOL    HW122562   0.659   1.339   6.601 -1.6690 -1.6986 -1.6535
 3701SOL    HW222563   0.650   1.399   6.740  0.3074 -0.4771 -0.0136
 3702SOL     OW22564   4.570   1.696   9.923  0.0899 -0.2864  0.0891
 3702SOL    HW122565   4.621   1.627   9.966  0.1740  0.1159  0.6313
 3702SOL    HW222566   4.603   1.700   9.833 -0.7167 -0.6715 -0.2279
 3703SOL     OW22567   3.512   1.544   3.264 -0.3994  0.3978 -0.0574
 3703SOL    HW122568   3.597   1.533   3.306 -0.9622  2.4021  1.6320
 3703SOL    HW222569   3.454   1.518   3.335  0.3785  1.5565  1.0025
 3704SOL     OW22570   3.816   3.179  15.754 -0.2885 -0.3019  0.1342
 3704SOL    HW122571   3.797   3.119  15.682  0.4714 -1.3438  0.8149
 3704SOL    HW222572   3.901   3.143  15.779 -1.1240 -1.4451  1.3547
 3705SOL     OW22573   3.472   0.185   6.057  0.1255  0.1122  0.2233
 3705SOL    HW122574   3.515   0.218   5.978  0.7053  0.4156  0.6739
 3705SOL    HW222575   3.496   0.092   6.052  2.1307  0.6610 -0.0978
 3706SOL     OW22576   4.201   2.705   6.946  0.5105 -0.8085  0.0939
 3706SOL    HW122577   4.228   2.676   7.033  1.0147 -1.1421 -0.1748
 3706SOL    HW222578   4.202   2.619   6.904 -1.8375 -0.8157  0.0429
 3707SOL     OW22579   3.599   3.715  14.816 -0.3881  0.7031  0.3578
 3707SOL    HW122580   3.523   3.674  14.775  0.2253  2.6877 -2.7004
 3707SOL    HW222581   3.587   3.805  14.786  0.3381  0.5152 -0.4933
 3708SOL     OW22582   0.240   3.346   5.959  0.0426  0.1342 -0.1189
 3708SOL    HW122583   0.210   3.321   6.046  0.3056  1.7742  0.4323
 3708SOL    HW222584   0.183   3.295   5.901  0.0105  1.1515 -0.9897
 3709SOL     OW22585   1.675   3.075   2.100 -0.5317 -0.3632  0.2980
 3709SOL    HW122586   1.621   3.075   2.022 -0.6298  0.6631  0.3600
 3709SOL    HW222587   1.643   3.151   2.148  0.7998  1.3376 -1.4792
 3710SOL     OW22588   4.514   3.713  10.505  0.8253  0.4675  0.5561
 3710SOL    HW122589   4.587   3.709  10.444 -0.2398 -1.1504 -0.5938
 3710SOL    HW222590   4.510   3.803  10.536  1.0897  0.1469  1.5399
 3711SOL     OW22591   4.521   1.349  17.003 -0.4432 -0.3877 -0.0329
 3711SOL    HW122592   4.436   1.329  17.039 -0.4114 -1.2960 -0.4746
 3711SOL    HW222593   4.498   1.429  16.955 -1.3535 -0.7853 -0.2369
 3712SOL     OW22594   3.573   1.976  15.366  0.3198 -0.0731  0.3659
 3712SOL    HW122595   3.646   1.914  15.355 -0.5102 -1.2886  1.6605
 3712SOL    HW222596   3.588   1.991  15.459 -2.2154 -2.1267  1.1141
 3713SOL     OW22597   1.135   4.189   9.967  0.4004  0.4163  0.2619
 3713SOL    HW122598   1.120   4.270  10.015 -0.2256  0.1371  0.5403
 3713SOL    HW222599   1.230   4.178   9.965  0.4068  0.9029 -1.5320
 3714SOL     OW22600   3.666   3.529  13.836  0.3112 -0.1235  0.9181
 3714SOL    HW122601   3.602   3.594  13.805  1.1087  0.7172  1.0223
 3714SOL    HW222602   3.753   3.555  13.805 -0.6061  0.3058 -1.2821
 3715SOL     OW22603   2.936   4.467   1.514 -0.3961  0.0184 -0.0243
 3715SOL    HW122604   2.879   4.541   1.493 -1.5278 -1.1431 -1.0547
 3715SOL    HW222605   3.018   4.497   1.476 -0.8813 -0.1753 -1.2232
 3716SOL     OW22606   4.400   3.764   2.577  0.3259  0.5981 -0.0689
 3716SOL    HW122607   4.337   3.729   2.639 -1.0912  2.0860 -0.6652
 3716SOL    HW222608   4.440   3.681   2.552  0.7359  1.3333 -1.8389
 3717SOL     OW22609   2.175   4.121   7.703 -0.4289  0.0954  0.4008
 3717SOL    HW122610   2.123   4.047   7.733  0.2572 -0.2267  0.8178
 3717SOL    HW222611   2.109   4.155   7.643  0.0398  1.9303  0.9087
 3718SOL     OW22612   4.540   4.035   1.623  0.1316  0.2434  0.1142
 3718SOL    HW122613   4.469   4.065   1.567 -1.7804 -2.3709  1.1344
 3718SOL    HW222614   4.559   3.946   1.595 -0.0054 -0.0958  1.0904
 3719SOL     OW22615   2.110   0.524   2.847  0.3018 -0.3358 -0.1723
 3719SOL    HW122616   2.155   0.440   2.837  0.9401  0.3403 -2.8627
 3719SOL    HW222617   2.148   0.560   2.927  0.6500  1.1239 -1.0116
 3720SOL     OW22618   0.136   0.831   3.300  0.3237 -0.3002  0.2713
 3720SOL    HW122619   0.200   0.894   3.333 -1.0218  0.5463  1.2595
 3720SOL    HW222620   0.176   0.748   3.325  0.7649 -0.2223 -0.1768
 3721SOL     OW22621   0.368   1.834   5.062  0.3994 -0.8500  0.1647
 3721SOL    HW122622   0.369   1.739   5.077  2.6538 -0.7706  0.5794
 3721SOL    HW222623   0.353   1.831   4.967 -1.8005  0.4526  0.4813
 3722SOL     OW22624   4.586   0.084  13.010  0.0755 -0.2899  0.2254
 3722SOL    HW122625   4.567   0.003  12.962 -0.4200  0.0298 -0.1224
 3722SOL    HW222626   4.620   0.051  13.093  0.0010 -1.8002 -0.3328
 3723SOL     OW22627   0.570   2.483   7.209  0.0797 -0.5280 -0.4623
 3723SOL    HW122628   0.532   2.556   7.258  2.4927 -0.7903  1.8037
 3723SOL    HW222629   0.500   2.419   7.216  0.5041 -1.1365 -1.7309
 3724SOL     OW22630   4.607   1.828   9.652  0.2477  0.1612  0.0542
 3724SOL    HW122631   4.636   1.779   9.575  0.9187 -0.4283  0.6801
 3724SOL    HW222632   4.660   1.908   9.647  1.1833 -0.3656  1.6939
 3725SOL     OW22633   0.744   3.211   5.769  0.0653 -0.5171  0.3286
 3725SOL    HW122634   0.823   3.228   5.718 -0.8890 -0.1753 -1.0304
 3725SOL    HW222635   0.746   3.271   5.844  2.4770 -1.0464  0.6797
 3726SOL     OW22636   0.148   2.628   6.398 -0.0386 -0.2295  0.6302
 3726SOL    HW122637   0.121   2.559   6.459 -0.3811  0.7121  1.5582
 3726SOL    HW222638   0.183   2.693   6.459 -0.5368  1.0400 -0.4478
 3727SOL     OW22639   4.383   3.654   2.942  0.3701  0.0320 -0.0689
 3727SOL    HW122640   4.325   3.680   2.870  1.2523 -3.2984 -1.9376
 3727SOL    HW222641   4.415   3.571   2.907  1.5193  1.0156 -1.3399
 3728SOL     OW22642   3.906   3.789   6.606  0.1544 -0.1449 -0.1579
 3728SOL    HW122643   3.874   3.789   6.516  1.0699 -0.6382 -0.4800
 3728SOL    HW222644   3.828   3.786   6.660 -0.6506  0.6059 -1.2795
 3729SOL     OW22645   0.496   0.625   9.535 -0.4889 -0.6435  0.4007
 3729SOL    HW122646   0.562   0.557   9.525 -0.5567 -0.3355 -1.9852
 3729SOL    HW222647   0.541   0.699   9.576 -0.2903  1.3020 -3.3637
 3730SOL     OW22648   0.480   4.070   5.651  0.6785  0.8366  0.2332
 3730SOL    HW122649   0.518   4.148   5.691  2.5408  0.5614 -0.9784
 3730SOL    HW222650   0.458   4.100   5.563 -2.0741 -2.2422 -0.1516
 3731SOL     OW22651   0.514   0.721   2.393  0.5979 -0.6066  0.0684
 3731SOL    HW122652   0.471   0.725   2.307  0.3439 -2.4019  0.1048
 3731SOL    HW222653   0.436   0.721   2.449 -0.1502 -0.3740 -0.9725
 3732SOL     OW22654   1.430   0.005   4.236  0.4133 -0.1074 -0.2272
 3732SOL    HW122655   1.503   0.041   4.287  1.2245  0.5302 -1.8420
 3732SOL    HW222656   1.469   0.025   4.151 -2.7945 -3.8046 -2.5803
 3733SOL     OW22657   3.156   4.354   7.445  0.2460 -0.4376  0.1901
 3733SOL    HW122658   3.244   4.346   7.480  0.3937 -0.0956 -0.0985
 3733SOL    HW222659   3.150   4.449   7.456  0.3794 -0.3830 -0.1876
 3734SOL     OW22660   3.339   3.056   7.725 -0.1132 -0.0233  0.2433
 3734SOL    HW122661   3.279   3.103   7.782  0.0469  0.3037  0.1423
 3734SOL    HW222662   3.295   2.971   7.732  0.3215 -0.2593  0.1192
 3735SOL     OW22663   2.303   4.350   2.513 -0.2586  0.2199  0.4179
 3735SOL    HW122664   2.399   4.343   2.515 -0.5211 -3.5165 -1.0718
 3735SOL    HW222665   2.299   4.350   2.417  1.6397  1.3179  0.3286
 3736SOL     OW22666   4.225   0.530   5.284 -0.1803 -0.0178 -0.2244
 3736SOL    HW122667   4.218   0.609   5.337 -2.3034  0.1869 -0.8096
 3736SOL    HW222668   4.319   0.526   5.263  0.2583  1.4702  1.4747
 3737SOL     OW22669   0.580   2.675   3.122 -0.2545  0.1390  0.0210
 3737SOL    HW122670   0.554   2.668   3.214 -2.2010 -2.3154 -0.7278
 3737SOL    HW222671   0.648   2.743   3.122 -0.9083  0.7932 -1.2785
 3738SOL     OW22672   4.057   0.718   4.628 -0.1910 -0.3754  0.3017
 3738SOL    HW122673   3.971   0.734   4.667  0.3827  2.3493  0.4169
 3738SOL    HW222674   4.048   0.624   4.610 -1.0046 -0.0807 -0.7943
 3739SOL     OW22675   1.173   1.144  11.095 -0.0101 -0.0209 -0.5743
 3739SOL    HW122676   1.191   1.116  11.185 -2.6866  1.2209  0.3512
 3739SOL    HW222677   1.149   1.066  11.044  3.7021 -1.6914  0.2329
 3740SOL     OW22678   3.139   4.168   6.891 -0.0503  0.4252 -0.2471
 3740SOL    HW122679   3.229   4.155   6.860 -0.0991 -0.4533 -0.0291
 3740SOL    HW222680   3.110   4.088   6.934 -0.7969  0.1619 -1.2555
 3741SOL     OW22681   0.689   4.500   1.435 -0.1004  0.1884 -0.1217
 3741SOL    HW122682   0.779   4.495   1.400 -0.6323  1.0885 -1.6240
 3741SOL    HW222683   0.679   4.410   1.466  0.0790 -0.6241 -2.4330
 3742SOL     OW22684   4.192   1.792   9.919  0.1381 -0.3402 -0.3807
 3742SOL    HW122685   4.264   1.849   9.890 -1.2321  0.0435 -3.1053
 3742SOL    HW222686   4.119   1.839   9.879  1.1723 -0.2998 -2.2421
 3743SOL     OW22687   3.748   0.124   7.606  0.0277 -0.0875 -0.8594
 3743SOL    HW122688   3.705   0.071   7.540  0.7668  1.1983 -2.3653
 3743SOL    HW222689   3.759   0.064   7.680 -2.2962 -1.7515 -1.8807
 3744SOL     OW22690   4.324   1.994  15.434 -0.2362  0.2327 -0.6405
 3744SOL    HW122691   4.260   1.943  15.483  2.8680 -2.2741  0.8597
 3744SOL    HW222692   4.365   1.925  15.380  0.8793 -1.2689  2.1507
 3745SOL     OW22693   2.223   3.963   8.667 -0.2819  1.0464 -0.5890
 3745SOL    HW122694   2.128   3.954   8.660 -0.3891 -0.7437  2.9344
 3745SOL    HW222695   2.233   4.046   8.713  2.9253 -0.2598  1.1455
 3746SOL     OW22696   1.915   1.372   2.259 -0.1850  0.2229  0.1311
 3746SOL    HW122697   1.974   1.439   2.294 -1.1497  1.2455 -0.1724
 3746SOL    HW222698   1.930   1.293   2.311  0.7193 -0.0555 -0.5748
 3747SOL     OW22699   1.411   2.560   8.480  0.0936  0.1297  0.0262
 3747SOL    HW122700   1.476   2.514   8.533  0.3004  0.7971  0.3566
 3747SOL    HW222701   1.385   2.629   8.541  0.8786  1.0019 -0.6191
 3748SOL     OW22702   0.042   3.810  16.270  0.4670 -0.1277 -0.0449
 3748SOL    HW122703   0.120   3.798  16.324  0.2890  0.2512  0.2927
 3748SOL    HW222704   0.064   3.885  16.214  0.4934 -0.9892 -1.2089
 3749SOL     OW22705   4.336   3.153   6.930 -0.1686  0.2101 -0.3269
 3749SOL    HW122706   4.412   3.210   6.933  0.6302 -0.7999 -1.5827
 3749SOL    HW222707   4.295   3.171   6.846  0.0366 -0.8032 -0.6446
 3750SOL     OW22708   0.740   1.843   6.480 -0.3849 -0.2845  0.1735
 3750SOL    HW122709   0.741   1.851   6.384 -0.9099  1.0414  0.2831
 3750SOL    HW222710   0.748   1.936   6.502 -0.2091 -0.0909 -0.6973
 3751SOL     OW22711   2.383   0.277  10.461 -0.2425  0.4416 -0.2183
 3751SOL    HW122712   2.449   0.339  10.430 -1.4942  1.1305 -1.4963
 3751SOL    HW222713   2.403   0.283  10.555  0.2805  2.9262 -0.4894
 3752SOL     OW22714   4.061   2.578  13.930 -0.6292  0.3209 -0.2174
 3752SOL    HW122715   4.062   2.666  13.892  0.4859  0.7479  0.7897
 3752SOL    HW222716   3.987   2.548  13.877 -1.2571 -1.0422  1.4155
 3753SOL     OW22717   3.068   4.631   7.093 -0.0933  0.0756 -0.5946
 3753SOL    HW122718   3.115   4.603   7.171  1.4930  0.7537 -1.2994
 3753SOL    HW222719   3.001   4.694   7.120  0.4501 -0.0761  1.0793
 3754SOL     OW22720   4.054   1.861   2.933  0.1584  0.0242 -0.2832
 3754SOL    HW122721   4.123   1.927   2.924  0.3295 -0.2795 -1.1551
 3754SOL    HW222722   4.081   1.798   2.866 -1.9923 -0.1420 -0.9690
 3755SOL     OW22723   0.012   1.948   3.459 -0.0911  0.7193  0.3848
 3755SOL    HW122724   0.008   2.006   3.383 -2.0706  1.4777  1.0726
 3755SOL    HW222725   4.686   1.997   3.525  0.5972  1.4794  0.3278
 3756SOL     OW22726   3.957   3.914   7.456 -0.1029 -0.0172 -0.5507
 3756SOL    HW122727   3.895   3.849   7.423 -0.2516  0.3338 -0.9649
 3756SOL    HW222728   3.951   3.917   7.551 -0.2338 -0.8823 -0.5261
 3757SOL     OW22729   1.066   4.347   8.174 -0.9821  0.6437  0.0658
 3757SOL    HW122730   1.080   4.345   8.269  1.6052 -0.5904 -0.3547
 3757SOL    HW222731   1.125   4.284   8.132  0.2162  0.2766  2.2684
 3758SOL     OW22732   2.661   2.934   2.714 -0.8667 -0.1459  0.3113
 3758SOL    HW122733   2.581   2.897   2.678 -0.6647  1.3442 -1.6887
 3758SOL    HW222734   2.723   2.873   2.674 -0.5408 -0.1448  0.8018
 3759SOL     OW22735   2.191   0.084   4.538 -0.1836  0.0931 -0.1221
 3759SOL    HW122736   2.245   0.041   4.605 -0.3216  0.4375  0.2124
 3759SOL    HW222737   2.183   0.013   4.474  1.1096  0.7645 -1.0210
 3760SOL     OW22738   2.900   3.372   5.053 -0.1619 -0.2594 -0.1547
 3760SOL    HW122739   2.982   3.409   5.087 -0.7630  1.4861 -0.6064
 3760SOL    HW222740   2.846   3.391   5.129  0.0113 -0.0320 -0.0880
 3761SOL     OW22741   1.492   0.743   5.804 -0.2827 -0.0935 -0.0848
 3761SOL    HW122742   1.471   0.650   5.808  0.4130 -0.2135  0.8224
 3761SOL    HW222743   1.506   0.746   5.709  0.9281  2.5822  0.1767
 3762SOL     OW22744   1.276   1.686  10.449 -0.3443  0.0510  0.6389
 3762SOL    HW122745   1.238   1.727  10.528 -0.2778 -1.2728  1.3507
 3762SOL    HW222746   1.207   1.685  10.383 -0.9891  0.4246  1.2954
 3763SOL     OW22747   1.948   0.301   3.143  0.2432 -0.5012 -0.5557
 3763SOL    HW122748   2.000   0.340   3.214  0.1304 -0.0439 -0.7226
 3763SOL    HW222749   1.869   0.350   3.165  2.4912  3.4177 -1.0898
 3764SOL     OW22750   4.689   1.822  11.480  0.4609  0.4080  0.0310
 3764SOL    HW122751   4.655   1.735  11.457  2.1236 -0.2653  0.0967
 3764SOL    HW222752   0.016   1.858  11.406  1.2981  0.9487  0.8688
 3765SOL     OW22753   2.175   2.087   6.492 -0.6861  0.4813 -0.1512
 3765SOL    HW122754   2.138   2.173   6.470 -0.1517  0.7238 -0.1251
 3765SOL    HW222755   2.141   2.075   6.581 -2.0732  0.3433 -0.7046
 3766SOL     OW22756   3.226   0.301   6.679 -0.4112  0.9890  0.2279
 3766SOL    HW122757   3.265   0.376   6.635 -1.0726  0.2439 -1.6082
 3766SOL    HW222758   3.155   0.276   6.620  0.4275 -2.3982  0.6275
 3767SOL     OW22759   1.770   0.565   6.984  0.3925  0.2240 -0.2627
 3767SOL    HW122760   1.748   0.578   7.076  0.5843  0.8116 -0.2999
 3767SOL    HW222761   1.861   0.573   7.012  0.4815  1.3075 -0.8499
 3768SOL     OW22762   1.063   2.115  11.947  0.2534 -0.2709 -0.0911
 3768SOL    HW122763   1.099   2.100  11.860 -0.4747 -1.3460 -0.2133
 3768SOL    HW222764   1.070   2.210  11.955  1.1401 -0.1801 -1.9851
 3769SOL     OW22765   0.832   4.289   7.804 -0.2432 -0.2418 -0.3412
 3769SOL    HW122766   0.870   4.202   7.791 -1.5726 -0.8316 -0.3263
 3769SOL    HW222767   0.764   4.296   7.737  0.5080 -0.4104 -1.1259
 3770SOL     OW22768   3.701   3.702   7.708  0.5886  0.3533 -0.1115
 3770SOL    HW122769   3.658   3.647   7.774  0.5290  1.1358  0.4900
 3770SOL    HW222770   3.663   3.669   7.627  0.0834  0.2121  0.1801
 3771SOL     OW22771   1.297   0.636   2.921 -0.2067 -0.3234  0.1958
 3771SOL    HW122772   1.214   0.643   2.874 -0.8025  1.9631  1.5711
 3771SOL    HW222773   1.353   0.680   2.858 -1.2603 -2.5485 -2.3093
 3772SOL     OW22774   0.192   0.423   2.154 -0.1305 -0.1375  0.3618
 3772SOL    HW122775   0.202   0.330   2.176 -3.0172 -0.6816 -0.6898
 3772SOL    HW222776   0.134   0.408   2.079 -0.4027  0.5780  0.4304
 3773SOL     OW22777   3.829   4.281   2.331 -0.5856 -0.4873 -0.7860
 3773SOL    HW122778   3.846   4.197   2.287 -0.1413 -0.8133 -0.0113
 3773SOL    HW222779   3.862   4.340   2.263 -0.4996 -1.5465 -1.6693
 3774SOL     OW22780   0.416   4.177  17.348  0.1222  0.3571  0.0661
 3774SOL    HW122781   0.322   4.193  17.340  0.5241  1.1917 -2.8756
 3774SOL    HW222782   0.442   4.136  17.265  1.0207  0.7498  0.1532
 3775SOL     OW22783   3.829   0.007   2.136  0.2504 -0.5373  0.0117
 3775SOL    HW122784   3.889   0.070   2.175 -0.3060  0.6085 -0.9784
 3775SOL    HW222785   3.761   0.005   2.204 -0.4085 -0.7746 -0.6582
 3776SOL     OW22786   2.167   2.689  16.860  0.0160 -0.1112 -0.4521
 3776SOL    HW122787   2.246   2.719  16.815  1.1539 -1.5266  0.5917
 3776SOL    HW222788   2.131   2.776  16.879 -0.3585 -0.6357  1.2615
 3777SOL     OW22789   3.802   1.232   8.388 -0.7920  0.3804 -0.4452
 3777SOL    HW122790   3.823   1.186   8.469 -1.1850  1.7707  0.4348
 3777SOL    HW222791   3.842   1.180   8.318  1.1041 -0.4209  1.2212
 3778SOL     OW22792   0.246   1.961   0.161  0.2216  0.2593 -0.2819
 3778SOL    HW122793   0.328   1.919   0.187  0.2439 -0.2888 -1.2372
 3778SOL    HW222794   0.278   1.990   0.075  0.0943 -0.4999 -0.5838
 3779SOL     OW22795   0.963   2.363   5.449 -0.2111 -0.1240  0.5788
 3779SOL    HW122796   0.910   2.290   5.480 -2.7616  1.4722 -0.0626
 3779SOL    HW222797   0.981   2.408   5.532 -0.2429  1.8498 -0.4843
 3780SOL     OW22798   4.697   2.141   6.989  0.0089  0.1206  0.0122
 3780SOL    HW122799   4.673   2.103   6.905  1.7935  1.1368 -0.9605
 3780SOL    HW222800   4.691   2.064   7.046 -1.4246  0.1760 -0.0673
 3781SOL     OW22801   3.459   0.937   1.556 -0.4519  0.2554 -0.5052
 3781SOL    HW122802   3.433   0.854   1.597 -0.2616 -0.5215 -1.9677
 3781SOL    HW222803   3.463   0.987   1.638  0.6338 -0.9685  0.1911
 3782SOL     OW22804   3.830   2.945   2.421 -0.4373  0.3152 -0.0201
 3782SOL    HW122805   3.802   2.891   2.347  0.5310 -1.3099  0.8021
 3782SOL    HW222806   3.751   2.966   2.471  1.1177  1.8288  1.8107
 3783SOL     OW22807   2.780   2.965   7.806 -0.1434  0.3319  0.1364
 3783SOL    HW122808   2.750   2.974   7.715  1.0724  0.9025 -0.2127
 3783SOL    HW222809   2.700   2.935   7.850 -0.7902  1.2515 -0.4187
 3784SOL     OW22810   1.000   3.242   4.364 -0.0494 -1.1178 -0.0672
 3784SOL    HW122811   1.058   3.308   4.401  2.5789 -3.6660  0.4489
 3784SOL    HW222812   0.961   3.219   4.448 -0.7339 -0.1228 -0.1202
 3785SOL     OW22813   3.447   3.796   3.688  0.8109  0.0417  0.5226
 3785SOL    HW122814   3.468   3.852   3.763 -0.0103 -0.6217  1.2573
 3785SOL    HW222815   3.462   3.711   3.730 -2.4037 -0.1254  1.3900
 3786SOL     OW22816   0.305   1.390   3.852  0.3278 -1.0080  0.6723
 3786SOL    HW122817   0.289   1.460   3.916 -1.6713 -1.2751  0.4631
 3786SOL    HW222818   0.394   1.363   3.873  0.0987 -0.6572  2.0660
 3787SOL     OW22819   2.413   0.814   4.179 -0.1402  0.1127 -0.1633
 3787SOL    HW122820   2.465   0.831   4.100 -0.8724  1.3326 -0.3962
 3787SOL    HW222821   2.373   0.729   4.165  2.0391 -0.8648 -0.3599
 3788SOL     OW22822   0.431   4.713   6.038  0.3264 -0.3200 -0.6748
 3788SOL    HW122823   0.391   0.039   5.966 -0.3202 -0.3073 -0.3046
 3788SOL    HW222824   0.356   4.656   6.055  1.0776 -0.6762  1.4699
 3789SOL     OW22825   2.818   1.427   6.173 -0.2637  0.2418 -0.0862
 3789SOL    HW122826   2.728   1.446   6.150 -0.4798 -0.8583 -0.1387
 3789SOL    HW222827   2.817   1.486   6.248 -0.7816  1.2312 -0.8768
 3790SOL     OW22828   0.089   4.183   4.794  0.1343  0.0801  0.4677
 3790SOL    HW122829   0.172   4.214   4.758  0.6668  0.5042  2.0613
 3790SOL    HW222830   0.027   4.209   4.726  2.8322  0.5197 -1.8200
 3791SOL     OW22831   1.493   2.600   1.838 -0.2446 -0.4155 -0.5942
 3791SOL    HW122832   1.493   2.507   1.816  0.6084  0.1438 -2.9486
 3791SOL    HW222833   1.583   2.629   1.828 -0.3692  0.1267 -0.1927
 3792SOL     OW22834   1.141   2.253   0.974 -0.4246 -0.1357 -0.2139
 3792SOL    HW122835   1.165   2.161   0.981 -1.5508 -0.2970  1.5295
 3792SOL    HW222836   1.220   2.290   0.933 -1.1355 -0.9040 -2.2818
 3793SOL     OW22837   0.812   2.676  12.268  0.1553 -0.1691 -0.2248
 3793SOL    HW122838   0.787   2.674  12.361 -0.9627  1.5562 -0.4984
 3793SOL    HW222839   0.735   2.647  12.220  0.6126  0.4707 -1.3324
 3794SOL     OW22840   1.808   3.298   6.459 -0.2102 -0.3757 -0.5141
 3794SOL    HW122841   1.840   3.311   6.370  1.6208  2.4519  0.5570
 3794SOL    HW222842   1.872   3.334   6.521 -1.6789  2.0161 -0.3823
 3795SOL     OW22843   0.837   3.884   4.950 -0.0699  0.9175  0.2631
 3795SOL    HW122844   0.810   3.955   5.009 -1.7000  1.1590 -0.7700
 3795SOL    HW222845   0.827   3.922   4.863 -0.4784  0.1180 -0.0402
 3796SOL     OW22846   3.620   4.668   5.802  0.0220  0.3844  0.6512
 3796SOL    HW122847   3.579   4.652   5.887  0.5412 -2.0907  0.4292
 3796SOL    HW222848   3.610   0.039   5.784 -0.0433  0.4135  0.8343
 3797SOL     OW22849   0.208   1.936  10.876 -0.2406  0.1667 -0.8087
 3797SOL    HW122850   0.114   1.933  10.858 -0.7893  0.5466  2.0016
 3797SOL    HW222851   0.243   2.014  10.833  3.6684  0.3105  2.5942
 3798SOL     OW22852   2.006   3.176   1.728  0.3011  0.6001  0.2748
 3798SOL    HW122853   1.970   3.229   1.800  1.6321  1.0856  0.5874
 3798SOL    HW222854   2.094   3.214   1.727  0.5084  0.0763 -0.8039
 3799SOL     OW22855   2.644   4.700   3.643  0.8583  0.0366  0.4131
 3799SOL    HW122856   2.557   4.660   3.634  0.5425  0.8439 -0.2039
 3799SOL    HW222857   2.702   4.625   3.631  0.1776 -0.6775  1.5488
 3800SOL     OW22858   0.984   3.636   8.600 -0.0858  0.2936 -0.7886
 3800SOL    HW122859   0.908   3.646   8.543  1.0862  2.6493 -1.9397
 3800SOL    HW222860   0.974   3.716   8.651 -0.1071  0.3739 -0.9180
 3801SOL     OW22861   0.536   1.984   4.179 -0.5343  0.2969  0.8112
 3801SOL    HW122862   0.559   2.052   4.115  1.1805 -0.2133  0.8856
 3801SOL    HW222863   0.545   1.900   4.133 -0.9973  0.4830  0.3771
 3802SOL     OW22864   0.749   2.232   8.694 -0.6279 -1.0080 -0.3009
 3802SOL    HW122865   0.697   2.162   8.733 -0.8442  0.5122  2.2187
 3802SOL    HW222866   0.680   2.299   8.696  1.5448  1.2318  0.8462
 3803SOL     OW22867   3.559   4.111   7.460 -0.1676 -0.0511  0.2799
 3803SOL    HW122868   3.542   4.023   7.495 -0.6781 -0.4272 -0.9038
 3803SOL    HW222869   3.546   4.094   7.367 -0.4056 -0.1136  0.3249
 3804SOL     OW22870   1.095   0.347   8.277  0.1258 -0.6303 -0.3907
 3804SOL    HW122871   1.086   0.398   8.196 -0.7811 -0.4459 -0.1663
 3804SOL    HW222872   1.122   0.265   8.236  1.8022  0.4986 -1.5816
 3805SOL     OW22873   1.692   4.533   4.220  0.0717  0.7272  0.4351
 3805SOL    HW122874   1.707   4.441   4.244  0.1251  0.2451 -1.4484
 3805SOL    HW222875   1.715   4.565   4.307 -2.0206 -1.4329  1.7514
 3806SOL     OW22876   4.665   4.086   6.425  0.6502  0.3024  0.4060
 3806SOL    HW122877   4.662   3.993   6.448 -0.4011  0.7666  2.1484
 3806SOL    HW222878   0.012   4.089   6.359 -1.4106 -1.6958 -1.8297
 3807SOL     OW22879   3.540   2.700  14.544  0.9016  0.1682 -0.1650
 3807SOL    HW122880   3.596   2.719  14.469 -0.3838 -0.4524 -1.2880
 3807SOL    HW222881   3.596   2.644  14.598 -1.1984  0.4097  2.2486
 3808SOL     OW22882   4.262   3.586   7.162  0.1390  0.4481 -0.1960
 3808SOL    HW122883   4.276   3.513   7.222  2.2206  0.2599 -0.9311
 3808SOL    HW222884   4.351   3.620   7.151 -0.1146  0.9475 -0.7354
 3809SOL     OW22885   4.595   2.539   6.068 -0.4951  0.3624  0.2072
 3809SOL    HW122886   4.662   2.472   6.084 -0.3214  0.9344  1.9462
 3809SOL    HW222887   4.599   2.593   6.147 -0.0934  1.9647 -0.9045
 3810SOL     OW22888   0.214   1.887  11.344 -0.5305  0.2573  0.3022
 3810SOL    HW122889   0.212   1.940  11.264 -0.4256 -0.9927 -0.5189
 3810SOL    HW222890   0.241   1.943  11.418  1.3651 -1.6812  1.0803
 3811SOL     OW22891   0.922   0.666   0.576 -0.0099  0.3598 -0.2127
 3811SOL    HW122892   0.883   0.579   0.570 -1.2341  1.0633 -2.5934
 3811SOL    HW222893   0.906   0.696   0.486 -1.4246  0.2188 -0.0074
 3812SOL     OW22894   0.966   3.916   8.712  0.3977  0.0110 -0.0764
 3812SOL    HW122895   0.922   3.962   8.640 -2.1471 -0.4437  1.1620
 3812SOL    HW222896   1.057   3.919   8.684 -0.2753 -0.1647 -2.2726
 3813SOL     OW22897   0.676   2.802  15.969  0.0608 -0.0580 -0.0539
 3813SOL    HW122898   0.706   2.711  15.964 -0.4200 -0.1952 -0.4069
 3813SOL    HW222899   0.682   2.829  15.878 -0.4487  0.7612  0.1521
 3814SOL     OW22900   1.149   1.291  13.783 -0.1332  0.1992  0.0913
 3814SOL    HW122901   1.163   1.383  13.802 -1.9231  0.2000  1.4122
 3814SOL    HW222902   1.234   1.259  13.751 -0.1703 -0.3692  0.5546
 3815SOL     OW22903   3.613   1.888  11.793 -0.1872  0.5689  0.0265
 3815SOL    HW122904   3.693   1.849  11.756 -0.8999  0.1659 -1.0891
 3815SOL    HW222905   3.635   1.881  11.886 -2.7953  1.0750  0.6617
 3816SOL     OW22906   4.434   1.043   4.543 -1.0622 -0.0736 -0.1783
 3816SOL    HW122907   4.442   1.108   4.613  0.9272 -0.0150 -0.4811
 3816SOL    HW222908   4.354   0.996   4.567 -0.2212 -1.3082  0.1931
 3817SOL     OW22909   3.769   4.228   4.453 -0.2368 -0.7636 -0.3468
 3817SOL    HW122910   3.763   4.133   4.465  0.8985 -0.5153  2.3141
 3817SOL    HW222911   3.849   4.232   4.401  0.3070 -0.8778  0.4790
 3818SOL     OW22912   2.604   4.671   2.391  0.4912 -0.0278 -1.1164
 3818SOL    HW122913   2.528   4.633   2.433  0.6368  1.9811  0.9726
 3818SOL    HW222914   2.611   4.610   2.318 -0.4518  1.9107 -2.8518
 3819SOL     OW22915   2.172   4.124   4.596 -0.3717 -0.0708 -0.3942
 3819SOL    HW122916   2.168   4.219   4.595 -1.9076 -0.1276  0.1136
 3819SOL    HW222917   2.162   4.102   4.689  0.7111  2.0614  0.2262
 3820SOL     OW22918   2.284   4.598   8.234  0.2179 -0.5703 -0.2754
 3820SOL    HW122919   2.207   4.655   8.236 -0.3121 -1.3418  1.4091
 3820SOL    HW222920   2.281   4.560   8.322  2.2769 -1.0295 -0.3994
 3821SOL     OW22921   2.099   4.108   5.851  0.3369 -0.5944 -0.0105
 3821SOL    HW122922   2.143   4.183   5.892  0.3321  1.2875 -3.4836
 3821SOL    HW222923   2.151   4.083   5.775  1.8638  1.1238  0.4955
 3822SOL     OW22924   2.426   1.262   7.619 -0.5156  0.3292 -0.0285
 3822SOL    HW122925   2.399   1.179   7.660 -1.0364 -0.2558 -1.5386
 3822SOL    HW222926   2.343   1.309   7.612 -0.1107  1.3996  2.3902
 3823SOL     OW22927   1.081   0.475   2.003  0.0306 -0.5015  0.2696
 3823SOL    HW122928   1.009   0.538   1.991  0.3421  0.1667  1.9090
 3823SOL    HW222929   1.115   0.464   1.915 -0.1669 -1.7425  0.3556
 3824SOL     OW22930   1.254   1.828   1.787 -0.4179 -0.0479  0.2403
 3824SOL    HW122931   1.201   1.863   1.715 -0.8210 -0.6940  0.2214
 3824SOL    HW222932   1.207   1.750   1.816 -0.1317  0.0652  1.0188
 3825SOL     OW22933   2.795   3.876   5.775  0.0425 -0.1728 -0.4746
 3825SOL    HW122934   2.772   3.940   5.708  0.0763 -0.1976 -0.5101
 3825SOL    HW222935   2.874   3.916   5.812 -1.2195 -0.4363  2.4746
 3826SOL     OW22936   3.986   3.650   3.964  0.7222  0.5478 -0.0022
 3826SOL    HW122937   4.021   3.736   3.985  1.2527  0.8609 -2.1929
 3826SOL    HW222938   3.894   3.662   3.988  0.0936 -2.1534 -0.9938
 3827SOL     OW22939   1.446   4.061   3.847  0.1254 -0.3679 -0.4625
 3827SOL    HW122940   1.398   4.117   3.785  0.2419  1.6936  1.3069
 3827SOL    HW222941   1.417   3.971   3.834  0.5629 -0.5588 -0.1128
 3828SOL     OW22942   3.593   0.444   2.495  0.4978  0.1735  0.1965
 3828SOL    HW122943   3.515   0.422   2.546  0.8133 -2.4255 -0.4587
 3828SOL    HW222944   3.666   0.439   2.557  2.6060  1.5963 -2.1642
 3829SOL     OW22945   0.219   0.681   9.610 -0.4307  0.6419 -0.9362
 3829SOL    HW122946   0.308   0.649   9.598 -0.4914 -0.3517  1.3003
 3829SOL    HW222947   0.219   0.688   9.705  2.5236  3.2754 -1.1112
 3830SOL     OW22948   0.622   4.363   2.892 -0.0579 -0.0103  0.0748
 3830SOL    HW122949   0.691   4.421   2.858 -0.7454 -0.0235 -1.3366
 3830SOL    HW222950   0.682   4.299   2.929 -0.1386  0.5710  1.2174
 3831SOL     OW22951   0.983   1.321   7.982 -0.0727  0.6244  0.1816
 3831SOL    HW122952   0.939   1.266   8.046 -1.2235  0.1014 -1.0590
 3831SOL    HW222953   0.918   1.390   7.966 -0.8032 -0.4069 -1.2626
 3832SOL     OW22954   1.200   2.998   2.441  1.1422 -0.3886 -0.7910
 3832SOL    HW122955   1.257   2.962   2.508  0.8745  0.0834 -0.3132
 3832SOL    HW222956   1.154   3.068   2.486  4.0066  0.8271  0.2269
 3833SOL     OW22957   4.202   0.255  11.368 -0.4476  0.0502  0.5393
 3833SOL    HW122958   4.258   0.183  11.338 -1.2151 -0.6401  0.7685
 3833SOL    HW222959   4.217   0.256  11.462  2.8314  0.3303  0.0289
 3834SOL     OW22960   0.309   3.182   7.760  0.5311 -0.3941 -0.2242
 3834SOL    HW122961   0.390   3.197   7.711  0.2278 -1.6210 -1.0905
 3834SOL    HW222962   0.239   3.185   7.695 -0.1038  0.8830  0.5115
 3835SOL     OW22963   4.087   2.125   3.999  0.1981 -0.5415  0.3254
 3835SOL    HW122964   4.122   2.043   3.965  2.0779  1.4608 -2.5404
 3835SOL    HW222965   4.121   2.187   3.935  0.6406 -0.9943  0.1280
 3836SOL     OW22966   2.710   0.166   8.570 -0.2997 -0.5971  0.5674
 3836SOL    HW122967   2.755   0.230   8.514 -0.0227  0.2722  1.8052
 3836SOL    HW222968   2.697   0.227   8.642 -0.0209 -0.6433  0.6573
 3837SOL     OW22969   1.952   1.966   4.652 -0.3413  0.1311 -0.3332
 3837SOL    HW122970   1.960   1.928   4.739 -1.1008  0.2280 -0.2205
 3837SOL    HW222971   2.037   1.955   4.610 -0.6922 -0.2974 -0.9172
 3838SOL     OW22972   2.329   1.627  11.574 -0.1318  0.4671  0.6095
 3838SOL    HW122973   2.423   1.633  11.592  0.2296  0.5019 -1.3455
 3838SOL    HW222974   2.305   1.705  11.624  0.3164  0.6085  0.6083
 3839SOL     OW22975   1.081   0.964  10.909 -0.4304  0.1912 -0.3105
 3839SOL    HW122976   1.095   0.872  10.889 -0.1913  0.5996 -2.0144
 3839SOL    HW222977   0.987   0.965  10.926 -0.3705  2.0579 -0.1162
 3840SOL     OW22978   4.542   4.720   5.172  0.1815 -0.1097  0.6352
 3840SOL    HW122979   4.509   0.063   5.110  0.5399  0.2269  0.8056
 3840SOL    HW222980   4.538   4.644   5.114 -1.4242  1.4581 -1.3247
 3841SOL     OW22981   0.117   2.371   7.942  0.0680  0.0885  0.2288
 3841SOL    HW122982   0.208   2.346   7.953 -0.1965 -0.5543  1.0093
 3841SOL    HW222983   0.134   2.421   7.862 -2.0689  1.0298  0.3620
 3842SOL     OW22984   0.333   4.248   5.944  0.0819 -0.2226 -0.0457
 3842SOL    HW122985   0.247   4.282   5.919  1.0168  2.3925  0.3195
 3842SOL    HW222986   0.338   4.274   6.036  3.2990 -0.6804 -0.0928
 3843SOL     OW22987   2.614   2.268   6.477  0.2212 -0.4110 -0.2764
 3843SOL    HW122988   2.552   2.200   6.502 -0.5556  0.0454 -0.9617
 3843SOL    HW222989   2.633   2.244   6.386  1.1303 -1.9263  0.3065
 3844SOL     OW22990   3.394   2.136  12.366  0.2188 -0.3898  0.0873
 3844SOL    HW122991   3.455   2.180  12.425 -0.1283 -1.5701  1.3027
 3844SOL    HW222992   3.429   2.047  12.375 -1.4219 -0.8544  1.8549
 3845SOL     OW22993   0.360   2.427   6.487  0.3310 -0.6731  0.3244
 3845SOL    HW122994   0.314   2.451   6.567  0.0405  0.8686 -0.2985
 3845SOL    HW222995   0.347   2.505   6.432  1.9617 -1.7810 -1.6256
 3846SOL     OW22996   1.773   0.856   1.420 -0.2887  0.1549 -0.0038
 3846SOL    HW122997   1.853   0.903   1.396  0.1801 -0.4915  0.3170
 3846SOL    HW222998   1.708   0.921   1.392 -0.6501  0.6587  2.0420
 3847SOL     OW22999   3.589   4.041   1.171  0.2026  0.3471  0.1166
 3847SOL    HW123000   3.598   3.946   1.184  1.6502  0.3949 -0.5516
 3847SOL    HW223001   3.594   4.074   1.260  1.0665 -0.9572  0.5579
 3848SOL     OW23002   2.029   3.073   8.480 -0.0007 -0.1838 -0.4017
 3848SOL    HW123003   2.022   3.038   8.569 -1.1830  3.1514  0.7910
 3848SOL    HW223004   1.951   3.034   8.442  0.5230 -1.0945 -0.5494
 3849SOL     OW23005   4.398   0.403  16.714 -0.1752  0.5112 -0.3616
 3849SOL    HW123006   4.347   0.349  16.775  0.8751  0.9969  0.9402
 3849SOL    HW223007   4.431   0.471  16.773  0.4281 -0.8632  0.8689
 3850SOL     OW23008   3.905   1.184  11.939 -0.4059 -0.0711 -0.1061
 3850SOL    HW123009   3.934   1.237  11.864  2.7301 -1.7330 -0.0490
 3850SOL    HW223010   3.889   1.099  11.898 -2.3446 -0.2076  0.9352
 3851SOL     OW23011   2.019   2.117  10.190  0.0574  0.2499  0.5760
 3851SOL    HW123012   1.938   2.110  10.139  0.0998  1.7597  0.3118
 3851SOL    HW223013   2.018   2.043  10.250  0.5975  0.0924  0.3882
 3852SOL     OW23014   1.463   2.932   3.326  0.1948  0.0699 -0.1569
 3852SOL    HW123015   1.447   2.986   3.249  0.6392 -0.1642 -0.4094
 3852SOL    HW223016   1.554   2.903   3.318  0.5033  0.4312  1.9792
 3853SOL     OW23017   1.864   0.915   4.968 -0.2888 -0.3426 -0.0159
 3853SOL    HW123018   1.788   0.966   4.943 -1.0282 -0.7316  1.4531
 3853SOL    HW223019   1.825   0.838   5.009  1.5180 -0.7791  0.9060
 3854SOL     OW23020   2.885   0.196   9.919 -0.0393  0.4183  0.4574
 3854SOL    HW123021   2.821   0.152   9.975  1.2685 -0.5749  1.1957
 3854SOL    HW223022   2.865   0.289   9.911 -1.6754  0.0593  0.4932
 3855SOL     OW23023   1.275   0.136   4.771  1.0699 -0.2948 -0.5633
 3855SOL    HW123024   1.347   0.115   4.830  0.7306 -2.1527 -0.8185
 3855SOL    HW223025   1.258   0.228   4.790 -0.2570 -0.8072  0.7648
 3856SOL     OW23026   0.200   4.300   2.970 -0.0025 -0.0819  0.1228
 3856SOL    HW123027   0.123   4.348   2.997 -0.0749  0.4762 -1.0752
 3856SOL    HW223028   0.227   4.251   3.047 -1.0411 -1.8404 -0.6193
 3857SOL     OW23029   0.892   4.693   6.921 -0.2911 -0.3798 -0.2202
 3857SOL    HW123030   0.917   4.676   6.830  0.9873 -1.3357  0.2986
 3857SOL    HW223031   0.814   4.638   6.918 -1.4544  1.3172 -0.9095
 3858SOL     OW23032   4.330   0.425   3.598  0.2357  0.3519 -0.5466
 3858SOL    HW123033   4.340   0.509   3.552 -1.4814  0.6280 -0.3852
 3858SOL    HW223034   4.260   0.384   3.549  1.3382  0.4466 -2.2071
 3859SOL     OW23035   0.608   4.571   3.446 -0.1948  0.5635  0.1646
 3859SOL    HW123036   0.528   4.577   3.497 -1.4020 -0.3853 -1.6493
 3859SOL    HW223037   0.581   4.518   3.371 -0.7058  0.5138  0.3848
 3860SOL     OW23038   3.630   4.320   6.503 -0.2950  0.0503 -0.2492
 3860SOL    HW123039   3.676   4.300   6.421 -0.7000 -1.4411 -0.1150
 3860SOL    HW223040   3.659   4.241   6.549  1.8836  0.9154 -0.1309
 3861SOL     OW23041   3.394   1.471   1.569 -0.2984  0.1663 -0.2983
 3861SOL    HW123042   3.414   1.487   1.662 -0.0118  4.0062 -1.0285
 3861SOL    HW223043   3.480   1.444   1.538 -0.2313 -1.0641  0.9490
 3862SOL     OW23044   0.517   0.778  15.044 -0.1770  0.7845  0.1733
 3862SOL    HW123045   0.511   0.859  14.993 -0.6977  0.2856 -0.5652
 3862SOL    HW223046   0.520   0.815  15.132  0.4467 -0.8372  0.8342
 3863SOL     OW23047   4.133   0.226   3.580 -0.4108  0.1950 -0.4853
 3863SOL    HW123048   4.054   0.201   3.531 -0.3460  0.3439 -0.6690
 3863SOL    HW223049   4.118   0.205   3.672 -2.3673 -0.1751 -0.8769
 3864SOL     OW23050   2.901   1.884  10.488 -0.4164 -0.0781 -0.2997
 3864SOL    HW123051   2.965   1.955  10.489  0.7689 -1.1435 -0.2547
 3864SOL    HW223052   2.821   1.933  10.468  0.5473  1.1556 -1.2007
 3865SOL     OW23053   4.637   0.525   1.769  0.9323 -0.0150 -0.4382
 3865SOL    HW123054   0.007   0.542   1.751  1.5909 -1.5438  1.4727
 3865SOL    HW223055   4.630   0.446   1.715  1.6230 -1.6898  1.8944
 3866SOL     OW23056   1.354   1.182  17.434  0.3829 -0.1418 -0.9220
 3866SOL    HW123057   1.378   1.274  17.426  1.5864 -0.3864 -0.1485
 3866SOL    HW223058   1.427   1.139  17.389  0.3927 -2.7991  1.6113
 3867SOL     OW23059   1.195   0.639   5.890  0.0556 -0.3992 -0.5608
 3867SOL    HW123060   1.270   0.580   5.893  0.8038  0.6850  1.6868
 3867SOL    HW223061   1.131   0.571   5.871  0.4102 -0.3762 -1.8501
 3868SOL     OW23062   2.943   4.190   0.829 -0.6588  0.2715 -0.2424
 3868SOL    HW123063   3.026   4.191   0.876  0.2447 -0.4885 -1.8203
 3868SOL    HW223064   2.880   4.170   0.899 -1.6985  1.2546 -0.8944
 3869SOL     OW23065   1.874   1.268   9.098  0.2319 -0.1462 -0.1427
 3869SOL    HW123066   1.790   1.248   9.139  1.1163 -2.3540  0.5923
 3869SOL    HW223067   1.874   1.208   9.024  1.8589  0.3007 -0.5193
 3870SOL     OW23068   1.172   1.350   7.335  0.4517 -0.4238  0.1289
 3870SOL    HW123069   1.162   1.315   7.424  0.1667  0.7457  0.5478
 3870SOL    HW223070   1.122   1.428   7.358  0.5014  0.5606 -3.1019
 3871SOL     OW23071   4.576   3.434   4.689  0.2174 -0.3553  0.4760
 3871SOL    HW123072   4.508   3.379   4.727  0.0091 -1.3052 -1.2276
 3871SOL    HW223073   4.617   3.477   4.764  0.9187 -0.1164 -0.0473
 3872SOL     OW23074   2.053   1.057   5.405  0.2665  0.2049  0.0562
 3872SOL    HW123075   2.029   0.979   5.355 -0.2716  0.3796  0.0418
 3872SOL    HW223076   2.144   1.068   5.376 -0.1035 -0.8977 -1.5176
 3873SOL     OW23077   4.100   0.342   7.695  0.7235  0.3400  0.1218
 3873SOL    HW123078   4.181   0.365   7.741  1.4816 -3.2413  0.5595
 3873SOL    HW223079   4.090   0.253   7.728  2.5325 -0.4699 -1.5674
 3874SOL     OW23080   2.389   4.224  15.905  0.1842 -0.3902  0.5770
 3874SOL    HW123081   2.369   4.135  15.933  1.6117 -1.4075 -1.6247
 3874SOL    HW223082   2.366   4.217  15.812  0.2725 -0.3381  0.5506
 3875SOL     OW23083   3.086   3.306   5.269 -0.2603 -0.3870  0.1788
 3875SOL    HW123084   3.009   3.251   5.285 -0.4063 -0.3910 -0.5171
 3875SOL    HW223085   3.084   3.380   5.329 -0.1890  0.5375 -0.9505
 3876SOL     OW23086   1.913   3.018  13.693 -0.1846 -0.0806  0.3161
 3876SOL    HW123087   1.849   3.023  13.622 -0.3972  0.1339  0.5260
 3876SOL    HW223088   1.957   2.934  13.678  1.7599  1.0733 -0.3962
 3877SOL     OW23089   4.418   3.250   4.822 -0.2030 -0.1697 -0.0731
 3877SOL    HW123090   4.505   3.214   4.802  1.1031  2.6360  0.6560
 3877SOL    HW223091   4.390   3.204   4.901  1.3043 -1.2921 -0.1842
 3878SOL     OW23092   1.986   2.553   7.728  0.4350  0.1975 -0.7982
 3878SOL    HW123093   1.988   2.632   7.781  0.8791 -0.6182  0.3821
 3878SOL    HW223094   1.902   2.522   7.760  0.0997  1.0592 -0.8465
 3879SOL     OW23095   0.166   1.625  13.774 -0.1344  0.2791 -0.9145
 3879SOL    HW123096   0.078   1.649  13.801  0.3443  1.1174 -0.1073
 3879SOL    HW223097   0.158   1.562  13.701  0.3934 -1.5536  0.6090
 3880SOL     OW23098   4.096   1.685   8.022  0.0241  0.1650  0.1895
 3880SOL    HW123099   4.111   1.767   8.069  1.4973 -0.9860  1.7184
 3880SOL    HW223100   4.007   1.692   7.987  0.5639  0.2793 -1.1454
 3881SOL     OW23101   2.038   0.363   1.358 -0.2978  0.1454 -0.3499
 3881SOL    HW123102   2.044   0.278   1.401  0.6506  1.0108  1.2257
 3881SOL    HW223103   2.130   0.385   1.345 -0.3909  0.6638 -0.1386
 3882SOL     OW23104   4.410   4.453   3.313  0.3187  0.3997  0.2928
 3882SOL    HW123105   4.408   4.451   3.217 -1.7667 -0.0673  0.3414
 3882SOL    HW223106   4.482   4.514   3.329  1.3405 -0.3418 -1.4753
 3883SOL     OW23107   3.272   4.648   3.389 -0.5519  0.3205  0.0403
 3883SOL    HW123108   3.358   4.671   3.424 -0.0843  2.0800 -2.2179
 3883SOL    HW223109   3.275   4.555   3.410 -1.7720  0.6678  1.6597
 3884SOL     OW23110   1.468   4.573   4.905  0.3702  0.0116 -0.1956
 3884SOL    HW123111   1.560   4.547   4.901  0.6120  0.6798  0.9850
 3884SOL    HW223112   1.477   4.660   4.866  1.8836 -0.0684 -0.0328
 3885SOL     OW23113   2.435   2.455   4.640 -0.3843 -0.0593 -0.2490
 3885SOL    HW123114   2.366   2.485   4.581 -2.0953 -2.9910  0.2594
 3885SOL    HW223115   2.472   2.394   4.576 -2.0322 -0.2839 -1.0024
 3886SOL     OW23116   0.603   1.616   7.263  0.0551  0.8217  0.0896
 3886SOL    HW123117   0.613   1.685   7.197  2.1312  0.9810  0.5690
 3886SOL    HW223118   0.671   1.559   7.228 -0.2132  0.8957 -0.5369
 3887SOL     OW23119   4.301   1.938   4.818 -0.3532  0.1381  0.2226
 3887SOL    HW123120   4.237   1.943   4.890 -1.4859 -0.7390 -0.7255
 3887SOL    HW223121   4.371   1.998   4.845  0.0045 -1.2296  2.3501
 3888SOL     OW23122   1.560   3.900   2.227 -0.4629 -0.0160 -0.0275
 3888SOL    HW123123   1.476   3.914   2.183  0.4422 -0.5195 -1.8969
 3888SOL    HW223124   1.559   3.804   2.234 -0.9512 -0.0394 -0.3959
 3889SOL     OW23125   2.800   0.204   9.088 -0.0713 -0.6657  0.1394
 3889SOL    HW123126   2.867   0.206   9.156 -1.2731  0.0565  1.3078
 3889SOL    HW223127   2.777   0.111   9.088 -1.8633 -0.2389  1.6092
 3890SOL     OW23128   3.814   3.365   8.655  0.5981 -0.2879  0.1626
 3890SOL    HW123129   3.789   3.454   8.628  4.0700  0.2159 -1.4251
 3890SOL    HW223130   3.768   3.306   8.595  2.5240 -1.2184 -0.4066
 3891SOL     OW23131   3.942   3.766   2.185 -0.0096 -0.0257  0.3966
 3891SOL    HW123132   3.943   3.694   2.122 -0.5100  0.4162 -0.1190
 3891SOL    HW223133   4.027   3.750   2.227  0.1158 -0.7053 -0.1174
 3892SOL     OW23134   2.996   2.487   4.441  0.2575  0.2399  0.2178
 3892SOL    HW123135   3.014   2.552   4.373  4.9187 -0.3225  0.9022
 3892SOL    HW223136   3.045   2.516   4.518  2.4334 -0.5617 -0.8607
 3893SOL     OW23137   2.639   2.872   4.298 -0.3567 -0.3365 -0.2467
 3893SOL    HW123138   2.616   2.781   4.317 -2.5353  0.0283 -1.1873
 3893SOL    HW223139   2.703   2.861   4.228  0.9727  1.6458  0.6569
 3894SOL     OW23140   0.041   1.148   2.495 -0.0778 -0.4448  0.0517
 3894SOL    HW123141   0.024   1.074   2.437 -0.0468  0.1209 -0.6956
 3894SOL    HW223142   4.698   1.215   2.474  0.4376  0.7537  2.2290
 3895SOL     OW23143   3.284   2.672  17.609 -0.6126 -0.3864  0.3859
 3895SOL    HW123144   3.215   2.638  17.665 -0.9154 -1.7615 -0.8217
 3895SOL    HW223145   3.326   2.736  17.666 -0.7694  0.5333 -0.5327
 3896SOL     OW23146   3.147   2.102   5.774 -0.6840  0.4238 -0.2266
 3896SOL    HW123147   3.174   2.074   5.687  3.0389 -1.2959  1.4683
 3896SOL    HW223148   3.072   2.153   5.743  0.6644  1.5597 -1.6010
 3897SOL     OW23149   1.092   3.189  11.523  0.5773  0.2201 -0.3082
 3897SOL    HW123150   1.119   3.113  11.574  0.0961 -0.1503 -0.6037
 3897SOL    HW223151   1.096   3.260  11.587 -2.5154 -0.0653  0.2344
 3898SOL     OW23152   3.284   0.840   7.487  0.0814 -0.0601 -0.1525
 3898SOL    HW123153   3.354   0.788   7.528  1.6637  1.0486 -1.4325
 3898SOL    HW223154   3.248   0.903   7.549  1.3811 -0.4677  1.0368
 3899SOL     OW23155   3.419   3.047  13.389 -0.2618 -0.6726  0.1795
 3899SOL    HW123156   3.502   3.068  13.345 -1.7565  1.6003 -1.5497
 3899SOL    HW223157   3.411   2.954  13.365  0.7383 -1.0261  1.1932
 3900SOL     OW23158   4.551   4.024   1.877  0.1963 -0.1252  0.1447
 3900SOL    HW123159   4.538   4.031   1.783 -2.3515  1.9014  0.6656
 3900SOL    HW223160   4.465   3.994   1.906  0.1337  0.3151  0.4254
 3901SOL     OW23161   2.994   1.053   3.584 -0.0341 -0.5455  0.2470
 3901SOL    HW123162   3.014   1.142   3.612  3.0885 -1.3522  0.5842
 3901SOL    HW223163   2.943   1.068   3.504 -0.3886  0.0483  0.5910
 3902SOL     OW23164   1.437   2.387   3.741  0.4425  0.4433  0.5428
 3902SOL    HW123165   1.374   2.340   3.687  3.0353 -0.0190 -2.0877
 3902SOL    HW223166   1.484   2.311   3.775 -0.5727 -0.1999  0.4913
 3903SOL     OW23167   3.579   4.351   4.911 -0.6174  0.5883  0.3109
 3903SOL    HW123168   3.653   4.411   4.914 -1.9432  2.0887  2.9386
 3903SOL    HW223169   3.539   4.369   4.996  0.7993  1.7975  0.7274
 3904SOL     OW23170   4.042   0.339   8.337  0.2884 -0.9416 -0.0016
 3904SOL    HW123171   4.051   0.301   8.250 -0.3920 -1.9911  0.3895
 3904SOL    HW223172   3.956   0.305   8.361  0.2593 -0.6288  0.3394
 3905SOL     OW23173   4.200   2.016   7.312 -0.9794  0.1854 -0.0294
 3905SOL    HW123174   4.110   2.010   7.345 -0.8035 -0.5986  0.2952
 3905SOL    HW223175   4.187   2.030   7.218  0.5643 -2.2237 -0.5870
 3906SOL     OW23176   0.619   3.159  12.661  0.0499 -0.3261 -0.3083
 3906SOL    HW123177   0.574   3.230  12.614  0.2424 -0.9284 -1.4126
 3906SOL    HW223178   0.694   3.132  12.609  0.8331  2.0233 -0.3494
 3907SOL     OW23179   4.153   0.535   1.969 -0.3857  0.2896 -0.1839
 3907SOL    HW123180   4.090   0.557   1.900  1.1661 -0.4961 -1.8621
 3907SOL    HW223181   4.237   0.517   1.925 -0.3524  0.9606 -0.3845
 3908SOL     OW23182   2.004   1.330  11.706 -0.4756 -0.5708 -0.6216
 3908SOL    HW123183   2.029   1.395  11.640 -1.3352 -1.0416 -1.4084
 3908SOL    HW223184   1.973   1.391  11.773 -1.6378 -0.7551 -0.9959
 3909SOL     OW23185   2.629   3.841   0.913  0.4367 -0.8655  0.6968
 3909SOL    HW123186   2.611   3.918   0.860  2.1431 -0.6617  0.4377
 3909SOL    HW223187   2.718   3.850   0.945  0.7552  0.5944 -0.5893
 3910SOL     OW23188   0.714   4.215   1.522  0.1985 -0.0110 -0.0162
 3910SOL    HW123189   0.619   4.205   1.518 -0.0116  1.0265  2.2441
 3910SOL    HW223190   0.728   4.136   1.471 -1.1472 -0.9832  1.1474
 3911SOL     OW23191   1.925   2.926   3.545 -0.1526  0.1000 -0.0515
 3911SOL    HW123192   1.955   2.892   3.629 -1.5829 -0.9415  0.0455
 3911SOL    HW223193   1.893   2.846   3.502 -1.4331  0.5372  0.0849
 3912SOL     OW23194   2.648   2.398  12.022 -0.2856 -0.1519 -0.1101
 3912SOL    HW123195   2.743   2.399  12.009  0.1358 -0.4200  2.9278
 3912SOL    HW223196   2.635   2.493  12.021  2.1055  0.2230  3.7570
 3913SOL     OW23197   1.654   0.548   3.924  0.2526  0.3661 -0.1686
 3913SOL    HW123198   1.712   0.510   3.990  0.1773 -1.2184 -1.0337
 3913SOL    HW223199   1.696   0.512   3.846  1.1540  0.1055  0.4349
 3914SOL     OW23200   1.485   1.130  12.764  0.5897  0.4405  0.1801
 3914SOL    HW123201   1.482   1.089  12.850 -1.4296 -2.0149 -1.0380
 3914SOL    HW223202   1.412   1.085  12.721  0.6776  2.3322 -1.9436
 3915SOL     OW23203   4.651   0.352  13.085 -0.1693  0.7629 -0.0769
 3915SOL    HW123204   4.620   0.269  13.048 -0.9600  1.5437 -1.1843
 3915SOL    HW223205   4.664   0.403  13.005 -2.4829  2.2120  0.4737
 3916SOL     OW23206   1.656   0.818   3.951  0.0680  0.6359  0.1715
 3916SOL    HW123207   1.592   0.822   3.880 -0.2173 -2.3861  0.2644
 3916SOL    HW223208   1.668   0.723   3.955 -0.0518  0.7542  3.8558
 3917SOL     OW23209   2.051   1.084   5.978  0.2983 -0.2262  0.0203
 3917SOL    HW123210   2.100   1.156   6.017 -0.4429  1.1331 -1.5580
 3917SOL    HW223211   1.985   1.071   6.046  1.4740 -1.3600  0.9401
 3918SOL     OW23212   0.557   2.150   2.803 -0.0932  0.1420  0.0725
 3918SOL    HW123213   0.564   2.057   2.781  1.6207  0.6774 -1.6325
 3918SOL    HW223214   0.644   2.181   2.779  0.2720 -4.6767 -4.7502
 3919SOL     OW23215   1.307   0.734  15.202 -0.6771 -0.2410 -0.0887
 3919SOL    HW123216   1.249   0.805  15.231  0.3832  0.3766  0.5248
 3919SOL    HW223217   1.343   0.700  15.283 -1.7572  1.2049  1.0106
 3920SOL     OW23218   4.694   2.776  17.307  0.2965  0.3612  0.0193
 3920SOL    HW123219   4.609   2.819  17.299  0.7179  1.4246  1.1913
 3920SOL    HW223220   0.023   2.828  17.368  0.5497 -1.1472  1.0857
 3921SOL     OW23221   1.653   3.729   5.272 -0.4744 -0.0257  0.3020
 3921SOL    HW123222   1.620   3.672   5.341 -2.6902  0.6984 -0.1558
 3921SOL    HW223223   1.746   3.704   5.271 -0.3206  0.5749 -1.2952
 3922SOL     OW23224   3.383   3.936  11.626  0.4239 -0.2026  0.0569
 3922SOL    HW123225   3.368   3.892  11.710 -0.1842 -0.1893 -0.0445
 3922SOL    HW223226   3.406   3.856  11.580 -1.8696 -0.8395 -0.0127
 3923SOL     OW23227   3.030   2.445   7.373  0.0756 -0.0127  0.7330
 3923SOL    HW123228   3.028   2.417   7.281  1.3518 -0.8153  0.9384
 3923SOL    HW223229   3.024   2.356   7.408  0.1420  0.0918  1.0071
 3924SOL     OW23230   3.775   4.535   6.087 -0.5547  0.8332  0.2163
 3924SOL    HW123231   3.866   4.561   6.073 -0.1477 -1.1150 -0.7090
 3924SOL    HW223232   3.791   4.446   6.119  2.9557  0.9083 -1.3502
 3925SOL     OW23233   2.193   0.354  15.940 -0.5415  0.0154 -0.1638
 3925SOL    HW123234   2.274   0.404  15.940 -0.4449 -0.1317  0.3682
 3925SOL    HW223235   2.134   0.428  15.924  0.5863  0.6098 -1.5050
 3926SOL     OW23236   4.441   1.784   2.903  0.1605 -0.1170 -0.6434
 3926SOL    HW123237   4.485   1.818   2.824  1.7939  1.0005  0.7547
 3926SOL    HW223238   4.351   1.771   2.874 -0.4867  2.3411  0.2763
 3927SOL     OW23239   3.445   1.323   5.598  0.2821 -0.3314 -0.2414
 3927SOL    HW123240   3.530   1.358   5.626 -0.5715  1.4345  0.1061
 3927SOL    HW223241   3.415   1.274   5.674 -1.3184 -0.4478 -0.9487
 3928SOL     OW23242   2.507   0.168   3.224  0.9564 -0.2573 -0.2056
 3928SOL    HW123243   2.539   0.142   3.138  1.3242 -1.9574  0.4312
 3928SOL    HW223244   2.578   0.212   3.271  0.3984 -0.0375  0.4365
 3929SOL     OW23245   0.369   4.427  15.073  0.2284  0.1040  0.1865
 3929SOL    HW123246   0.365   4.347  15.124 -0.3596  0.5800  0.8932
 3929SOL    HW223247   0.358   4.398  14.982 -4.4755  2.0998  0.1359
 3930SOL     OW23248   3.457   0.709   7.838  0.2441 -0.0589 -0.2708
 3930SOL    HW123249   3.476   0.784   7.782  0.5765  0.5438  0.6541
 3930SOL    HW223250   3.544   0.672   7.850  0.1896 -1.0020 -2.8115
 3931SOL     OW23251   3.104   1.988   3.891  0.0340 -0.8466  0.4516
 3931SOL    HW123252   3.019   2.027   3.911 -1.1324 -2.9701 -0.4527
 3931SOL    HW223253   3.153   2.070   3.879  0.4281 -1.2437 -0.6252
 3932SOL     OW23254   0.739   2.085  16.356  0.0828  0.6559 -0.0614
 3932SOL    HW123255   0.648   2.063  16.335  0.0268  1.1194 -0.3074
 3932SOL    HW223256   0.779   2.128  16.281  0.0653 -0.7906 -0.8940
 3933SOL     OW23257   2.975   1.242   1.873  0.1086  0.3896  0.1533
 3933SOL    HW123258   3.053   1.272   1.826  1.7378  1.8642  3.7366
 3933SOL    HW223259   2.951   1.326   1.913  0.1901  0.6484 -0.3402
 3934SOL     OW23260   4.214   2.928   1.548 -0.4432 -0.1524 -0.3599
 3934SOL    HW123261   4.258   2.870   1.486  0.3128 -0.0233  0.0588
 3934SOL    HW223262   4.230   2.887   1.633  2.8127  0.8397 -0.4877
 3935SOL     OW23263   0.729   2.762  17.420  0.3605 -0.0158 -0.6114
 3935SOL    HW123264   0.746   2.789  17.330 -0.7958 -0.2679 -0.9041
 3935SOL    HW223265   0.799   2.819  17.452  0.6758  0.8086 -2.7483
 3936SOL     OW23266   3.871   2.592  11.808  0.2514  0.7511  0.0467
 3936SOL    HW123267   3.921   2.630  11.880  0.0632 -0.2372  0.7022
 3936SOL    HW223268   3.813   2.532  11.856 -0.9909 -0.3831 -2.8671
 3937SOL     OW23269   1.411   4.069   8.533  0.0038  0.4476  0.0616
 3937SOL    HW123270   1.390   3.993   8.588  1.2157  1.9675  2.6102
 3937SOL    HW223271   1.493   4.041   8.493  0.2972 -0.4376  1.2912
 3938SOL     OW23272   1.979   3.649  10.391 -0.1751  0.4296 -0.7021
 3938SOL    HW123273   2.059   3.632  10.442 -0.6470  1.3566  0.3397
 3938SOL    HW223274   1.981   3.744  10.400  1.2604  0.4776 -1.4788
 3939SOL     OW23275   0.891   0.591   9.988 -0.0475 -0.4919  0.1532
 3939SOL    HW123276   0.934   0.566   9.906 -1.0006 -3.3797  0.5568
 3939SOL    HW223277   0.957   0.634  10.042 -1.0788  0.0133  1.0193
 3940SOL     OW23278   0.166   4.697   6.571 -0.4308  0.2084  0.0883
 3940SOL    HW123279   0.253   4.668   6.598 -0.1098  0.2730 -0.9004
 3940SOL    HW223280   0.139   4.611   6.538  0.8634 -0.0846 -0.2055
 3941SOL     OW23281   1.385   2.563   7.642 -0.0230  0.4898  0.2036
 3941SOL    HW123282   1.412   2.652   7.616 -0.6485 -0.0404 -2.2410
 3941SOL    HW223283   1.300   2.572   7.685  0.6141 -0.9682  1.7540
 3942SOL     OW23284   3.242   1.649   8.740 -0.3262 -0.5977 -0.0266
 3942SOL    HW123285   3.322   1.699   8.759 -0.4914  0.0001 -0.8738
 3942SOL    HW223286   3.237   1.662   8.645  1.6822 -0.9212 -0.1818
 3943SOL     OW23287   3.264   4.428   5.697  0.7727 -0.5106  0.6187
 3943SOL    HW123288   3.255   4.334   5.715  2.1788 -0.4270  1.6392
 3943SOL    HW223289   3.352   4.425   5.661  0.1836  0.6398 -0.9593
 3944SOL     OW23290   3.327   2.759  13.356 -0.3356 -0.0441 -0.3555
 3944SOL    HW123291   3.342   2.667  13.337  0.9314  0.0590  0.1634
 3944SOL    HW223292   3.263   2.749  13.426  0.0892  1.6269  0.2757
 3945SOL     OW23293   2.938   3.256   6.947 -0.5617 -0.0744  0.3435
 3945SOL    HW123294   2.946   3.336   6.894 -2.1591  0.9987  1.7298
 3945SOL    HW223295   3.025   3.251   6.987 -0.4721 -1.2096  0.0125
 3946SOL     OW23296   2.678   2.637   2.010 -0.2518 -0.1163  0.1621
 3946SOL    HW123297   2.757   2.592   1.981 -0.0886  0.2669  0.0110
 3946SOL    HW223298   2.604   2.589   1.975 -0.3514 -0.0128  0.2301
 3947SOL     OW23299   0.068   0.063   4.341 -0.0310 -0.2399 -0.1208
 3947SOL    HW123300   0.144   0.021   4.382  0.3099  1.3884  0.8929
 3947SOL    HW223301   0.118   0.135   4.303  0.7238 -1.6768 -1.8756
 3948SOL     OW23302   1.420   3.357   3.341 -0.2133 -0.8450  0.1586
 3948SOL    HW123303   1.432   3.452   3.335  0.0808 -0.9384 -0.8546
 3948SOL    HW223304   1.399   3.341   3.248  0.8230 -2.0273  0.1296
 3949SOL     OW23305   1.749   0.722   5.108 -0.7071  0.5837  0.0331
 3949SOL    HW123306   1.770   0.777   5.184  1.3772  0.2892 -0.3241
 3949SOL    HW223307   1.671   0.676   5.140 -0.0473 -1.0816 -0.7587
 3950SOL     OW23308   2.418   2.279  14.734  0.2566  0.3224  0.1500
 3950SOL    HW123309   2.403   2.270  14.828  0.0068 -1.1614 -0.0267
 3950SOL    HW223310   2.468   2.198  14.729 -0.2574  0.0807 -1.0406
 3951SOL     OW23311   1.445   1.539   4.263 -0.8847 -0.0415 -0.1655
 3951SOL    HW123312   1.395   1.561   4.342 -2.9095  0.0449 -1.4745
 3951SOL    HW223313   1.521   1.597   4.271  1.1654 -2.3548 -3.0575
 3952SOL     OW23314   4.100   3.218  17.009 -0.1966 -0.4294  0.9578
 3952SOL    HW123315   4.165   3.245  16.944 -0.7678 -1.7199 -0.1527
 3952SOL    HW223316   4.069   3.308  17.021 -1.2715 -0.3726 -2.3137
 3953SOL     OW23317   2.972   1.485  17.657 -0.5447  0.0170  0.6167
 3953SOL    HW123318   3.044   1.546  17.670 -0.6008  0.7168 -2.2046
 3953SOL    HW223319   2.962   1.443   0.049 -2.1088 -0.1734  0.3380
 3954SOL     OW23320   1.887   0.312   8.359  0.0754  0.0757 -0.2603
 3954SOL    HW123321   1.818   0.255   8.393 -2.1640  1.7665 -2.0126
 3954SOL    HW223322   1.931   0.333   8.441  0.1757 -0.3078 -0.2141
 3955SOL     OW23323   0.215   3.488   8.354 -0.0746  0.0706  0.5441
 3955SOL    HW123324   0.240   3.580   8.348  1.3225 -0.4886 -2.1208
 3955SOL    HW223325   0.166   3.475   8.435  2.5177 -2.6619  1.6579
 3956SOL     OW23326   4.301   1.443   2.803  0.1528  0.1825  0.2084
 3956SOL    HW123327   4.220   1.396   2.783 -0.1578  1.2056 -0.9199
 3956SOL    HW223328   4.302   1.504   2.730 -2.4286 -0.6831 -0.5423
 3957SOL     OW23329   4.390   4.431   6.721  0.4043 -0.6833  0.2909
 3957SOL    HW123330   4.412   4.522   6.702 -1.4732 -0.6473 -1.7530
 3957SOL    HW223331   4.303   4.426   6.683  2.3378 -0.8247 -4.1558
 3958SOL     OW23332   0.384   0.260  13.248 -0.4879  0.1233  0.4485
 3958SOL    HW123333   0.333   0.178  13.253  0.1178 -0.3866 -1.6794
 3958SOL    HW223334   0.454   0.234  13.188 -0.4276 -0.6692  0.8606
 3959SOL     OW23335   3.462   4.164  17.371  0.6525 -0.3740  0.2253
 3959SOL    HW123336   3.478   4.091  17.430 -0.6529 -0.1841  0.8167
 3959SOL    HW223337   3.508   4.232  17.420  0.0357  0.2223 -0.0206
 3960SOL     OW23338   4.307   0.373   1.350  0.3385 -0.0147  0.1381
 3960SOL    HW123339   4.344   0.356   1.264 -0.7639  1.9174 -0.7048
 3960SOL    HW223340   4.226   0.417   1.327 -0.1485 -0.4316  1.0338
 3961SOL     OW23341   2.157   1.341   2.888 -0.3632 -0.9872  0.6126
 3961SOL    HW123342   2.090   1.316   2.953 -0.1343 -1.8613  0.5219
 3961SOL    HW223343   2.173   1.257   2.845  1.3275  0.1805 -1.0147
 3962SOL     OW23344   3.808   2.299   3.200  0.2630  0.8710  0.0404
 3962SOL    HW123345   3.895   2.262   3.187 -0.8559 -1.3622 -1.0590
 3962SOL    HW223346   3.818   2.383   3.245 -0.9597  0.7066  0.6211
 3963SOL     OW23347   3.861   4.509   5.462  0.1950  0.0517  0.2081
 3963SOL    HW123348   3.839   4.601   5.478  1.8248  0.8401 -2.1436
 3963SOL    HW223349   3.868   4.482   5.554 -0.3627 -3.3118 -0.7221
 3964SOL     OW23350   3.746   0.764   6.668 -0.0230 -0.5315 -0.2960
 3964SOL    HW123351   3.755   0.828   6.739  1.1044 -0.4591 -0.5037
 3964SOL    HW223352   3.696   0.817   6.606  0.7158  1.1460  0.5541
 3965SOL     OW23353   2.521   0.417   3.784  0.1995 -0.1218 -0.0338
 3965SOL    HW123354   2.581   0.343   3.780 -0.6120 -0.7599 -0.6522
 3965SOL    HW223355   2.568   0.472   3.846  2.1113 -3.1189  1.1614
 3966SOL     OW23356   0.078   0.009   2.070  0.1656 -0.2014  0.2522
 3966SOL    HW123357   0.093   4.642   2.100 -0.7216 -0.7792 -1.0385
 3966SOL    HW223358   0.080   0.068   2.145 -1.8295 -0.2861  0.3719
 3967SOL     OW23359   4.370   3.329   9.295 -0.4917  0.8243  0.0757
 3967SOL    HW123360   4.465   3.325   9.286 -0.5979 -0.2117 -0.6654
 3967SOL    HW223361   4.364   3.326   9.390  0.6022 -0.9135  0.0869
 3968SOL     OW23362   3.899   0.332  12.518 -0.1727 -0.0249 -0.1495
 3968SOL    HW123363   3.979   0.280  12.527  0.6858  1.0640 -1.5291
 3968SOL    HW223364   3.945   0.415  12.505 -0.6636  0.0625 -1.3634
 3969SOL     OW23365   3.231   0.235   4.397  0.1413 -0.3577 -0.1346
 3969SOL    HW123366   3.197   0.255   4.310 -1.5178 -1.0305  0.3547
 3969SOL    HW223367   3.208   0.315   4.443  1.2024 -0.3757  0.4337
 3970SOL     OW23368   1.869   1.322   5.480  0.5862 -0.5663 -0.0627
 3970SOL    HW123369   1.826   1.391   5.430  0.3108  1.8127  3.4542
 3970SOL    HW223370   1.809   1.304   5.553  0.6962 -0.6964 -0.0032
 3971SOL     OW23371   3.256   0.150   1.901 -0.1331 -0.3449 -0.0467
 3971SOL    HW123372   3.351   0.149   1.887 -0.1215  1.6419 -0.1314
 3971SOL    HW223373   3.255   0.213   1.973 -1.8807 -2.7443  2.0579
 3972SOL     OW23374   3.425   4.464  14.564  0.0596  0.1129  0.3016
 3972SOL    HW123375   3.379   4.384  14.540  2.0833 -0.9961  0.1936
 3972SOL    HW223376   3.429   4.520  14.486  2.6961  1.5281  1.4727
 3973SOL     OW23377   4.086   1.415   9.352 -0.3957 -0.3074  0.2023
 3973SOL    HW123378   4.089   1.484   9.418  0.7162 -0.3921  0.2309
 3973SOL    HW223379   4.154   1.357   9.385 -0.2617 -0.3726 -0.1893
 3974SOL     OW23380   1.892   0.659  12.990  0.1423 -0.1715  0.2010
 3974SOL    HW123381   1.885   0.734  12.931  0.1036 -0.0928  0.3047
 3974SOL    HW223382   1.987   0.646  12.997  0.5464  1.8669 -1.6244
 3975SOL     OW23383   3.533   0.675  16.222 -0.5593 -0.4136  0.5113
 3975SOL    HW123384   3.522   0.656  16.129 -0.3479 -1.9692  0.8177
 3975SOL    HW223385   3.448   0.646  16.257 -0.9284 -1.6301 -1.4018
 3976SOL     OW23386   1.798   3.909   6.361  0.0542 -0.1946 -0.0708
 3976SOL    HW123387   1.817   3.957   6.442  0.0341 -0.4402  0.0803
 3976SOL    HW223388   1.791   3.821   6.398 -0.3526 -0.3298 -0.4775
 3977SOL     OW23389   3.134   0.404  11.605  0.5024 -0.1826 -0.1429
 3977SOL    HW123390   3.200   0.345  11.569  0.3817 -0.6863  0.4546
 3977SOL    HW223391   3.051   0.358  11.613  0.0502  0.3865 -1.6622
 3978SOL     OW23392   0.676   1.932   1.163 -0.4021 -0.5453  0.1472
 3978SOL    HW123393   0.700   1.848   1.201  0.3803 -0.5046 -0.2612
 3978SOL    HW223394   0.599   1.968   1.207 -0.4755  0.2563 -0.6495
 3979SOL     OW23395   0.804   0.709   9.063  0.0139  0.5950 -0.6445
 3979SOL    HW123396   0.763   0.650   9.000 -2.0424  1.7320 -0.3563
 3979SOL    HW223397   0.872   0.655   9.105  0.2662  0.1664 -1.6083
 3980SOL     OW23398   4.686   4.143   8.013 -0.5054 -0.2314  0.6680
 3980SOL    HW123399   0.035   4.121   7.955  0.1229  1.5230  0.7622
 3980SOL    HW223400   4.717   4.096   8.091  1.5054  0.2532  0.1576
 3981SOL     OW23401   2.431   1.711   9.522 -0.0808 -0.0407  0.0743
 3981SOL    HW123402   2.360   1.775   9.527  0.9039  1.1660 -1.0605
 3981SOL    HW223403   2.388   1.658   9.455  0.0129 -0.7466  0.5755
 3982SOL     OW23404   2.444   1.220  13.170  0.4192  0.3650 -0.1076
 3982SOL    HW123405   2.451   1.137  13.218  0.7648  0.9372  0.8269
 3982SOL    HW223406   2.533   1.220  13.134  1.3100 -0.0570  2.1032
 3983SOL     OW23407   4.590   2.599  10.240 -0.2262  0.3133 -0.1649
 3983SOL    HW123408   4.523   2.662  10.263 -0.3342 -0.3713  1.4090
 3983SOL    HW223409   4.542   2.522  10.269  0.5741  0.9904  3.0180
 3984SOL     OW23410   0.725   1.047   9.789 -0.2363  0.5151  0.1209
 3984SOL    HW123411   0.750   1.017   9.876  1.0333 -0.0745 -0.4435
 3984SOL    HW223412   0.657   1.109   9.813  0.6976  2.3531 -1.9319
 3985SOL     OW23413   2.611   3.980   7.325  0.0802  0.5101 -0.1177
 3985SOL    HW123414   2.573   4.052   7.275  0.6888  0.9440  0.0383
 3985SOL    HW223415   2.554   3.984   7.401 -0.0023  1.2362 -0.2195
 3986SOL     OW23416   0.199   1.198   8.143 -0.7374 -0.7486  0.6162
 3986SOL    HW123417   0.182   1.219   8.235  1.5353 -0.9983  1.1025
 3986SOL    HW223418   0.110   1.195   8.107 -0.0652 -0.0549 -1.1106
 3987SOL     OW23419   1.759   3.276   7.969  0.3221  0.4480 -0.3550
 3987SOL    HW123420   1.730   3.185   7.974 -1.2153  0.9190 -0.4140
 3987SOL    HW223421   1.810   3.286   8.049 -0.5997 -2.5582  0.6350
 3988SOL     OW23422   4.097   0.156   3.842 -0.2440 -0.1167 -0.1786
 3988SOL    HW123423   4.004   0.153   3.865 -0.7657 -0.0686 -2.2687
 3988SOL    HW223424   4.126   0.196   3.924  1.0168 -0.6576 -0.3636
 3989SOL     OW23425   2.690   0.516   2.395  0.0350 -0.2441 -0.6913
 3989SOL    HW123426   2.626   0.576   2.357 -0.7969  1.0798  2.7786
 3989SOL    HW223427   2.762   0.518   2.332 -0.1065  4.8497 -0.6904
 3990SOL     OW23428   4.306   4.420   2.219  0.0450  0.3695  0.2659
 3990SOL    HW123429   4.221   4.454   2.244 -0.6061 -0.4591 -0.8156
 3990SOL    HW223430   4.354   4.503   2.226  2.8739 -1.1988 -0.1980
 3991SOL     OW23431   2.965   1.881   7.693 -0.5808 -0.0901 -0.3785
 3991SOL    HW123432   2.942   1.828   7.769 -2.1379  1.2713  0.0818
 3991SOL    HW223433   2.886   1.929   7.668  0.4240  1.9773  0.4335
 3992SOL     OW23434   1.339   2.673  11.972 -0.1439  0.0436  0.0684
 3992SOL    HW123435   1.387   2.644  12.049 -2.0983 -1.5988  0.6675
 3992SOL    HW223436   1.307   2.595  11.926  3.1359 -1.5844  0.5204
 3993SOL     OW23437   2.220   1.732  14.671  0.6469  0.0678 -0.0813
 3993SOL    HW123438   2.313   1.754  14.680  0.2961  1.1959  0.7701
 3993SOL    HW223439   2.180   1.817  14.687 -0.3495 -0.6137  1.0552
 3994SOL     OW23440   1.557   0.258   4.123 -0.2614  0.2305 -0.4857
 3994SOL    HW123441   1.644   0.293   4.107  1.8137 -3.9770  1.7928
 3994SOL    HW223442   1.555   0.181   4.066  2.8277 -0.3360  0.2259
 3995SOL     OW23443   2.396   2.588   4.069 -0.4801  0.1447 -0.2555
 3995SOL    HW123444   2.364   2.505   4.034  2.2165 -0.1586 -1.9359
 3995SOL    HW223445   2.453   2.628   4.005  1.1886 -0.6149  0.7601
 3996SOL     OW23446   1.567   2.108   2.502  0.8466  0.0898 -0.1282
 3996SOL    HW123447   1.480   2.071   2.482  1.6968 -3.4922  2.7308
 3996SOL    HW223448   1.594   2.022   2.535  0.4211 -0.5390 -1.3966
 3997SOL     OW23449   2.082   4.333   2.676 -0.2316 -0.2706 -0.1710
 3997SOL    HW123450   2.075   4.427   2.661  1.8167  0.5069  3.6275
 3997SOL    HW223451   2.171   4.324   2.643 -0.1867 -0.5602  0.0227
 3998SOL     OW23452   0.747   2.528  11.597  0.1824  0.0097 -0.1396
 3998SOL    HW123453   0.760   2.620  11.618 -2.3927  0.4270 -0.4113
 3998SOL    HW223454   0.653   2.535  11.579  0.2391  2.5272  0.4863
 3999SOL     OW23455   4.105   2.837  13.299 -0.3793 -0.1553 -0.4670
 3999SOL    HW123456   4.178   2.795  13.346  0.2500 -0.3924 -1.6413
 3999SOL    HW223457   4.032   2.794  13.344 -1.8579 -0.7894 -3.5162
 4000SOL     OW23458   1.438   0.447   1.923  0.4787  0.4418  0.2516
 4000SOL    HW123459   1.390   0.522   1.887  0.5064 -0.2026 -1.1205
 4000SOL    HW223460   1.436   0.468   2.016 -1.9077  1.2797  0.0065
 4001SOL     OW23461   0.492   4.192  17.047  0.1595 -0.0075  0.9067
 4001SOL    HW123462   0.426   4.161  16.985  0.4086 -2.5951  1.9275
 4001SOL    HW223463   0.560   4.125  17.043  0.9205  0.6713  2.3356
 4002SOL     OW23464   0.048   0.330   2.639 -0.3442 -0.7046 -0.2958
 4002SOL    HW123465   0.001   0.259   2.681 -2.1217 -1.5950 -3.7849
 4002SOL    HW223466   0.137   0.321   2.675  0.0435 -0.8091 -1.2779
 4003SOL     OW23467   4.701   3.448   8.220 -0.0662  0.1425 -0.9440
 4003SOL    HW123468   4.670   3.392   8.148 -0.1292  0.1059 -0.8878
 4003SOL    HW223469   0.069   3.421   8.235 -0.3097  0.0512  0.3160
 4004SOL     OW23470   4.541   1.119  14.459  0.2450  0.0483 -0.3984
 4004SOL    HW123471   4.567   1.071  14.380 -1.0813 -1.2810 -0.0306
 4004SOL    HW223472   4.451   1.147  14.441 -0.6415 -1.7104  1.2637
 4005SOL     OW23473   1.192   3.553   7.547 -0.0770  0.2635  0.4608
 4005SOL    HW123474   1.117   3.562   7.488  0.1202  0.3159  0.2155
 4005SOL    HW223475   1.165   3.596   7.628 -1.5744 -0.7611  0.4950
 4006SOL     OW23476   4.156   0.179   2.670 -0.5075  0.7155  0.0094
 4006SOL    HW123477   4.130   0.090   2.694  1.9129 -0.1328 -0.4849
 4006SOL    HW223478   4.251   0.179   2.681 -0.3870  0.4067 -1.0394
 4007SOL     OW23479   2.467   1.582  12.410  0.2258 -0.3121  0.4171
 4007SOL    HW123480   2.395   1.520  12.405  0.3252 -0.4177  0.3034
 4007SOL    HW223481   2.464   1.600  12.504 -0.0459  2.3598 -0.0802
 4008SOL     OW23482   4.157   4.461  10.304  0.5430  0.1320 -0.3652
 4008SOL    HW123483   4.092   4.479  10.235 -1.3816 -0.3877  1.3043
 4008SOL    HW223484   4.125   4.392  10.362  2.0798  1.0190  1.5237
 4009SOL     OW23485   2.953   2.197  14.871 -0.1220  0.4084 -0.1028
 4009SOL    HW123486   2.866   2.236  14.880  0.6463  1.5312  2.4624
 4009SOL    HW223487   3.009   2.269  14.897  0.0523  0.5605 -0.9116
 4010SOL     OW23488   3.471   3.078   1.028 -0.3537  0.1576  0.3169
 4010SOL    HW123489   3.502   3.130   0.954  0.2020  0.9331  1.1034
 4010SOL    HW223490   3.395   3.125   1.063  0.6217  1.6418  0.4314
 4011SOL     OW23491   4.509   3.160  15.464 -0.2919 -0.0984 -0.4290
 4011SOL    HW123492   4.463   3.184  15.384 -0.8300  1.2394  0.2855
 4011SOL    HW223493   4.578   3.108  15.422 -1.2337 -0.6172 -1.3265
 4012SOL     OW23494   4.120   4.481   3.886 -0.4202  0.3490 -0.2764
 4012SOL    HW123495   4.036   4.528   3.881 -0.8648 -0.3145  0.7868
 4012SOL    HW223496   4.159   4.539   3.952 -0.2424 -2.4284  2.0423
 4013SOL     OW23497   4.366   1.774  15.169 -0.1257  0.1927  0.0789
 4013SOL    HW123498   4.355   1.794  15.076 -1.6710 -0.8477  0.0412
 4013SOL    HW223499   4.315   1.695  15.185 -3.6533  2.3527 -0.5741
 4014SOL     OW23500   0.554   1.102   0.147  0.2250  0.1145 -0.3235
 4014SOL    HW123501   0.467   1.112   0.186  0.4986 -0.8138  0.5212
 4014SOL    HW223502   0.612   1.135   0.216  0.9762 -2.4660  0.2713
 4015SOL     OW23503   0.887   1.683   3.727 -0.8763  0.4729 -0.0316
 4015SOL    HW123504   0.952   1.620   3.758 -1.7920 -0.5959 -0.2748
 4015SOL    HW223505   0.848   1.638   3.652  1.1085 -0.6467 -0.3915
 4016SOL     OW23506   2.220   2.530   6.244  0.3267 -0.1535 -0.2161
 4016SOL    HW123507   2.301   2.529   6.193  0.6769 -1.7840  0.3812
 4016SOL    HW223508   2.194   2.622   6.251 -2.1807 -0.7939 -0.8970
 4017SOL     OW23509   3.574   0.890   2.562  0.2458  0.3979  0.4069
 4017SOL    HW123510   3.636   0.835   2.611  3.5574  1.8810 -2.0841
 4017SOL    HW223511   3.499   0.902   2.620 -0.5241  0.6210 -0.6366
 4018SOL     OW23512   2.195   4.374   1.364  0.1337  0.6106 -0.2029
 4018SOL    HW123513   2.274   4.427   1.355  0.3625 -0.0793 -2.2244
 4018SOL    HW223514   2.167   4.376   1.272  0.9225  0.9573 -0.4310
 4019SOL     OW23515   2.922   0.936  12.512 -0.1863 -0.2568 -0.0793
 4019SOL    HW123516   2.994   0.992  12.542  0.6296 -1.9438  1.0808
 4019SOL    HW223517   2.977   0.866  12.478  1.0023 -0.0403  1.3510
 4020SOL     OW23518   3.614   4.671  10.547 -0.5648  0.5631 -0.1082
 4020SOL    HW123519   3.587   4.657  10.638 -0.3044 -0.4927 -0.1895
 4020SOL    HW223520   3.709   4.665  10.559 -0.7043 -2.2676 -0.4013
 4021SOL     OW23521   0.591   0.634   7.590 -0.5146 -0.0164 -0.4188
 4021SOL    HW123522   0.508   0.640   7.542  0.1094  1.0100 -1.3706
 4021SOL    HW223523   0.647   0.611   7.517 -0.1576 -1.1188  0.1992
 4022SOL     OW23524   3.207   2.392   4.167  0.6781 -0.5122  0.0929
 4022SOL    HW123525   3.222   2.473   4.118  0.0932 -0.5900 -0.2182
 4022SOL    HW223526   3.135   2.349   4.120  2.8004 -1.5361 -2.2141
 4023SOL     OW23527   1.833   0.176  10.843 -0.3468  0.1437  0.2400
 4023SOL    HW123528   1.898   0.109  10.825 -0.7294  0.5869 -2.8242
 4023SOL    HW223529   1.830   0.218  10.757 -0.6255  0.1685  0.2611
 4024SOL     OW23530   3.396   0.528   7.050 -0.5727 -0.2938  0.3904
 4024SOL    HW123531   3.341   0.453   7.027 -0.8838  0.1881 -0.4415
 4024SOL    HW223532   3.378   0.533   7.144 -1.5723  0.4732  0.1641
 4025SOL     OW23533   2.765   2.008   8.649 -0.1324 -0.0430 -0.0512
 4025SOL    HW123534   2.680   2.050   8.658 -0.4328 -0.4468 -1.0366
 4025SOL    HW223535   2.821   2.054   8.711 -1.2360  0.0611  0.8611
 4026SOL     OW23536   1.616   4.449   6.472  0.6055  0.4621  0.3378
 4026SOL    HW123537   1.633   4.492   6.556 -0.5463 -0.3203  0.9714
 4026SOL    HW223538   1.683   4.493   6.420  2.6253 -1.5910  1.1631
 4027SOL     OW23539   3.828   4.485   4.561  0.2780  0.2793 -0.3915
 4027SOL    HW123540   3.865   4.477   4.649  0.7275 -2.6302 -0.8477
 4027SOL    HW223541   3.815   4.395   4.533  0.9515 -0.8417  2.8604
 4028SOL     OW23542   0.107   1.178   3.184 -0.3917 -0.8585  0.0874
 4028SOL    HW123543   0.152   1.171   3.099  0.9448  0.3702  0.6914
 4028SOL    HW223544   0.175   1.229   3.229 -1.0360  0.0575  0.0301
 4029SOL     OW23545   0.563   3.572  12.926 -0.1790  0.3515  0.0088
 4029SOL    HW123546   0.508   3.535  12.995  1.1119 -1.1255  0.2593
 4029SOL    HW223547   0.648   3.529  12.936 -0.9222 -0.9394  0.7402
 4030SOL     OW23548   2.872   2.927   4.896 -0.8844 -0.8174  0.1112
 4030SOL    HW123549   2.787   2.892   4.922 -0.3545  0.1379  3.1792
 4030SOL    HW223550   2.848   3.020   4.896 -2.8564 -1.3241  1.0971
 4031SOL     OW23551   1.843   1.363  15.420 -0.3152  0.1149 -0.0719
 4031SOL    HW123552   1.879   1.319  15.343  0.7234 -1.4885  1.3308
 4031SOL    HW223553   1.834   1.293  15.485 -3.4674 -0.7177 -1.3875
 4032SOL     OW23554   2.263   3.335  10.961  0.1821 -0.1012 -0.3729
 4032SOL    HW123555   2.178   3.342  10.917  0.3855 -1.5014 -0.9960
 4032SOL    HW223556   2.256   3.424  10.995  1.3470  0.6178 -2.0272
 4033SOL     OW23557   2.673   3.055   7.535 -0.6698  0.5206  0.1445
 4033SOL    HW123558   2.704   2.974   7.494  2.6249  1.8359  0.0826
 4033SOL    HW223559   2.707   3.122   7.476  0.4713 -0.8032 -0.7003
 4034SOL     OW23560   3.475   2.575  10.318  0.3790  0.2105 -0.3645
 4034SOL    HW123561   3.501   2.568  10.410  1.8033 -3.5384 -1.0523
 4034SOL    HW223562   3.382   2.592  10.333  0.6543  0.6634  0.8411
 4035SOL     OW23563   1.588   2.973   2.843 -0.2659 -0.2859 -0.0881
 4035SOL    HW123564   1.526   2.899   2.839  2.1777 -2.3247 -0.2060
 4035SOL    HW223565   1.650   2.956   2.772 -0.8885 -1.3585 -0.3850
 4036SOL     OW23566   0.431   0.150   3.648 -0.3595  0.0587  0.4303
 4036SOL    HW123567   0.514   0.198   3.645 -0.1611 -0.3613 -0.6844
 4036SOL    HW223568   0.461   0.088   3.714  2.4479  0.3367 -0.5979
 4037SOL     OW23569   0.475   3.221   1.669 -0.3648  0.3569  0.9434
 4037SOL    HW123570   0.539   3.242   1.601  0.7728 -0.2558  1.8199
 4037SOL    HW223571   0.453   3.305   1.710  0.6479 -0.3164  2.8635
 4038SOL     OW23572   1.095   2.450  16.402 -0.6878 -0.2099 -0.1180
 4038SOL    HW123573   1.155   2.431  16.475 -2.8923 -0.1951  1.7119
 4038SOL    HW223574   1.052   2.366  16.389  0.6972 -0.6732 -1.6622
 4039SOL     OW23575   0.054   1.286  17.223  0.4149  0.0988 -0.0010
 4039SOL    HW123576   0.085   1.197  17.237  1.4066  0.3772 -0.4186
 4039SOL    HW223577   0.043   1.322  17.311  0.4973 -2.5480  1.0785
 4040SOL     OW23578   4.189   2.128   0.474  0.1497  0.5831  0.6271
 4040SOL    HW123579   4.124   2.165   0.415  0.3762 -0.0109  0.0050
 4040SOL    HW223580   4.259   2.179   0.435  0.6456 -0.5493  0.0346
 4041SOL     OW23581   0.304   3.688   7.157 -0.5959  0.1345 -0.3885
 4041SOL    HW123582   0.262   3.648   7.233  0.6919 -1.0510 -0.3083
 4041SOL    HW223583   0.373   3.623   7.145 -0.3756 -0.0852  1.9894
 4042SOL     OW23584   3.285   4.262  13.214 -0.1567 -0.2023 -0.6674
 4042SOL    HW123585   3.271   4.281  13.307 -0.7350  0.1873 -0.8387
 4042SOL    HW223586   3.214   4.202  13.195  0.4277 -0.1673 -2.9649
 4043SOL     OW23587   0.065   1.465  13.575 -0.1727 -0.3176 -0.2198
 4043SOL    HW123588   0.018   1.382  13.574  0.4591 -0.6556 -1.5847
 4043SOL    HW223589   0.069   1.492  13.483 -0.1555 -0.9369 -0.4040
 4044SOL     OW23590   4.406   2.912  16.883 -0.3957 -0.2853  0.2070
 4044SOL    HW123591   4.471   2.928  16.815 -2.4303 -0.9977 -1.8754
 4044SOL    HW223592   4.452   2.927  16.966 -2.5053 -1.9671  1.6870
 4045SOL     OW23593   4.290   2.348   3.988  0.1414  0.0341  0.5310
 4045SOL    HW123594   4.379   2.381   3.991 -0.6756  2.3572 -1.4698
 4045SOL    HW223595   4.256   2.387   3.907 -0.4138 -2.1075 -0.2649
 4046SOL     OW23596   1.132   0.156  16.294 -0.5693  0.2880  0.1010
 4046SOL    HW123597   1.038   0.155  16.312 -0.5574  0.5223  0.1742
 4046SOL    HW223598   1.149   0.071  16.335 -0.6028  0.0856 -0.3007
 4047SOL     OW23599   4.292   4.435   3.682 -1.2352 -0.4564  0.3275
 4047SOL    HW123600   4.332   4.521   3.668 -2.3520  0.0180  0.0062
 4047SOL    HW223601   4.241   4.462   3.759 -0.5637 -0.1300  0.6516
 4048SOL     OW23602   2.726   3.134   3.974 -0.1835 -0.7349  0.0527
 4048SOL    HW123603   2.813   3.171   3.957  0.3030 -1.3581  1.1320
 4048SOL    HW223604   2.707   3.073   3.903 -1.3037 -0.2905 -0.0283
 4049SOL     OW23605   0.436   2.334   8.729 -0.1532  0.1597 -0.5818
 4049SOL    HW123606   0.441   2.239   8.716  2.9916  0.6164 -3.0073
 4049SOL    HW223607   0.355   2.347   8.681  1.3848 -0.0782 -3.2608
 4050SOL     OW23608   3.848   0.293   4.999 -0.3505  0.0754 -0.3379
 4050SOL    HW123609   3.936   0.294   5.037 -0.6477 -1.2451  0.4025
 4050SOL    HW223610   3.862   0.235   4.924  0.2148  0.8826 -0.8514
 4051SOL     OW23611   3.306   0.476   5.390  0.1293 -0.3609 -0.4908
 4051SOL    HW123612   3.399   0.483   5.372  0.4919 -0.3629  1.3722
 4051SOL    HW223613   3.289   0.569   5.407  0.6138 -0.4775  0.6401
 4052SOL     OW23614   3.529   3.006   7.505 -0.2527  0.0208 -0.1037
 4052SOL    HW123615   3.438   3.026   7.528 -0.0759 -1.2878  1.7043
 4052SOL    HW223616   3.521   2.943   7.433 -0.3355 -0.4839  0.3500
 4053SOL     OW23617   0.393   3.025   4.300  0.5434 -0.4412 -0.1609
 4053SOL    HW123618   0.462   3.010   4.364 -1.0841  0.1540  1.7527
 4053SOL    HW223619   0.364   2.938   4.274 -1.2799  0.2979 -0.6187
 4054SOL     OW23620   1.411   1.671   7.088  0.0932 -0.0877 -0.1081
 4054SOL    HW123621   1.358   1.714   7.155 -1.8143 -0.3352 -1.4349
 4054SOL    HW223622   1.456   1.602   7.137 -0.8447  0.2434  1.2081
 4055SOL     OW23623   4.082   2.747   0.975 -0.1145 -0.1274  0.5386
 4055SOL    HW123624   4.084   2.668   0.921  2.1184 -0.9135  1.7483
 4055SOL    HW223625   4.125   2.813   0.921 -1.0495 -1.4049 -1.7720
 4056SOL     OW23626   1.286   3.231   8.757 -0.3708  0.0397  0.1530
 4056SOL    HW123627   1.209   3.287   8.754 -0.9210 -0.7379 -0.2707
 4056SOL    HW223628   1.286   3.180   8.839 -0.3078 -0.1224  0.0515
 4057SOL     OW23629   4.078   4.695  16.329 -0.0560 -0.3650  0.4368
 4057SOL    HW123630   3.987   4.723  16.321  0.4907  0.6023 -2.1044
 4057SOL    HW223631   4.102   0.022  16.408 -3.5191  1.5461  0.2901
 4058SOL     OW23632   1.339   0.958   2.920  0.3025  0.4558 -0.4746
 4058SOL    HW123633   1.251   0.956   2.881 -0.5102 -0.4539  1.3901
 4058SOL    HW223634   1.382   1.036   2.887  1.3626  0.8438  1.8185
 4059SOL     OW23635   3.837   4.573  13.733  0.0266 -0.3004  0.1704
 4059SOL    HW123636   3.783   4.519  13.790 -0.3692 -0.7100 -0.5992
 4059SOL    HW223637   3.920   4.527  13.719 -0.5160 -1.3713  0.4808
 4060SOL     OW23638   1.808   3.746   2.844  0.3535 -0.3937  0.2426
 4060SOL    HW123639   1.774   3.686   2.911  1.7518  1.2652  2.4263
 4060SOL    HW223640   1.746   3.723   2.775 -1.1897  2.0065  0.8284
 4061SOL     OW23641   4.413   4.230   5.404 -0.0460 -0.5446  0.0589
 4061SOL    HW123642   4.400   4.271   5.319 -1.4004 -0.9947  0.0431
 4061SOL    HW223643   4.508   4.239   5.408 -0.0488 -0.6294  0.3141
 4062SOL     OW23644   2.750   3.102   3.025 -0.0734 -0.1797  0.8805
 4062SOL    HW123645   2.730   3.100   2.931 -0.8613  0.3902  1.0339
 4062SOL    HW223646   2.776   3.194   3.029  0.5831 -0.4239  2.0260
 4063SOL     OW23647   0.103   4.444   9.521  0.4902 -0.3145 -0.1130
 4063SOL    HW123648   0.103   4.502   9.445  0.1389  1.0157  0.9047
 4063SOL    HW223649   0.104   4.510   9.590  1.6949 -1.8122  1.3203
 4064SOL     OW23650   3.756   4.627   4.945  0.7044  0.1682  0.0249
 4064SOL    HW123651   3.668   4.662   4.951  1.0047  0.4665  2.4019
 4064SOL    HW223652   3.804   4.696   4.898 -0.0043  2.7701  3.1697
 4065SOL     OW23653   1.231   1.584  12.394 -0.2937 -0.4258  0.9082
 4065SOL    HW123654   1.241   1.518  12.325 -0.3395 -1.1457  1.5974
 4065SOL    HW223655   1.289   1.655  12.365 -0.4083  0.0848  1.9351
 4066SOL     OW23656   2.342   3.238   4.711 -0.1653 -0.1500 -0.0154
 4066SOL    HW123657   2.334   3.312   4.772 -1.5470 -0.4200  0.1235
 4066SOL    HW223658   2.337   3.289   4.630  0.7835 -0.4040 -0.2308
 4067SOL     OW23659   3.253   0.293   6.987  0.1302 -0.4342  0.1652
 4067SOL    HW123660   3.270   0.210   7.031 -0.3571  0.3118  1.7434
 4067SOL    HW223661   3.280   0.279   6.896  0.5553 -0.5725  0.3094
 4068SOL     OW23662   3.101   0.416  13.977  0.2539 -0.2162 -0.0323
 4068SOL    HW123663   3.042   0.435  14.050 -0.2891 -1.5273 -0.1287
 4068SOL    HW223664   3.075   0.491  13.924  1.6647  0.2023 -0.1270
 4069SOL     OW23665   3.775   0.027  15.269 -0.1559  0.1118 -0.3803
 4069SOL    HW123666   3.845   0.091  15.261  0.9060 -1.0080 -0.0496
 4069SOL    HW223667   3.780   4.712  15.357  0.2030  2.0996  0.4397
 4070SOL     OW23668   4.076   3.857   2.911  0.0970  0.2790  0.0636
 4070SOL    HW123669   4.041   3.901   2.834  1.9974 -1.6450 -1.9067
 4070SOL    HW223670   4.109   3.777   2.871 -2.8803 -0.1487 -1.5266
 4071SOL     OW23671   2.341   0.451   2.197  0.2801 -0.4153 -0.2868
 4071SOL    HW123672   2.424   0.476   2.158  0.5890  1.0837  1.3114
 4071SOL    HW223673   2.279   0.467   2.125 -0.5094 -0.1337  0.4462
 4072SOL     OW23674   2.445   0.808   3.729  0.1768  0.3163  0.0488
 4072SOL    HW123675   2.512   0.775   3.788  0.8610  1.0499 -0.3120
 4072SOL    HW223676   2.371   0.808   3.790  0.5202  4.7107  0.4680
 4073SOL     OW23677   4.170   4.108   4.639  0.6572  0.0724  0.2670
 4073SOL    HW123678   4.120   4.032   4.670 -0.1641  0.0518 -1.0724
 4073SOL    HW223679   4.113   4.125   4.564  0.9750  2.1208  0.5015
 4074SOL     OW23680   2.771   2.725   9.074  0.4392 -0.6427 -0.1292
 4074SOL    HW123681   2.765   2.806   9.024  0.7262 -0.8668 -0.5281
 4074SOL    HW223682   2.729   2.751   9.156  1.0016  0.1460 -0.0933
 4075SOL     OW23683   0.166   0.956   5.100  0.3846  0.0939 -0.2011
 4075SOL    HW123684   0.163   1.023   5.032 -0.6558  0.3418  0.0867
 4075SOL    HW223685   0.203   1.006   5.172  0.1120  1.1017 -0.7592
 4076SOL     OW23686   0.068   2.657   5.159 -0.1181  0.5234 -0.0890
 4076SOL    HW123687   0.114   2.575   5.174  0.5269  1.4916  3.3128
 4076SOL    HW223688   0.145   2.714   5.147 -0.3451  0.9083  0.2839
 4077SOL     OW23689   2.727   0.546   8.252 -0.3328  0.0831  0.2817
 4077SOL    HW123690   2.720   0.472   8.192  2.2455  1.6138 -1.8945
 4077SOL    HW223691   2.813   0.519   8.284  0.7520  0.7910 -1.9856
 4078SOL     OW23692   1.101   3.385   3.177  0.0898  0.1123  0.2443
 4078SOL    HW123693   1.077   3.345   3.261  0.6907  3.1797  1.8836
 4078SOL    HW223694   1.063   3.473   3.181  0.5872  0.3101  0.5482
 4079SOL     OW23695   4.538   2.612   7.425  0.0991 -0.2914  0.3209
 4079SOL    HW123696   4.627   2.641   7.406 -0.7333  1.8325 -0.3859
 4079SOL    HW223697   4.495   2.614   7.339 -0.3207 -0.0304  0.5347
 4080SOL     OW23698   0.458   2.812   9.434 -0.3317  0.1463 -0.1072
 4080SOL    HW123699   0.408   2.831   9.355 -1.1172  1.7474  0.7823
 4080SOL    HW223700   0.382   2.805   9.490  0.0075  0.0297  0.3360
 4081SOL     OW23701   2.218   3.719   8.023  0.3203  0.1262  0.3530
 4081SOL    HW123702   2.130   3.684   8.035  0.7861 -0.7622  1.1163
 4081SOL    HW223703   2.212   3.760   7.936 -0.5673  1.9233  1.2582
 4082SOL     OW23704   1.800   0.845   8.153  0.0798 -0.4227  0.2610
 4082SOL    HW123705   1.790   0.791   8.075 -1.5614  0.6106 -0.2437
 4082SOL    HW223706   1.842   0.780   8.210 -1.2772 -1.7812 -0.2800
 4083SOL     OW23707   2.209   2.190   9.830 -0.0496 -0.4215 -0.2941
 4083SOL    HW123708   2.177   2.106   9.864 -0.8815  0.2601  0.5950
 4083SOL    HW223709   2.131   2.244   9.841 -0.4589 -0.6348 -2.1256
 4084SOL     OW23710   4.557   2.090   1.667  0.3431  0.2083  0.3817
 4084SOL    HW123711   4.624   2.096   1.735 -1.0444 -3.3426  2.0455
 4084SOL    HW223712   4.496   2.037   1.717 -1.7657  1.2364 -1.1117
 4085SOL     OW23713   3.454   3.319   1.234  0.0130 -0.6172 -0.2378
 4085SOL    HW123714   3.497   3.323   1.319  0.9861 -0.3048 -0.7420
 4085SOL    HW223715   3.364   3.317   1.266 -0.0259  2.1595 -0.1411
 4086SOL     OW23716   1.815   0.411   3.762 -0.2137 -0.2245 -0.1385
 4086SOL    HW123717   1.850   0.480   3.707  1.0164 -0.2415  0.6390
 4086SOL    HW223718   1.811   0.338   3.700 -1.8059 -0.4377  0.2000
 4087SOL     OW23719   0.924   1.253   1.364 -0.3120  0.4430  0.3970
 4087SOL    HW123720   1.000   1.240   1.307  0.3562 -0.8681  1.5707
 4087SOL    HW223721   0.873   1.296   1.296  0.0049 -1.4178 -1.0181
 4088SOL     OW23722   0.272   2.346   1.577  0.0020 -0.7397 -0.1010
 4088SOL    HW123723   0.246   2.264   1.619 -2.5599  0.9869  1.6753
 4088SOL    HW223724   0.191   2.356   1.527 -0.1265 -4.3798 -0.6830
 4089SOL     OW23725   0.070   4.156   5.597  0.3051  0.1669 -0.0284
 4089SOL    HW123726   0.069   4.209   5.517  2.2297  0.4718  0.1467
 4089SOL    HW223727   0.106   4.077   5.556 -2.7264 -0.7327 -0.9473
 4090SOL     OW23728   1.019   0.221   0.999 -0.4666  0.9438 -0.3796
 4090SOL    HW123729   0.943   0.273   0.972  0.0301  2.2911  0.8027
 4090SOL    HW223730   1.040   0.174   0.918 -0.0707  0.8793 -0.2406
 4091SOL     OW23731   0.758   4.054  12.398 -0.1947 -0.2215 -0.2353
 4091SOL    HW123732   0.673   4.038  12.440 -1.0201  0.5373 -1.6472
 4091SOL    HW223733   0.811   4.077  12.475  0.0799 -0.6312 -0.2998
 4092SOL     OW23734   1.395   0.473   5.946 -0.0375  0.0557  0.3317
 4092SOL    HW123735   1.472   0.457   6.001  0.5237 -0.1294 -0.5046
 4092SOL    HW223736   1.354   0.388   5.962  1.1777 -0.5651  0.1627
 4093SOL     OW23737   2.363   0.338   5.976  0.0663  0.2712 -0.4778
 4093SOL    HW123738   2.350   0.387   6.057  0.6637 -1.9125  0.9549
 4093SOL    HW223739   2.458   0.331   5.983  0.0898 -2.0752 -3.2515
 4094SOL     OW23740   1.280   2.433   2.360  0.1479 -0.0713  0.4433
 4094SOL    HW123741   1.292   2.486   2.282 -3.0746  0.4764  0.3374
 4094SOL    HW223742   1.372   2.412   2.378  0.6053  0.7305 -0.9575
 4095SOL     OW23743   4.601   0.544   2.485  0.4802  0.3286 -0.0573
 4095SOL    HW123744   4.518   0.513   2.522  0.2476  1.3852  0.3074
 4095SOL    HW223745   4.653   0.515   2.560  1.7706  1.6752 -0.4469
 4096SOL     OW23746   0.474   3.779   2.866 -0.4370 -0.1778  0.1730
 4096SOL    HW123747   0.425   3.748   2.790 -0.5984 -0.6917  0.4922
 4096SOL    HW223748   0.510   3.696   2.897  1.4264  1.3710  2.2042
 4097SOL     OW23749   3.172   3.396   5.845 -0.4912  0.0791  0.2387
 4097SOL    HW123750   3.102   3.413   5.782  2.0530  0.4570 -2.5425
 4097SOL    HW223751   3.250   3.385   5.790 -0.1886  1.4514  0.4108
 4098SOL     OW23752   4.450   2.751  13.779  0.4685 -0.0816 -0.3472
 4098SOL    HW123753   4.516   2.695  13.738  0.6386 -0.2951  0.2118
 4098SOL    HW223754   4.404   2.684  13.831  0.2061  0.1387 -0.2920
 4099SOL     OW23755   1.299   3.934   2.101  0.0945  0.5010 -0.3666
 4099SOL    HW123756   1.305   4.001   2.032  0.7971  0.8604  0.0439
 4099SOL    HW223757   1.262   3.861   2.050  2.6376 -0.2938 -1.0875
 4100SOL     OW23758   4.038   4.583  14.356 -0.1527  0.2034 -0.4025
 4100SOL    HW123759   3.980   4.526  14.306 -0.9520 -0.5130  1.3743
 4100SOL    HW223760   4.102   4.512  14.364  0.6833  1.2007  1.5824
 4101SOL     OW23761   1.371   1.966   6.140 -0.3575  0.0159 -0.0464
 4101SOL    HW123762   1.335   1.885   6.176  0.5127  0.2197  1.2572
 4101SOL    HW223763   1.303   2.033   6.151 -0.4741 -0.2283  0.6581
 4102SOL     OW23764   3.755   4.294   8.383 -0.2667  0.5193 -0.4045
 4102SOL    HW123765   3.717   4.381   8.383 -0.3673  0.4767 -2.3821
 4102SOL    HW223766   3.848   4.318   8.389 -1.3413  4.1951  1.2004
 4103SOL     OW23767   2.492   1.332   4.290  0.4939 -0.4827 -0.1880
 4103SOL    HW123768   2.511   1.254   4.343  1.7534 -0.4915 -0.6717
 4103SOL    HW223769   2.453   1.381   4.362  2.8228  0.3621  0.4773
 4104SOL     OW23770   0.300   0.513   3.828  0.2809  0.1949 -0.4419
 4104SOL    HW123771   0.232   0.575   3.854 -1.3496 -1.3991 -0.9120
 4104SOL    HW223772   0.307   0.524   3.733 -0.4309  0.4613 -0.4654
 4105SOL     OW23773   1.176   2.749  13.379  0.8755  0.7121  0.0462
 4105SOL    HW123774   1.247   2.709  13.329  2.9862 -0.4115  3.9456
 4105SOL    HW223775   1.167   2.675  13.438  1.9753 -0.2826 -1.0377
 4106SOL     OW23776   2.503   1.073   4.556 -0.1722  0.1997  0.4706
 4106SOL    HW123777   2.441   1.056   4.485 -0.3323  4.0081 -0.3156
 4106SOL    HW223778   2.581   1.096   4.506 -0.4340  0.6578  0.2728
 4107SOL     OW23779   4.493   2.136  15.147  0.0416  0.0011  0.6433
 4107SOL    HW123780   4.585   2.112  15.159 -0.2519 -1.3230  0.1942
 4107SOL    HW223781   4.468   2.097  15.064 -1.4400  2.7698 -0.2389
 4108SOL     OW23782   1.159   3.134   9.915 -0.5484  0.2568  0.1410
 4108SOL    HW123783   1.169   3.222   9.950  0.4312 -0.6739  2.2134
 4108SOL    HW223784   1.079   3.101   9.955 -0.5870  1.0842  0.7329
 4109SOL     OW23785   3.051   2.541  10.176 -0.1442  0.1195  0.3159
 4109SOL    HW123786   3.016   2.452  10.179 -0.4867  0.2041 -1.2545
 4109SOL    HW223787   2.969   2.591  10.170 -1.7330 -2.7702 -1.6548
 4110SOL     OW23788   3.951   2.359  17.006 -0.1936 -0.0385 -0.0239
 4110SOL    HW123789   3.934   2.276  17.051 -2.8337  0.8139  0.5798
 4110SOL    HW223790   3.956   2.341  16.912  0.7569 -1.3129  0.2738
 4111SOL     OW23791   3.468   3.270   2.252  0.0971 -0.1286  0.0998
 4111SOL    HW123792   3.562   3.251   2.249 -0.1821 -1.2470 -1.0983
 4111SOL    HW223793   3.453   3.292   2.160  0.6791  1.0332  0.2822
 4112SOL     OW23794   2.700   4.699  16.651  0.4211  0.0050  0.8227
 4112SOL    HW123795   2.747   4.685  16.569 -0.5049 -0.5355  0.3917
 4112SOL    HW223796   2.683   0.069  16.669 -0.3108 -0.4905  2.6611
 4113SOL     OW23797   1.404   1.131   7.754 -0.0443  0.2360 -0.2380
 4113SOL    HW123798   1.311   1.146   7.768  0.2079  2.3947 -0.8385
 4113SOL    HW223799   1.429   1.129   7.846 -1.7195  1.1059  0.2380
 4114SOL     OW23800   0.227   2.889  14.430  0.1348 -0.4543 -0.3967
 4114SOL    HW123801   0.254   2.839  14.507  1.9572 -0.5184 -1.0865
 4114SOL    HW223802   0.139   2.909  14.462  0.6761 -0.1798  0.9527
 4115SOL     OW23803   2.588   3.475   2.176  0.8538 -0.2079 -0.1619
 4115SOL    HW123804   2.630   3.410   2.233 -1.9833 -0.2273  1.9213
 4115SOL    HW223805   2.574   3.540   2.246 -0.0835  0.5610 -1.0674
 4116SOL     OW23806   0.413   4.214   2.258  0.4910 -0.1796  0.1629
 4116SOL    HW123807   0.458   4.208   2.173 -2.1604 -0.8129 -1.1859
 4116SOL    HW223808   0.358   4.136   2.261 -0.5793  0.5978  0.5694
 4117SOL     OW23809   3.336   4.630   7.248  0.0919  0.0413  0.0156
 4117SOL    HW123810   3.318   4.547   7.204  1.9746  0.0052 -0.7153
 4117SOL    HW223811   3.349   4.699   7.182 -0.8305  0.7346  0.5556
 4118SOL     OW23812   2.462   3.862   1.766 -0.3346  0.5226 -0.0289
 4118SOL    HW123813   2.556   3.851   1.754 -0.6566 -0.1027 -2.0890
 4118SOL    HW223814   2.432   3.806   1.694  0.3007  1.4704 -1.0318
 4119SOL     OW23815   3.743   0.686   2.737 -0.3258 -0.1121  0.3259
 4119SOL    HW123816   3.722   0.594   2.721 -1.0889 -0.1408  1.5176
 4119SOL    HW223817   3.815   0.694   2.674 -0.3993 -1.5919  0.0635
 4120SOL     OW23818   4.556   2.622   8.573 -0.4438  0.1057  0.7321
 4120SOL    HW123819   4.578   2.714   8.560  0.5663  0.3165  4.0006
 4120SOL    HW223820   4.644   2.585   8.567  0.1081  1.7641 -1.5075
 4121SOL     OW23821   1.213   4.437   0.708 -0.0068  0.1560  0.0136
 4121SOL    HW123822   1.215   4.384   0.628  4.1415  0.2568  0.0505
 4121SOL    HW223823   1.135   4.406   0.753  0.4027  0.3430  0.8638
 4122SOL     OW23824   4.483   1.483   4.325  0.5545 -0.2922 -0.6230
 4122SOL    HW123825   4.466   1.388   4.327  1.4552 -0.4578 -0.9108
 4122SOL    HW223826   4.555   1.501   4.386 -1.0426  0.1764  1.1274
 4123SOL     OW23827   3.888   3.601   1.269  0.0193 -0.0675  0.2775
 4123SOL    HW123828   3.915   3.510   1.262  0.2164 -0.0284  0.5238
 4123SOL    HW223829   3.970   3.646   1.249 -0.7765  1.9670  1.5436
 4124SOL     OW23830   4.163   1.449   5.473  0.4888 -0.5605 -0.1683
 4124SOL    HW123831   4.176   1.363   5.513  2.1476 -0.0520  0.3463
 4124SOL    HW223832   4.085   1.430   5.421  0.4065 -0.3203 -0.1355
 4125SOL     OW23833   4.255   1.582   2.082  0.4680 -0.4492 -0.0165
 4125SOL    HW123834   4.204   1.519   2.030 -3.2637  0.0775  3.0049
 4125SOL    HW223835   4.315   1.529   2.134  0.8897  0.7406  0.6983
 4126SOL     OW23836   3.719   2.539   8.672  0.4964 -0.1074  0.1763
 4126SOL    HW123837   3.629   2.567   8.689  0.1475 -1.5136  0.6547
 4126SOL    HW223838   3.717   2.446   8.696  0.7540 -0.1607 -0.0125
 4127SOL     OW23839   1.048   4.555   2.395 -0.7829  0.4686 -0.0141
 4127SOL    HW123840   0.992   4.489   2.354 -0.8867 -0.2932  1.3381
 4127SOL    HW223841   0.996   4.568   2.474  0.0004 -0.8797  0.7184
 4128SOL     OW23842   2.233   1.981   7.744  0.2557 -0.3440  0.4147
 4128SOL    HW123843   2.294   2.017   7.679 -0.0903  0.0061  0.2872
 4128SOL    HW223844   2.235   1.886   7.733 -0.1486 -0.1471 -1.3026
 4129SOL     OW23845   1.269   1.991  11.317 -0.1858 -0.0452 -0.0898
 4129SOL    HW123846   1.336   2.053  11.347  0.0679 -0.1176 -0.5107
 4129SOL    HW223847   1.255   1.938  11.395  3.4036  0.9987  1.2901
 4130SOL     OW23848   0.996   1.914  16.689  0.0744  0.1625 -0.1774
 4130SOL    HW123849   0.925   1.860  16.654 -0.0030  0.0536  0.1544
 4130SOL    HW223850   0.973   1.919  16.782  1.4055 -0.1249  0.1679
 4131SOL     OW23851   2.517   4.562   5.075 -0.2779 -0.9671 -0.2536
 4131SOL    HW123852   2.547   4.582   5.163  1.8085 -1.8370 -0.7853
 4131SOL    HW223853   2.598   4.581   5.029 -0.1099 -2.7855 -0.7187
 4132SOL     OW23854   2.212   4.639   7.775 -0.0629  0.0177  0.7332
 4132SOL    HW123855   2.193   4.550   7.804 -0.1511 -0.1909  0.0418
 4132SOL    HW223856   2.128   4.669   7.740  1.2654  1.3354 -1.3415
 4133SOL     OW23857   1.046   0.187   6.505 -0.6148  0.2163  0.3796
 4133SOL    HW123858   1.064   0.190   6.599 -0.2397  1.9740  0.2421
 4133SOL    HW223859   1.026   0.094   6.491  2.3229 -0.5174  1.1120
 4134SOL     OW23860   2.088   2.440   5.646 -0.0184  0.3384 -0.2930
 4134SOL    HW123861   2.015   2.501   5.633 -0.5584 -0.6280 -1.8729
 4134SOL    HW223862   2.109   2.442   5.739  0.1524  1.6945 -0.3622
 4135SOL     OW23863   3.045   3.423   0.410 -0.0632 -0.5920  0.3406
 4135SOL    HW123864   3.010   3.385   0.329  0.6638  1.4274 -0.9365
 4135SOL    HW223865   3.080   3.344   0.450 -0.0467  0.9854  3.4078
 4136SOL     OW23866   3.480   1.126   2.388  0.2916 -0.1752 -0.1769
 4136SOL    HW123867   3.394   1.103   2.352 -0.9770  1.3755  1.8569
 4136SOL    HW223868   3.520   1.189   2.327  1.9240 -0.5116  0.5705
 4137SOL     OW23869   3.131   1.247  14.452 -0.4600  0.8421 -0.5424
 4137SOL    HW123870   3.147   1.298  14.372  1.2045 -2.4846 -2.3372
 4137SOL    HW223871   3.202   1.184  14.457 -0.2249  1.2609  1.1596
 4138SOL     OW23872   1.418   2.847   1.974 -0.0612  0.0442 -0.1194
 4138SOL    HW123873   1.477   2.779   2.006  1.6445  0.8527 -1.5393
 4138SOL    HW223874   1.354   2.849   2.045  0.8312 -3.7350  0.7788
 4139SOL     OW23875   3.002   1.413   6.656  0.2715 -0.1373  0.4936
 4139SOL    HW123876   3.023   1.460   6.575  0.0540 -0.0810  0.4675
 4139SOL    HW223877   3.012   1.471   6.732 -0.1024  0.1142  0.3554
 4140SOL     OW23878   1.549   4.182   3.439  0.8070 -0.5473  0.1635
 4140SOL    HW123879   1.611   4.250   3.414  0.3382 -0.6362 -1.2108
 4140SOL    HW223880   1.508   4.155   3.357  1.1676  0.7852 -0.4459
 4141SOL     OW23881   3.406   0.857  17.275  0.3737  0.2840  0.1186
 4141SOL    HW123882   3.311   0.845  17.270  0.5027 -0.4748 -0.5573
 4141SOL    HW223883   3.419   0.767  17.245 -1.7991 -0.3353  0.9894
 4142SOL     OW23884   2.805   4.720   3.393  0.3309  0.3404  0.0976
 4142SOL    HW123885   2.840   4.632   3.377 -0.6051 -0.2206  1.0912
 4142SOL    HW223886   2.827   0.005   3.486 -0.2324 -1.5747  0.4030
 4143SOL     OW23887   0.407   2.487   4.380  0.1377  0.8192 -0.2792
 4143SOL    HW123888   0.401   2.431   4.303  0.9544  1.3483 -0.7216
 4143SOL    HW223889   0.336   2.441   4.426 -0.2634  0.9096 -0.8128
 4144SOL     OW23890   2.162   2.581  15.477 -0.1491 -0.3053 -0.2311
 4144SOL    HW123891   2.118   2.499  15.501 -0.1561 -0.2684 -0.1183
 4144SOL    HW223892   2.248   2.541  15.477  1.0396  2.2249  0.9588
 4145SOL     OW23893   2.706   4.709   9.969  0.3574 -0.1031  0.1254
 4145SOL    HW123894   2.628   0.017   9.924  1.3712 -1.1496 -2.3538
 4145SOL    HW223895   2.670   4.683  10.053  0.2600  1.0121  0.4358
 4146SOL     OW23896   4.104   0.045  10.182  0.1360  0.2032  0.0978
 4146SOL    HW123897   4.025   0.070  10.230  0.9449  0.7187  1.1658
 4146SOL    HW223898   4.074   4.686  10.142 -0.3636  0.4015  0.0653
 4147SOL     OW23899   0.586   4.283  11.527  0.3149  1.2781 -0.4585
 4147SOL    HW123900   0.532   4.299  11.450 -0.4127 -1.7110 -0.5672
 4147SOL    HW223901   0.533   4.222  11.579 -0.9369  0.8062 -2.2927
 4148SOL     OW23902   2.278   0.650   4.568 -0.3036  0.3991  0.0776
 4148SOL    HW123903   2.285   0.715   4.638  0.6913  1.3260 -0.8979
 4148SOL    HW223904   2.310   0.571   4.611 -0.6317  0.8834  1.2182
 4149SOL     OW23905   3.703   1.145   7.121  0.5074 -0.0161  0.3180
 4149SOL    HW123906   3.631   1.113   7.176  0.9343  0.9756  1.4511
 4149SOL    HW223907   3.765   1.172   7.188  0.5053 -0.6030  0.5621
 4150SOL     OW23908   1.288   3.651   4.056 -0.2962 -0.1803 -0.3362
 4150SOL    HW123909   1.241   3.702   3.989 -0.6663 -0.1387 -0.0442
 4150SOL    HW223910   1.252   3.565   4.038  1.8467 -1.1933  0.2280
 4151SOL     OW23911   4.600   2.584   4.961  0.2566  0.0895 -0.1727
 4151SOL    HW123912   4.629   2.655   4.905  1.5028  1.5105  2.2809
 4151SOL    HW223913   4.676   2.572   5.018  1.2193 -0.4165 -1.5607
 4152SOL     OW23914   3.597   0.668  13.185  0.5175  0.1449 -0.5184
 4152SOL    HW123915   3.635   0.626  13.263 -0.0886 -0.3370 -0.4809
 4152SOL    HW223916   3.544   0.597  13.149  2.5011 -1.5508 -0.0985
 4153SOL     OW23917   0.696   0.817   7.777  0.0184  0.0337 -0.4777
 4153SOL    HW123918   0.673   0.755   7.846  1.2221  0.6828  0.5142
 4153SOL    HW223919   0.675   0.756   7.707  0.0306  0.6847 -1.0518
 4154SOL     OW23920   4.362   2.466   2.891 -0.3422 -0.0720 -0.0335
 4154SOL    HW123921   4.449   2.478   2.854 -0.7388 -0.0788 -0.9699
 4154SOL    HW223922   4.337   2.393   2.834  0.9414 -0.4556 -0.1064
 4155SOL     OW23923   3.228   1.683   8.451 -1.1667 -0.3405  0.2161
 4155SOL    HW123924   3.207   1.602   8.404 -1.4464 -1.0929  1.6432
 4155SOL    HW223925   3.158   1.738   8.416 -1.0753 -1.3267 -1.5485
 4156SOL     OW23926   3.139   0.028  14.758  0.0143  0.2958 -0.8483
 4156SOL    HW123927   3.234   0.041  14.756  0.1814 -0.7859  0.8108
 4156SOL    HW223928   3.115   0.113  14.720 -0.2423  0.7849  0.3999
 4157SOL     OW23929   3.180   3.627   4.540  0.0468  0.2324  0.4049
 4157SOL    HW123930   3.102   3.593   4.498  2.4578 -1.9941 -2.2804
 4157SOL    HW223931   3.144   3.707   4.578 -1.9060 -0.1753 -0.5960
 4158SOL     OW23932   2.006   4.148   3.997  0.0503  0.4238 -0.0743
 4158SOL    HW123933   1.935   4.098   4.037  1.0055  0.1489  1.2780
 4158SOL    HW223934   2.056   4.089   3.941  0.0978  0.3220  0.0742
 4159SOL     OW23935   3.401   2.292   7.442 -0.0391 -0.1692  0.0818
 4159SOL    HW123936   3.418   2.231   7.370  2.1678 -0.2326  0.6615
 4159SOL    HW223937   3.442   2.241   7.512  1.6050  0.7200 -0.2323
 4160SOL     OW23938   2.145   4.100   5.150 -0.0738 -0.3628 -0.1070
 4160SOL    HW123939   2.133   4.181   5.200 -0.9695 -1.1157  0.9055
 4160SOL    HW223940   2.059   4.059   5.160 -0.2508 -0.0630 -0.4218
 4161SOL     OW23941   1.459   3.232  13.385 -0.0919  0.0956  0.2185
 4161SOL    HW123942   1.394   3.165  13.364  0.3949 -1.1786  2.8093
 4161SOL    HW223943   1.453   3.236  13.480 -0.6884 -1.1719  0.2406
 4162SOL     OW23944   2.913   2.449   7.643 -0.8968 -0.1755  0.6933
 4162SOL    HW123945   2.911   2.395   7.721 -1.1586  0.1974  0.9444
 4162SOL    HW223946   2.840   2.411   7.594  0.6113 -1.6918 -0.3799
 4163SOL     OW23947   2.480   3.529  16.435  0.6698  0.2841 -0.3810
 4163SOL    HW123948   2.568   3.530  16.471  0.4155  2.1984  0.2164
 4163SOL    HW223949   2.499   3.486  16.352 -1.0339 -0.0236 -0.6164
 4164SOL     OW23950   1.461   1.372   9.060  0.4131 -0.0673 -0.9920
 4164SOL    HW123951   1.534   1.339   9.112 -1.3758  0.5882  1.9373
 4164SOL    HW223952   1.435   1.290   9.018  0.8392 -0.9657  0.4883
 4165SOL     OW23953   1.295   2.259   5.186 -0.3956 -1.0157  0.1859
 4165SOL    HW123954   1.229   2.329   5.190  0.8502  0.0955  1.3855
 4165SOL    HW223955   1.349   2.286   5.113 -0.1655  2.7605  1.7345
 4166SOL     OW23956   3.434   1.500  14.118 -0.0259 -0.0357  0.0760
 4166SOL    HW123957   3.365   1.442  14.149 -0.5906  1.2014  1.1765
 4166SOL    HW223958   3.504   1.480  14.181 -2.0582  0.7172  2.5881
 4167SOL     OW23959   2.379   4.491   1.796 -0.2790  0.2204  0.0873
 4167SOL    HW123960   2.306   4.440   1.761 -1.4979  1.2581  1.0870
 4167SOL    HW223961   2.457   4.470   1.746 -1.4526  2.4372 -2.6669
 4168SOL     OW23962   1.397   0.675   7.984  0.7998  0.4110  0.2045
 4168SOL    HW123963   1.446   0.725   7.919 -0.9841  3.1291  0.9396
 4168SOL    HW223964   1.413   0.584   7.959  0.7851  0.5265 -0.2191
 4169SOL     OW23965   3.783   0.625   2.172  0.6388 -0.9965 -0.0471
 4169SOL    HW123966   3.874   0.651   2.156  0.5780 -0.2372  0.8493
 4169SOL    HW223967   3.767   0.682   2.247  0.9579 -4.1036  2.3761
 4170SOL     OW23968   1.121   0.769   4.332  1.0206 -0.3650 -0.6700
 4170SOL    HW123969   1.202   0.743   4.287  2.2672  1.2922  0.6016
 4170SOL    HW223970   1.058   0.733   4.270  1.8360 -0.6725 -1.3378
 4171SOL     OW23971   4.290   4.720  10.373  0.4095  0.2845  0.1334
 4171SOL    HW123972   4.250   4.634  10.361 -1.2288  1.5468 -3.4622
 4171SOL    HW223973   4.232   0.036  10.308  1.9500 -0.5536 -1.7440
 4172SOL     OW23974   1.097   2.901   6.923 -0.2050 -0.1283 -0.1774
 4172SOL    HW123975   1.126   2.862   6.841 -1.0426  1.3808 -1.2006
 4172SOL    HW223976   1.132   2.835   6.983 -1.7843  1.2579  2.2613
 4173SOL     OW23977   2.678   2.401   2.747 -0.0247  1.1403 -0.1377
 4173SOL    HW123978   2.698   2.310   2.724  0.2316  0.7245  1.7114
 4173SOL    HW223979   2.722   2.412   2.831  0.2958 -0.4767 -0.0840
 4174SOL     OW23980   1.123   1.604   6.678 -0.3748  0.4326 -0.3729
 4174SOL    HW123981   1.171   1.571   6.753 -0.9160  0.4986  0.0008
 4174SOL    HW223982   1.146   1.534   6.617  0.9879 -0.3385  1.0240
 4175SOL     OW23983   4.189   2.972   5.874  0.4395  0.0500  0.4857
 4175SOL    HW123984   4.096   2.952   5.885  0.4970 -0.5421 -0.0968
 4175SOL    HW223985   4.186   2.999   5.783 -0.2219  2.0353  1.1051
 4176SOL     OW23986   1.788   3.435   2.549 -0.3086 -0.0444  0.3441
 4176SOL    HW123987   1.814   3.346   2.526 -0.7868 -0.5748  1.8301
 4176SOL    HW223988   1.871   3.483   2.545 -0.1264 -0.4053 -0.2206
 4177SOL     OW23989   2.294   3.145   3.540  0.1811  0.4812 -0.6771
 4177SOL    HW123990   2.300   3.239   3.558  1.7290  0.0858  0.8824
 4177SOL    HW223991   2.202   3.132   3.564  0.0125  1.8976 -0.5492
 4178SOL     OW23992   0.861   3.449   2.153 -0.0897 -0.0393  0.3611
 4178SOL    HW123993   0.900   3.429   2.238  1.7380  0.2245 -0.4181
 4178SOL    HW223994   0.839   3.361   2.121  1.2768 -0.5000  0.6968
 4179SOL     OW23995   0.403   0.446   3.083 -0.1474  0.7827 -0.4443
 4179SOL    HW123996   0.489   0.422   3.046 -0.8982 -1.1625 -0.9664
 4179SOL    HW223997   0.351   0.456   3.003 -0.5313  1.2018 -0.1359
 4180SOL     OW23998   2.436   0.969  15.353  0.0537 -0.0402  0.4089
 4180SOL    HW123999   2.486   1.041  15.391  1.9185 -1.8742  1.4541
 4180SOL    HW224000   2.478   0.980  15.267 -1.7595 -1.1776 -0.6190
 4181SOL     OW24001   3.361   2.909  14.532  1.1533 -0.3886 -0.8300
 4181SOL    HW124002   3.361   2.888  14.438  0.3520 -2.1794 -0.4206
 4181SOL    HW224003   3.411   2.839  14.573  3.7303  1.2111 -1.1802
 4182SOL     OW24004   2.827   0.608  17.479  0.3304 -0.4403 -0.1427
 4182SOL    HW124005   2.787   0.690  17.451  0.7148 -0.6990 -1.4431
 4182SOL    HW224006   2.794   0.597  17.568 -0.2124 -2.0852 -0.5547
 4183SOL     OW24007   3.448   0.528   7.332 -0.6358  0.1159  0.2671
 4183SOL    HW124008   3.402   0.528   7.416 -0.6685  0.4094  0.2474
 4183SOL    HW224009   3.535   0.559   7.355 -0.5939  0.5344 -0.4757
 4184SOL     OW24010   2.040   4.442   5.873 -0.0078 -0.7626 -0.3015
 4184SOL    HW124011   2.099   4.462   5.945 -0.8477  1.7462 -0.2870
 4184SOL    HW224012   2.067   4.491   5.795 -0.1221  0.5887  0.5127
 4185SOL     OW24013   0.849   0.759   6.387 -0.1712  0.4514 -0.4180
 4185SOL    HW124014   0.899   0.745   6.306 -0.6777  0.9177 -0.8162
 4185SOL    HW224015   0.883   0.682   6.433 -0.3013  0.9740  0.5518
 4186SOL     OW24016   0.748   2.146   7.478 -0.6696 -0.3917  0.0531
 4186SOL    HW124017   0.691   2.208   7.524 -0.2678 -0.5615  0.7821
 4186SOL    HW224018   0.831   2.153   7.525  0.3034 -2.6962 -1.2997
 4187SOL     OW24019   3.168   0.247   4.114  0.0001 -0.1241 -0.6814
 4187SOL    HW124020   3.102   0.196   4.065 -1.2817  0.5041  0.3805
 4187SOL    HW224021   3.248   0.209   4.078  1.7481 -1.4425  4.6667
 4188SOL     OW24022   1.806   0.681   7.922  0.1475 -0.1944  0.3344
 4188SOL    HW124023   1.878   0.693   7.860  1.3956 -1.5998  1.4952
 4188SOL    HW224024   1.735   0.695   7.860  0.2204  3.1871  0.9999
 4189SOL     OW24025   3.808   4.355  11.346  0.4143 -0.1212  0.3753
 4189SOL    HW124026   3.726   4.307  11.336  0.8929 -1.0934  1.0765
 4189SOL    HW224027   3.859   4.284  11.386  0.5091 -0.6996 -0.7728
 4190SOL     OW24028   1.453   4.164   1.749 -0.4797 -0.2102 -0.0098
 4190SOL    HW124029   1.486   4.093   1.804 -0.9465 -0.5984 -0.2369
 4190SOL    HW224030   1.384   4.117   1.703 -1.7897  0.3894  1.3441
 4191SOL     OW24031   0.327   3.867   5.785  0.0386 -0.2031 -0.0810
 4191SOL    HW124032   0.366   3.954   5.777  0.0658 -0.2676 -0.6555
 4191SOL    HW224033   0.321   3.836   5.695 -0.5705 -0.8690  0.1924
 4192SOL     OW24034   0.390   4.133   4.872  0.1898  0.1629  0.3529
 4192SOL    HW124035   0.452   4.203   4.892 -2.8453  2.1076  2.9752
 4192SOL    HW224036   0.323   4.151   4.938  1.4033 -0.7490  1.8314
 4193SOL     OW24037   0.380   0.972   3.661  0.8814 -0.7673 -0.0130
 4193SOL    HW124038   0.332   0.945   3.739  0.0043 -0.2343 -0.3539
 4193SOL    HW224039   0.460   1.009   3.699  0.4670  1.2395 -1.0551
 4194SOL     OW24040   4.434   0.475   0.214 -0.4876  0.6159 -0.1822
 4194SOL    HW124041   4.430   0.466   0.310  1.6613 -1.3091 -0.2476
 4194SOL    HW224042   4.508   0.535   0.213 -0.3423  0.4638  1.1684
 4195SOL     OW24043   3.011   2.140   0.794 -0.4902 -0.0520 -0.1100
 4195SOL    HW124044   2.944   2.151   0.861  1.1755  2.5719  1.1008
 4195SOL    HW224045   2.988   2.200   0.723  1.1240  0.6074 -0.0736
 4196SOL     OW24046   2.496   4.597  15.108  0.0193 -0.0507  0.4486
 4196SOL    HW124047   2.460   4.669  15.160  0.9303  1.6058 -1.2096
 4196SOL    HW224048   2.526   4.536  15.176  0.3835  1.6658  1.8220
 4197SOL     OW24049   3.344   4.438  10.747 -0.0301  0.1974 -0.1527
 4197SOL    HW124050   3.298   4.391  10.677  2.0618 -0.3522 -1.1817
 4197SOL    HW224051   3.340   4.369  10.814 -0.6097 -0.9051 -1.3116
 4198SOL     OW24052   2.712   2.758   3.619  0.3488 -0.0044  0.2910
 4198SOL    HW124053   2.732   2.676   3.574  2.1122 -0.1687  1.4026
 4198SOL    HW224054   2.648   2.735   3.686  2.1758 -1.9654  1.3478
 4199SOL     OW24055   4.041   4.666   7.492  0.5756 -0.0224 -0.0109
 4199SOL    HW124056   4.050   0.025   7.443  2.0532  0.3614  0.9062
 4199SOL    HW224057   3.955   4.636   7.462  1.5935 -2.1845 -0.7633
 4200SOL     OW24058   3.017   4.554   3.862 -0.0826  0.5369 -0.3394
 4200SOL    HW124059   3.076   4.521   3.794  0.2583 -1.2317  0.8248
 4200SOL    HW224060   2.976   4.470   3.883 -0.3265  0.9150  0.7142
 4201SOL     OW24061   1.351   2.575   3.132  0.0885 -0.1150 -0.0590
 4201SOL    HW124062   1.374   2.498   3.184  0.0022  0.3415  0.6558
 4201SOL    HW224063   1.323   2.637   3.200  0.1197  0.3507 -0.4694
 4202SOL     OW24064   4.396   0.189   2.079 -0.0235  0.0997  0.1271
 4202SOL    HW124065   4.446   0.240   2.144  0.4999  1.0462 -1.0015
 4202SOL    HW224066   4.433   0.229   2.000 -0.9985 -0.5365 -0.6497
 4203SOL     OW24067   3.299   4.389   7.118  0.2924 -0.3691 -0.1509
 4203SOL    HW124068   3.272   4.309   7.162  2.5256 -1.1590 -0.2510
 4203SOL    HW224069   3.378   4.368   7.069  0.3779 -0.2672 -0.0570
 4204SOL     OW24070   1.972   0.544   0.237  0.0817 -0.0986 -0.0860
 4204SOL    HW124071   1.952   0.637   0.249 -0.4334  0.1889 -3.0976
 4204SOL    HW224072   2.067   0.544   0.253  0.0682  0.6248  0.0324
 4205SOL     OW24073   0.443   0.066   3.051 -0.0651 -0.3074 -0.1270
 4205SOL    HW124074   0.409   4.707   3.016  1.1351 -0.4950 -0.8622
 4205SOL    HW224075   0.536   0.045   3.042 -0.5263 -3.4315  2.2439
 4206SOL     OW24076   2.976   2.121  13.003  0.1877  0.4269 -0.3162
 4206SOL    HW124077   3.056   2.099  13.051 -0.5441 -1.9087 -0.1408
 4206SOL    HW224078   3.010   2.101  12.915 -1.0263  0.3178 -0.7648
 4207SOL     OW24079   3.276   2.410   5.197  0.4703 -0.2117 -0.3158
 4207SOL    HW124080   3.359   2.440   5.235  0.4499 -0.7617  0.1795
 4207SOL    HW224081   3.275   2.454   5.112 -0.6549  0.2359 -0.0708
 4208SOL     OW24082   3.526   3.090   6.849 -0.7490  0.2866  0.0074
 4208SOL    HW124083   3.539   2.998   6.872 -1.2208  0.5871  1.5112
 4208SOL    HW224084   3.619   3.111   6.846 -0.3421 -1.4299  0.3951
 4209SOL     OW24085   0.220   2.809  13.281 -0.6028 -0.3475 -0.0671
 4209SOL    HW124086   0.182   2.771  13.201 -0.0559 -1.7887  0.3495
 4209SOL    HW224087   0.146   2.791  13.339  0.9243 -2.1681  1.3060
 4210SOL     OW24088   2.196   4.205  15.653 -0.2775 -0.0957 -0.0109
 4210SOL    HW124089   2.152   4.251  15.581  1.4387  0.7664 -0.5085
 4210SOL    HW224090   2.124   4.198  15.716 -0.7707  0.6761 -0.4841
 4211SOL     OW24091   3.810   3.651   2.767  0.3031  0.5640  0.2186
 4211SOL    HW124092   3.778   3.593   2.698  0.5841  0.5681  0.0841
 4211SOL    HW224093   3.809   3.738   2.727 -1.1510  0.9230  1.0031
 4212SOL     OW24094   2.455   3.892   0.607  0.1059 -0.3944  0.1508
 4212SOL    HW124095   2.544   3.874   0.636 -0.5317 -1.9455  1.1106
 4212SOL    HW224096   2.472   3.905   0.513  2.1303  1.0793  0.7257
 4213SOL     OW24097   0.877   4.002   0.056 -0.1023  0.2486  0.0646
 4213SOL    HW124098   0.864   3.923   0.003 -0.6147  0.9144 -0.8125
 4213SOL    HW224099   0.891   4.061  17.675 -0.2190  1.0415  0.6779
 4214SOL     OW24100   2.580   3.520  12.020  0.6353 -0.0707 -0.1024
 4214SOL    HW124101   2.587   3.426  12.033  1.3686 -0.1177 -0.8581
 4214SOL    HW224102   2.608   3.543  11.932 -1.0774  0.2451 -0.5592
 4215SOL     OW24103   3.082   3.098   3.421 -0.2882  0.2280  0.3802
 4215SOL    HW124104   2.988   3.114   3.432 -0.0017  3.0155 -1.0641
 4215SOL    HW224105   3.110   3.162   3.356  2.9861 -0.1436  1.4269
 4216SOL     OW24106   3.835   2.217   9.341  0.1716  0.0752 -0.5576
 4216SOL    HW124107   3.838   2.129   9.302  1.4591 -0.3293  0.4507
 4216SOL    HW224108   3.742   2.228   9.320 -0.2133  0.3321  1.3172
 4217SOL     OW24109   2.445   4.074   4.854 -0.1145 -0.8047  0.5616
 4217SOL    HW124110   2.497   4.040   4.781 -2.4145 -3.3330  0.1029
 4217SOL    HW224111   2.460   4.168   4.843 -3.9833 -0.1847  0.7306
 4218SOL     OW24112   1.613   0.650   8.396  0.0460 -0.0035 -0.3655
 4218SOL    HW124113   1.645   0.611   8.314 -1.8826 -1.9668 -0.1749
 4218SOL    HW224114   1.610   0.577   8.458  1.1332  1.9328  1.9495
 4219SOL     OW24115   3.549   3.090  15.790  0.2310  0.3933  0.6844
 4219SOL    HW124116   3.479   3.133  15.741  1.6172  1.8454 -0.0240
 4219SOL    HW224117   3.628   3.142  15.776  0.7088 -0.9524 -1.5876
 4220SOL     OW24118   3.373   0.599  17.692 -0.2641  0.0416  0.0131
 4220SOL    HW124119   3.467   0.588   0.012  0.0255 -0.8454 -2.5768
 4220SOL    HW224120   3.368   0.659  17.617 -3.9772 -1.5335 -0.9967
 4221SOL     OW24121   1.004   1.686   1.448  0.0887  0.1816 -0.2417
 4221SOL    HW124122   0.971   1.741   1.519 -1.2077  0.2028 -0.8717
 4221SOL    HW224123   1.035   1.612   1.501  2.0095 -0.9369 -2.8875
 4222SOL     OW24124   3.436   2.811   0.095  0.3021  0.2317  0.0885
 4222SOL    HW124125   3.400   2.776   0.176 -2.6285  0.8692 -0.9288
 4222SOL    HW224126   3.529   2.811   0.119  0.3160 -0.0013  0.0363
 4223SOL     OW24127   3.118   3.417  13.788  0.3140 -0.2805  0.2420
 4223SOL    HW124128   3.050   3.460  13.736 -1.3263 -1.0493  1.7480
 4223SOL    HW224129   3.184   3.486  13.789  0.3229 -0.2462 -1.9807
 4224SOL     OW24130   1.544   2.425  12.306  0.1535  0.0862  0.4974
 4224SOL    HW124131   1.456   2.388  12.300  0.5083 -0.9694  1.8919
 4224SOL    HW224132   1.537   2.480  12.228  0.4252 -0.2427  0.2436
 4225SOL     OW24133   1.443   0.228  13.194  0.6630 -0.3722  0.2032
 4225SOL    HW124134   1.426   0.150  13.246 -2.4575  0.5378  0.5747
 4225SOL    HW224135   1.487   0.192  13.117 -0.7809  0.2353 -0.9080
 4226SOL     OW24136   3.221   2.811   2.611 -0.3034  0.3150 -0.0621
 4226SOL    HW124137   3.224   2.728   2.565  0.4674 -0.2388  1.0098
 4226SOL    HW224138   3.173   2.866   2.549 -0.2502 -0.7089 -1.0040
 4227SOL     OW24139   0.912   0.529   7.547  0.0208 -0.7535 -0.4112
 4227SOL    HW124140   0.957   0.609   7.523 -2.1446  1.1101  1.7356
 4227SOL    HW224141   0.926   0.520   7.641 -1.1546  0.6084 -0.1121
 4228SOL     OW24142   3.206   1.023  11.873 -0.2861 -0.4592 -0.0721
 4228SOL    HW124143   3.201   0.948  11.814 -0.0705 -1.4713  1.1748
 4228SOL    HW224144   3.222   1.089  11.806 -1.4217 -1.2051 -1.0807
 4229SOL     OW24145   2.748   2.375   9.941 -0.2596 -0.2550  0.7929
 4229SOL    HW124146   2.707   2.306   9.993 -0.3941  0.5662  1.7780
 4229SOL    HW224147   2.827   2.330   9.913  0.0876  0.0833  1.2303
 4230SOL     OW24148   2.905   4.417   7.007  0.8834 -0.4746  0.0198
 4230SOL    HW124149   2.869   4.384   7.089 -2.5387  2.1654 -0.4099
 4230SOL    HW224150   2.988   4.456   7.033 -0.6169  3.3453 -0.9637
 4231SOL     OW24151   0.812   2.175   3.104 -0.1062  0.2230  0.0092
 4231SOL    HW124152   0.767   2.257   3.123  1.0458  1.4599 -2.4825
 4231SOL    HW224153   0.797   2.121   3.182  1.4048 -1.0250 -0.5588
 4232SOL     OW24154   2.042   1.901   3.308 -0.3456 -0.0144  0.3775
 4232SOL    HW124155   2.061   1.991   3.335 -0.2065 -0.6648  2.5016
 4232SOL    HW224156   2.094   1.848   3.368 -0.2861 -0.7348 -0.3181
 4233SOL     OW24157   3.533   1.965   4.889  0.1775  0.1269  0.4262
 4233SOL    HW124158   3.518   2.051   4.849 -0.2889  0.2176  0.7950
 4233SOL    HW224159   3.468   1.951   4.958  0.4320 -0.4248  0.5532
 4234SOL     OW24160   2.558   0.031   2.993  0.2165  0.1193  0.5780
 4234SOL    HW124161   2.547   0.013   2.900  2.3245  0.6083  0.2506
 4234SOL    HW224162   2.554   4.667   3.033  0.8022  0.2164  0.8527
 4235SOL     OW24163   0.714   3.326   7.130 -0.3330 -0.3876  0.1165
 4235SOL    HW124164   0.741   3.321   7.039  0.7443 -0.8971  0.4610
 4235SOL    HW224165   0.721   3.236   7.162 -2.5070  0.2911  2.5342
 4236SOL     OW24166   3.324   0.309   2.898  0.0988  0.1140  0.6863
 4236SOL    HW124167   3.318   0.328   2.992  1.1841 -0.1049  0.8020
 4236SOL    HW224168   3.234   0.330   2.872 -0.3117 -0.3991  1.6835
 4237SOL     OW24169   1.090   0.850   8.607 -0.5518 -0.0152 -0.2159
 4237SOL    HW124170   1.155   0.843   8.537 -0.1908 -0.0077  0.1212
 4237SOL    HW224171   1.025   0.781   8.590  1.7685 -1.6827 -2.3093
 4238SOL     OW24172   3.077   1.736   1.712  0.4269  0.6455  0.0480
 4238SOL    HW124173   3.044   1.773   1.631 -0.5073  0.7929  0.4962
 4238SOL    HW224174   3.044   1.806   1.768 -0.7394  0.8671 -0.9462
 4239SOL     OW24175   4.090   0.266  10.399  0.2523  0.4548 -0.6876
 4239SOL    HW124176   4.172   0.311  10.380  1.1612 -2.1400 -3.0459
 4239SOL    HW224177   4.032   0.304  10.333  1.8191 -0.7126 -2.7278
 4240SOL     OW24178   1.524   4.447   1.303 -0.7025 -0.8417  0.3007
 4240SOL    HW124179   1.484   4.526   1.337  0.0702  1.0601 -3.1554
 4240SOL    HW224180   1.547   4.474   1.214  1.4908 -1.6920  0.6182
 4241SOL     OW24181   2.535   0.540   5.530 -0.5973 -0.2243  0.0983
 4241SOL    HW124182   2.621   0.530   5.488 -0.5187 -1.9352  0.6506
 4241SOL    HW224183   2.533   0.467   5.592 -3.0844 -0.3343 -0.1262
 4242SOL     OW24184   4.610   4.105  16.654  0.2595  0.0778  0.1766
 4242SOL    HW124185   4.674   4.065  16.594  2.3789  1.7388  1.3188
 4242SOL    HW224186   4.590   4.184  16.604  1.4062 -0.0286 -0.4661
 4243SOL     OW24187   1.315   3.945   9.666  0.1852  0.2072 -0.0117
 4243SOL    HW124188   1.321   3.878   9.735 -0.0263 -0.6340 -0.8119
 4243SOL    HW224189   1.366   4.013   9.711  2.1402 -0.3519 -1.3904
 4244SOL     OW24190   3.624   3.928  16.292 -0.0909  0.1204 -0.2025
 4244SOL    HW124191   3.667   3.850  16.328  1.5935  0.6760 -1.0064
 4244SOL    HW224192   3.697   3.973  16.249 -0.2464 -0.0212 -0.6123
 4245SOL     OW24193   3.020   4.652   0.968  0.2979 -0.2496 -0.2571
 4245SOL    HW124194   2.963   4.636   1.044  1.1957 -0.7162  0.3236
 4245SOL    HW224195   3.076   4.575   0.965 -1.0711 -1.3455  2.5736
 4246SOL     OW24196   3.335   0.285   5.144 -0.1669 -0.3076 -0.3956
 4246SOL    HW124197   3.285   0.213   5.108  0.7284 -1.6241  1.0150
 4246SOL    HW224198   3.421   0.249   5.168  0.2072  0.6561 -0.2673
 4247SOL     OW24199   0.968   0.278   4.011 -0.1090  0.4748 -0.5506
 4247SOL    HW124200   1.035   0.225   4.053 -1.5729  0.1554  1.3519
 4247SOL    HW224201   0.896   0.265   4.072  0.2595 -0.9598 -0.4286
 4248SOL     OW24202   0.401   4.578   9.513 -0.5096  0.2434  0.0829
 4248SOL    HW124203   0.382   4.541   9.599 -1.6328 -1.0731 -0.7280
 4248SOL    HW224204   0.465   4.640   9.546  1.3372  0.5894 -4.1317
 4249SOL     OW24205   0.298   1.904   5.333  0.7306 -0.6987  0.1500
 4249SOL    HW124206   0.345   1.900   5.250  0.2809 -0.3903 -0.1219
 4249SOL    HW224207   0.243   1.826   5.332 -0.8407  0.4049 -0.1563
 4250SOL     OW24208   0.291   2.368   5.734  0.1126  0.6407  0.4860
 4250SOL    HW124209   0.318   2.406   5.818  0.1304  0.0060  0.7676
 4250SOL    HW224210   0.258   2.288   5.776  1.7474 -1.1691 -1.6875
 4251SOL     OW24211   4.074   2.388   1.142 -0.1411 -0.0380  0.3994
 4251SOL    HW124212   4.054   2.296   1.121  0.6883 -0.8623  3.3009
 4251SOL    HW224213   4.041   2.433   1.064 -3.1895 -1.7641  0.6680
 4252SOL     OW24214   3.982   2.886  17.344  0.3029 -0.3881 -0.7054
 4252SOL    HW124215   3.907   2.921  17.393 -0.3322 -0.4340 -1.6244
 4252SOL    HW224216   3.946   2.885  17.255 -1.3110  0.7514 -0.0767
 4253SOL     OW24217   3.919   0.822   8.653  1.3111  0.2203 -0.1647
 4253SOL    HW124218   3.840   0.781   8.690 -0.1543  2.1847 -1.1510
 4253SOL    HW224219   3.978   0.748   8.666 -0.5413 -0.8467  2.1877
 4254SOL     OW24220   1.603   0.260   7.349  0.3047  0.0668 -0.3310
 4254SOL    HW124221   1.508   0.266   7.333  0.0681 -1.7980  0.3881
 4254SOL    HW224222   1.614   0.185   7.406 -0.8972 -0.7729 -1.1946
 4255SOL     OW24223   3.852   0.559   4.974  0.1030 -0.3605  0.0707
 4255SOL    HW124224   3.933   0.597   5.010 -0.3027  0.5767  0.0102
 4255SOL    HW224225   3.851   0.467   4.998  0.4233  0.0113  1.5179
 4256SOL     OW24226   3.937   3.513   7.187 -0.3620 -0.2538 -0.1906
 4256SOL    HW124227   3.988   3.593   7.200 -0.3098 -0.6430  2.0367
 4256SOL    HW224228   3.899   3.505   7.274 -0.3202 -0.9563 -0.2375
 4257SOL     OW24229   3.529   3.265   5.567 -0.1921  0.0145  0.0165
 4257SOL    HW124230   3.568   3.178   5.563  2.5034  1.1435  1.6916
 4257SOL    HW224231   3.541   3.290   5.476  2.8664 -1.8019 -0.0859
 4258SOL     OW24232   3.813   1.320   6.350  0.3310  0.2957 -0.0038
 4258SOL    HW124233   3.779   1.388   6.291 -2.2815 -0.1633  0.9574
 4258SOL    HW224234   3.731   1.282   6.382  0.2337  0.6124  0.1293
 4259SOL     OW24235   0.533   1.597   1.720 -0.0034 -0.2636  0.2241
 4259SOL    HW124236   0.600   1.594   1.653 -0.4313  0.5403 -0.2323
 4259SOL    HW224237   0.588   1.606   1.797  1.5482  3.4818 -1.3591
 4260SOL     OW24238   1.085   4.410   7.584  0.1039 -0.7532 -0.3184
 4260SOL    HW124239   0.991   4.412   7.603 -0.1092  1.1933 -1.5827
 4260SOL    HW224240   1.103   4.321   7.612 -0.8651 -0.4009  1.4623
 4261SOL     OW24241   0.964   2.149   3.526 -0.0776 -0.3400 -0.2925
 4261SOL    HW124242   0.913   2.128   3.604 -1.7595 -1.0703 -1.6108
 4261SOL    HW224243   0.972   2.243   3.547  0.1126 -0.8035  1.7705
 4262SOL     OW24244   2.208   0.312   5.534 -0.3557 -0.2649 -0.3210
 4262SOL    HW124245   2.139   0.247   5.546  0.0621 -1.2878 -3.4324
 4262SOL    HW224246   2.274   0.252   5.499  0.0736  0.8616 -1.4201
 4263SOL     OW24247   3.417   0.921   4.195 -0.0800  0.3129 -0.2375
 4263SOL    HW124248   3.489   0.881   4.245  1.0298  0.6369 -1.5722
 4263SOL    HW224249   3.426   0.860   4.121  1.9053 -0.4005  0.5819
 4264SOL     OW24250   1.219   3.187   3.991  0.3776  0.1747  0.1278
 4264SOL    HW124251   1.194   3.122   4.057  2.2162  0.1966  0.8356
 4264SOL    HW224252   1.209   3.141   3.908 -0.6527  0.1177  0.2796
 4265SOL     OW24253   1.909   2.967   2.200 -0.4294 -0.4813 -0.0863
 4265SOL    HW124254   1.837   3.024   2.174 -0.0109 -0.4873 -1.2896
 4265SOL    HW224255   1.957   3.014   2.268  0.8038 -0.1812 -1.1534
 4266SOL     OW24256   0.082   3.678   5.845 -0.0349  0.1406 -0.4926
 4266SOL    HW124257   0.169   3.714   5.827 -0.4658  0.9446 -0.9759
 4266SOL    HW224258   0.053   3.675   5.754  1.8544 -2.0565 -1.0228
 4267SOL     OW24259   3.112   0.769   4.315  0.5401  0.0902 -0.6772
 4267SOL    HW124260   3.062   0.806   4.242  1.0423 -0.1248 -1.1269
 4267SOL    HW224261   3.080   0.680   4.301 -0.6998  0.5451 -0.7131
 4268SOL     OW24262   2.779   2.626   6.653  0.4502 -0.4495  0.4477
 4268SOL    HW124263   2.870   2.656   6.645  0.2620  0.2349  0.8142
 4268SOL    HW224264   2.787   2.591   6.742 -0.2419 -2.3784 -0.2580
 4269SOL     OW24265   2.150   3.598   7.773  0.5035  0.4796  0.2318
 4269SOL    HW124266   2.212   3.540   7.729 -0.2189 -0.1611  0.0498
 4269SOL    HW224267   2.103   3.640   7.700  2.4326  0.8387 -0.8053
 4270SOL     OW24268   3.681   4.659   8.809  0.3067 -0.1995 -0.3815
 4270SOL    HW124269   3.669   4.606   8.730 -0.6184 -0.3986 -0.1037
 4270SOL    HW224270   3.761   4.620   8.843  0.4149 -0.2241 -0.6641
 4271SOL     OW24271   1.719   3.146   0.832 -0.4446  0.3756  0.4516
 4271SOL    HW124272   1.631   3.182   0.822 -0.2964  0.4698 -0.6226
 4271SOL    HW224273   1.718   3.133   0.926 -1.0674 -0.4904  0.3259
 4272SOL     OW24274   0.310   1.840   2.243 -0.0899  0.0820  0.1811
 4272SOL    HW124275   0.334   1.760   2.290 -0.0657  0.7088  1.2580
 4272SOL    HW224276   0.221   1.814   2.221 -0.0464 -0.6779  0.8852
 4273SOL     OW24277   4.253   0.216   2.347  1.0564 -0.0363 -0.4455
 4273SOL    HW124278   4.325   0.182   2.401 -0.6872 -0.4456  1.6410
 4273SOL    HW224279   4.267   0.310   2.346 -0.0971  0.1424 -0.2625
 4274SOL     OW24280   2.427   3.431   2.786  0.3150 -1.0206 -0.4999
 4274SOL    HW124281   2.441   3.518   2.823 -0.9325 -1.3403  0.6948
 4274SOL    HW224282   2.343   3.398   2.817  0.4059  0.2520  1.0799
 4275SOL     OW24283   2.212   1.778   1.395  0.2140 -0.1173 -0.0109
 4275SOL    HW124284   2.190   1.685   1.383  0.8229 -0.0776 -1.4261
 4275SOL    HW224285   2.273   1.788   1.322  1.1114  0.1063  0.7738
 4276SOL     OW24286   1.857   2.016  12.391  0.1440  1.0015  0.3158
 4276SOL    HW124287   1.868   2.055  12.304  2.7153  1.0656  0.6618
 4276SOL    HW224288   1.766   1.988  12.378  0.4972  0.2524 -0.5336
 4277SOL     OW24289   4.426   2.910  14.651 -0.1443  0.0260  0.3666
 4277SOL    HW124290   4.464   2.880  14.733  0.5397 -1.3814 -0.4583
 4277SOL    HW224291   4.509   2.905  14.603 -0.4027  2.2669 -0.3136
 4278SOL     OW24292   0.822   1.328   2.760 -0.1433 -0.1014  0.0573
 4278SOL    HW124293   0.811   1.283   2.844 -0.2075 -1.5080 -0.7153
 4278SOL    HW224294   0.886   1.399   2.765 -1.5417  1.1581  0.3611
 4279SOL     OW24295   3.834   3.736  16.872  1.1332  0.0597 -0.0102
 4279SOL    HW124296   3.808   3.827  16.860  1.1420  0.0839  0.1586
 4279SOL    HW224297   3.884   3.732  16.953  2.3323  1.2141 -0.7116
 4280SOL     OW24298   2.475   2.164   4.147 -0.5518  0.1354 -0.1911
 4280SOL    HW124299   2.540   2.096   4.163  0.7025  1.2959 -0.3438
 4280SOL    HW224300   2.498   2.233   4.210  2.4040 -1.3451  0.3280
 4281SOL     OW24301   2.279   1.343   8.144 -0.1957 -0.2933 -0.2903
 4281SOL    HW124302   2.347   1.302   8.090  0.8824  1.4725 -0.2615
 4281SOL    HW224303   2.199   1.345   8.091  0.6105  0.3068 -1.4971
 4282SOL     OW24304   4.384   0.677   3.488 -0.2682  0.3007  0.0244
 4282SOL    HW124305   4.454   0.732   3.452  0.3736 -0.6523 -0.1685
 4282SOL    HW224306   4.313   0.737   3.466 -0.2082 -0.3648 -1.9980
 4283SOL     OW24307   4.382   2.743   6.295 -0.6664  0.2448  0.0102
 4283SOL    HW124308   4.478   2.749   6.293 -0.5972 -0.1909  3.1458
 4283SOL    HW224309   4.368   2.716   6.204 -0.2709 -1.9806  0.6041
 4284SOL     OW24310   0.183   3.011   6.640  0.4318 -0.0361  0.3228
 4284SOL    HW124311   0.179   2.916   6.650 -2.2252  0.1667  1.1657
 4284SOL    HW224312   0.095   3.027   6.607  0.3411  0.6832  0.9120
 4285SOL     OW24313   1.474   3.548  10.729 -0.1690  0.3774  0.2271
 4285SOL    HW124314   1.453   3.501  10.648  0.4328 -1.9323  1.4122
 4285SOL    HW224315   1.399   3.526  10.784 -0.5608 -2.4975 -1.4816
 4286SOL     OW24316   0.972   3.486   5.038  0.1426 -0.2653 -0.2033
 4286SOL    HW124317   0.887   3.529   5.047 -1.3094 -3.0362 -0.6619
 4286SOL    HW224318   0.964   3.500   4.943  1.5307 -0.8757 -0.4059
 4287SOL     OW24319   0.522   3.138   4.682 -0.1075 -0.1973 -0.2963
 4287SOL    HW124320   0.526   3.189   4.602 -0.3016 -0.1659 -0.2858
 4287SOL    HW224321   0.593   3.180   4.731 -0.4705  0.3663 -0.2488
 4288SOL     OW24322   1.598   0.095   9.970  0.1816 -0.0322 -0.0874
 4288SOL    HW124323   1.675   0.100  10.027 -0.8619 -0.5365  1.3781
 4288SOL    HW224324   1.525   0.071  10.027  0.6171 -3.0831 -0.7960
 4289SOL     OW24325   1.810   3.628   3.428 -0.0976 -0.0867  0.3788
 4289SOL    HW124326   1.891   3.666   3.464  0.4528 -0.8386 -0.0872
 4289SOL    HW224327   1.761   3.710   3.418  1.9683  1.0313 -0.8020
 4290SOL     OW24328   4.469   3.549   7.398  0.0007  0.5596 -0.7115
 4290SOL    HW124329   4.415   3.471   7.388 -0.7888  1.0777 -0.5009
 4290SOL    HW224330   4.402   3.613   7.422 -0.6942 -0.4592  0.0479
 4291SOL     OW24331   4.644   2.114   3.905 -0.4651 -0.1361  0.1378
 4291SOL    HW124332   4.694   2.104   3.986 -0.3021  2.9201  0.4279
 4291SOL    HW224333   4.559   2.103   3.946 -0.9558 -2.1444 -1.4228
 4292SOL     OW24334   2.159   1.131   9.011 -0.6122 -0.1989  0.2660
 4292SOL    HW124335   2.172   1.037   9.007 -3.6783 -0.6250  0.1501
 4292SOL    HW224336   2.159   1.149   9.105  5.0853 -1.0363  0.3965
 4293SOL     OW24337   1.435   0.147   7.044  0.3052 -0.2788 -0.1636
 4293SOL    HW124338   1.505   0.208   7.019 -0.3123  0.6546  0.3605
 4293SOL    HW224339   1.419   0.179   7.133 -0.1625 -0.9299 -0.0196
 4294SOL     OW24340   2.421   0.686   5.852  0.8764  0.1604 -0.5392
 4294SOL    HW124341   2.346   0.643   5.811  0.8999 -0.7090  0.3602
 4294SOL    HW224342   2.496   0.657   5.800  1.2334 -1.3197  0.8270
 4295SOL     OW24343   0.868   3.689   8.139 -0.1860 -0.4893  0.1728
 4295SOL    HW124344   0.849   3.756   8.205  0.7838  1.4358 -1.5412
 4295SOL    HW224345   0.817   3.615   8.174 -1.5075  1.2607  1.9922
 4296SOL     OW24346   3.838   2.456   6.040 -0.2905  0.5018  0.2666
 4296SOL    HW124347   3.906   2.510   6.000 -0.1563 -0.0484 -0.2476
 4296SOL    HW224348   3.845   2.479   6.133 -0.2407 -1.5509  0.7704
 4297SOL     OW24349   1.784   1.382   8.433  0.3308 -0.1233 -0.1194
 4297SOL    HW124350   1.767   1.476   8.424  1.1839  0.1469  1.1644
 4297SOL    HW224351   1.802   1.361   8.341 -0.2772  1.3478 -0.5862
 4298SOL     OW24352   0.246   2.363   8.491 -0.1065 -0.0529  0.5752
 4298SOL    HW124353   0.302   2.440   8.477  0.2772 -0.6337 -1.0554
 4298SOL    HW224354   0.180   2.378   8.424 -0.6256 -1.7925  0.7168
 4299SOL     OW24355   4.563   0.884   4.337  0.1963 -0.2906 -0.1412
 4299SOL    HW124356   4.626   0.813   4.348 -0.9054 -1.2350  0.1497
 4299SOL    HW224357   4.566   0.930   4.420 -0.9157 -1.8397  0.7411
 4300SOL     OW24358   1.436   1.579   6.375 -0.0422 -0.1646  0.0941
 4300SOL    HW124359   1.467   1.527   6.449  0.6179 -0.9870 -0.7508
 4300SOL    HW224360   1.399   1.650   6.427  0.4904  0.8261 -0.8689
 4301SOL     OW24361   3.993   3.496   2.861 -0.6085 -0.0313  0.2196
 4301SOL    HW124362   3.924   3.557   2.835  0.1064 -0.2476 -2.2641
 4301SOL    HW224363   3.940   3.423   2.890  0.8202 -1.9796 -2.0285
 4302SOL     OW24364   2.351   4.405   2.058 -0.0297  0.0144 -0.4879
 4302SOL    HW124365   2.354   4.479   1.997 -0.1643  0.3842 -0.0421
 4302SOL    HW224366   2.345   4.326   2.003 -1.1193 -0.7747  0.7687
 4303SOL     OW24367   1.607   0.531   0.029  0.0947 -0.0835  0.8474
 4303SOL    HW124368   1.556   0.464   0.075  0.5504  1.2502  3.3007
 4303SOL    HW224369   1.690   0.485   0.034  0.6409  0.7527 -0.4822
 4304SOL     OW24370   1.956   2.839   1.982  0.6128 -0.1688  0.0225
 4304SOL    HW124371   1.950   2.875   2.071  0.8809  3.0493 -1.2534
 4304SOL    HW224372   1.888   2.885   1.933 -0.2403 -1.6995 -0.2122
 4305SOL     OW24373   3.642   3.370   5.014  0.3077 -0.2383 -0.3171
 4305SOL    HW124374   3.604   3.283   5.003 -0.3148 -0.1640  1.3843
 4305SOL    HW224375   3.691   3.358   5.095 -0.6031 -2.2502 -0.0749
 4306SOL     OW24376   3.741   3.020   2.935 -0.2949  0.4135 -0.1889
 4306SOL    HW124377   3.743   3.070   3.017  3.9544  3.1664 -1.9880
 4306SOL    HW224378   3.654   2.979   2.937 -0.1128 -0.0462 -1.4738
 4307SOL     OW24379   1.714   2.615   1.158  0.7290 -0.1810  0.5895
 4307SOL    HW124380   1.741   2.698   1.197 -0.5129  0.3262  0.3708
 4307SOL    HW224381   1.753   2.635   1.073 -1.7894 -0.6896 -0.6900
 4308SOL     OW24382   2.520   0.090   5.804 -0.0295 -0.0774 -0.5358
 4308SOL    HW124383   2.425   0.081   5.804  0.1127 -1.6591  0.7946
 4308SOL    HW224384   2.546   0.059   5.891 -0.4254  0.3339 -0.2729
 4309SOL     OW24385   0.207   1.226  11.536  0.6823 -0.1569  0.2499
 4309SOL    HW124386   0.234   1.314  11.563 -0.5225  0.1636  0.3859
 4309SOL    HW224387   0.187   1.249  11.445  0.6667  1.4630  0.6518
 4310SOL     OW24388   2.707   3.409   3.018 -0.5551  0.3241  0.0846
 4310SOL    HW124389   2.714   3.445   3.107 -1.9461  2.0711 -0.5011
 4310SOL    HW224390   2.623   3.441   2.985  0.6059  0.6986 -2.4390
 4311SOL     OW24391   3.418   1.752   3.709 -0.4513  0.0406  0.1592
 4311SOL    HW124392   3.477   1.786   3.641 -0.0852  0.0019  0.4544
 4311SOL    HW224393   3.416   1.832   3.762 -1.7560  1.4518 -1.9769
 4312SOL     OW24394   0.601   4.679   7.276  0.4960  0.0327  0.1026
 4312SOL    HW124395   0.674   4.721   7.321 -0.6475  0.7030  1.3617
 4312SOL    HW224396   0.644   4.624   7.212 -0.5523  1.0360 -1.4719
 4313SOL     OW24397   1.928   3.169   2.803 -0.3535  0.2783  0.0873
 4313SOL    HW124398   1.970   3.092   2.841 -1.4878 -0.6212 -0.4735
 4313SOL    HW224399   1.944   3.155   2.709 -1.6409  0.7396 -0.2061
 4314SOL     OW24400   3.977   2.475   0.900 -0.7695  0.6695 -0.4140
 4314SOL    HW124401   3.915   2.528   0.850 -0.0010  1.8968 -0.0586
 4314SOL    HW224402   4.020   2.426   0.830 -0.6119  2.1739 -1.3573
 4315SOL     OW24403   1.185   1.479   6.453  0.0668  0.9305  0.1465
 4315SOL    HW124404   1.226   1.527   6.380  2.2902  0.9952  1.4511
 4315SOL    HW224405   1.252   1.411   6.452  1.7115  2.5774  0.6413
 4316SOL     OW24406   3.674   3.812   3.017 -0.2363 -0.0989  0.5480
 4316SOL    HW124407   3.742   3.821   2.951 -1.6423 -1.3216 -1.0531
 4316SOL    HW224408   3.589   3.794   2.975 -0.6993  0.1200  1.3885
 4317SOL     OW24409   0.113   2.890   8.694 -0.1245  0.9535 -0.0127
 4317SOL    HW124410   0.129   2.973   8.739  0.0076 -0.1095  1.9141
 4317SOL    HW224411   0.025   2.915   8.666  1.0921  1.5110 -3.3197
 4318SOL     OW24412   3.397   4.664  15.723 -0.2917  0.1168  0.4970
 4318SOL    HW124413   3.374   4.580  15.684 -1.3046  0.5892  0.0688
 4318SOL    HW224414   3.369   4.641  15.812 -0.4935  1.1968  0.7090
 4319SOL     OW24415   3.516   0.860   3.661 -0.4226 -0.5342 -0.1557
 4319SOL    HW124416   3.427   0.840   3.630 -0.3474 -3.0885  1.3289
 4319SOL    HW224417   3.568   0.811   3.597 -1.4861  0.0086 -1.4469
 4320SOL     OW24418   1.661   2.842  13.510 -0.4551  0.0934  0.1324
 4320SOL    HW124419   1.604   2.773  13.476  0.3674 -0.7851  0.5535
 4320SOL    HW224420   1.633   2.860  13.600  0.9013  0.3538  0.5025
 4321SOL     OW24421   2.041   3.198   6.117  0.3571 -0.5159 -0.4299
 4321SOL    HW124422   2.040   3.102   6.126 -1.1140 -0.5343 -0.6850
 4321SOL    HW224423   2.129   3.215   6.150  0.4070 -2.0512  0.2519
 4322SOL     OW24424   3.542   1.558  14.695 -0.0202 -0.7758 -0.1319
 4322SOL    HW124425   3.614   1.604  14.738  0.7476 -1.6837 -0.4371
 4322SOL    HW224426   3.588   1.478  14.670 -0.2064 -0.9735  0.1579
 4323SOL     OW24427   0.463   4.430   1.830 -0.7514 -0.0583  0.2975
 4323SOL    HW124428   0.422   4.344   1.827 -1.7337  0.4850 -1.5797
 4323SOL    HW224429   0.557   4.409   1.825 -1.0417 -1.0886 -0.6397
 4324SOL     OW24430   2.402   2.644  13.198 -0.5548 -0.5486  0.1553
 4324SOL    HW124431   2.491   2.609  13.200 -0.4531 -0.3653 -1.6328
 4324SOL    HW224432   2.394   2.668  13.290 -0.8587 -1.1800  0.2947
 4325SOL     OW24433   1.194   0.116   4.162  0.3943 -0.4778  0.8167
 4325SOL    HW124434   1.144   0.039   4.189 -0.4281 -0.4649 -0.6647
 4325SOL    HW224435   1.283   0.082   4.166  0.3307 -0.7377 -0.0258
 4326SOL     OW24436   0.345   0.657   7.417  0.0200 -0.2109 -0.1569
 4326SOL    HW124437   0.334   0.645   7.322 -1.2506  0.0440 -0.0401
 4326SOL    HW224438   0.274   0.719   7.433 -0.4828 -1.0938  1.0313
 4327SOL     OW24439   1.496   4.535  13.143 -0.4188 -0.8585 -0.3474
 4327SOL    HW124440   1.581   4.539  13.186  0.7359  0.7443 -2.8165
 4327SOL    HW224441   1.442   4.597  13.193  0.0778  0.4353 -1.4050
 4328SOL     OW24442   0.460   2.732  14.153 -0.3589  0.2240 -0.0155
 4328SOL    HW124443   0.471   2.663  14.218 -0.4499 -1.4920 -1.8099
 4328SOL    HW224444   0.430   2.795  14.218  2.6038  0.4687  1.1137
 4329SOL     OW24445   2.659   1.427   8.176  0.0773  0.2571 -0.2448
 4329SOL    HW124446   2.655   1.514   8.135  1.2667  0.0963 -0.7055
 4329SOL    HW224447   2.729   1.434   8.241  0.4966 -1.6670 -0.4995
 4330SOL     OW24448   0.686   1.711   2.194  0.5448  0.0379  0.1592
 4330SOL    HW124449   0.717   1.732   2.282  5.0717 -1.9132 -0.9647
 4330SOL    HW224450   0.741   1.766   2.137  0.8353 -0.5057 -0.0889
 4331SOL     OW24451   2.285   0.116   3.372  0.2039  0.2607 -0.3019
 4331SOL    HW124452   2.342   0.170   3.427 -0.0230  0.4947 -0.2960
 4331SOL    HW224453   2.345   0.070   3.314  0.2107 -1.2613  0.9434
 4332SOL     OW24454   0.311   0.213   6.647  0.2587  0.1800 -0.1569
 4332SOL    HW124455   0.255   0.156   6.593  0.8823 -1.6712  1.1359
 4332SOL    HW224456   0.353   0.145   6.701 -1.0030 -0.7565 -0.3507
 4333SOL     OW24457   4.511   2.253  17.573  0.2516 -0.0326 -0.3741
 4333SOL    HW124458   4.599   2.287  17.591 -0.3939  1.5852 -0.3013
 4333SOL    HW224459   4.509   2.172  17.624 -0.1300  1.2054  1.5819
 4334SOL     OW24460   1.741   1.409  12.004  0.0780 -0.2421 -0.2641
 4334SOL    HW124461   1.652   1.432  11.977  1.2301  1.2960 -2.7904
 4334SOL    HW224462   1.725   1.328  12.052 -2.2987  0.9440  0.9408
 4335SOL     OW24463   3.973   3.696   5.061  0.0670  0.3722  0.2522
 4335SOL    HW124464   3.882   3.692   5.031 -0.5252 -1.0769  2.2697
 4335SOL    HW224465   3.967   3.621   5.119 -0.4647 -0.2752 -0.6435
 4336SOL     OW24466   4.587   0.535   7.109 -0.4983  0.5254  0.0103
 4336SOL    HW124467   4.656   0.601   7.110 -0.7604  0.7952  0.7386
 4336SOL    HW224468   4.633   0.453   7.091 -0.1882  0.6685  0.1613
 4337SOL     OW24469   2.701   0.610  15.937  0.4728  0.2518 -0.0087
 4337SOL    HW124470   2.688   0.644  15.848 -0.3540 -2.9632 -1.1081
 4337SOL    HW224471   2.775   0.555  15.911 -0.3580 -0.8978  0.0343
 4338SOL     OW24472   0.938   1.560  16.003 -0.2691  0.5601  0.0415
 4338SOL    HW124473   1.007   1.514  15.954  1.6186  1.2273  2.0770
 4338SOL    HW224474   0.964   1.651  15.990 -0.3347  0.6376  0.4728
 4339SOL     OW24475   1.290   2.926   7.719 -0.2154 -0.3274  0.3738
 4339SOL    HW124476   1.202   2.889   7.713  0.7222 -2.8870  2.2810
 4339SOL    HW224477   1.321   2.880   7.797  1.8333 -0.4609 -0.5092
 4340SOL     OW24478   0.134   2.332   5.489  0.5234  0.5534 -0.1813
 4340SOL    HW124479   0.177   2.340   5.574 -0.2173  1.2688  0.1271
 4340SOL    HW224480   0.171   2.249   5.459  0.8386 -0.4875  3.0550
 4341SOL     OW24481   4.128   0.062   7.738  0.5960  0.0612  0.2584
 4341SOL    HW124482   4.151   0.020   7.656 -1.0773 -2.6341  1.1737
 4341SOL    HW224483   4.206   0.040   7.790  0.3969  0.4518  0.7246
 4342SOL     OW24484   0.723   0.110  12.073  0.6147 -0.1753 -0.1081
 4342SOL    HW124485   0.689   0.053  12.005  2.8416 -1.9265  0.2464
 4342SOL    HW224486   0.672   0.190  12.060  0.4303 -0.4325 -0.9658
 4343SOL     OW24487   2.956   0.739   2.408  0.1604  0.3520  0.1595
 4343SOL    HW124488   3.005   0.771   2.332  0.8276  1.7559  1.1824
 4343SOL    HW224489   2.982   0.647   2.409  0.9921  0.5680 -3.0611
 4344SOL     OW24490   1.950   3.809   0.841 -0.4372 -0.3247 -0.2081
 4344SOL    HW124491   1.858   3.790   0.824 -1.0313  2.4678 -0.1304
 4344SOL    HW224492   1.940   3.894   0.884 -2.7335 -0.8006  0.1936
 4345SOL     OW24493   0.015   2.688   1.630 -0.3969  0.2214 -0.8256
 4345SOL    HW124494   0.067   2.713   1.553  0.4711 -1.1910 -0.7056
 4345SOL    HW224495   0.069   2.702   1.708 -1.0596  0.7812 -0.4684
 4346SOL     OW24496   3.318   4.629   6.232  0.1392  0.2442  0.3642
 4346SOL    HW124497   3.293   4.710   6.276 -0.6186 -0.0356  0.4529
 4346SOL    HW224498   3.357   4.660   6.150 -1.1723 -0.9233 -0.6927
 4347SOL     OW24499   2.617   3.642   8.985 -0.3785  0.1752  0.5889
 4347SOL    HW124500   2.654   3.554   8.976 -2.2063 -0.5832  0.6287
 4347SOL    HW224501   2.545   3.617   9.042 -1.5805 -0.8679 -1.3997
 4348SOL     OW24502   2.415   4.503   1.463  0.2091  0.6827  0.4786
 4348SOL    HW124503   2.431   4.582   1.411  0.2317  0.6585  0.4495
 4348SOL    HW224504   2.500   4.474   1.495  0.8644  1.4341 -0.5754
 4349SOL     OW24505   4.546   3.039   7.583  0.0092 -0.3425  0.2628
 4349SOL    HW124506   4.570   2.972   7.647  2.0431 -0.2850 -0.4340
 4349SOL    HW224507   4.600   3.017   7.507 -0.0434 -0.7677  0.3495
 4350SOL     OW24508   3.737   4.301   1.391  0.0367 -0.4582 -0.4889
 4350SOL    HW124509   3.795   4.373   1.368  2.5289 -1.8434  1.5320
 4350SOL    HW224510   3.746   4.284   1.485  2.3775 -2.3311 -1.0563
 4351SOL     OW24511   2.020   0.906   3.584  0.0406  0.1948  0.5013
 4351SOL    HW124512   1.943   0.947   3.624 -0.9113 -1.0550 -0.0861
 4351SOL    HW224513   2.083   0.975   3.564 -0.0268 -0.0420 -0.5028
 4352SOL     OW24514   4.185   1.862   3.488 -0.1206  0.0820 -0.0796
 4352SOL    HW124515   4.097   1.872   3.524  0.1975 -1.1652  1.0694
 4352SOL    HW224516   4.175   1.832   3.397 -1.6362  3.1075 -0.9134
 4353SOL     OW24517   4.460   1.883   1.809  0.6616 -0.2590  0.1245
 4353SOL    HW124518   4.401   1.825   1.763  0.4098  3.1582 -3.8531
 4353SOL    HW224519   4.450   1.853   1.900  1.3861 -1.8489 -0.3350
 4354SOL     OW24520   1.770   3.369   1.537  0.3667  0.0085 -0.0807
 4354SOL    HW124521   1.831   3.295   1.542  1.1538  0.6019 -0.9042
 4354SOL    HW224522   1.841   3.433   1.534  0.9167 -0.6124 -0.5243
 4355SOL     OW24523   1.302   2.603  11.370 -0.0832  0.2159  0.7493
 4355SOL    HW124524   1.290   2.541  11.298  1.9034 -0.3583  0.9307
 4355SOL    HW224525   1.384   2.645  11.345  0.7212 -0.2976  2.5423
 4356SOL     OW24526   1.927   1.392   3.891  0.4012 -0.3538  0.2167
 4356SOL    HW124527   1.887   1.438   3.964 -0.5407 -0.4548 -0.2283
 4356SOL    HW224528   1.932   1.301   3.920 -0.7550  0.2263  2.1883
 4357SOL     OW24529   1.252   0.239   6.158 -0.8513 -0.4767 -0.4134
 4357SOL    HW124530   1.328   0.220   6.213 -1.4858  0.3352  0.7458
 4357SOL    HW224531   1.191   0.272   6.224 -0.3274  1.1475 -0.7521
 4358SOL     OW24532   4.159   0.845   3.484 -0.5052  0.1499  0.3211
 4358SOL    HW124533   4.150   0.938   3.505  0.3870  0.4498 -0.5950
 4358SOL    HW224534   4.158   0.810   3.573  2.0487 -0.1604  0.2255
 4359SOL     OW24535   3.478   2.006  15.095 -0.3419 -0.0710  0.3772
 4359SOL    HW124536   3.403   2.044  15.140  1.0406  1.8430  1.0585
 4359SOL    HW224537   3.547   2.070  15.113 -0.9887  1.0583 -1.1792
 4360SOL     OW24538   4.364   1.208   6.078 -0.2282  0.1861  0.0703
 4360SOL    HW124539   4.386   1.117   6.096 -0.1458 -0.2232 -2.1088
 4360SOL    HW224540   4.447   1.254   6.077  0.1694 -0.5456 -0.4817
 4361SOL     OW24541   4.063   2.750  11.976  0.2022 -0.5630  0.4989
 4361SOL    HW124542   4.129   2.741  12.045 -0.0699 -1.2739  0.6710
 4361SOL    HW224543   4.052   2.843  11.995  0.8993 -0.6039  1.0938
 4362SOL     OW24544   3.709   1.477   7.830 -0.1064  0.0700  0.1054
 4362SOL    HW124545   3.726   1.386   7.851 -1.6939 -0.0055  1.0506
 4362SOL    HW224546   3.647   1.497   7.900 -0.3087  1.8817 -0.5708
 4363SOL     OW24547   1.101   3.680   0.045 -0.5572  0.3508  0.0617
 4363SOL    HW124548   1.125   3.621  17.666 -0.7429  1.2285 -0.7143
 4363SOL    HW224549   1.040   3.738  17.693 -0.4454  1.5213  1.4396
 4364SOL     OW24550   1.916   3.821  15.656  0.5354 -0.0422  0.3142
 4364SOL    HW124551   1.987   3.860  15.604  1.4639 -1.9779  0.1221
 4364SOL    HW224552   1.956   3.765  15.723  2.0053 -0.3686 -0.8359
 4365SOL     OW24553   2.822   1.024  17.140  0.3956 -0.3446  0.2297
 4365SOL    HW124554   2.869   1.107  17.153  1.4501 -0.9059  0.0285
 4365SOL    HW224555   2.774   1.033  17.058 -0.9509  1.2075  1.1767
 4366SOL     OW24556   2.541   2.202   5.014 -0.0113  0.1500  0.8286
 4366SOL    HW124557   2.583   2.279   4.975 -0.1105  0.0810  0.5845
 4366SOL    HW224558   2.531   2.151   4.934  0.8191  2.5048 -0.7553
 4367SOL     OW24559   3.059   0.694   8.578 -0.0699  0.7306  0.3587
 4367SOL    HW124560   3.101   0.624   8.527  0.1225  1.6377 -0.7154
 4367SOL    HW224561   3.088   0.677   8.667 -0.1643  0.8008  0.4013
 4368SOL     OW24562   1.848   3.763   1.341 -0.0739  0.4483 -0.7941
 4368SOL    HW124563   1.874   3.842   1.293  0.2411  1.1801  0.5760
 4368SOL    HW224564   1.757   3.786   1.357  0.6835  0.1918  3.6635
 4369SOL     OW24565   1.397   4.405   5.966 -0.0856 -0.8681 -0.8663
 4369SOL    HW124566   1.437   4.435   5.884 -0.7904  0.1471 -0.8380
 4369SOL    HW224567   1.437   4.318   5.974  0.9466 -0.3163  0.0958
 4370SOL     OW24568   0.597   3.997   1.771  0.2462  0.1158  0.2774
 4370SOL    HW124569   0.617   3.930   1.837  0.3796 -0.5921 -0.4828
 4370SOL    HW224570   0.684   4.035   1.757  1.1394 -2.1790 -0.4192
 4371SOL     OW24571   1.723   4.230   0.230  0.1619  0.0283  0.0980
 4371SOL    HW124572   1.767   4.153   0.195 -0.5258  0.3670 -1.5149
 4371SOL    HW224573   1.794   4.265   0.284  1.0845  0.8010 -1.6323
 4372SOL     OW24574   1.144   4.570   4.142  0.4304 -0.5002 -0.0669
 4372SOL    HW124575   1.184   4.489   4.173 -2.2678 -1.1613  1.7330
 4372SOL    HW224576   1.057   4.536   4.121 -0.9760  3.2344 -0.2425
 4373SOL     OW24577   2.003   1.162   0.114 -0.4962 -0.5261 -0.1921
 4373SOL    HW124578   1.925   1.135   0.065 -1.6307  1.6395  0.4391
 4373SOL    HW224579   1.966   1.185   0.200 -1.4077 -0.1154 -0.6989
 4374SOL     OW24580   4.510   1.356   4.022  0.4996  0.0080  0.2464
 4374SOL    HW124581   4.506   1.349   4.118  0.2921  1.0248  0.3090
 4374SOL    HW224582   4.578   1.422   4.016 -0.8050  1.5024  1.7826
 4375SOL     OW24583   1.091   0.494   8.044  0.0092 -0.5798  0.0304
 4375SOL    HW124584   1.084   0.541   7.962  0.7942 -0.0465  0.2754
 4375SOL    HW224585   1.004   0.521   8.074 -1.1697 -1.4474 -2.6260
 4376SOL     OW24586   3.292   3.252   6.743  0.3868 -0.0656 -0.4530
 4376SOL    HW124587   3.376   3.214   6.767 -0.4114 -0.3792  1.8006
 4376SOL    HW224588   3.320   3.339   6.715 -3.2790  1.5018  0.7925
 4377SOL     OW24589   0.846   2.749  16.351  0.2788  0.4186  0.4719
 4377SOL    HW124590   0.805   2.829  16.383  1.9972  1.1593  0.8548
 4377SOL    HW224591   0.777   2.695  16.313  0.0152  1.4511 -0.5057
 4378SOL     OW24592   0.394   1.656   2.438  0.1156 -0.7720  0.2673
 4378SOL    HW124593   0.389   1.569   2.399 -2.0051 -0.0159 -1.1468
 4378SOL    HW224594   0.414   1.642   2.531 -1.7704 -0.4319  0.7377
 4379SOL     OW24595   4.363   2.873   2.019 -0.3911 -0.1779  0.2491
 4379SOL    HW124596   4.276   2.840   1.993 -0.4933  1.1487 -1.1090
 4379SOL    HW224597   4.375   2.949   1.962 -1.1427 -1.1515 -1.2159
 4380SOL     OW24598   1.382   0.697   2.458 -0.0623 -0.2985 -0.4351
 4380SOL    HW124599   1.315   0.633   2.481 -1.3732  1.0977 -0.3841
 4380SOL    HW224600   1.395   0.678   2.365 -0.0289  1.7425 -0.8643
 4381SOL     OW24601   0.431   3.399   8.532  0.0641 -0.0519 -0.2991
 4381SOL    HW124602   0.352   3.452   8.521  1.0398  1.4231 -0.1691
 4381SOL    HW224603   0.497   3.468   8.530 -2.0795  2.0587  0.8346
 4382SOL     OW24604   3.138   3.206   7.428  0.0561 -0.0634 -0.5633
 4382SOL    HW124605   3.062   3.246   7.472 -0.3306 -1.6263  0.1933
 4382SOL    HW224606   3.110   3.119   7.401 -1.2023  0.3561 -0.6483
 4383SOL     OW24607   1.964   1.683  15.222 -0.3086 -0.1825  0.1799
 4383SOL    HW124608   2.030   1.642  15.278  0.2469 -0.5302 -0.7376
 4383SOL    HW224609   2.011   1.722  15.148 -1.2011  0.5182 -0.0153
 4384SOL     OW24610   2.281   0.831   8.157 -0.2587  0.3283  0.0270
 4384SOL    HW124611   2.284   0.814   8.063  0.1353 -0.1031  0.1167
 4384SOL    HW224612   2.354   0.891   8.175 -0.2413  1.9929 -5.4526
 4385SOL     OW24613   2.611   2.326  12.454  0.0966 -0.1827  0.6805
 4385SOL    HW124614   2.522   2.356  12.473  0.1193  0.9851 -1.1283
 4385SOL    HW224615   2.640   2.403  12.406 -1.2523  0.9840  1.7400
 4386SOL     OW24616   4.384   1.984   3.322 -0.0749 -0.1354  0.1304
 4386SOL    HW124617   4.306   2.004   3.271  0.8857  1.2334 -0.8075
 4386SOL    HW224618   4.347   1.981   3.410 -0.2084  2.9417  0.1658
 4387SOL     OW24619   1.296   1.755   6.521  0.1622  0.1745  0.2061
 4387SOL    HW124620   1.333   1.818   6.583 -3.7544  1.8146  0.8831
 4387SOL    HW224621   1.226   1.718   6.575 -1.5772  1.5682 -1.1123
 4388SOL     OW24622   2.217   4.315   1.647 -0.7302  0.1039  0.4586
 4388SOL    HW124623   2.221   4.324   1.552  0.5438  0.7814  0.5903
 4388SOL    HW224624   2.122   4.328   1.654 -0.7454  0.7372 -1.1394
 4389SOL     OW24625   4.167   1.808   2.238 -0.0227 -0.0470  0.0760
 4389SOL    HW124626   4.149   1.872   2.170  2.3983 -0.2336 -0.7530
 4389SOL    HW224627   4.183   1.733   2.181  0.7815  0.8254 -0.8387
 4390SOL     OW24628   4.530   2.878   4.859  0.3453  0.2007 -0.0974
 4390SOL    HW124629   4.501   2.862   4.769  1.0991 -2.4825  0.1499
 4390SOL    HW224630   4.460   2.834   4.908 -1.0167  2.9508  0.4063
 4391SOL     OW24631   3.767   0.770   6.949  0.0886  0.2871  0.2592
 4391SOL    HW124632   3.748   0.679   6.924  2.6635 -0.2347  0.1817
 4391SOL    HW224633   3.676   0.789   6.972  0.4172  0.1427  1.6387
 4392SOL     OW24634   1.725   1.430   3.699 -0.4124  0.7705 -0.6614
 4392SOL    HW124635   1.811   1.424   3.741 -1.0161 -0.4880  0.3832
 4392SOL    HW224636   1.753   1.457   3.611  0.6539  0.0204 -0.5497
 4393SOL     OW24637   2.892   0.333  16.583 -0.1071 -0.6255  0.0497
 4393SOL    HW124638   2.827   0.300  16.645 -0.2721  0.3476  0.3872
 4393SOL    HW224639   2.975   0.333  16.631 -0.1785  0.3233  0.1636
 4394SOL     OW24640   0.881   2.309  15.253  0.2905  0.6633 -0.6274
 4394SOL    HW124641   0.911   2.287  15.341  0.9155  2.0247 -0.4866
 4394SOL    HW224642   0.971   2.320  15.222 -0.4018  4.1807 -1.3941
 4395SOL     OW24643   3.298   1.072   6.157  0.1332  0.2761  0.2871
 4395SOL    HW124644   3.314   1.164   6.141 -0.6957  0.0508 -1.8387
 4395SOL    HW224645   3.202   1.065   6.159  0.0394  1.6165  0.1589
 4396SOL     OW24646   4.129   2.161  10.058  0.2183 -0.3648 -0.2876
 4396SOL    HW124647   4.118   2.171   9.963 -1.8632 -1.4640 -0.1600
 4396SOL    HW224648   4.093   2.073  10.065  0.1184 -0.3242 -0.2790
 4397SOL     OW24649   2.495   3.598  17.417  0.0095  0.0765 -0.0254
 4397SOL    HW124650   2.549   3.554  17.482 -0.7010  1.2708  1.3663
 4397SOL    HW224651   2.446   3.658  17.474 -0.5421  0.6599 -1.1130
 4398SOL     OW24652   3.233   4.446   4.070 -0.4078 -0.6595  0.2778
 4398SOL    HW124653   3.201   4.522   4.119 -0.3012 -1.5435  1.7259
 4398SOL    HW224654   3.291   4.486   4.006 -1.7048 -1.9279 -1.6836
 4399SOL     OW24655   4.703   1.538   9.401  0.0176 -0.5362 -0.0823
 4399SOL    HW124656   0.017   1.621   9.431 -1.0102 -1.3081  3.2792
 4399SOL    HW224657   4.639   1.567   9.335 -0.1140  0.5870  0.5523
 4400SOL     OW24658   0.316   1.130   7.262 -0.2981 -0.1279  0.5780
 4400SOL    HW124659   0.346   1.183   7.336  0.9933 -1.7395  1.2154
 4400SOL    HW224660   0.403   1.096   7.239  0.5427  0.1560  3.3699
 4401SOL     OW24661   3.507   1.399   2.493  0.3126 -0.5682  0.1252
 4401SOL    HW124662   3.418   1.434   2.485  1.4092  2.3371  0.5341
 4401SOL    HW224663   3.547   1.443   2.418  0.9455 -1.7514 -0.2292
 4402SOL     OW24664   4.071   3.411  15.191 -0.5923 -0.1817  0.1417
 4402SOL    HW124665   3.979   3.424  15.168 -0.4286  0.1626 -0.3326
 4402SOL    HW224666   4.110   3.490  15.154  1.2400  0.1022  2.7353
 4403SOL     OW24667   2.376   0.708   3.492 -0.2160 -0.2821  0.7303
 4403SOL    HW124668   2.404   0.736   3.579 -1.0491  4.0215 -0.3696
 4403SOL    HW224669   2.422   0.625   3.478  1.5193  0.9671 -0.9904
 4404SOL     OW24670   1.410   4.633   8.020 -0.9389 -0.0487  0.4535
 4404SOL    HW124671   1.365   4.717   8.009  2.0863  0.9640 -3.9954
 4404SOL    HW224672   1.357   4.578   7.962  0.2500  1.2269 -1.8274
 4405SOL     OW24673   4.064   0.584  11.760  0.2489 -0.2774  0.3548
 4405SOL    HW124674   4.052   0.657  11.700  1.3671 -2.3468 -2.4024
 4405SOL    HW224675   4.157   0.597  11.779  1.3691 -2.0825 -3.8534
 4406SOL     OW24676   1.340   3.904  15.651 -0.4659  0.2820  0.0620
 4406SOL    HW124677   1.404   3.976  15.648  0.5907 -0.7099 -1.3964
 4406SOL    HW224678   1.387   3.834  15.605  0.4462  1.1676 -0.3647
 4407SOL     OW24679   4.457   1.798   9.007  0.4592  0.4076  0.3481
 4407SOL    HW124680   4.389   1.769   9.068  1.3140  0.7488  1.4899
 4407SOL    HW224681   4.510   1.719   9.016 -0.4413 -0.2519 -0.1481
 4408SOL     OW24682   1.110   2.558   4.125 -0.2678  0.5284  0.1624
 4408SOL    HW124683   1.165   2.499   4.177  0.9993  0.0765 -1.6791
 4408SOL    HW224684   1.147   2.550   4.037 -0.9361  1.2873 -0.1950
 4409SOL     OW24685   4.442   0.106   1.758 -0.9267 -0.1278  0.6452
 4409SOL    HW124686   4.530   0.075   1.781 -1.2337 -0.3458  1.5214
 4409SOL    HW224687   4.435   0.091   1.664  1.6605 -1.2300  0.6243
 4410SOL     OW24688   1.135   2.073   1.894  0.4377 -0.0394  0.0662
 4410SOL    HW124689   1.194   1.998   1.888 -1.0020 -1.0597 -1.2483
 4410SOL    HW224690   1.196   2.142   1.869  1.4503 -1.4765 -1.4144
 4411SOL     OW24691   0.034   0.750   6.781 -0.2036 -0.0809 -0.2491
 4411SOL    HW124692   0.036   0.818   6.847  0.1325  0.8819 -1.2569
 4411SOL    HW224693   0.074   0.785   6.701  1.6879  0.4491  0.9436
 4412SOL     OW24694   4.621   1.529  11.788  0.2586 -0.7006  0.1600
 4412SOL    HW124695   4.699   1.567  11.747  1.2006 -2.6365  0.1420
 4412SOL    HW224696   4.647   1.545  11.879  0.6837  1.4462 -0.3401
 4413SOL     OW24697   1.224   4.624   1.097 -0.0986  0.0481  0.2077
 4413SOL    HW124698   1.283   4.623   1.021 -1.5778  0.4978 -0.9353
 4413SOL    HW224699   1.164   4.553   1.074  0.4799 -0.7555  1.1697
 4414SOL     OW24700   2.039   2.443   3.041 -0.3381 -0.2557  0.1463
 4414SOL    HW124701   2.066   2.353   3.020  0.6261 -0.3645  1.8422
 4414SOL    HW224702   2.117   2.480   3.083 -0.7551  2.8772 -1.8652
 4415SOL     OW24703   4.366   0.273   7.273  0.4567  0.6710  0.2358
 4415SOL    HW124704   4.416   0.331   7.330  0.2375  2.4527 -1.4174
 4415SOL    HW224705   4.423   0.281   7.197  1.6050  0.5723  1.0942
 4416SOL     OW24706   2.700   4.643   8.827 -0.1007 -0.0350  0.7566
 4416SOL    HW124707   2.775   4.632   8.769 -1.1951  0.2400 -0.7129
 4416SOL    HW224708   2.628   4.625   8.767 -0.6946  1.9633  0.8589
 4417SOL     OW24709   2.980   1.620   5.816 -0.3140 -0.2502 -0.1631
 4417SOL    HW124710   3.006   1.648   5.904 -1.5689  0.3233  0.0137
 4417SOL    HW224711   3.051   1.652   5.759 -0.5977  0.4360 -0.1349
 4418SOL     OW24712   0.382   0.054   8.872 -0.5372  0.2285  0.4459
 4418SOL    HW124713   0.303   0.051   8.818  1.3582  0.1097 -2.2919
 4418SOL    HW224714   0.365   4.705   8.934  0.0680 -1.2384 -1.0749
 4419SOL     OW24715   2.217   2.005   6.949  0.1314 -0.3545 -0.2888
 4419SOL    HW124716   2.247   2.094   6.931 -1.3817 -0.3147 -2.6388
 4419SOL    HW224717   2.259   1.964   6.873 -1.2022 -0.4153 -1.0081
 4420SOL     OW24718   0.094   4.433   8.139  0.8619 -0.1453  0.1395
 4420SOL    HW124719   0.117   4.350   8.181 -0.5604 -1.3514 -1.4669
 4420SOL    HW224720   0.113   4.483   8.218  0.3106 -0.1518  0.2707
 4421SOL     OW24721   3.509   3.902   1.632  0.4382 -0.5322  0.1293
 4421SOL    HW124722   3.435   3.847   1.608  0.5034 -0.4512 -0.2525
 4421SOL    HW224723   3.481   3.989   1.603  0.6279 -1.3027 -2.3030
 4422SOL     OW24724   0.726   1.867   3.430  0.0745  0.3553 -0.1580
 4422SOL    HW124725   0.804   1.814   3.412  0.0509  0.2134  0.1599
 4422SOL    HW224726   0.678   1.850   3.348  0.5841  0.0139 -0.3828
 4423SOL     OW24727   1.814   0.941   6.170 -0.1914 -0.6974 -0.7041
 4423SOL    HW124728   1.721   0.918   6.170 -0.2607 -0.4204  0.7597
 4423SOL    HW224729   1.808   1.027   6.211  0.1933 -0.9903 -0.0425
 4424SOL     OW24730   0.955   1.740   9.492  0.8686 -0.0566  0.3183
 4424SOL    HW124731   1.001   1.689   9.425 -3.6114 -2.6436 -0.7246
 4424SOL    HW224732   0.900   1.794   9.435  2.5963 -0.3712 -1.6664
 4425SOL     OW24733   3.048   2.017   3.145 -0.7306  0.1070  0.1060
 4425SOL    HW124734   2.991   1.959   3.195 -1.7578  0.7874 -0.2892
 4425SOL    HW224735   3.136   1.987   3.170 -0.2206  0.2405 -1.5523
 4426SOL     OW24736   4.118   3.390   1.181  0.3835  0.6164  0.5199
 4426SOL    HW124737   4.119   3.475   1.137  0.0442  0.1969 -0.3003
 4426SOL    HW224738   4.196   3.393   1.236  0.0341  1.1732  0.9904
 4427SOL     OW24739   0.125   2.778  16.943  0.1927  0.3240 -0.4838
 4427SOL    HW124740   0.134   2.815  16.855  1.8680  0.0538 -0.4327
 4427SOL    HW224741   0.114   2.684  16.932  3.3042 -0.1491  0.3388
 4428SOL     OW24742   0.632   3.428   0.012  0.4851  0.7225 -0.4827
 4428SOL    HW124743   0.664   3.447  17.617  2.8077  0.0484  0.2392
 4428SOL    HW224744   0.537   3.444   0.015  0.2739 -0.3337 -1.3573
 4429SOL     OW24745   0.911   2.568   6.211  0.4306 -0.2750  0.2277
 4429SOL    HW124746   0.972   2.506   6.251  1.4864  1.1780  0.8375
 4429SOL    HW224747   0.946   2.654   6.234 -2.1618  1.3793 -1.9480
 4430SOL     OW24748   3.315   3.440   7.630 -0.0355  0.5089  0.4740
 4430SOL    HW124749   3.226   3.442   7.664  0.5077  2.3182  1.8084
 4430SOL    HW224750   3.304   3.388   7.551  1.9671 -0.4948  0.8541
 4431SOL     OW24751   0.320   1.351  13.359  0.1639 -0.0397 -0.5945
 4431SOL    HW124752   0.272   1.268  13.364 -0.1409  0.1027 -1.2346
 4431SOL    HW224753   0.401   1.319  13.319 -0.4797 -0.5217 -1.5222
 4432SOL     OW24754   2.547   3.409   8.317  0.3247 -0.3676 -0.1563
 4432SOL    HW124755   2.497   3.466   8.258 -0.6297 -0.8800  0.1650
 4432SOL    HW224756   2.517   3.323   8.287  1.2215  0.1057 -2.4252
 4433SOL     OW24757   2.758   4.370   7.295  0.3053  0.6694 -0.2498
 4433SOL    HW124758   2.791   4.448   7.340 -0.8427  1.1365 -0.2156
 4433SOL    HW224759   2.767   4.303   7.362 -1.6849 -0.1183 -0.7573
 4434SOL     OW24760   1.491   2.897   3.689 -0.1686 -0.0031  0.2103
 4434SOL    HW124761   1.573   2.929   3.651 -0.4303  0.3968 -0.0147
 4434SOL    HW224762   1.475   2.820   3.634 -0.4043 -1.0727  1.7795
 4435SOL     OW24763   1.920   1.116   2.917 -0.1543  0.7712  0.2349
 4435SOL    HW124764   1.869   1.175   2.862 -0.0995 -0.1559 -0.7957
 4435SOL    HW224765   1.863   1.040   2.926  2.1990 -1.2985 -2.3862
 4436SOL     OW24766   4.128   4.720   2.969  0.2287 -0.0123  0.1392
 4436SOL    HW124767   4.194   0.009   2.900 -0.5691 -1.2289 -0.8282
 4436SOL    HW224768   4.169   0.031   3.049  1.1129  1.0199 -0.7409
 4437SOL     OW24769   3.052   0.357   5.249  0.5506 -0.3912  0.0910
 4437SOL    HW124770   3.142   0.383   5.228  0.5405 -0.8471 -0.5141
 4437SOL    HW224771   3.048   0.384   5.341  0.8098 -2.9265  0.8450
 4438SOL     OW24772   2.131   1.419   0.683  0.5045 -0.1621  0.3793
 4438SOL    HW124773   2.084   1.391   0.763 -0.9871  1.4662  0.0641
 4438SOL    HW224774   2.216   1.438   0.722  0.5019  1.7664 -0.5927
 4439SOL     OW24775   1.954   1.274  10.889  0.1213  0.7941  0.3247
 4439SOL    HW124776   1.955   1.255  10.795  2.0117 -3.8650  1.2900
 4439SOL    HW224777   2.003   1.356  10.882 -0.0784  0.7080 -2.2123
 4440SOL     OW24778   1.052   3.274   3.440 -0.3735  0.3236 -0.2811
 4440SOL    HW124779   0.972   3.257   3.491 -1.0128 -1.5003 -1.8665
 4440SOL    HW224780   1.124   3.220   3.472 -0.4804  0.1885 -0.2681
 4441SOL     OW24781   0.349   1.736   5.724  0.2732 -0.1556 -0.4891
 4441SOL    HW124782   0.271   1.779   5.689  2.2931  1.3251 -3.1978
 4441SOL    HW224783   0.322   1.727   5.815  1.0869  1.6508 -0.0881
 4442SOL     OW24784   1.835   2.780   4.571  0.1503  0.3338 -0.6343
 4442SOL    HW124785   1.769   2.832   4.618 -2.2485 -1.6208 -1.8617
 4442SOL    HW224786   1.840   2.699   4.623  1.5659  0.7699 -0.0742
 4443SOL     OW24787   3.956   2.365   5.630  0.4022 -0.6553  0.3967
 4443SOL    HW124788   4.043   2.331   5.606  0.5996 -0.6094  1.0540
 4443SOL    HW224789   3.940   2.328   5.717  0.7767  1.8203  1.5100
 4444SOL     OW24790   3.433   1.242   6.623  0.1851 -0.1916  0.5867
 4444SOL    HW124791   3.356   1.232   6.568 -0.8147  0.2724  1.8856
 4444SOL    HW224792   3.398   1.209   6.706 -1.5843 -2.3027 -1.0049
 4445SOL     OW24793   3.577   2.879   0.440  0.2302  0.3852  0.0104
 4445SOL    HW124794   3.601   2.788   0.459 -2.2362 -0.5786 -1.4369
 4445SOL    HW224795   3.635   2.883   0.364  0.2842 -0.8423 -0.0154
 4446SOL     OW24796   0.655   3.044   7.913 -0.1146 -0.2627  0.0368
 4446SOL    HW124797   0.614   3.127   7.889  1.1592  0.2522 -0.3544
 4446SOL    HW224798   0.594   3.020   7.983  0.8912 -0.3134  0.8880
 4447SOL     OW24799   0.101   1.626   1.769  0.2819  0.7330  0.5234
 4447SOL    HW124800   0.157   1.551   1.788  0.4998  1.7123  3.8968
 4447SOL    HW224801   0.023   1.576   1.747 -0.8127  2.1751  1.1401
 4448SOL     OW24802   2.125   1.446   5.639  0.7052 -0.2387  0.0819
 4448SOL    HW124803   2.041   1.490   5.653  0.6284 -0.7138  1.1564
 4448SOL    HW224804   2.189   1.517   5.633  0.6908 -0.3833 -1.7006
 4449SOL     OW24805   4.576   4.175   7.149  0.4047  0.6299 -0.6436
 4449SOL    HW124806   4.567   4.167   7.054  0.7846 -0.1761 -0.6111
 4449SOL    HW224807   4.666   4.204   7.159  0.1736  0.5603  1.7523
 4450SOL     OW24808   0.716   4.157   7.294  0.2307  0.3470  0.3422
 4450SOL    HW124809   0.730   4.248   7.269  0.8458  0.5797  1.5542
 4450SOL    HW224810   0.652   4.128   7.229  0.8880 -1.0992  0.3362
 4451SOL     OW24811   0.695   1.145   5.052  0.4673 -0.0608  0.1907
 4451SOL    HW124812   0.687   1.195   4.971  2.1049 -0.9781 -0.5317
 4451SOL    HW224813   0.611   1.099   5.056  0.4217  0.2152  2.3693
 4452SOL     OW24814   1.849   0.821   5.839 -0.4077 -0.3899 -0.2066
 4452SOL    HW124815   1.903   0.899   5.827 -1.6518  0.4201 -0.5847
 4452SOL    HW224816   1.764   0.863   5.822  0.1539  1.1731  0.8173
 4453SOL     OW24817   4.679   0.949   3.117  0.2782 -0.6596 -1.1432
 4453SOL    HW124818   0.012   1.026   3.125  0.7636 -1.0334 -0.9678
 4453SOL    HW224819   0.007   0.897   3.179  0.7989  1.5648  0.2991
 4454SOL     OW24820   3.086   0.694   5.008 -0.1600 -0.7381  0.1652
 4454SOL    HW124821   3.140   0.615   5.000  2.1893  0.8151  0.8089
 4454SOL    HW224822   3.154   0.760   5.016 -0.4078 -0.2508 -1.6690
 4455SOL     OW24823   0.728   4.367   1.874 -0.5457 -0.2705 -0.3745
 4455SOL    HW124824   0.800   4.305   1.863  0.4649  0.9171 -0.5475
 4455SOL    HW224825   0.765   4.454   1.862 -1.6248  0.6111  2.6153
 4456SOL     OW24826   4.696   3.129  12.918 -0.4809 -0.3804  0.7043
 4456SOL    HW124827   0.060   3.146  12.955  0.1631  0.4739 -1.1937
 4456SOL    HW224828   4.645   3.193  12.967 -0.5547  1.9058 -2.3498
 4457SOL     OW24829   2.099   0.485   2.021 -0.3460  0.1894  0.1619
 4457SOL    HW124830   2.043   0.437   1.960 -0.8120  1.9766 -0.8165
 4457SOL    HW224831   2.121   0.568   1.977 -0.0589  0.6861  1.2434
 4458SOL     OW24832   3.974   1.634   4.637 -0.2256  0.1298  0.2726
 4458SOL    HW124833   3.898   1.598   4.683 -1.2164  0.4907 -1.0848
 4458SOL    HW224834   3.937   1.661   4.553 -1.5146 -0.7005  0.5670
 4459SOL     OW24835   1.282   1.519   6.895  0.1709  0.1450  0.3480
 4459SOL    HW124836   1.335   1.597   6.909 -0.0643  0.1410  1.2941
 4459SOL    HW224837   1.338   1.471   6.955 -1.0479 -0.4577  1.0131
 4460SOL     OW24838   4.614   0.956   5.160 -0.0311 -0.1581 -0.3961
 4460SOL    HW124839   4.627   1.049   5.145  0.1315 -0.0736  0.2763
 4460SOL    HW224840   4.703   0.924   5.145 -0.7047 -1.3823 -1.8084
 4461SOL     OW24841   3.331   0.627   1.331  0.0493  0.3325 -0.3323
 4461SOL    HW124842   3.357   0.539   1.305 -0.2301 -0.7991  3.2228
 4461SOL    HW224843   3.398   0.649   1.395 -0.3201  2.8494 -0.8242
 4462SOL     OW24844   1.458   0.000   3.068  0.0217 -0.6506  0.6388
 4462SOL    HW124845   1.484   4.701   3.157  0.6079  1.6077  1.0325
 4462SOL    HW224846   1.526   0.062   3.042 -1.0039 -0.6256 -1.9759
 4463SOL     OW24847   2.127   1.087   1.976  0.1323  0.0852  0.0069
 4463SOL    HW124848   2.092   1.066   1.889  0.2300 -0.3636  0.0723
 4463SOL    HW224849   2.102   1.178   1.985  1.6907  0.4397  0.7488
 4464SOL     OW24850   1.230   0.177   3.829  0.0378 -0.8399  0.5465
 4464SOL    HW124851   1.222   0.174   3.924  2.7700  0.3598  0.8166
 4464SOL    HW224852   1.145   0.199   3.792  1.8125  5.2120 -0.0114
 4465SOL     OW24853   3.020   4.460   5.161 -0.3537  0.3233 -0.3239
 4465SOL    HW124854   3.009   4.532   5.222 -0.0290 -0.7281  0.9802
 4465SOL    HW224855   2.978   4.394   5.216 -0.9511 -1.4524 -2.8946
 4466SOL     OW24856   0.327   1.587   6.706  0.1971  0.1785 -0.5064
 4466SOL    HW124857   0.412   1.619   6.677 -0.1052  0.5533 -0.9779
 4466SOL    HW224858   0.286   1.561   6.623 -0.2800  0.1368 -0.2584
 4467SOL     OW24859   2.587   3.233  13.339 -0.3694 -1.0809  0.1357
 4467SOL    HW124860   2.652   3.204  13.275 -1.7810 -1.7305 -0.9956
 4467SOL    HW224861   2.647   3.259  13.409 -2.5112  1.0306  1.2167
 4468SOL     OW24862   2.231   2.837   9.630  0.1205 -0.3052  0.2588
 4468SOL    HW124863   2.157   2.885   9.668  0.2154  1.3830 -1.6672
 4468SOL    HW224864   2.293   2.907   9.649 -3.1379  3.1005 -1.6478
 4469SOL     OW24865   0.464   1.101   6.976 -0.5797  0.0830  0.1265
 4469SOL    HW124866   0.555   1.075   6.959 -0.0883  1.2368  0.9541
 4469SOL    HW224867   0.473   1.193   7.001  0.3237  0.1235 -0.3535
 4470SOL     OW24868   1.762   2.776   9.635 -0.1170 -0.4393  0.3268
 4470SOL    HW124869   1.702   2.705   9.657  0.6964 -0.9954  0.7461
 4470SOL    HW224870   1.777   2.811   9.723 -3.3906  0.9617  0.3280
 4471SOL     OW24871   3.828   0.818   5.248 -0.6405 -0.1038 -0.3582
 4471SOL    HW124872   3.856   0.871   5.173  2.7582 -0.5284  0.6176
 4471SOL    HW224873   3.733   0.820   5.236 -0.8568 -2.6784  0.9055
 4472SOL     OW24874   1.596   3.350  13.868 -0.0466 -0.0982  0.5217
 4472SOL    HW124875   1.608   3.316  13.957  0.6359 -0.3530  0.3322
 4472SOL    HW224876   1.519   3.304  13.834 -2.7617  1.9761  3.7802
 4473SOL     OW24877   0.886   3.466   1.730  0.2331  0.1354  0.3166
 4473SOL    HW124878   0.838   3.385   1.744 -0.7816  0.3298 -1.9736
 4473SOL    HW224879   0.885   3.481   1.636  0.0850 -0.7015  0.1921
 4474SOL     OW24880   2.162   3.398   2.851  0.1846 -0.5709  0.3950
 4474SOL    HW124881   2.129   3.487   2.838  1.5225 -0.2427 -0.7451
 4474SOL    HW224882   2.090   3.346   2.815  2.1800 -3.3664  0.4886
 4475SOL     OW24883   0.966   2.493   0.869 -0.1804 -0.0850  0.2031
 4475SOL    HW124884   1.033   2.465   0.806 -0.2615  0.3375 -0.0700
 4475SOL    HW224885   0.900   2.515   0.803 -0.7798 -1.0208  0.4924
 4476SOL     OW24886   2.647   4.428   5.688  0.3006 -0.1563 -0.7989
 4476SOL    HW124887   2.624   4.336   5.694  0.3948 -0.1304  0.0078
 4476SOL    HW224888   2.725   4.435   5.744  0.2022 -3.2183 -0.2670
 4477SOL     OW24889   3.724   3.852   2.616  0.0463  0.4608  0.1284
 4477SOL    HW124890   3.651   3.911   2.598 -1.0157 -0.6435  0.8471
 4477SOL    HW224891   3.720   3.797   2.538  1.8941 -1.2474  1.2470
 4478SOL     OW24892   0.897   4.563   3.057 -0.1985  0.8575  0.6438
 4478SOL    HW124893   0.982   4.588   3.094  0.4232  2.2631 -1.7986
 4478SOL    HW224894   0.894   4.469   3.078 -0.5033  0.4570 -1.2289
 4479SOL     OW24895   4.234   3.193   3.639  0.1041  0.7106  0.0864
 4479SOL    HW124896   4.210   3.235   3.721 -0.5938  1.6242 -0.5871
 4479SOL    HW224897   4.309   3.249   3.619  1.0091  0.2196  2.0411
 4480SOL     OW24898   2.933   2.951   1.787  0.3858  0.0021  0.1893
 4480SOL    HW124899   2.938   2.864   1.747  0.3686 -0.9923  2.3396
 4480SOL    HW224900   2.959   3.005   1.712  2.1950 -0.1025  0.7266
 4481SOL     OW24901   1.318   0.683   7.650  0.0610  0.0158 -0.0421
 4481SOL    HW124902   1.376   0.609   7.637 -0.9547 -0.8259  0.1703
 4481SOL    HW224903   1.324   0.725   7.564  1.9328 -1.2638 -0.5197
 4482SOL     OW24904   2.896   1.486  11.072  0.2298  0.9745  0.1301
 4482SOL    HW124905   2.819   1.540  11.091 -1.2027 -0.7702 -0.8053
 4482SOL    HW224906   2.965   1.550  11.055 -0.6543  2.4907  2.1770
 4483SOL     OW24907   4.376   2.877   0.670 -0.3491  0.2454  0.1229
 4483SOL    HW124908   4.343   2.963   0.695 -1.1070 -0.3934  1.3501
 4483SOL    HW224909   4.394   2.836   0.755 -1.2525  0.6212  0.4941
 4484SOL     OW24910   0.265   1.434   3.014  0.6324  0.3248  0.0932
 4484SOL    HW124911   0.181   1.470   2.986  0.6082  0.1463 -0.0580
 4484SOL    HW224912   0.294   1.492   3.085 -0.3496 -2.1414  2.5358
 4485SOL     OW24913   2.362   2.106   2.490 -0.0656 -0.8849 -0.2951
 4485SOL    HW124914   2.454   2.127   2.473 -0.0841 -0.2702  0.3602
 4485SOL    HW224915   2.321   2.191   2.504  1.4418 -0.2946  0.5224
 4486SOL     OW24916   3.701   2.991   4.945 -0.5524 -0.1891 -0.4755
 4486SOL    HW124917   3.714   3.024   4.856 -1.1594 -0.5897 -0.7125
 4486SOL    HW224918   3.786   2.948   4.952 -0.4311 -0.1630 -1.7846
 4487SOL     OW24919   3.373   0.165   8.069 -0.3495  0.0751 -0.0533
 4487SOL    HW124920   3.369   0.170   8.164  0.7599 -1.8734  0.1132
 4487SOL    HW224921   3.413   0.079   8.052 -3.1443 -1.1521 -0.5059
 4488SOL     OW24922   3.192   3.580   6.043  0.4348  0.2897 -0.1154
 4488SOL    HW124923   3.123   3.550   6.103  1.2737  0.9120  1.1628
 4488SOL    HW224924   3.173   3.524   5.968 -0.5613 -1.3610  1.3420
 4489SOL     OW24925   0.032   0.336   1.960 -0.1672  0.1232 -0.3192
 4489SOL    HW124926   4.722   0.248   1.943  1.5396 -0.5352 -0.1165
 4489SOL    HW224927   0.036   0.373   1.871  1.2875  0.8853  0.0769
 4490SOL     OW24928   3.783   3.878   7.079 -0.3096 -0.1022  0.0638
 4490SOL    HW124929   3.861   3.822   7.081  1.5892  2.5565  1.0268
 4490SOL    HW224930   3.720   3.807   7.082 -0.1064 -0.4137 -2.5805
 4491SOL     OW24931   0.099   4.017   9.244  0.6310 -0.4504  0.1834
 4491SOL    HW124932   0.140   3.986   9.325  1.6114  0.1372 -0.0812
 4491SOL    HW224933   0.157   3.979   9.177  0.0919 -1.1691  0.1252
 4492SOL     OW24934   1.610   0.292   8.786  0.2906 -0.1786  0.1949
 4492SOL    HW124935   1.587   0.211   8.741 -0.5014 -0.1397  0.5331
 4492SOL    HW224936   1.575   0.273   8.873 -1.7224  0.2301 -0.5443
 4493SOL     OW24937   1.050   3.974  10.905  0.7762 -0.1478 -0.5959
 4493SOL    HW124938   1.092   4.003  10.824  3.3951 -0.9030  0.5075
 4493SOL    HW224939   1.096   4.027  10.970  1.0043 -0.8824 -0.1640
 4494SOL     OW24940   2.629   4.510   1.293 -0.2244  0.3784 -0.1326
 4494SOL    HW124941   2.668   4.568   1.227 -0.5821  2.3984  1.4581
 4494SOL    HW224942   2.645   4.548   1.379  1.6522  1.0051 -0.7512
 4495SOL     OW24943   0.123   2.215   3.318  0.7733  0.0746 -0.4881
 4495SOL    HW124944   0.061   2.283   3.345 -0.6628 -1.7707  0.8967
 4495SOL    HW224945   0.102   2.194   3.227  0.5757  0.6839 -0.5783
 4496SOL     OW24946   1.371   3.504   4.742  0.2679  0.2031  0.2968
 4496SOL    HW124947   1.450   3.475   4.788 -1.3753 -1.4699  2.1166
 4496SOL    HW224948   1.314   3.541   4.810  1.0684  1.7092  0.1338
 4497SOL     OW24949   2.671   0.625   5.758  0.3303 -0.0711  0.7508
 4497SOL    HW124950   2.659   0.537   5.795  1.6531 -0.6708 -0.2679
 4497SOL    HW224951   2.737   0.617   5.690  1.3456  0.4624  1.6760
 4498SOL     OW24952   2.275   1.221   1.331  0.2645  0.4999  0.4852
 4498SOL    HW124953   2.317   1.246   1.413  0.4247 -0.3626  0.6631
 4498SOL    HW224954   2.259   1.310   1.299 -4.0065 -0.0763  0.9568
 4499SOL     OW24955   4.549   4.193  17.190 -0.0608  0.0310  0.1335
 4499SOL    HW124956   4.635   4.191  17.148 -0.2126 -1.1911 -0.1159
 4499SOL    HW224957   4.493   4.229  17.122  1.6433  0.1828 -1.2019
 4500SOL     OW24958   0.501   3.177  12.981 -0.3282  0.3998 -0.7045
 4500SOL    HW124959   0.488   3.201  12.889  0.1464  0.5164 -0.7390
 4500SOL    HW224960   0.534   3.256  13.025  1.6665 -0.0909 -1.3182
 4501SOL     OW24961   0.503   1.039   4.762  0.3566  0.1835 -0.0035
 4501SOL    HW124962   0.485   1.007   4.674 -1.6919 -0.5840  0.6791
 4501SOL    HW224963   0.561   1.109   4.733 -0.8057  0.8609 -0.7004
 4502SOL     OW24964   0.910   3.018  16.442  0.2122 -0.2930 -0.0403
 4502SOL    HW124965   0.943   2.961  16.512 -2.2286 -0.8716  0.6312
 4502SOL    HW224966   0.875   3.092  16.492  2.4287  0.9888 -0.3517
 4503SOL     OW24967   3.127   0.587   3.874  0.8119 -0.5689 -0.4520
 4503SOL    HW124968   3.175   0.586   3.791  0.3147 -0.0938 -0.7441
 4503SOL    HW224969   3.196   0.611   3.936  0.1527  1.7598 -0.6486
 4504SOL     OW24970   1.593   1.462   6.170 -0.7920  0.3555 -0.7208
 4504SOL    HW124971   1.544   1.478   6.251  1.1161  0.0161  0.5080
 4504SOL    HW224972   1.632   1.549   6.161  1.4143 -0.5410 -0.0337
 4505SOL     OW24973   1.751   4.306  16.114 -0.1398 -0.0940  0.3071
 4505SOL    HW124974   1.771   4.331  16.024 -1.0271 -1.5927 -0.2867
 4505SOL    HW224975   1.668   4.350  16.130 -1.1742 -2.2819  0.9975
 4506SOL     OW24976   1.456   4.171   8.164  0.2258 -0.3000 -0.2043
 4506SOL    HW124977   1.374   4.127   8.144  0.5002 -1.2644  0.7754
 4506SOL    HW224978   1.500   4.093   8.199 -0.8164  0.0085  1.7888
 4507SOL     OW24979   1.142   1.503   2.798  0.2321  0.0794 -0.3491
 4507SOL    HW124980   1.210   1.512   2.730 -0.4073  2.6408 -0.6438
 4507SOL    HW224981   1.071   1.557   2.765  2.6518  2.1935 -2.1049
 4508SOL     OW24982   4.375   0.484   4.069  0.0113  0.5768 -0.1685
 4508SOL    HW124983   4.405   0.572   4.092  0.4426 -0.6952  4.1225
 4508SOL    HW224984   4.443   0.433   4.113 -0.6300 -0.0769  0.0605
 4509SOL     OW24985   1.627   3.786   7.565 -0.5344 -0.1099 -0.8880
 4509SOL    HW124986   1.551   3.828   7.605  0.7518 -0.8623  2.2986
 4509SOL    HW224987   1.578   3.706   7.544  3.2271 -2.6028 -0.0477
 4510SOL     OW24988   4.263   1.965   5.427  0.4610 -0.1099 -0.0670
 4510SOL    HW124989   4.238   1.921   5.345  0.1810  0.2910 -0.2013
 4510SOL    HW224990   4.273   1.888   5.483 -1.1233 -1.0270 -1.0511
 4511SOL     OW24991   2.187   2.543  10.998  0.3438 -0.0979 -0.0095
 4511SOL    HW124992   2.154   2.459  10.965  0.7220 -0.7834  1.3639
 4511SOL    HW224993   2.222   2.586  10.920 -0.3800  0.1683 -0.1889
 4512SOL     OW24994   1.206   1.179  15.367  0.0311  0.1406  0.1457
 4512SOL    HW124995   1.185   1.188  15.274 -1.0505 -0.0454  0.3699
 4512SOL    HW224996   1.193   1.085  15.378  1.5014 -0.1082 -0.1937
 4513SOL     OW24997   2.330   3.642  16.210 -0.2055 -0.3369  0.2297
 4513SOL    HW124998   2.351   3.579  16.279 -1.8840 -1.6306 -0.4167
 4513SOL    HW224999   2.312   3.722  16.258  3.5770 -0.6299  2.1107
 4514SOL     OW25000   4.605   3.889  12.275  0.5138 -0.0241 -0.2303
 4514SOL    HW125001   4.553   3.891  12.194  0.7972  3.0525 -0.3266
 4514SOL    HW225002   4.598   3.796  12.294 -1.2022  0.1269 -0.1443
 4515SOL     OW25003   2.622   4.357   8.212 -0.1728 -0.7859  0.2424
 4515SOL    HW125004   2.568   4.306   8.273 -2.6854  1.1775 -0.3568
 4515SOL    HW225005   2.708   4.349   8.252  1.1012 -1.2376 -2.5407
 4516SOL     OW25006   0.165   1.238   1.770  0.2634  0.4642 -0.3228
 4516SOL    HW125007   0.237   1.301   1.778 -0.1800  1.1028 -1.3431
 4516SOL    HW225008   0.158   1.204   1.859 -1.3400  1.4746 -0.0550
 4517SOL     OW25009   4.602   2.569  17.609 -0.0348  0.3942 -0.5253
 4517SOL    HW125010   4.537   2.614  17.554 -1.8863  0.4573  1.7204
 4517SOL    HW225011   4.665   2.548  17.540  3.4148  1.9329  2.1556
 4518SOL     OW25012   0.670   0.490   7.807 -0.2238  0.0094 -0.3375
 4518SOL    HW125013   0.657   0.540   7.726 -2.3695 -0.6122 -0.3871
 4518SOL    HW225014   0.607   0.418   7.797  2.6305 -2.6183  0.6613
 4519SOL     OW25015   1.230   3.077   8.983 -0.2468  0.5768  0.0538
 4519SOL    HW125016   1.142   3.041   8.972  0.1522 -0.2818 -0.2527
 4519SOL    HW225017   1.264   3.006   9.038  1.5726 -0.3931 -2.3494
 4520SOL     OW25018   3.653   3.572   8.840 -0.6877  0.4755 -0.0014
 4520SOL    HW125019   3.709   3.501   8.809 -1.2353  1.1478 -2.5991
 4520SOL    HW225020   3.712   3.647   8.837 -0.2433  0.1408  0.6141
 4521SOL     OW25021   3.763   1.293   7.355 -0.1905 -0.0233 -0.4549
 4521SOL    HW125022   3.677   1.307   7.393 -0.1919 -1.0628 -0.0798
 4521SOL    HW225023   3.813   1.373   7.372 -0.1332  0.3338 -2.3127
 4522SOL     OW25024   3.216   2.534  13.502  0.1892  0.3534  0.3015
 4522SOL    HW125025   3.303   2.508  13.472  0.0810  1.0310 -0.5865
 4522SOL    HW225026   3.231   2.597  13.573  1.4908 -0.9528  1.1883
 4523SOL     OW25027   1.105   0.426   3.007  0.3851 -0.1480 -0.2040
 4523SOL    HW125028   1.062   0.347   3.040 -2.0394  1.6755  1.0125
 4523SOL    HW225029   1.155   0.393   2.933  0.2852 -0.5709 -0.0798
 4524SOL     OW25030   1.407   1.219   8.035 -0.2547 -0.4306 -0.3449
 4524SOL    HW125031   1.485   1.180   8.073 -0.4883  0.1700  0.7798
 4524SOL    HW225032   1.346   1.200   8.107 -1.8735  1.8149 -1.1242
 4525SOL     OW25033   0.362   1.914  11.117 -0.5937  0.4741  0.0269
 4525SOL    HW125034   0.399   1.825  11.114  2.5001  1.7636  0.0945
 4525SOL    HW225035   0.301   1.914  11.044  1.2606  0.7279 -1.5056
 4526SOL     OW25036   4.036   3.200   6.749 -0.2321  0.2678  0.0768
 4526SOL    HW125037   4.059   3.249   6.828 -2.8548 -0.5472  1.3278
 4526SOL    HW225038   4.051   3.107   6.769 -0.1475  0.2087 -0.2625
 4527SOL     OW25039   3.379   3.909   0.369  0.5603 -0.0871  0.1754
 4527SOL    HW125040   3.345   3.882   0.455  1.9167  1.2163  1.1121
 4527SOL    HW225041   3.371   3.826   0.321  0.0685 -0.4619  0.8879
 4528SOL     OW25042   2.226   3.752   4.062  0.6263 -0.0395 -0.0858
 4528SOL    HW125043   2.189   3.784   3.979  1.5812  1.5732  0.1111
 4528SOL    HW225044   2.294   3.691   4.034 -1.7009 -2.4904 -0.4409
 4529SOL     OW25045   0.034   4.463   6.740  0.6187 -0.5944  0.2890
 4529SOL    HW125046   0.090   4.440   6.814  1.4922 -0.4885 -0.3471
 4529SOL    HW225047   0.030   4.556   6.763  2.4773 -0.2871 -0.6369
 4530SOL     OW25048   2.089   3.617  17.460 -0.4707 -0.3816 -0.1488
 4530SOL    HW125049   2.067   3.693  17.408  3.3521  0.7035 -0.1636
 4530SOL    HW225050   2.107   3.661  17.543 -0.7372  1.7683 -1.2545
 4531SOL     OW25051   2.390   3.998   6.119 -0.0509 -0.3093  0.1867
 4531SOL    HW125052   2.312   3.985   6.173 -1.4518 -1.2707 -2.0797
 4531SOL    HW225053   2.377   3.924   6.059  3.8282  1.2001 -2.5035
 4532SOL     OW25054   2.831   0.241   1.225  0.3282  0.4090 -0.4450
 4532SOL    HW125055   2.909   0.276   1.182  0.7407  0.4539  0.3525
 4532SOL    HW225056   2.857   0.247   1.317  0.6310 -1.4137 -0.4085
 4533SOL     OW25057   0.909   2.235   7.851 -0.3252 -0.2833  0.1584
 4533SOL    HW125058   0.952   2.184   7.782 -2.5435  1.3047 -2.4057
 4533SOL    HW225059   0.978   2.292   7.886  0.1978 -1.1168  0.4884
 4534SOL     OW25060   1.436   2.149  14.264 -0.0455  0.0017  0.7866
 4534SOL    HW125061   1.471   2.172  14.179  2.6158 -1.0414  1.6097
 4534SOL    HW225062   1.502   2.084  14.288  0.3058 -0.0849 -0.4601
 4535SOL     OW25063   1.743   3.412   3.243  0.2091  0.4143 -0.1232
 4535SOL    HW125064   1.731   3.481   3.308  1.3756  0.1336  0.3912
 4535SOL    HW225065   1.838   3.400   3.251  0.4512  2.8462  0.8706
 4536SOL     OW25066   3.602   0.623   4.986 -0.9447  0.1382 -0.4043
 4536SOL    HW125067   3.596   0.603   5.080 -1.0234  1.2680 -0.1673
 4536SOL    HW225068   3.696   0.609   4.976 -0.8735 -0.0565  0.5462
 4537SOL     OW25069   0.510   1.152  13.217  0.3594  0.0565  0.2410
 4537SOL    HW125070   0.549   1.084  13.272 -0.9377 -1.1326 -0.3395
 4537SOL    HW225071   0.582   1.160  13.153 -0.5553 -1.7969 -1.0063
 4538SOL     OW25072   3.693   2.241   3.958 -0.2376  0.1018  0.5414
 4538SOL    HW125073   3.721   2.163   3.910  0.6391  0.0900  1.0689
 4538SOL    HW225074   3.600   2.222   3.974  0.0803 -0.6520  1.5305
 4539SOL     OW25075   3.598   0.607   9.135  0.1078 -0.2767  0.3269
 4539SOL    HW125076   3.542   0.594   9.211 -0.9220  1.3330 -0.1494
 4539SOL    HW225077   3.615   0.518   9.104  0.2055 -0.3267  0.5237
 4540SOL     OW25078   0.702   1.271   0.746 -0.3936  0.0202 -0.4127
 4540SOL    HW125079   0.675   1.197   0.692 -1.1930  0.3375 -0.4499
 4540SOL    HW225080   0.647   1.253   0.821  0.7012  1.3101  0.7074
 4541SOL     OW25081   1.482   0.808   4.462  0.2164 -0.1473  0.1664
 4541SOL    HW125082   1.437   0.875   4.514 -0.9121  0.5677 -1.7182
 4541SOL    HW225083   1.403   0.785   4.414  0.3151  3.4317 -1.7395
 4542SOL     OW25084   1.169   3.376  10.049  0.4801  0.0503 -0.1231
 4542SOL    HW125085   1.175   3.453  10.106 -0.0331 -0.7338  0.9838
 4542SOL    HW225086   1.167   3.309  10.117  0.2522 -0.7731 -0.9436
 4543SOL     OW25087   2.717   0.421   7.173  0.2412  0.5198  0.0197
 4543SOL    HW125088   2.798   0.433   7.122 -0.1108  0.6871 -0.5073
 4543SOL    HW225089   2.709   0.497   7.230 -0.9885  1.2992 -1.2080
 4544SOL     OW25090   3.724   4.145   1.643 -0.2144  0.4168  0.1311
 4544SOL    HW125091   3.789   4.105   1.584 -1.9435 -0.4705 -1.1662
 4544SOL    HW225092   3.747   4.113   1.730  3.1454  1.5110 -0.3554
 4545SOL     OW25093   4.205   1.067   8.344 -0.2155 -0.0464  0.5863
 4545SOL    HW125094   4.220   1.073   8.249  0.3966 -0.7581  0.6401
 4545SOL    HW225095   4.284   1.113   8.374 -0.3592 -1.0468  2.4813
 4546SOL     OW25096   1.561   2.902   5.273  0.4944  0.3544 -0.0813
 4546SOL    HW125097   1.472   2.908   5.238  0.6484  0.7538 -0.3962
 4546SOL    HW225098   1.599   2.988   5.257 -1.8847  1.6083  0.9669
 4547SOL     OW25099   2.765   2.156   2.644 -0.5860 -0.7198 -0.0415
 4547SOL    HW125100   2.853   2.191   2.628 -0.4538  0.6823  3.7050
 4547SOL    HW225101   2.739   2.132   2.555  0.4291 -1.4440 -0.1405
 4548SOL     OW25102   4.237   3.666   4.454 -0.0392 -0.6018  0.3989
 4548SOL    HW125103   4.310   3.605   4.459  1.4879  1.2285  0.1588
 4548SOL    HW225104   4.264   3.746   4.409 -2.3390 -0.8005 -1.3532
 4549SOL     OW25105   2.256   2.797   3.214  0.1667 -0.4579 -0.1255
 4549SOL    HW125106   2.245   2.778   3.307  0.5889  2.0007  0.4288
 4549SOL    HW225107   2.202   2.876   3.206  2.2462  0.9601 -0.0813
 4550SOL     OW25108   4.305   4.137   4.216  0.1484 -0.6943  0.1413
 4550SOL    HW125109   4.329   4.131   4.123 -0.3418 -0.6421  0.0127
 4550SOL    HW225110   4.329   4.228   4.236 -0.3263 -0.7452  0.9230
 4551SOL     OW25111   1.716   3.860  10.496  0.0127  0.3352 -0.1341
 4551SOL    HW125112   1.796   3.912  10.491 -0.0597  0.4311 -0.3175
 4551SOL    HW225113   1.738   3.791  10.558  0.0589  0.5322  0.0686
 4552SOL     OW25114   0.615   0.973   3.194  0.0426 -0.0121  0.1260
 4552SOL    HW125115   0.624   0.956   3.287 -0.2049  0.0339  0.1572
 4552SOL    HW225116   0.657   0.894   3.159 -3.4549 -0.8788 -2.0812
 4553SOL     OW25117   0.545   3.104  12.337  0.3240 -0.2168  0.0066
 4553SOL    HW125118   0.507   3.045  12.271 -0.3139  1.2325 -0.9130
 4553SOL    HW225119   0.581   3.040  12.398 -1.0928  0.8766  1.9863
 4554SOL     OW25120   0.336   4.319   2.761 -0.1776 -0.0522  0.3468
 4554SOL    HW125121   0.277   4.289   2.830 -0.1937  0.7576  0.6807
 4554SOL    HW225122   0.416   4.270   2.778 -0.4757 -0.7831 -0.3275
 4555SOL     OW25123   2.329   3.748   7.495 -0.3381 -0.0925 -0.3450
 4555SOL    HW125124   2.243   3.712   7.514  0.4414 -1.1043  1.1788
 4555SOL    HW225125   2.352   3.694   7.419  1.7517  0.3740 -0.0564
 4556SOL     OW25126   0.267   1.592   3.638 -0.0839 -0.2558  0.0921
 4556SOL    HW125127   0.353   1.576   3.601 -0.2347  0.0459 -0.3854
 4556SOL    HW225128   0.274   1.535   3.715  2.0418  1.1662  0.9250
 4557SOL     OW25129   1.178   1.333   5.882  0.2857 -0.5035 -0.3509
 4557SOL    HW125130   1.240   1.267   5.913  0.9300 -0.4959 -1.6236
 4557SOL    HW225131   1.214   1.348   5.794  0.6574 -0.1122 -0.1336
 4558SOL     OW25132   2.695   0.187   7.382  0.1073 -0.1944  0.3078
 4558SOL    HW125133   2.678   0.199   7.475  0.2297  0.5811  0.2305
 4558SOL    HW225134   2.747   0.267   7.373 -2.4682  1.5942  1.5006
 4559SOL     OW25135   1.645   0.807   6.884  0.2098  0.9621 -0.7280
 4559SOL    HW125136   1.707   0.743   6.919 -2.0191 -0.7699  0.0730
 4559SOL    HW225137   1.584   0.746   6.843  0.5954  0.3807 -0.4395
 4560SOL     OW25138   3.911   1.873   3.310 -0.5288 -0.5475  0.6335
 4560SOL    HW125139   3.943   1.954   3.270 -1.7245 -0.5923 -0.4197
 4560SOL    HW225140   3.981   1.811   3.288 -0.6913 -1.0731  1.6043
 4561SOL     OW25141   0.608   1.809   7.053 -0.0110  0.2307 -0.1706
 4561SOL    HW125142   0.683   1.833   6.998 -0.3240  2.6971  0.4977
 4561SOL    HW225143   0.553   1.753   6.999 -0.5804  1.3715 -0.7827
 4562SOL     OW25144   1.482   1.018  13.479 -0.3854 -0.5791  0.1485
 4562SOL    HW125145   1.570   0.981  13.474 -0.9728 -1.9006 -0.4929
 4562SOL    HW225146   1.425   0.941  13.482 -1.3903  0.2724  2.8633
 4563SOL     OW25147   4.404   0.815  10.860 -0.3544 -1.0803 -0.2769
 4563SOL    HW125148   4.411   0.834  10.767  1.3618 -0.1449  0.0453
 4563SOL    HW225149   4.468   0.744  10.870 -0.3043 -0.7318  1.9967
 4564SOL     OW25150   2.708   4.095   5.080  0.0236  0.1108 -0.8952
 4564SOL    HW125151   2.761   4.163   5.038 -1.6040  0.4879 -2.3484
 4564SOL    HW225152   2.638   4.156   5.104  2.1533  3.0815 -2.3017
 4565SOL     OW25153   4.061   3.873   4.793  0.1278  0.5170  0.2247
 4565SOL    HW125154   4.035   3.892   4.883 -0.0742 -2.3651  0.7846
 4565SOL    HW225155   4.112   3.792   4.793 -1.0863 -0.2371 -1.1846
 4566SOL     OW25156   0.762   3.784   2.733  0.3027  0.0083  0.0829
 4566SOL    HW125157   0.796   3.835   2.806  0.8304 -0.0111 -0.1485
 4566SOL    HW225158   0.693   3.737   2.780 -1.0017  1.6693 -0.1994
 4567SOL     OW25159   0.485   0.631  15.935 -0.2342 -0.4044 -0.4570
 4567SOL    HW125160   0.449   0.640  16.023 -3.0024 -2.3785 -1.3932
 4567SOL    HW225161   0.502   0.726  15.932  1.3079 -0.6388  0.5156
 4568SOL     OW25162   3.046   1.111   2.825  0.3338 -0.4885 -0.4269
 4568SOL    HW125163   3.122   1.152   2.867 -0.2942  1.0471 -0.7982
 4568SOL    HW225164   3.050   1.022   2.862  2.2304 -0.2611 -0.0595
 4569SOL     OW25165   0.989   2.019  11.435 -0.0594  1.2715  0.3234
 4569SOL    HW125166   0.968   2.080  11.506 -1.7798  1.8483 -0.6762
 4569SOL    HW225167   0.997   1.933  11.476  0.9035  2.5623  2.8765
 4570SOL     OW25168   1.054   0.950   6.554 -0.1217  0.1144  0.2411
 4570SOL    HW125169   1.054   0.917   6.464  0.8566 -2.0132  1.0292
 4570SOL    HW225170   1.070   1.042   6.530  0.5607 -0.6388 -2.2509
 4571SOL     OW25171   3.213   0.676   3.259 -0.0469 -0.1951 -0.1887
 4571SOL    HW125172   3.208   0.708   3.169 -1.5964 -0.5026 -0.2205
 4571SOL    HW225173   3.139   0.616   3.271 -1.4738  1.5573 -0.2693
 4572SOL     OW25174   2.961   1.898   1.903 -0.0006  0.4067 -0.0416
 4572SOL    HW125175   2.866   1.897   1.914 -0.0224 -1.9836 -0.5011
 4572SOL    HW225176   2.987   1.880   1.993  1.3519 -1.9296 -0.8817
 4573SOL     OW25177   2.342   1.938   5.037  0.3326  0.1411  0.3343
 4573SOL    HW125178   2.251   1.969   5.038  0.4339  0.4515 -0.0812
 4573SOL    HW225179   2.367   1.969   5.125  1.0563  1.7672 -0.4348
 4574SOL     OW25180   2.637   1.672  17.016 -0.2373 -0.5106 -0.6107
 4574SOL    HW125181   2.571   1.684  16.948 -0.7844 -0.0823 -0.0009
 4574SOL    HW225182   2.594   1.715  17.090  0.3516  1.2154 -1.2700
 4575SOL     OW25183   1.717   1.081   9.555  0.0003  0.2835  0.4727
 4575SOL    HW125184   1.723   1.157   9.497 -0.3727 -0.4923 -0.6020
 4575SOL    HW225185   1.748   1.009   9.499  1.2058 -0.0893  1.6154
 4576SOL     OW25186   4.167   4.277  12.005  0.5772  0.1305 -0.4544
 4576SOL    HW125187   4.132   4.205  12.058  0.4494 -0.4679 -1.3574
 4576SOL    HW225188   4.259   4.248  12.006  0.8192  0.9135  0.2488
 4577SOL     OW25189   4.048   4.233   3.795 -0.4359 -0.2606 -0.3846
 4577SOL    HW125190   4.075   4.317   3.833  4.4233 -2.3318  0.6726
 4577SOL    HW225191   4.066   4.261   3.705  0.9202  1.4016  0.3927
 4578SOL     OW25192   3.909   4.018   4.177  0.1653 -0.6742  0.4172
 4578SOL    HW125193   3.898   3.927   4.150 -2.1623 -0.7030  1.4547
 4578SOL    HW225194   3.911   4.000   4.271  0.0456  2.2894  0.9804
 4579SOL     OW25195   3.682   2.484   4.678 -0.3849 -0.0068 -0.6009
 4579SOL    HW125196   3.710   2.403   4.721  1.6935 -0.2066 -2.2808
 4579SOL    HW225197   3.770   2.513   4.652 -0.4240  0.2653 -0.4229
 4580SOL     OW25198   1.889   3.168  11.679  0.2051  0.6687 -0.2448
 4580SOL    HW125199   1.953   3.226  11.720  0.0092 -0.1377  1.1956
 4580SOL    HW225200   1.809   3.214  11.704 -0.0264  0.5523 -0.7661
 4581SOL     OW25201   0.993   0.274   3.734 -0.1377  0.2451  0.4481
 4581SOL    HW125202   0.966   0.293   3.823  0.2161  2.1722  0.1404
 4581SOL    HW225203   1.021   0.359   3.700  0.0474 -0.4705 -1.2093
 4582SOL     OW25204   4.476   0.916   7.473  0.6341 -0.0905 -0.0436
 4582SOL    HW125205   4.425   0.925   7.553 -0.2029 -1.8136 -0.3751
 4582SOL    HW225206   4.497   0.822   7.470  0.6578 -0.1417  2.2525
 4583SOL     OW25207   0.459   2.741  17.454 -0.1329  0.1975 -0.3398
 4583SOL    HW125208   0.539   2.786  17.425  0.0870 -0.7945 -1.2241
 4583SOL    HW225209   0.453   2.675  17.386 -0.3096 -2.5973  2.4250
 4584SOL     OW25210   4.412   3.682  15.007  0.3100  0.2468  0.2073
 4584SOL    HW125211   4.381   3.592  15.005  1.7069 -0.2003 -2.4066
 4584SOL    HW225212   4.465   3.697  14.928  2.0649  0.8720  1.4935
 4585SOL     OW25213   2.985   2.286  10.903  0.1066 -0.4858  0.6199
 4585SOL    HW125214   3.027   2.365  10.869 -0.2993 -0.3405  0.4511
 4585SOL    HW225215   2.911   2.275  10.844 -1.1000 -1.0566  2.2137
 4586SOL     OW25216   2.947   3.203   2.250 -0.4738 -0.1666 -0.4290
 4586SOL    HW125217   2.965   3.191   2.157  0.6504 -1.0200 -0.1045
 4586SOL    HW225218   3.032   3.188   2.292 -0.3360  1.3660 -0.1749
 4587SOL     OW25219   1.099   1.732   4.341 -0.0653 -0.0206  0.3922
 4587SOL    HW125220   1.148   1.695   4.267  1.2125  0.9482  0.7434
 4587SOL    HW225221   1.021   1.678   4.345 -0.5407  0.9051  3.1868
 4588SOL     OW25222   3.158   1.488   3.820 -0.0808 -0.2667  0.6032
 4588SOL    HW125223   3.190   1.432   3.890  2.0864 -1.7042 -1.5396
 4588SOL    HW225224   3.136   1.566   3.871  1.0785  0.6734 -0.3289
 4589SOL     OW25225   1.466   1.066  14.778 -0.3348 -0.1209  1.0680
 4589SOL    HW125226   1.527   1.135  14.806 -0.1798  0.7257 -1.3620
 4589SOL    HW225227   1.380   1.100  14.805 -0.3707 -0.0826  0.9026
 4590SOL     OW25228   0.361   1.898   6.872  0.3183  0.0085  0.3257
 4590SOL    HW125229   0.366   1.844   6.793  1.8830 -1.8218  1.6887
 4590SOL    HW225230   0.405   1.977   6.840 -0.8714  1.4128  2.1621
 4591SOL     OW25231   2.085   0.545   8.789  0.1187 -0.3132 -0.1860
 4591SOL    HW125232   2.039   0.549   8.873 -0.5954 -0.3859 -0.5681
 4591SOL    HW225233   2.161   0.602   8.800 -1.5051  2.1228 -1.3641
 4592SOL     OW25234   1.977   2.507   2.410 -0.1026 -0.1457 -0.6487
 4592SOL    HW125235   1.919   2.578   2.438  1.4174  0.5720  0.6901
 4592SOL    HW225236   1.953   2.505   2.318 -1.7269  1.5653 -0.2636
 4593SOL     OW25237   4.222   1.025  11.594  0.6618  0.3456 -0.3944
 4593SOL    HW125238   4.243   1.004  11.685 -1.2003 -0.3591 -0.1215
 4593SOL    HW225239   4.300   0.995  11.547  0.9450 -2.0969  1.6119
 4594SOL     OW25240   0.781   2.959   5.887  0.2930 -0.2895 -0.1567
 4594SOL    HW125241   0.751   3.039   5.844 -1.3479 -1.0336 -0.3695
 4594SOL    HW225242   0.774   2.883   5.830 -0.3900  0.4496 -1.0548
 4595SOL     OW25243   1.182   4.688   2.690  0.1527  0.3280  0.2361
 4595SOL    HW125244   1.264   4.709   2.735 -0.4048  1.1744  0.8750
 4595SOL    HW225245   1.117   4.705   2.759  1.1287  0.3434  1.1574
 4596SOL     OW25246   1.499   0.028   6.547 -0.3964 -0.4051 -0.1769
 4596SOL    HW125247   1.532   0.002   6.633 -0.2358  0.9347  0.1631
 4596SOL    HW225248   1.571   0.002   6.489  0.5525  1.5087  0.1470
 4597SOL     OW25249   2.435   1.574   1.075  0.1322  0.2894  0.0806
 4597SOL    HW125250   2.389   1.593   0.993  0.2491 -0.2993 -0.1223
 4597SOL    HW225251   2.491   1.651   1.079  1.1033 -0.3645 -1.1133
 4598SOL     OW25252   3.812   1.946   9.279 -0.6282 -0.0905 -0.7092
 4598SOL    HW125253   3.736   1.958   9.335 -0.4685  2.1602 -0.9834
 4598SOL    HW225254   3.820   1.852   9.259 -3.1640 -0.0758 -1.7700
 4599SOL     OW25255   0.373   2.046  12.096  0.2615  0.2487 -0.3685
 4599SOL    HW125256   0.415   1.975  12.145  0.1236 -0.1185 -0.7798
 4599SOL    HW225257   0.434   2.058  12.024 -0.6328 -1.0578 -1.3486
 4600SOL     OW25258   4.137   1.264   4.217 -0.5601 -0.0146  0.0501
 4600SOL    HW125259   4.048   1.266   4.250 -0.9576 -2.7502 -0.8905
 4600SOL    HW225260   4.125   1.299   4.129 -1.0382  0.5087  0.3231
 4601SOL     OW25261   2.248   0.082   5.122 -0.6351 -0.1481  0.1277
 4601SOL    HW125262   2.339   0.057   5.105 -1.2498 -2.6025  0.4648
 4601SOL    HW225263   2.237   0.053   5.212  0.0966  3.4947  1.3875
 4602SOL     OW25264   4.678   1.689  12.859 -0.6278  0.7232 -0.0864
 4602SOL    HW125265   4.602   1.713  12.806 -0.5750  0.7999 -0.1258
 4602SOL    HW225266   0.023   1.671  12.794 -1.2553  0.3045 -0.6344
 4603SOL     OW25267   1.680   0.808  16.791  0.3560 -0.1247  0.4925
 4603SOL    HW125268   1.661   0.800  16.884  2.2324 -0.9313  0.8129
 4603SOL    HW225269   1.651   0.725  16.753  2.3825 -1.0053  0.8534
 4604SOL     OW25270   3.793   3.530   0.925 -0.4838  0.0735 -0.1051
 4604SOL    HW125271   3.872   3.573   0.960 -0.0586 -1.4472  0.7866
 4604SOL    HW225272   3.778   3.571   0.840 -0.8212  0.8715  0.3342
 4605SOL     OW25273   4.054   2.582   4.428  0.1619  0.2751  0.0198
 4605SOL    HW125274   4.032   2.492   4.403 -0.9198  0.4874  0.2282
 4605SOL    HW225275   4.075   2.622   4.344 -0.8395  1.8216  0.5193
 4606SOL     OW25276   2.375   4.080   7.858  0.0840  0.1094  0.4503
 4606SOL    HW125277   2.316   4.112   7.789  0.8305 -1.1898 -0.7996
 4606SOL    HW225278   2.326   4.122   7.929 -1.2113 -0.6375  0.0098
 4607SOL     OW25279   0.524   0.301   8.898 -0.1126 -0.5157  0.5568
 4607SOL    HW125280   0.472   0.222   8.886 -0.2174 -0.1383 -1.5519
 4607SOL    HW225281   0.515   0.318   8.992 -1.6735 -1.3135  0.5510
 4608SOL     OW25282   0.424   1.256   4.133  0.1440  0.4254 -0.4118
 4608SOL    HW125283   0.468   1.314   4.195  1.1500  0.7315 -1.4059
 4608SOL    HW225284   0.467   1.278   4.050  2.3680 -2.1993  0.0618
 4609SOL     OW25285   2.207   4.275  15.255  0.4002  0.2296 -0.0078
 4609SOL    HW125286   2.249   4.189  15.247 -0.2720 -0.1573  0.6194
 4609SOL    HW225287   2.272   4.307  15.318 -1.0651  1.8391  0.6579
 4610SOL     OW25288   3.488   3.869   7.516 -0.2681 -0.1320  0.1819
 4610SOL    HW125289   3.486   3.773   7.516  1.2630 -0.1533  0.8555
 4610SOL    HW225290   3.404   3.878   7.471 -0.9456 -2.0430  1.0570
 4611SOL     OW25291   2.352   0.128   2.040  0.3443 -0.1682  0.6829
 4611SOL    HW125292   2.437   0.084   2.043 -0.3582 -1.4907  1.6015
 4611SOL    HW225293   2.315   0.082   1.965  1.6591 -1.3157  0.7452
 4612SOL     OW25294   3.873   2.560  15.833 -0.4617 -0.2044  0.4215
 4612SOL    HW125295   3.928   2.630  15.868  0.3407 -1.9807  2.7293
 4612SOL    HW225296   3.788   2.594  15.860 -0.7054 -0.2431 -0.2981
 4613SOL     OW25297   3.340   0.417   4.729  0.0770  0.1078 -0.8698
 4613SOL    HW125298   3.267   0.454   4.680 -1.0443 -2.8414 -1.4558
 4613SOL    HW225299   3.316   0.325   4.744 -1.6424  0.7285  0.1771
 4614SOL     OW25300   3.977   1.986  15.427  0.4976  0.3656 -0.0097
 4614SOL    HW125301   4.037   1.934  15.480  1.6947  0.1418 -1.5659
 4614SOL    HW225302   3.946   2.057  15.483  0.8120  0.8280 -0.4193
 4615SOL     OW25303   3.520   4.524   0.889  0.5720  0.1976  0.3622
 4615SOL    HW125304   3.602   4.569   0.870 -0.6848  0.4906 -4.4553
 4615SOL    HW225305   3.543   4.431   0.891  1.7342  0.4959  0.6395
 4616SOL     OW25306   3.818   0.570   3.003  0.3561  0.3917  0.5438
 4616SOL    HW125307   3.853   0.496   2.953 -1.2568 -1.3615  1.9993
 4616SOL    HW225308   3.852   0.644   2.952  0.7419  0.5117  0.9739
 4617SOL     OW25309   2.507   2.992   0.805 -0.3418  0.2088 -0.0595
 4617SOL    HW125310   2.417   3.008   0.777 -0.6204  0.5630  1.0160
 4617SOL    HW225311   2.534   3.070   0.854 -0.3964 -0.2925  0.7600
 4618SOL     OW25312   2.409   2.415  15.709  0.3019  0.6157 -0.3713
 4618SOL    HW125313   2.478   2.476  15.737  1.4910 -1.3191  0.8469
 4618SOL    HW225314   2.400   2.428  15.614  2.5252  0.8518 -0.5457
 4619SOL     OW25315   4.365   3.122  16.396  0.0258 -0.4625 -0.2117
 4619SOL    HW125316   4.302   3.131  16.324  0.2240  2.5353 -0.0215
 4619SOL    HW225317   4.339   3.035  16.426 -0.0049 -0.5463 -0.4751
 4620SOL     OW25318   3.839   4.127   0.717 -0.2955  0.2102  0.2376
 4620SOL    HW125319   3.912   4.091   0.768 -1.0780 -1.0116  0.4832
 4620SOL    HW225320   3.779   4.159   0.784  0.7305  0.6083  0.9645
 4621SOL     OW25321   3.176   1.159   4.000 -0.0470  0.3939 -0.4524
 4621SOL    HW125322   3.242   1.218   3.964  0.2199  0.0175 -0.5753
 4621SOL    HW225323   3.092   1.187   3.963  0.0620  0.8403 -0.3526
 4622SOL     OW25324   0.462   1.835  12.217 -0.3160 -0.3995  0.7870
 4622SOL    HW125325   0.484   1.758  12.270 -0.2230 -1.1521 -0.3368
 4622SOL    HW225326   0.369   1.820  12.202 -0.4121  1.5077 -0.4890
 4623SOL     OW25327   2.130   3.209  14.049 -0.2118  0.3205 -0.6563
 4623SOL    HW125328   2.060   3.217  14.113 -0.2266 -3.3969 -0.2376
 4623SOL    HW225329   2.140   3.304  14.037  1.8562 -0.0534 -1.8865
 4624SOL     OW25330   2.130   1.580   6.238 -0.2260  0.7126  0.2840
 4624SOL    HW125331   2.147   1.610   6.149 -0.1690 -0.6541 -0.1547
 4624SOL    HW225332   2.120   1.661   6.290 -4.1169 -0.0916  0.8106
 4625SOL     OW25333   4.416   1.311   9.782 -0.1583  0.4440 -0.6388
 4625SOL    HW125334   4.474   1.311   9.706  1.9933  3.2254  0.9968
 4625SOL    HW225335   4.453   1.383   9.832  1.7173 -0.2194 -1.0709
 4626SOL     OW25336   1.143   2.542  15.579 -0.3133 -0.7128 -0.2136
 4626SOL    HW125337   1.161   2.569  15.489  0.8541 -1.3236 -0.1733
 4626SOL    HW225338   1.093   2.621  15.598  4.4815  2.4905 -0.7462
 4627SOL     OW25339   1.638   2.245   4.964 -0.7103  0.0047 -0.5930
 4627SOL    HW125340   1.607   2.233   4.875  0.7321  0.8036 -1.2130
 4627SOL    HW225341   1.596   2.331   4.970 -0.4909  0.1339 -0.8904
 4628SOL     OW25342   0.249   0.025  10.807  0.3328 -0.0451 -0.3910
 4628SOL    HW125343   0.221   0.042  10.897 -0.7512  0.4731 -0.8311
 4628SOL    HW225344   0.170   4.702  10.777 -1.0373  2.1690 -0.1421
 4629SOL     OW25345   1.901   3.356  14.756  0.4634  0.1665 -0.4464
 4629SOL    HW125346   1.942   3.418  14.817  1.9364 -1.1637 -0.0942
 4629SOL    HW225347   1.965   3.359  14.685 -0.8692  0.3579 -1.6291
 4630SOL     OW25348   2.818   0.026   9.361  0.5131 -0.6806 -0.0550
 4630SOL    HW125349   2.817   4.667   9.311  1.2059 -1.1411  0.6848
 4630SOL    HW225350   2.726   0.053   9.360  0.7031  0.0977  2.4014
 4631SOL     OW25351   0.006   0.236   8.881  0.2724  0.1572  0.4757
 4631SOL    HW125352   4.659   0.190   8.834  0.9167 -1.8501  1.4858
 4631SOL    HW225353   0.077   0.215   8.820  0.0232 -1.2971  0.6883
 4632SOL     OW25354   1.531   3.395   3.050 -0.1395  0.5163 -0.5207
 4632SOL    HW125355   1.584   3.358   2.979 -1.6961 -0.4863 -1.1516
 4632SOL    HW225356   1.603   3.399   3.113  0.0935  2.2703 -0.9046
 4633SOL     OW25357   0.200   1.056   2.008  0.6509 -0.9986 -0.3428
 4633SOL    HW125358   0.224   0.992   1.941 -0.6295 -1.9040  0.0848
 4633SOL    HW225359   0.276   1.084   2.059  0.9583  0.1576 -1.4249
 4634SOL     OW25360   2.893   3.887   9.321 -0.1034 -0.4512 -0.1854
 4634SOL    HW125361   2.843   3.960   9.286  0.2917  0.8145  1.9157
 4634SOL    HW225362   2.816   3.851   9.367  0.8764  0.1498  1.9430
 4635SOL     OW25363   3.767   0.193   6.460  0.2921 -0.0794  0.1834
 4635SOL    HW125364   3.708   0.137   6.509 -0.5524  0.2087 -0.5093
 4635SOL    HW225365   3.711   0.207   6.384 -1.4840  0.1593  1.5416
 4636SOL     OW25366   0.054   0.355   8.076  0.3543 -0.1981  0.3477
 4636SOL    HW125367   4.694   0.381   8.036 -0.8261 -0.0856  2.8975
 4636SOL    HW225368   0.048   0.404   8.158  0.3448 -0.8669  0.7434
 4637SOL     OW25369   1.898   3.061   9.249  0.1553  0.1179 -0.2187
 4637SOL    HW125370   1.855   2.998   9.191 -1.3220  1.7374 -0.8791
 4637SOL    HW225371   1.861   3.024   9.329  1.3660  2.0143  1.2245
 4638SOL     OW25372   2.773   4.322   9.066 -0.0817  0.0087  0.1020
 4638SOL    HW125373   2.703   4.383   9.089  0.0416  1.1642 -2.4609
 4638SOL    HW225374   2.726   4.256   9.015  0.0996  0.4461 -0.6333
 4639SOL     OW25375   0.445   0.977  15.381 -0.1298 -0.3748  0.1995
 4639SOL    HW125376   0.456   0.954  15.474  2.0396 -2.0042 -0.4655
 4639SOL    HW225377   0.534   0.978  15.346 -0.5524  0.8680 -0.8212
 4640SOL     OW25378   3.372   0.552  14.360 -0.7547 -0.0338 -0.0341
 4640SOL    HW125379   3.388   0.612  14.432 -1.8780  1.7734 -1.2948
 4640SOL    HW225380   3.422   0.595  14.290 -0.5050 -1.2180 -0.5969
 4641SOL     OW25381   3.928   0.247  13.651 -0.2772 -0.4019  0.1571
 4641SOL    HW125382   3.987   0.214  13.719  0.0701 -0.7534 -0.3187
 4641SOL    HW225383   3.852   0.263  13.708 -0.5344 -0.4311 -0.1801
 4642SOL     OW25384   3.856   4.018   2.258  0.3181  0.1053  0.0000
 4642SOL    HW125385   3.920   3.994   2.325 -0.8995 -2.2948  0.3132
 4642SOL    HW225386   3.895   3.964   2.190 -0.6329  0.6710 -0.9910
 4643SOL     OW25387   3.181   3.919   4.253  0.1233 -0.0550  0.1417
 4643SOL    HW125388   3.187   3.887   4.342  2.5627 -1.3337 -0.4930
 4643SOL    HW225389   3.206   4.011   4.263 -0.2042  0.2262 -1.5565
 4644SOL     OW25390   4.560   2.169   7.353  0.0512 -0.1235  0.4474
 4644SOL    HW125391   4.630   2.108   7.375 -0.2436 -0.6757 -0.1237
 4644SOL    HW225392   4.485   2.136   7.404  0.5258  2.0041  2.5442
 4645SOL     OW25393   1.816   4.185  13.697 -0.1411  0.2800  0.2818
 4645SOL    HW125394   1.816   4.213  13.605  0.9395  1.1512  0.5538
 4645SOL    HW225395   1.753   4.246  13.733 -1.5924 -1.5968  0.9088
 4646SOL     OW25396   2.229   0.232   6.895 -0.3076  0.1837  0.3212
 4646SOL    HW125397   2.301   0.224   6.833 -1.5285  1.7112 -1.2832
 4646SOL    HW225398   2.185   0.313   6.872 -3.1974 -0.6816  2.8042
 4647SOL     OW25399   4.625   2.666   9.489  0.6284 -0.1819 -0.3714
 4647SOL    HW125400   4.692   2.653   9.557  1.5724  1.5761 -0.9760
 4647SOL    HW225401   4.629   2.754   9.452  0.0009  0.3434  0.7992
 4648SOL     OW25402   1.205   1.448   8.860 -0.0485  0.2076 -0.4101
 4648SOL    HW125403   1.199   1.394   8.939 -0.3324 -1.5144 -1.6109
 4648SOL    HW225404   1.217   1.536   8.898 -1.7156 -0.3283  1.3837
 4649SOL     OW25405   3.437   3.959   4.556  0.0071 -0.0039 -0.6420
 4649SOL    HW125406   3.342   3.966   4.554 -0.0792 -1.1026 -0.4315
 4649SOL    HW225407   3.462   4.039   4.602  2.1838 -1.4182  0.6206
 4650SOL     OW25408   3.471   1.124   1.763 -0.1476  0.6061 -0.0611
 4650SOL    HW125409   3.435   1.192   1.819  0.0499 -0.8320  1.7790
 4650SOL    HW225410   3.482   1.048   1.819 -1.3136  1.6270  1.5335
 4651SOL     OW25411   4.445   0.018   5.431  0.1953  0.3745 -0.1504
 4651SOL    HW125412   4.486   0.012   5.344 -0.0158  0.5125 -0.2585
 4651SOL    HW225413   4.401   0.102   5.419 -0.7039  0.1964  1.9362
 4652SOL     OW25414   1.770   3.228   4.598 -0.1418  0.2534 -0.4862
 4652SOL    HW125415   1.746   3.180   4.518 -1.4138 -1.5708  0.9856
 4652SOL    HW225416   1.811   3.300   4.551  1.0660 -0.1095  0.0007
 4653SOL     OW25417   0.554   2.993  16.889  0.0351 -0.2462  0.5941
 4653SOL    HW125418   0.568   2.901  16.867 -2.4079 -0.3995 -0.3286
 4653SOL    HW225419   0.507   2.981  16.972 -0.9116  0.4974  0.1650
 4654SOL     OW25420   0.517   2.686   7.981 -1.0624 -0.0860  0.4469
 4654SOL    HW125421   0.547   2.778   7.981  1.1800 -0.8026  1.0391
 4654SOL    HW225422   0.516   2.667   8.075 -1.3421  3.0398  1.0992
 4655SOL     OW25423   2.304   2.033   5.323 -0.0276 -0.0739 -0.2805
 4655SOL    HW125424   2.313   2.059   5.415  1.3293  0.1209 -0.4633
 4655SOL    HW225425   2.315   2.113   5.273  0.3272  0.6111  0.8992
 4656SOL     OW25426   4.580   2.641   7.862 -0.5252 -0.2611 -0.2651
 4656SOL    HW125427   4.602   2.578   7.794 -0.7169  0.1431 -0.7004
 4656SOL    HW225428   4.555   2.581   7.932 -0.7337  0.3161  0.1571
 4657SOL     OW25429   3.680   2.095   7.913 -0.1487  0.7776  0.1344
 4657SOL    HW125430   3.636   2.010   7.918 -0.1723  1.0019  4.3466
 4657SOL    HW225431   3.621   2.155   7.959 -0.8725 -0.7553  1.2201
 4658SOL     OW25432   3.018   1.018   6.853 -0.8323 -0.3336 -0.1807
 4658SOL    HW125433   3.003   0.933   6.893 -0.4001 -0.3899 -0.1436
 4658SOL    HW225434   2.938   1.065   6.879 -1.0472 -0.4860 -0.5698
 4659SOL     OW25435   2.902   3.325   7.975 -0.0948 -0.5229 -0.4607
 4659SOL    HW125436   2.893   3.348   8.068 -0.0556 -0.9481 -0.3477
 4659SOL    HW225437   2.844   3.393   7.941 -0.6118 -0.5528  0.3425
 4660SOL     OW25438   2.519   1.016   5.674  0.4026  0.8931  0.6008
 4660SOL    HW125439   2.576   1.092   5.665 -1.1978  2.1949  1.3934
 4660SOL    HW225440   2.440   1.062   5.704  0.6145  0.7679  1.3604
 4661SOL     OW25441   0.125   1.551   2.799 -0.1713 -0.2617  0.3803
 4661SOL    HW125442   0.044   1.571   2.752  0.5604 -1.3270 -1.3544
 4661SOL    HW225443   0.166   1.637   2.804  0.7421 -0.7878  1.9952
 4662SOL     OW25444   1.330   2.546   2.833  0.3671  0.0957 -0.7703
 4662SOL    HW125445   1.333   2.521   2.925 -3.7432  0.0835 -0.6427
 4662SOL    HW225446   1.412   2.515   2.794  0.4509  1.8606 -2.0378
 4663SOL     OW25447   3.599   2.739  17.522  0.3044 -0.0323 -0.3252
 4663SOL    HW125448   3.630   2.656  17.486 -0.5693 -0.4417 -0.1492
 4663SOL    HW225449   3.551   2.703  17.596  1.4791 -0.3098  0.2988
 4664SOL     OW25450   0.568   2.023  11.862 -0.4656  0.6139  0.6464
 4664SOL    HW125451   0.655   2.012  11.824 -1.2865 -0.5901 -0.8890
 4664SOL    HW225452   0.526   2.066  11.788  1.0846  1.4054  0.2198
 4665SOL     OW25453   4.145   2.669   6.447 -0.3146  0.1745  0.4538
 4665SOL    HW125454   4.216   2.680   6.385  1.1236  0.2895  2.1191
 4665SOL    HW225455   4.124   2.757   6.478  4.4720  1.7070 -0.6869
 4666SOL     OW25456   4.143   0.530  10.871  0.4449  0.0862  0.2188
 4666SOL    HW125457   4.210   0.472  10.905  0.1356 -0.7857 -0.6621
 4666SOL    HW225458   4.122   0.489  10.787 -2.7321 -0.6733  1.3993
 4667SOL     OW25459   0.368   0.709   6.242 -0.3159 -0.3605 -0.6511
 4667SOL    HW125460   0.334   0.704   6.332  0.8864  0.7380 -0.1326
 4667SOL    HW225461   0.456   0.674   6.256  0.2886  0.8227 -1.5501
 4668SOL     OW25462   4.542   0.407  13.352  0.2648  0.4132 -0.1214
 4668SOL    HW125463   4.510   0.326  13.392  0.0599  0.9932  0.8673
 4668SOL    HW225464   4.557   0.381  13.261  0.0838  1.3808 -0.4274
 4669SOL     OW25465   3.737   0.911   6.388  0.5728 -0.9333 -0.1420
 4669SOL    HW125466   3.662   0.907   6.447  2.4259  2.7087  2.4514
 4669SOL    HW225467   3.808   0.873   6.439  1.1893  2.1246  1.2703
 4670SOL     OW25468   2.372   0.236   8.872 -0.2122  0.3550 -0.4325
 4670SOL    HW125469   2.340   0.202   8.788 -1.7995  0.1329  0.2594
 4670SOL    HW225470   2.456   0.192   8.882  0.0710  0.5521 -1.9416
 4671SOL     OW25471   1.332   3.551   0.249 -0.1792  0.0003 -0.3693
 4671SOL    HW125472   1.319   3.640   0.284 -0.9907 -0.6429  0.9640
 4671SOL    HW225473   1.278   3.563   0.171  1.3384  3.2001 -0.9396
 4672SOL     OW25474   0.716   4.246   5.727 -0.6288 -0.1251  0.0230
 4672SOL    HW125475   0.766   4.194   5.664  0.0423  1.5805 -0.8322
 4672SOL    HW225476   0.731   4.333   5.690 -0.3505 -0.9269 -1.7406
 4673SOL     OW25477   0.758   0.945   3.446 -0.3377 -0.2187 -0.7790
 4673SOL    HW125478   0.781   1.023   3.497 -1.4601 -1.1485  1.1198
 4673SOL    HW225479   0.847   0.912   3.438  0.3263  0.9546  1.7219
 4674SOL     OW25480   0.260   0.669  14.749  0.2265  0.2206 -0.1589
 4674SOL    HW125481   0.232   0.645  14.837 -2.1798  4.1250  0.1287
 4674SOL    HW225482   0.352   0.643  14.749  0.8734  2.4968 -1.2045
 4675SOL     OW25483   2.840   3.538  12.465  0.1873 -0.8094  0.0092
 4675SOL    HW125484   2.801   3.450  12.467 -0.6704 -0.4750 -1.6425
 4675SOL    HW225485   2.818   3.569  12.377 -1.0093  1.9649  1.3239
 4676SOL     OW25486   2.362   0.807   7.443  0.4220  0.3627 -0.5798
 4676SOL    HW125487   2.440   0.818   7.496  0.5474 -0.6825 -0.5412
 4676SOL    HW225488   2.370   0.889   7.394  1.9164  0.2382 -0.5390
 4677SOL     OW25489   0.413   4.244   9.100  0.0716 -0.0796  0.1616
 4677SOL    HW125490   0.505   4.270   9.108 -0.2129  0.9284  0.2575
 4677SOL    HW225491   0.383   4.250   9.190  1.2805  0.9530  0.5019
 4678SOL     OW25492   0.522   3.932  16.422  0.0235 -0.1085  0.2010
 4678SOL    HW125493   0.489   3.842  16.425 -0.3969  0.0242 -0.4642
 4678SOL    HW225494   0.511   3.954  16.515 -1.9821  1.0321 -0.3031
 4679SOL     OW25495   2.118   1.098  10.030 -0.0527  0.1387 -0.3647
 4679SOL    HW125496   2.166   1.080   9.949 -0.1747  3.1548 -1.0925
 4679SOL    HW225497   2.129   1.193  10.035 -1.4354  0.3233 -1.0737
 4680SOL     OW25498   1.272   2.246   3.591 -0.1763  0.1234 -0.1754
 4680SOL    HW125499   1.207   2.314   3.574  0.9258  0.8278 -1.4955
 4680SOL    HW225500   1.288   2.227   3.499  0.9075  1.6188 -0.2906
 4681SOL     OW25501   4.662   3.519  17.030  0.0178 -0.0445  0.0306
 4681SOL    HW125502   4.718   3.441  17.032 -0.9319 -0.7334 -0.1177
 4681SOL    HW225503   4.585   3.481  17.073  0.8573 -0.7156  0.9496
 4682SOL     OW25504   4.456   2.118   4.105 -0.1357  0.4089  0.7503
 4682SOL    HW125505   4.439   2.047   4.168 -0.4990  0.8128  1.1113
 4682SOL    HW225506   4.371   2.160   4.090 -1.3333 -2.1792  0.2238
 4683SOL     OW25507   1.693   1.651   4.318 -0.4729  0.3242  0.4166
 4683SOL    HW125508   1.735   1.646   4.404 -2.4944 -1.6589  1.2716
 4683SOL    HW225509   1.649   1.736   4.327 -2.6838 -0.7957  0.1742
 4684SOL     OW25510   2.336   4.057  15.330  0.7963  0.5548 -0.0041
 4684SOL    HW125511   2.356   3.966  15.349 -0.7922 -0.0999 -1.4267
 4684SOL    HW225512   2.424   4.095  15.340 -0.2886  3.5814 -1.8044
 4685SOL     OW25513   3.151   0.502  12.851  0.1320  0.2145 -0.1435
 4685SOL    HW125514   3.136   0.579  12.907  3.2739 -0.3921  1.5525
 4685SOL    HW225515   3.246   0.503  12.842  0.2090  0.0535  0.6473
 4686SOL     OW25516   2.704   1.799   2.857 -0.5262  0.2660  0.4061
 4686SOL    HW125517   2.694   1.727   2.795 -2.3021  0.2468  0.7231
 4686SOL    HW225518   2.767   1.768   2.923 -1.1418 -1.5920  0.1242
 4687SOL     OW25519   3.375   1.864   5.842  0.5640  0.1998 -0.6634
 4687SOL    HW125520   3.444   1.901   5.788  1.7572 -0.2697  0.5310
 4687SOL    HW225521   3.405   1.846   5.931  1.2543 -0.5311 -1.0436
 4688SOL     OW25522   3.701   1.732   8.244 -0.5621  0.1734  0.2629
 4688SOL    HW125523   3.721   1.825   8.254  0.7053  0.2580 -2.8259
 4688SOL    HW225524   3.777   1.698   8.291 -0.6303  0.2885  0.4552
 4689SOL     OW25525   0.538   0.758   4.718  0.3598  0.2264  0.3018
 4689SOL    HW125526   0.487   0.797   4.646  0.3006  1.5296  1.0526
 4689SOL    HW225527   0.593   0.828   4.752  2.2806 -1.2831  0.2737
 4690SOL     OW25528   1.892   1.591  10.918 -0.8102  0.0883  0.2119
 4690SOL    HW125529   1.969   1.543  10.889 -0.3949  1.1164 -0.3902
 4690SOL    HW225530   1.890   1.565  11.010 -0.9420 -0.6459  0.0051
 4691SOL     OW25531   2.075   4.301   2.090  0.9364  0.6852 -0.2940
 4691SOL    HW125532   2.091   4.228   2.151  0.7488 -1.4283 -2.7725
 4691SOL    HW225533   2.159   4.289   2.046  1.0928 -0.7504  0.3728
 4692SOL     OW25534   2.900   4.222   7.483 -0.0033 -0.0083 -0.1702
 4692SOL    HW125535   2.863   4.236   7.571  0.2597 -1.5816  0.1838
 4692SOL    HW225536   2.987   4.261   7.487 -1.1815  2.6042 -0.0050
 4693SOL     OW25537   1.370   0.647   6.996 -0.2305  0.7037 -0.4880
 4693SOL    HW125538   1.405   0.629   6.909  0.8458  0.0182  0.0897
 4693SOL    HW225539   1.348   0.740   6.995 -0.0731  0.7325 -1.1531
 4694SOL     OW25540   3.742   3.584   8.134  0.0927  0.1766  0.5497
 4694SOL    HW125541   3.664   3.628   8.101  0.8096  0.5647 -0.6258
 4694SOL    HW225542   3.813   3.626   8.085 -0.8359  0.8630 -0.2026
 4695SOL     OW25543   3.328   3.790   5.920  0.1631  0.3875  0.2004
 4695SOL    HW125544   3.289   3.715   5.965  2.3494  0.8405  2.8924
 4695SOL    HW225545   3.364   3.841   5.993 -0.3843 -0.6271  1.1839
 4696SOL     OW25546   0.516   4.084   7.121 -0.3799  0.0501 -0.9445
 4696SOL    HW125547   0.503   4.128   7.038 -1.3637  2.6503  0.5915
 4696SOL    HW225548   0.564   4.008   7.087 -0.6072  0.1587 -1.5063
 4697SOL     OW25549   2.529   0.999   1.261 -0.2429 -0.3828 -0.4736
 4697SOL    HW125550   2.606   1.052   1.240  0.2983 -0.9404  0.1208
 4697SOL    HW225551   2.565   0.962   1.341 -1.0592  0.0622  0.0954
 4698SOL     OW25552   3.124   1.269  14.758 -0.3506  0.0990 -0.2114
 4698SOL    HW125553   3.199   1.306  14.806 -0.3488  0.2947 -0.3669
 4698SOL    HW225554   3.152   1.286  14.668 -0.6463  0.0195 -0.3165
 4699SOL     OW25555   1.998   3.539  16.434 -0.3148 -0.7402  0.2709
 4699SOL    HW125556   2.013   3.565  16.344  2.0549 -0.1954  0.8352
 4699SOL    HW225557   2.082   3.530  16.478 -0.7282 -0.5383  1.1090
 4700SOL     OW25558   1.377   2.641   5.211  0.0350  0.2486  0.0742
 4700SOL    HW125559   1.350   2.731   5.227  0.2579  0.6037 -1.5593
 4700SOL    HW225560   1.332   2.589   5.278  2.4503 -0.2225  1.3253
 4701SOL     OW25561   2.965   4.261   3.915  0.6207 -0.9443 -0.2698
 4701SOL    HW125562   2.949   4.174   3.879 -0.6051 -0.4976 -0.8140
 4701SOL    HW225563   3.060   4.266   3.920  0.5838  0.3948 -0.8371
 4702SOL     OW25564   2.983   3.651   7.523 -0.1492  0.3221  0.4086
 4702SOL    HW125565   2.990   3.609   7.609 -0.2814 -0.7760 -0.1143
 4702SOL    HW225566   2.925   3.724   7.545 -1.1722 -0.0282 -1.1212
 4703SOL     OW25567   0.154   2.777   5.669  0.3953 -0.4553  0.0024
 4703SOL    HW125568   0.098   2.732   5.732  1.1584 -1.2205  0.1280
 4703SOL    HW225569   0.220   2.804   5.733 -0.5702  2.7302 -0.3364
 4704SOL     OW25570   1.682   0.542  15.924  0.2544  0.3484 -0.1314
 4704SOL    HW125571   1.677   0.610  15.991 -0.1600  1.1395 -0.9616
 4704SOL    HW225572   1.611   0.569  15.864  1.5301  1.7787 -0.9892
 4705SOL     OW25573   3.391   0.174   1.602 -0.3014 -0.0589 -0.6415
 4705SOL    HW125574   3.392   0.119   1.523 -0.5992 -1.4520  0.3333
 4705SOL    HW225575   3.471   0.146   1.646 -0.0503  0.2465 -0.8982
 4706SOL     OW25576   4.393   4.039  17.358  0.0818  0.4249 -0.0961
 4706SOL    HW125577   4.463   4.062  17.297  1.1210 -3.4967 -0.4152
 4706SOL    HW225578   4.406   4.098  17.431 -2.2773  1.6025 -0.6093
 4707SOL     OW25579   1.268   0.805   8.201  0.6196  0.2700 -0.7420
 4707SOL    HW125580   1.302   0.738   8.260  1.1573  0.7492 -0.5040
 4707SOL    HW225581   1.292   0.768   8.117 -1.7044  0.1555 -1.3296
 4708SOL     OW25582   2.033   4.467   3.570  0.4004  0.0573  0.2624
 4708SOL    HW125583   2.016   4.528   3.498 -0.5684  1.5011  1.7365
 4708SOL    HW225584   2.039   4.380   3.531 -0.1040 -0.2316  0.8351
 4709SOL     OW25585   3.238   2.428   1.217 -0.3706  0.4948 -0.0001
 4709SOL    HW125586   3.142   2.428   1.221 -0.4374 -0.6630 -1.5956
 4709SOL    HW225587   3.242   2.333   1.229 -0.9315  0.5364  0.5290
 4710SOL     OW25588   1.560   1.055   3.764 -0.4533 -0.2258 -0.3189
 4710SOL    HW125589   1.493   1.043   3.831 -0.3574 -0.0198 -0.1893
 4710SOL    HW225590   1.509   1.060   3.683  1.6201 -0.3061 -1.6420
 4711SOL     OW25591   2.063   2.279   8.020 -0.0771  0.2357 -0.2760
 4711SOL    HW125592   1.987   2.235   7.982 -1.2090  0.7951  1.3295
 4711SOL    HW225593   2.129   2.211   8.007 -0.8230 -0.3783 -0.8686
 4712SOL     OW25594   3.658   0.480   1.747  1.1123 -0.2092 -0.6074
 4712SOL    HW125595   3.617   0.424   1.812 -0.9204  0.8878 -0.9508
 4712SOL    HW225596   3.726   0.529   1.794  0.5185  0.9694 -0.9727
 4713SOL     OW25597   1.144   2.039  11.708  0.0197  0.4515 -0.5766
 4713SOL    HW125598   1.201   2.105  11.669  0.9657 -0.7898 -1.3020
 4713SOL    HW225599   1.166   1.960  11.659  1.6600  0.7753 -0.3573
 4714SOL     OW25600   4.677   3.398  13.614 -0.0222 -0.2491 -0.2948
 4714SOL    HW125601   4.667   3.307  13.587  1.0214 -0.0792 -1.2818
 4714SOL    HW225602   4.589   3.413  13.647  0.5169 -2.4569  2.1949
 4715SOL     OW25603   1.826   3.608   1.936 -0.2926 -0.4170 -0.3254
 4715SOL    HW125604   1.825   3.589   1.842 -2.1194  1.6161 -0.7148
 4715SOL    HW225605   1.889   3.679   1.936  0.3399 -0.9714 -1.2115
 4716SOL     OW25606   0.149   0.456  13.215 -0.3086  0.2445 -0.1453
 4716SOL    HW125607   0.130   0.521  13.282  0.7606 -0.2370  0.6054
 4716SOL    HW225608   0.063   0.424  13.186  1.1319 -2.4355 -1.3739
 4717SOL     OW25609   3.033   3.473   3.015 -0.2621 -0.1719 -0.2092
 4717SOL    HW125610   3.113   3.456   3.066 -0.0064 -1.0288 -0.8854
 4717SOL    HW225611   2.985   3.390   3.016 -1.4010  0.5184  2.6598
 4718SOL     OW25612   0.376   1.131   1.230  0.3815  0.3837  0.1131
 4718SOL    HW125613   0.468   1.136   1.204  0.4925 -0.6675  0.3250
 4718SOL    HW225614   0.341   1.079   1.157  0.1540  0.4229  0.1929
 4719SOL     OW25615   0.820   1.921  10.162  0.3033 -0.1221  0.0700
 4719SOL    HW125616   0.820   1.874  10.245 -0.3173 -1.0226 -0.4459
 4719SOL    HW225617   0.806   2.012  10.188  3.3859  0.2915  0.2700
 4720SOL     OW25618   1.906   0.309   0.418 -0.1754  0.3383  0.6036
 4720SOL    HW125619   1.816   0.277   0.423  0.0493 -0.7169 -2.0023
 4720SOL    HW225620   1.900   0.397   0.383 -0.4488  0.2936  0.5386
 4721SOL     OW25621   3.674   2.495   4.100 -0.7223  0.4071 -0.0843
 4721SOL    HW125622   3.766   2.508   4.122 -0.5756  0.6852 -0.8337
 4721SOL    HW225623   3.690   2.408   4.064  0.8632  0.3029  0.9129
 4722SOL     OW25624   2.627   0.854   4.795  0.1249 -0.5192  0.1649
 4722SOL    HW125625   2.687   0.792   4.836  1.0090 -1.0247 -1.8906
 4722SOL    HW225626   2.673   0.938   4.800 -0.0097 -0.7096  4.0458
 4723SOL     OW25627   1.445   1.668   2.612  0.0681  0.5236 -0.2349
 4723SOL    HW125628   1.493   1.724   2.673 -1.3122  1.9197 -0.4027
 4723SOL    HW225629   1.449   1.588   2.665 -0.5449 -0.3496 -1.5009
 4724SOL     OW25630   1.843   2.447   6.405  0.1652  0.1506  0.4808
 4724SOL    HW125631   1.809   2.529   6.441  1.4548  0.5792  0.7217
 4724SOL    HW225632   1.761   2.399   6.414 -0.0374  1.0105  3.1303
 4725SOL     OW25633   3.940   4.312   9.142 -0.3526  0.3924 -0.0271
 4725SOL    HW125634   3.854   4.318   9.184 -1.1924  0.5215 -1.7229
 4725SOL    HW225635   3.988   4.293   9.222  0.6786 -0.5021 -0.8477
 4726SOL     OW25636   0.933   4.202   3.953 -0.3103 -0.3986 -0.6512
 4726SOL    HW125637   0.934   4.192   3.858  3.6029  0.9746 -0.7368
 4726SOL    HW225638   0.845   4.176   3.979 -0.6186 -1.2388 -2.5719
 4727SOL     OW25639   2.707   0.342  10.705 -0.0554 -0.2542 -0.7115
 4727SOL    HW125640   2.623   0.387  10.703 -0.9695 -2.0818 -2.9651
 4727SOL    HW225641   2.769   0.415  10.709  1.2361 -1.4272  0.6714
 4728SOL     OW25642   0.685   2.828   2.307 -0.6475  0.6830 -0.2594
 4728SOL    HW125643   0.692   2.874   2.390 -0.6967 -1.7056  1.0579
 4728SOL    HW225644   0.768   2.780   2.299 -1.5547 -1.0555  0.9143
 4729SOL     OW25645   3.122   1.209   8.725 -0.4085  0.0768 -0.3943
 4729SOL    HW125646   3.044   1.212   8.780 -0.2027 -2.1011 -0.0036
 4729SOL    HW225647   3.185   1.268   8.768 -1.9340  0.7175  0.9539
 4730SOL     OW25648   3.458   2.182   8.077  0.4935  0.2071 -0.3840
 4730SOL    HW125649   3.435   2.100   8.031 -0.1880  0.3912 -0.3779
 4730SOL    HW225650   3.461   2.156   8.169 -4.4569 -1.9767 -0.7970
 4731SOL     OW25651   1.303   0.748   7.370 -0.2837 -0.2222  0.4066
 4731SOL    HW125652   1.248   0.680   7.329 -0.0984  1.4285 -2.5589
 4731SOL    HW225653   1.233   0.811   7.385 -0.4785  0.2767 -2.5892
 4732SOL     OW25654   2.013   0.873   6.748  0.0723  0.2914 -0.0827
 4732SOL    HW125655   2.005   0.936   6.676 -2.0349 -1.1981 -1.1468
 4732SOL    HW225656   2.074   0.816   6.702  0.0885  0.9401 -0.8736
 4733SOL     OW25657   4.598   3.118   9.508  0.6800 -0.5393 -0.2864
 4733SOL    HW125658   4.558   3.199   9.540 -1.2508 -1.7868  0.4245
 4733SOL    HW225659   4.687   3.140   9.537 -0.2653  0.3813  1.9560
 4734SOL     OW25660   1.993   2.471   0.723  0.2997  0.6301 -0.4216
 4734SOL    HW125661   1.983   2.566   0.716 -2.3068  0.4035  0.0075
 4734SOL    HW225662   2.080   2.445   0.693 -0.2490  1.7267 -3.0244
 4735SOL     OW25663   2.760   3.623   4.171 -0.0907  0.8180  0.0120
 4735SOL    HW125664   2.760   3.623   4.075  1.3538 -0.8454  0.0181
 4735SOL    HW225665   2.842   3.670   4.187 -0.2985  1.2288 -0.1219
 4736SOL     OW25666   0.673   3.632   0.622 -0.0952  0.0645  0.2567
 4736SOL    HW125667   0.648   3.544   0.650 -0.6973 -0.1987 -1.1020
 4736SOL    HW225668   0.685   3.605   0.531  0.2326 -1.2249  0.6794
 4737SOL     OW25669   3.161   3.981   6.631  0.0702  0.0562 -0.4837
 4737SOL    HW125670   3.198   4.067   6.611  0.3945 -0.6854 -3.0329
 4737SOL    HW225671   3.202   3.959   6.715  0.5828 -1.3220 -1.0969
 4738SOL     OW25672   3.607   2.016   2.688 -0.2274 -0.1687 -0.3027
 4738SOL    HW125673   3.675   2.034   2.622  1.0622 -1.0421  0.7867
 4738SOL    HW225674   3.669   1.997   2.758  1.3525  0.7093 -1.4674
 4739SOL     OW25675   2.679   4.435   0.814  0.5024 -0.0099  0.1692
 4739SOL    HW125676   2.659   4.493   0.740  0.2039 -2.2048 -1.4776
 4739SOL    HW225677   2.721   4.507   0.862  1.5831 -0.4939 -0.0489
 4740SOL     OW25678   0.115   1.553  13.307 -0.2152 -0.1548 -0.4498
 4740SOL    HW125679   0.086   1.585  13.222  0.5430  0.5493 -0.4492
 4740SOL    HW225680   0.184   1.493  13.279  0.6162  0.8842 -0.6389
 4741SOL     OW25681   1.242   1.980   5.227  0.3379  0.5442 -0.2587
 4741SOL    HW125682   1.266   2.073   5.228  0.7784  0.4173  0.3944
 4741SOL    HW225683   1.325   1.938   5.250  0.3178  0.3094 -0.6114
 4742SOL     OW25684   0.310   1.710   1.598 -0.4179  0.2130 -0.5441
 4742SOL    HW125685   0.387   1.663   1.630 -0.2330  0.7894 -0.1494
 4742SOL    HW225686   0.251   1.710   1.673  1.5843 -0.0913  1.0198
 4743SOL     OW25687   1.570   3.431   2.719  0.0688 -0.3369 -0.1906
 4743SOL    HW125688   1.638   3.454   2.655 -0.8658 -1.8254 -1.7195
 4743SOL    HW225689   1.622   3.354   2.744  0.4574  0.1524  0.5081
 4744SOL     OW25690   2.386   3.846  10.252 -0.3638  0.3636 -0.0231
 4744SOL    HW125691   2.387   3.935  10.218  3.4404  0.0985 -0.5653
 4744SOL    HW225692   2.352   3.798  10.177 -1.7409 -2.5086  2.4420
 4745SOL     OW25693   3.516   0.356  11.418  0.3508  0.7252  0.0233
 4745SOL    HW125694   3.452   0.311  11.473  0.1601 -0.5685 -1.2470
 4745SOL    HW225695   3.491   0.447  11.434 -2.4227  0.4519 -2.5929
 4746SOL     OW25696   1.632   3.710  13.963 -0.3324  0.1405 -0.1985
 4746SOL    HW125697   1.557   3.742  13.913 -1.2964  0.1973  1.2767
 4746SOL    HW225698   1.643   3.786  14.021 -1.0434  0.9331 -1.0888
 4747SOL     OW25699   4.095   4.053   5.276  0.3097  0.0496 -0.4202
 4747SOL    HW125700   4.125   4.067   5.366  0.8014 -1.2065 -0.3812
 4747SOL    HW225701   4.106   4.141   5.240 -1.6267 -0.0695 -1.3000
 4748SOL     OW25702   3.036   2.064   9.131  0.2210 -0.2045 -0.2949
 4748SOL    HW125703   3.077   1.979   9.145 -1.8667 -1.1709 -0.0699
 4748SOL    HW225704   2.958   2.058   9.185  0.6072  2.0271  0.5213
 4749SOL     OW25705   2.460   1.442   7.213 -0.1864 -0.0596 -0.4296
 4749SOL    HW125706   2.540   1.486   7.241  0.5941  0.2380 -3.1420
 4749SOL    HW225707   2.486   1.369   7.156 -2.1161 -0.2165 -1.0989
 4750SOL     OW25708   3.998   1.168   3.238 -0.2182  0.4514 -0.1916
 4750SOL    HW125709   4.063   1.194   3.173  3.2325 -1.4504  2.5154
 4750SOL    HW225710   3.923   1.224   3.215 -0.4999  0.2140  0.1586
 4751SOL     OW25711   0.387   3.387   4.140 -0.0745  0.1521 -0.1575
 4751SOL    HW125712   0.478   3.357   4.139 -0.0839  0.0255  1.7435
 4751SOL    HW225713   0.339   3.308   4.117 -0.1819  0.1223  0.1648
 4752SOL     OW25714   2.812   2.757  15.565  0.0955  0.5236  0.4317
 4752SOL    HW125715   2.735   2.810  15.545 -0.4348  0.1405  1.4562
 4752SOL    HW225716   2.865   2.804  15.629  2.1017 -0.5981 -0.4093
 4753SOL     OW25717   1.992   2.656   9.370 -0.3785  0.5018  0.3534
 4753SOL    HW125718   2.078   2.696   9.360 -0.8153  0.3466 -3.9473
 4753SOL    HW225719   1.947   2.735   9.400 -2.4893 -0.7124  0.3746
 4754SOL     OW25720   3.121   2.670  15.416  0.2376  0.1668  0.0523
 4754SOL    HW125721   3.085   2.759  15.411 -0.6347  0.0172  3.7834
 4754SOL    HW225722   3.208   2.695  15.386 -1.2176  2.9434 -1.8655
 4755SOL     OW25723   0.601   2.941   4.458  0.6316  0.3196 -0.2171
 4755SOL    HW125724   0.609   2.963   4.551 -0.6112  1.5130 -0.3932
 4755SOL    HW225725   0.689   2.905   4.444  0.9695  0.4136  1.6436
 4756SOL     OW25726   1.779   0.566  13.431 -0.0737 -0.0587 -0.0687
 4756SOL    HW125727   1.774   0.550  13.337 -0.4922  2.2651 -0.4462
 4756SOL    HW225728   1.709   0.630  13.431 -0.3600 -0.3724 -0.5957
 4757SOL     OW25729   2.629   0.899   1.981 -0.0729 -0.1527 -0.9593
 4757SOL    HW125730   2.698   0.952   1.941  0.2124 -0.9487 -1.5142
 4757SOL    HW225731   2.674   0.880   2.063 -1.0543  0.8023 -0.1919
 4758SOL     OW25732   0.167   3.582   6.721 -0.0511  0.3770  0.1579
 4758SOL    HW125733   0.075   3.557   6.726 -0.3299  1.2776 -0.4945
 4758SOL    HW225734   0.207   3.541   6.645 -0.1886  0.7054 -0.0891
 4759SOL     OW25735   3.988   4.027   3.256  0.2083 -0.4853 -0.5306
 4759SOL    HW125736   3.990   4.123   3.262 -0.3447 -0.6038  1.5627
 4759SOL    HW225737   3.956   4.003   3.343 -0.3643 -2.0516 -1.1740
 4760SOL     OW25738   0.579   3.822   5.561  0.8984  0.3581 -0.5371
 4760SOL    HW125739   0.579   3.838   5.466 -0.1155 -1.7238 -0.8860
 4760SOL    HW225740   0.547   3.905   5.597  1.5315 -1.0248  3.1358
 4761SOL     OW25741   1.448   2.587   2.205 -0.3704  0.3396 -0.4866
 4761SOL    HW125742   1.527   2.536   2.185 -0.2771  1.1317 -2.1123
 4761SOL    HW225743   1.487   2.671   2.228 -1.1582  0.5942 -0.0710
 4762SOL     OW25744   1.970   4.262   9.210  0.2865  0.0034 -0.1288
 4762SOL    HW125745   2.041   4.243   9.148 -0.1265  0.3460 -0.7103
 4762SOL    HW225746   1.992   4.200   9.279 -1.8925 -0.2165  0.3659
 4763SOL     OW25747   3.007   2.013  12.008  0.0547  0.0677 -0.0690
 4763SOL    HW125748   3.039   2.006  11.918  0.7479 -0.3814  0.2067
 4763SOL    HW225749   3.088   1.989  12.053  0.1356 -0.1865 -0.3442
 4764SOL     OW25750   3.834   2.522   7.054 -0.2325 -0.6958 -0.2832
 4764SOL    HW125751   3.839   2.475   7.137 -0.3846 -0.0987  0.0631
 4764SOL    HW225752   3.823   2.452   6.990 -2.2371 -0.1850 -0.5143
 4765SOL     OW25753   3.117   3.824   8.526  0.9191  0.4738 -0.0517
 4765SOL    HW125754   3.132   3.909   8.568 -1.6526  0.3946  1.0301
 4765SOL    HW225755   3.133   3.766   8.600  1.6778  0.5064 -0.1907
 4766SOL     OW25756   2.591   2.122   6.801  0.2543  0.7015  0.0450
 4766SOL    HW125757   2.545   2.039   6.792 -1.4153  1.6595 -0.4112
 4766SOL    HW225758   2.621   2.156   6.717  2.6528  1.7609  1.3028
 4767SOL     OW25759   0.726   3.869   8.344 -0.0840  0.1405  0.3633
 4767SOL    HW125760   0.645   3.904   8.307  0.8640 -1.3112 -3.0442
 4767SOL    HW225761   0.732   3.914   8.429 -0.5973 -1.5241  1.2928
 4768SOL     OW25762   2.439   2.080   6.546  0.7269  0.2015 -0.3940
 4768SOL    HW125763   2.354   2.119   6.524  2.0028  2.2287 -1.7237
 4768SOL    HW225764   2.398   2.001   6.583 -2.4792  0.8223 -2.5622
 4769SOL     OW25765   2.018   3.531   8.006 -0.5329  0.4004 -0.7441
 4769SOL    HW125766   2.047   3.442   8.027 -0.0762  1.0822  1.5673
 4769SOL    HW225767   2.045   3.520   7.915 -0.3460 -0.4216 -0.5909
 4770SOL     OW25768   1.198   1.863   7.557  0.0231  0.4104 -0.0728
 4770SOL    HW125769   1.113   1.869   7.514  1.4317 -0.8759 -3.1361
 4770SOL    HW225770   1.189   1.796   7.624  1.7714  1.1474  0.8989
 4771SOL     OW25771   2.431   1.361   1.544 -0.3391  0.3922 -0.0277
 4771SOL    HW125772   2.464   1.416   1.615  1.3822 -1.9044  0.9592
 4771SOL    HW225773   2.481   1.411   1.478  1.0293  1.3057  1.6953
 4772SOL     OW25774   2.477   3.433   7.009 -0.1670  0.1183 -0.2499
 4772SOL    HW125775   2.505   3.348   7.042 -0.1186 -0.2315 -1.1905
 4772SOL    HW225776   2.385   3.425   7.031 -0.1977  1.0492 -0.0297
 4773SOL     OW25777   3.087   3.818   8.246 -0.7972  0.2484 -0.0208
 4773SOL    HW125778   3.119   3.807   8.335  1.6158  0.8132 -0.8187
 4773SOL    HW225779   3.122   3.905   8.230 -1.6243  0.3369 -1.3893
 4774SOL     OW25780   2.636   2.136   5.260  0.1012  0.7322 -0.2413
 4774SOL    HW125781   2.606   2.160   5.172  2.3626 -0.9672 -1.4644
 4774SOL    HW225782   2.659   2.045   5.246  1.0740  0.7631  1.2484
 4775SOL     OW25783   2.125   1.052   7.227 -0.3969  0.6894  0.0320
 4775SOL    HW125784   2.068   1.127   7.209  1.1586  2.1802  1.2530
 4775SOL    HW225785   2.097   0.998   7.153 -1.0911  1.6543 -0.4063
 4776SOL     OW25786   4.594   4.625   7.832 -0.6867 -0.5236 -0.3059
 4776SOL    HW125787   4.673   4.653   7.877  0.6449 -2.1269 -1.6645
 4776SOL    HW225788   4.584   4.537   7.867 -1.2147 -0.1900  0.3775
 4777SOL     OW25789   1.739   2.204   2.985  0.3003 -0.6460  0.0708
 4777SOL    HW125790   1.827   2.165   2.985  0.7611  0.3651 -1.0919
 4777SOL    HW225791   1.730   2.206   2.890  0.6038  1.9977  0.1042
 4778SOL     OW25792   1.070   1.238   7.573 -0.2655 -0.5675  0.2442
 4778SOL    HW125793   1.088   1.209   7.662 -2.1142 -1.0351  0.4630
 4778SOL    HW225794   0.975   1.230   7.580 -0.3258 -0.9099 -0.8842
 4779SOL     OW25795   3.548   4.599   4.423  0.0580  0.4257  0.3383
 4779SOL    HW125796   3.474   4.658   4.408  0.3105  0.4829 -0.6559
 4779SOL    HW225797   3.501   4.550   4.492 -0.1604 -1.1157 -0.8899
 4780SOL     OW25798   1.665   3.268  14.129 -0.1916  0.2408 -0.1587
 4780SOL    HW125799   1.745   3.216  14.127 -0.6791 -0.7044  3.8586
 4780SOL    HW225800   1.643   3.272  14.222 -0.2494  0.8315 -0.1981
 4781SOL     OW25801   2.656   4.127   1.499 -0.1077  0.8771 -0.2260
 4781SOL    HW125802   2.572   4.096   1.532  0.3736  0.7843  0.9322
 4781SOL    HW225803   2.678   4.051   1.446  0.6504 -0.2016  1.6235
 4782SOL     OW25804   4.037   1.244   9.766  0.2851  0.0914 -0.4482
 4782SOL    HW125805   4.112   1.233   9.707  0.9498  1.4566  0.1424
 4782SOL    HW225806   4.042   1.338   9.786 -2.5330 -0.6251  3.5304
 4783SOL     OW25807   2.874   3.315   8.686  0.0920 -0.4569 -0.2598
 4783SOL    HW125808   2.819   3.371   8.630 -0.4556 -0.5385  0.1897
 4783SOL    HW225809   2.960   3.332   8.649 -0.2008  2.2662  0.2338
 4784SOL     OW25810   4.186   0.945   4.525  0.9779  0.1477  0.4716
 4784SOL    HW125811   4.163   0.859   4.559  0.7231  0.2436  0.5371
 4784SOL    HW225812   4.201   0.928   4.432 -1.0313  1.1113 -0.0236
 4785SOL     OW25813   4.217   2.711   2.904 -0.2573  0.1760  0.0068
 4785SOL    HW125814   4.275   2.767   2.853 -0.5797  0.2286 -0.3103
 4785SOL    HW225815   4.267   2.630   2.905 -0.1182  0.2269 -2.2296
 4786SOL     OW25816   3.029   2.942   5.672  0.0533  0.6647 -0.0878
 4786SOL    HW125817   2.940   2.956   5.638 -0.1421 -0.9388 -0.2601
 4786SOL    HW225818   3.083   3.010   5.632  2.1421 -1.1893 -0.3940
 4787SOL     OW25819   2.166   0.054   4.079  0.0146  0.1625  0.0267
 4787SOL    HW125820   2.191   0.052   3.987 -0.9852 -0.5082 -0.2234
 4787SOL    HW225821   2.072   0.035   4.080  0.0130  0.1643 -0.8633
 4788SOL     OW25822   1.492   2.089   4.118  0.4449 -0.5112 -0.0574
 4788SOL    HW125823   1.407   2.048   4.104  0.2450 -0.0496 -0.1822
 4788SOL    HW225824   1.492   2.142   4.197  1.9665 -0.7509  0.1001
 4789SOL     OW25825   0.117   0.840  16.482  0.0619 -0.1174 -0.1113
 4789SOL    HW125826   0.202   0.883  16.480  0.3246 -0.6003  0.4643
 4789SOL    HW225827   0.063   0.891  16.422  0.6281 -1.5076 -1.8020
 4790SOL     OW25828   3.418   2.594  11.291 -0.1200 -0.1824  0.5966
 4790SOL    HW125829   3.341   2.574  11.344 -1.9262 -0.3305 -2.0888
 4790SOL    HW225830   3.492   2.591  11.352  1.1618  1.3335 -0.8730
 4791SOL     OW25831   1.852   3.433   7.741  0.1178 -0.0668 -0.0800
 4791SOL    HW125832   1.939   3.397   7.761 -0.4506 -1.3363  0.1053
 4791SOL    HW225833   1.809   3.388   7.814 -2.5487  5.1868  1.5627
 4792SOL     OW25834   1.671   0.121  15.498  0.4898  0.1567  0.1492
 4792SOL    HW125835   1.587   0.166  15.501 -0.0604 -1.1763  3.6903
 4792SOL    HW225836   1.684   0.067  15.576 -1.1403 -0.1485  0.2099
 4793SOL     OW25837   2.931   0.460   3.997  0.2048 -0.1779  0.1885
 4793SOL    HW125838   2.996   0.518   3.959 -1.2895  1.7057  0.5021
 4793SOL    HW225839   2.850   0.510   3.988 -1.4101 -2.7464  0.2433
 4794SOL     OW25840   3.038   0.724   8.196 -0.3356 -0.9532 -0.4860
 4794SOL    HW125841   3.124   0.737   8.156 -0.8110 -0.8710 -1.4831
 4794SOL    HW225842   3.072   0.697   8.281 -1.7295 -0.6384  0.1729
 4795SOL     OW25843   0.765   3.422   0.931 -0.2406  0.0496  0.4339
 4795SOL    HW125844   0.842   3.450   0.880  0.9410 -0.5099  1.8958
 4795SOL    HW225845   0.747   3.338   0.889  0.1769  1.9148 -3.5595
 4796SOL     OW25846   0.634   4.042   7.657  0.2435  0.1530  1.0634
 4796SOL    HW125847   0.701   3.998   7.606  0.2668 -0.4024  1.5709
 4796SOL    HW225848   0.562   3.980   7.641  1.5322 -0.9688 -0.2877
 4797SOL     OW25849   1.602   1.995   7.642  0.0376 -0.4363 -0.0480
 4797SOL    HW125850   1.568   1.990   7.731 -0.1755 -2.3184 -0.2429
 4797SOL    HW225851   1.694   2.004   7.669 -0.1417  0.6541  0.2210
 4798SOL     OW25852   1.170   4.297   0.468 -0.4122 -0.2328 -0.2079
 4798SOL    HW125853   1.099   4.232   0.466  1.8590 -2.7128  0.3343
 4798SOL    HW225854   1.180   4.333   0.380  2.2364 -0.9267 -0.1716
 4799SOL     OW25855   4.314   2.196   6.815 -0.0004 -0.0697  0.7774
 4799SOL    HW125856   4.288   2.129   6.878  3.4602 -0.6736  1.5719
 4799SOL    HW225857   4.344   2.140   6.743  0.1025 -0.2050  0.9270
 4800SOL     OW25858   4.086   0.653   4.244 -0.4619 -0.0168 -0.0237
 4800SOL    HW125859   4.109   0.576   4.296  2.7397  2.3811  2.1012
 4800SOL    HW225860   4.175   0.685   4.229 -0.4051  1.0754  2.6564
 4801SOL     OW25861   3.665   0.509  13.409  0.0937 -0.1975 -0.1059
 4801SOL    HW125862   3.604   0.435  13.417  1.0023 -0.7649  1.4844
 4801SOL    HW225863   3.677   0.524  13.502 -1.7789  0.4458  0.0223
 4802SOL     OW25864   0.204   3.750   8.096 -0.6478 -0.0142 -0.0641
 4802SOL    HW125865   0.272   3.686   8.073  0.1589  0.1273  1.9184
 4802SOL    HW225866   0.123   3.711   8.065  0.1599 -0.6886 -1.3011
 4803SOL     OW25867   1.818   2.744   0.282  0.0638 -0.4637  0.2558
 4803SOL    HW125868   1.800   2.656   0.250  0.8387 -0.1903 -0.9705
 4803SOL    HW225869   1.733   2.786   0.268 -0.2363 -1.4085 -0.7081
 4804SOL     OW25870   0.576   3.663   3.313  0.0088  0.4482 -0.1807
 4804SOL    HW125871   0.528   3.729   3.263 -1.6398 -0.4823  0.1794
 4804SOL    HW225872   0.532   3.584   3.279 -0.7346  0.8211 -0.0936
 4805SOL     OW25873   3.648   2.978  10.056  0.3184  0.1644  0.5207
 4805SOL    HW125874   3.565   3.026  10.061  0.3908  0.4998 -1.6971
 4805SOL    HW225875   3.706   3.037  10.104 -1.3586 -0.7017  3.6448
 4806SOL     OW25876   1.284   2.826   4.842  0.1430 -0.2141 -0.2302
 4806SOL    HW125877   1.380   2.830   4.838  0.3255 -3.2483  0.4954
 4806SOL    HW225878   1.275   2.731   4.841 -0.3462 -0.1478 -1.8821
 4807SOL     OW25879   2.275   2.447   1.715  0.7017 -0.0021 -0.2370
 4807SOL    HW125880   2.266   2.376   1.779 -0.8799  0.3374 -0.0991
 4807SOL    HW225881   2.226   2.518   1.756 -0.6119 -0.0592 -1.7397
 4808SOL     OW25882   1.199   3.020   6.460 -0.5677 -0.4341 -0.0879
 4808SOL    HW125883   1.287   2.997   6.489 -0.4554  0.0840 -0.0127
 4808SOL    HW225884   1.192   3.110   6.494  2.5486 -0.0222 -0.5449
 4809SOL     OW25885   4.021   1.559   8.619  0.2013  0.2378 -1.0731
 4809SOL    HW125886   4.052   1.468   8.619  3.2005  1.2798  0.9297
 4809SOL    HW225887   3.969   1.564   8.699 -1.4099 -0.7678 -2.0620
 4810SOL     OW25888   2.077   3.684  15.904  0.2517  0.3298 -0.1707
 4810SOL    HW125889   2.170   3.704  15.895 -0.1304  2.3447  0.2240
 4810SOL    HW225890   2.076   3.597  15.865  1.6720 -0.1957  0.9866
 4811SOL     OW25891   1.046   1.693   9.759  0.1878 -0.5642 -0.1807
 4811SOL    HW125892   1.020   1.715   9.670  0.4375  1.9132  0.3531
 4811SOL    HW225893   1.029   1.599   9.765 -3.6342  0.0890 -1.1986
 4812SOL     OW25894   2.317   2.820   6.251  0.2350 -0.0625  0.1210
 4812SOL    HW125895   2.407   2.822   6.218  0.0394  1.9900 -0.3078
 4812SOL    HW225896   2.327   2.869   6.333  2.5542 -0.3173 -0.0014
 4813SOL     OW25897   2.227   2.559  17.100 -0.2482 -0.0443 -0.5080
 4813SOL    HW125898   2.207   2.598  17.015  0.8455  2.4140  0.3587
 4813SOL    HW225899   2.305   2.607  17.126 -1.5920  2.0821 -0.3587
 4814SOL     OW25900   3.691   0.451   5.849 -0.0387 -0.3021  0.3774
 4814SOL    HW125901   3.784   0.474   5.849 -0.1687  0.1846 -2.1684
 4814SOL    HW225902   3.652   0.507   5.915  1.2846 -1.9273  2.5485
 4815SOL     OW25903   2.744   3.152   4.945 -0.0395 -0.2578  0.4438
 4815SOL    HW125904   2.677   3.216   4.969 -0.8578 -0.0808 -2.2486
 4815SOL    HW225905   2.825   3.185   4.984 -1.2081  0.2762  2.4069
 4816SOL     OW25906   1.280   2.037  16.468 -0.0477 -0.1615 -0.3892
 4816SOL    HW125907   1.190   2.033  16.435  0.2689 -1.9579 -1.0565
 4816SOL    HW225908   1.312   2.102  16.406 -0.5684  0.8142  0.3671
 4817SOL     OW25909   0.498   0.458   8.673  0.3979  0.4571 -0.6701
 4817SOL    HW125910   0.431   0.425   8.614  0.6185 -0.0659 -0.6355
 4817SOL    HW225911   0.494   0.394   8.745 -2.7632 -0.9278 -2.0945
 4818SOL     OW25912   3.129   3.349   8.600 -0.6898 -0.3234 -0.3720
 4818SOL    HW125913   3.115   3.323   8.509  2.4994  0.8388 -1.1845
 4818SOL    HW225914   3.189   3.280   8.629  1.6631  2.5039  1.4781
 4819SOL     OW25915   3.829   0.243  16.178 -0.2499 -0.7259  0.6393
 4819SOL    HW125916   3.820   0.174  16.245 -1.1338 -1.5531 -0.3391
 4819SOL    HW225917   3.837   0.317  16.239  0.3040 -1.0773  0.9977
 4820SOL     OW25918   3.610   0.208   5.775 -0.0381  0.2172 -0.3504
 4820SOL    HW125919   3.629   0.296   5.805 -2.6150  1.2848 -1.8705
 4820SOL    HW225920   3.553   0.229   5.701 -1.0376  0.4213  0.4783
 4821SOL     OW25921   3.160   3.486   1.341  0.7796 -0.1479  0.2102
 4821SOL    HW125922   3.158   3.518   1.251  0.9754  0.4559  0.4166
 4821SOL    HW225923   3.134   3.395   1.328  3.0530 -0.4511 -2.2823
 4822SOL     OW25924   3.834   4.067  16.181 -0.4724  0.1423 -0.1281
 4822SOL    HW125925   3.855   4.135  16.117 -0.2938 -0.4503 -0.6966
 4822SOL    HW225926   3.899   4.078  16.250  0.9932  2.1851 -1.8416
 4823SOL     OW25927   0.078   2.993  17.452  0.0483 -0.2111  0.0401
 4823SOL    HW125928   0.055   3.073  17.406 -1.0482 -0.0380  0.8779
 4823SOL    HW225929   0.016   2.990  17.525  0.8002  0.9007  0.7179
 4824SOL     OW25930   0.157   4.108   6.872 -0.3592  0.7921 -0.0575
 4824SOL    HW125931   0.144   4.097   6.778  0.9833 -3.7356  0.2914
 4824SOL    HW225932   0.213   4.034   6.895 -0.0567  0.9664 -0.2375
 4825SOL     OW25933   0.160   3.661   0.452  0.5219  0.1097  0.2254
 4825SOL    HW125934   0.211   3.692   0.527 -1.3383  1.0694  1.0972
 4825SOL    HW225935   0.094   3.611   0.501  0.3866 -1.0299 -1.1055
 4826SOL     OW25936   2.288   1.699   8.509 -0.1792  0.3327 -0.3156
 4826SOL    HW125937   2.288   1.604   8.506 -1.5309  0.2941  1.5823
 4826SOL    HW225938   2.259   1.705   8.600 -0.6307 -0.8015 -0.3941
 4827SOL     OW25939   1.799   2.345   9.732 -0.5664  0.2102 -0.6269
 4827SOL    HW125940   1.839   2.258   9.738 -0.2448  0.2856 -1.6822
 4827SOL    HW225941   1.848   2.383   9.659 -1.2769 -1.0324 -1.7479
 4828SOL     OW25942   0.452   2.706  13.309 -0.2087 -0.2834 -0.1312
 4828SOL    HW125943   0.368   2.751  13.311 -0.1195 -0.0823 -0.7932
 4828SOL    HW225944   0.503   2.774  13.265  0.9500 -2.4831 -2.1930
 4829SOL     OW25945   4.667   0.126   2.817  0.8112  0.1340 -0.4987
 4829SOL    HW125946   4.634   0.037   2.835  1.9917  0.0685  1.3958
 4829SOL    HW225947   0.038   0.112   2.825  0.5072 -1.2510  0.6963
 4830SOL     OW25948   0.003   4.122   1.314 -0.7588  0.0039  0.0927
 4830SOL    HW125949   0.035   4.116   1.224  0.1346 -0.0137  0.4104
 4830SOL    HW225950   4.650   4.065   1.300 -0.5502 -0.1441 -0.4260
 4831SOL     OW25951   2.712   4.617   4.893  0.3388 -0.3595 -0.1166
 4831SOL    HW125952   2.696   4.616   4.798  0.2963 -1.5350 -0.0937
 4831SOL    HW225953   2.788   4.676   4.894 -2.1278  2.8153  0.6551
 4832SOL     OW25954   2.294   0.550   1.569 -0.2664  0.2707 -0.0344
 4832SOL    HW125955   2.206   0.557   1.607  0.8739 -0.2190  2.7058
 4832SOL    HW225956   2.311   0.638   1.537  2.9197 -0.4618 -0.3557
 4833SOL     OW25957   3.600   4.007   6.002  0.2915 -0.3302 -0.4594
 4833SOL    HW125958   3.532   3.959   6.051  0.2368 -0.0927 -0.3050
 4833SOL    HW225959   3.675   3.957   6.034 -0.9347 -1.9361 -0.0727
 4834SOL     OW25960   4.389   4.475  13.934 -0.8201  0.3194  0.0957
 4834SOL    HW125961   4.351   4.387  13.927  0.0139  0.0543 -1.0821
 4834SOL    HW225962   4.332   4.520  13.996 -0.7760  1.4491 -0.6947
 4835SOL     OW25963   3.876   0.322   5.339 -0.2200  1.3585  0.2876
 4835SOL    HW125964   3.869   0.400   5.394 -0.2078  1.8212 -0.3718
 4835SOL    HW225965   3.959   0.332   5.293 -2.0258 -0.7233 -3.3703
 4836SOL     OW25966   1.873   4.342   6.712  0.6683  0.0891 -0.1412
 4836SOL    HW125967   1.886   4.304   6.799 -2.1449 -2.4320 -0.8244
 4836SOL    HW225968   1.812   4.413   6.732 -0.0220 -0.4864 -0.2342
 4837SOL     OW25969   0.217   1.903  14.809 -0.1517  0.3357  0.0939
 4837SOL    HW125970   0.222   1.988  14.852 -2.2906  1.4410 -1.8881
 4837SOL    HW225971   0.137   1.867  14.847 -1.6036  0.9683 -2.3257
 4838SOL     OW25972   1.371   4.086   4.148 -0.3588  0.0212  0.6386
 4838SOL    HW125973   1.404   4.052   4.065 -0.0737 -1.1976  1.2594
 4838SOL    HW225974   1.297   4.138   4.118 -0.2359 -0.9862 -1.3664
 4839SOL     OW25975   1.343   1.506   0.888 -0.2498 -0.2589 -0.0956
 4839SOL    HW125976   1.364   1.572   0.822 -2.7742 -1.2166 -1.8252
 4839SOL    HW225977   1.269   1.551   0.929  0.7673  1.1466  0.2037
 4840SOL     OW25978   2.497   4.674   4.443  0.0369 -0.3846  0.5882
 4840SOL    HW125979   2.418   4.661   4.390 -0.2643  0.8265  0.7376
 4840SOL    HW225980   2.550   4.721   4.379  0.6653 -0.4786  1.0453
 4841SOL     OW25981   1.261   0.485  10.879  0.2604  0.0546  0.0681
 4841SOL    HW125982   1.337   0.524  10.835  0.8270 -0.4326  0.6254
 4841SOL    HW225983   1.270   0.395  10.847  0.4136 -0.3228  1.1878
 4842SOL     OW25984   3.640   2.249   3.009  0.1127  0.2502 -0.6243
 4842SOL    HW125985   3.689   2.257   3.091 -0.9910 -0.9489  0.1465
 4842SOL    HW225986   3.688   2.183   2.959  0.1547  0.8973 -1.4409
 4843SOL     OW25987   3.530   3.330   4.406 -0.0858  0.4838  0.4356
 4843SOL    HW125988   3.499   3.412   4.444  0.4364  0.1040  1.6915
 4843SOL    HW225989   3.623   3.342   4.425 -0.1115  0.9098  0.2796
 4844SOL     OW25990   3.745   3.091   3.659 -0.0220 -0.3962 -0.2203
 4844SOL    HW125991   3.685   3.023   3.627  0.6859 -0.0584 -2.2506
 4844SOL    HW225992   3.827   3.043   3.652  0.0935 -0.0385 -1.3354
 4845SOL     OW25993   2.468   1.630  12.686 -0.5426 -0.0401 -0.2996
 4845SOL    HW125994   2.552   1.662  12.718  1.3244 -1.9229 -3.3008
 4845SOL    HW225995   2.409   1.668  12.751 -0.0376 -0.2662  0.2994
 4846SOL     OW25996   1.851   2.253  17.276  0.4029 -0.0016  0.0398
 4846SOL    HW125997   1.919   2.321  17.269 -2.1489  2.5506  0.2948
 4846SOL    HW225998   1.891   2.182  17.327 -1.5387 -0.6341  0.6724
 4847SOL     OW25999   1.186   3.194  13.484  0.0387  0.2522  0.2568
 4847SOL    HW126000   1.232   3.277  13.495  2.6597 -1.0303 -1.1318
 4847SOL    HW226001   1.100   3.221  13.451 -1.4546 -2.1101  2.1838
 4848SOL     OW26002   1.809   3.527   8.339 -0.3233  0.1084 -0.4152
 4848SOL    HW126003   1.727   3.493   8.373  0.5582 -1.7942 -0.2128
 4848SOL    HW226004   1.849   3.560   8.420 -0.3734 -0.9914  0.0462
 4849SOL     OW26005   2.886   0.701   1.305 -0.1016  0.0929  0.5596
 4849SOL    HW126006   2.808   0.714   1.252 -0.8434  0.6697  1.7959
 4849SOL    HW226007   2.908   0.794   1.317  2.0237 -0.1489 -1.5055
 4850SOL     OW26008   3.235   0.176   7.356 -0.2404  0.7314  0.3483
 4850SOL    HW126009   3.270   0.132   7.279  0.5292 -0.5093  1.4156
 4850SOL    HW226010   3.270   0.131   7.433 -0.1291  1.2022  0.5705
 4851SOL     OW26011   0.752   3.331  16.313  0.1558  0.5166  0.1180
 4851SOL    HW126012   0.739   3.269  16.241 -0.8006  0.5486  0.2712
 4851SOL    HW226013   0.798   3.403  16.271  0.6292  1.3282  2.0162
 4852SOL     OW26014   0.253   0.095   4.812 -0.3067 -0.4218 -0.5201
 4852SOL    HW126015   0.299   0.105   4.896 -0.2374 -2.0870 -0.3525
 4852SOL    HW226016   0.163   0.101   4.844  0.3491  1.3839  1.0259
 4853SOL     OW26017   1.669   1.622   3.260  0.3874 -0.5512 -0.5944
 4853SOL    HW126018   1.708   1.698   3.302  1.2660 -0.4497 -1.5843
 4853SOL    HW226019   1.574   1.636   3.268  0.1724 -2.7127  0.6977
 4854SOL     OW26020   3.312   1.247   0.836  0.1886  0.1339 -0.1884
 4854SOL    HW126021   3.364   1.190   0.892  0.3235  1.3598  0.9314
 4854SOL    HW226022   3.270   1.177   0.787  0.6938  0.1114 -0.5816
 4855SOL     OW26023   4.049   1.086   7.903 -0.2508 -0.4506 -0.1053
 4855SOL    HW126024   4.141   1.110   7.918 -0.1259 -2.1626  1.7510
 4855SOL    HW226025   4.006   1.130   7.976 -1.8335 -2.6104  0.2592
 4856SOL     OW26026   4.057   2.166   9.499 -0.2110  0.0806 -0.8710
 4856SOL    HW126027   4.125   2.233   9.510 -0.4821  0.4867 -1.6769
 4856SOL    HW226028   3.993   2.207   9.441 -1.3058  0.2765  0.4593
 4857SOL     OW26029   0.115   1.801   6.993  0.2260 -0.2202  0.4083
 4857SOL    HW126030   0.130   1.714   6.955 -1.1084  0.1331 -0.9397
 4857SOL    HW226031   0.206   1.830   6.980 -0.2936  0.9843 -0.5090
 4858SOL     OW26032   4.363   2.160  10.239 -0.1788 -0.4099  0.2381
 4858SOL    HW126033   4.352   2.080  10.291 -0.5760  0.0191  0.8175
 4858SOL    HW226034   4.277   2.158  10.196  0.1649 -0.6578 -0.4218
 4859SOL     OW26035   2.789   3.257  13.531 -0.0030 -0.5021  0.1521
 4859SOL    HW126036   2.727   3.245  13.603 -0.1425  0.4746  0.1922
 4859SOL    HW226037   2.868   3.294  13.570 -0.5572  1.8729 -0.9864
 4860SOL     OW26038   0.203   2.511   2.858  0.2017 -0.4566 -0.5145
 4860SOL    HW126039   0.234   2.581   2.915  0.6095  0.9952 -2.5059
 4860SOL    HW226040   0.236   2.542   2.773 -0.6011 -1.3256 -1.1372
 4861SOL     OW26041   0.681   3.331   4.164  0.5343 -0.2582 -0.5507
 4861SOL    HW126042   0.762   3.381   4.155 -0.0635  1.3660  3.0982
 4861SOL    HW226043   0.698   3.245   4.127  1.0792  1.0778 -3.3644
 4862SOL     OW26044   4.140   2.995   5.011 -0.9573  0.2086  0.7484
 4862SOL    HW126045   4.065   3.004   5.069 -0.7127 -0.9917  1.2441
 4862SOL    HW226046   4.109   3.039   4.932 -1.3972  0.9392  1.3433
 4863SOL     OW26047   4.017   4.068   9.033  0.2170 -0.3740 -0.2225
 4863SOL    HW126048   3.992   4.153   9.069  1.0049 -0.4421  0.4808
 4863SOL    HW226049   4.071   4.039   9.107 -0.3997  0.5857  0.6050
 4864SOL     OW26050   1.747   2.498   8.287  0.2069 -0.9039 -0.4623
 4864SOL    HW126051   1.690   2.566   8.322  1.3379 -1.2167  2.0213
 4864SOL    HW226052   1.688   2.454   8.226  0.7068  0.1263 -1.6746
 4865SOL     OW26053   3.150   1.746   6.038  0.3363 -0.4867 -0.2450
 4865SOL    HW126054   3.206   1.773   6.110 -1.9160 -0.7107  1.6067
 4865SOL    HW226055   3.181   1.795   5.962  0.0731 -0.4090 -0.3040
 4866SOL     OW26056   2.367   1.442   8.389 -0.4312  0.5194  0.2813
 4866SOL    HW126057   2.388   1.422   8.298  0.1973 -0.6032  0.6791
 4866SOL    HW226058   2.417   1.372   8.432 -0.2933  0.7894  0.5622
 4867SOL     OW26059   0.554   2.707   8.474 -0.6654 -0.7097 -0.1010
 4867SOL    HW126060   0.487   2.741   8.534  0.6714 -0.1119  1.0770
 4867SOL    HW226061   0.632   2.747   8.513 -0.0756 -0.6951 -1.3164
 4868SOL     OW26062   0.066   4.149   8.593  0.1527  0.0937  0.1582
 4868SOL    HW126063   0.068   4.054   8.604  1.3890  0.0566 -0.4935
 4868SOL    HW226064   4.714   4.153   8.534 -0.8757  2.1788  1.5830
 4869SOL     OW26065   3.846   2.080   3.777 -0.1500  0.1013  0.4919
 4869SOL    HW126066   3.889   2.028   3.709  1.3028  1.5158  0.3364
 4869SOL    HW226067   3.913   2.077   3.845  0.1938  0.0470  0.1546
 4870SOL     OW26068   2.475   3.815  15.376  0.1073  0.0324  0.4177
 4870SOL    HW126069   2.558   3.768  15.385  0.1158 -0.5306 -2.8014
 4870SOL    HW226070   2.436   3.795  15.461 -0.9877 -0.4780 -0.2079
 4871SOL     OW26071   4.075   4.513   2.321  0.0878  0.0994 -0.3338
 4871SOL    HW126072   4.020   4.499   2.244  1.6515  0.8329 -1.6145
 4871SOL    HW226073   4.065   4.606   2.342  2.6296  0.8059 -2.1615
 4872SOL     OW26074   0.143   1.354  11.275 -0.0773  0.6728 -0.0736
 4872SOL    HW126075   0.166   1.445  11.256 -1.5270  0.4682 -2.8327
 4872SOL    HW226076   0.169   1.317  11.191  0.2440  0.0136  0.3158
 4873SOL     OW26077   2.607   0.537   9.400  0.0618 -0.0121 -0.3471
 4873SOL    HW126078   2.548   0.605   9.366 -2.2588 -1.6270  0.4909
 4873SOL    HW226079   2.564   0.507   9.480  0.5967  0.9421  0.2935
 4874SOL     OW26080   2.546   4.595   5.980  0.0666  0.2472  0.4015
 4874SOL    HW126081   2.526   4.506   6.009 -0.5036  0.1911 -0.1537
 4874SOL    HW226082   2.613   4.618   6.044  0.3553 -0.0082  0.1921
 4875SOL     OW26083   1.542   4.209  12.010 -0.2051  0.3646 -0.0995
 4875SOL    HW126084   1.567   4.227  11.920  0.4041 -0.8433 -0.1763
 4875SOL    HW226085   1.552   4.114  12.013  2.6704  0.5935 -2.9224
 4876SOL     OW26086   2.917   3.583   1.802  0.0993 -0.1518  0.0316
 4876SOL    HW126087   2.888   3.501   1.842  0.8483 -1.2556 -1.7163
 4876SOL    HW226088   2.992   3.551   1.752  0.7410  0.3634  0.6656
 4877SOL     OW26089   0.489   3.520   6.272 -0.1216  0.1128  0.1942
 4877SOL    HW126090   0.441   3.437   6.275  0.3876 -0.2109 -0.4630
 4877SOL    HW226091   0.564   3.492   6.219  0.8497 -0.7712  2.0296
 4878SOL     OW26092   2.469   4.049  10.482 -0.3469  0.6839 -0.1073
 4878SOL    HW126093   2.529   3.979  10.510  0.0844  1.6186  1.2596
 4878SOL    HW226094   2.473   4.113  10.552  1.2745 -0.8758  1.2296
 4879SOL     OW26095   1.198   3.857   2.603  0.2214 -0.5631  0.2025
 4879SOL    HW126096   1.259   3.784   2.614 -1.7397 -2.2685 -0.2251
 4879SOL    HW226097   1.228   3.905   2.525  0.9715 -4.2900 -1.7953
 4880SOL     OW26098   1.094   1.349  16.775  0.1044 -0.0853  0.3825
 4880SOL    HW126099   1.018   1.324  16.723 -0.6548  0.5553  1.1664
 4880SOL    HW226100   1.068   1.333  16.866  1.8156  0.6398  1.0173
 4881SOL     OW26101   1.510   3.518  13.431  0.5425 -0.2049  0.3954
 4881SOL    HW126102   1.489   3.432  13.395 -0.4776 -0.0385  0.5901
 4881SOL    HW226103   1.459   3.579  13.378  2.0868 -0.5285 -1.4918
 4882SOL     OW26104   0.475   3.486   7.067  0.1844 -0.1565 -0.3939
 4882SOL    HW126105   0.547   3.430   7.097 -0.4389 -0.9963 -0.4695
 4882SOL    HW226106   0.505   3.507   6.979  1.7145 -0.8925 -0.0559
 4883SOL     OW26107   3.135   0.189   5.639  0.3537 -0.1005  0.2557
 4883SOL    HW126108   3.121   0.099   5.611  0.3251  1.1084 -3.5853
 4883SOL    HW226109   3.161   0.175   5.730  1.1996 -0.7413 -0.0816
 4884SOL     OW26110   2.748   2.421   6.875 -0.8279 -0.2572 -0.2572
 4884SOL    HW126111   2.799   2.366   6.934 -0.9716 -0.9808 -0.8023
 4884SOL    HW226112   2.781   2.385   6.793 -0.2155  0.0578 -0.1506
 4885SOL     OW26113   2.607   3.928  12.565  0.1318 -0.8070 -0.0610
 4885SOL    HW126114   2.551   3.853  12.585  0.6665 -0.7954  1.5000
 4885SOL    HW226115   2.645   3.897  12.483  0.2373  4.2224 -1.9338
 4886SOL     OW26116   2.251   0.911   3.268 -0.4126 -0.1079  0.5058
 4886SOL    HW126117   2.178   0.860   3.304 -0.5749  0.8598  1.5539
 4886SOL    HW226118   2.323   0.860   3.306  0.9259  2.1460  0.9533
 4887SOL     OW26119   3.481   4.481  11.962  0.1559  0.1686  0.2175
 4887SOL    HW126120   3.475   4.421  12.037  2.3493 -0.2350  0.0731
 4887SOL    HW226121   3.573   4.468  11.940  0.5002  1.4670  0.8879
 4888SOL     OW26122   4.479   0.656  15.538  0.1249  0.0727  0.0785
 4888SOL    HW126123   4.475   0.582  15.598  2.8940 -0.3240 -0.2278
 4888SOL    HW226124   4.569   0.659  15.505 -0.8650 -0.3297 -2.7174
 4889SOL     OW26125   3.140   1.084   6.627  0.5784 -0.4719 -0.6887
 4889SOL    HW126126   3.111   1.055   6.714  0.0480 -1.1832 -1.1050
 4889SOL    HW226127   3.070   1.149   6.618  0.3768 -0.7108 -0.8577
 4890SOL     OW26128   0.350   4.179  15.202  0.8524  0.3367 -0.0172
 4890SOL    HW126129   0.421   4.141  15.150  0.8974  1.5145 -0.8277
 4890SOL    HW226130   0.379   4.153  15.290  0.5342  2.6130  0.7607
 4891SOL     OW26131   2.878   0.930   4.409 -0.3659  0.4484 -0.5714
 4891SOL    HW126132   2.846   0.865   4.347  0.5609 -0.3903 -0.1730
 4891SOL    HW226133   2.967   0.948   4.380 -0.1728  2.7564  1.4460
 4892SOL     OW26134   1.555   0.116   5.253  0.4665 -0.3986 -0.8056
 4892SOL    HW126135   1.509   0.199   5.265 -0.1019 -0.7185 -0.7778
 4892SOL    HW226136   1.490   0.047   5.243  1.2968 -1.2253 -0.4889
 4893SOL     OW26137   4.585   1.243   5.743 -0.0668  0.0219 -0.4307
 4893SOL    HW126138   4.580   1.147   5.746 -0.7243  0.1128  1.5896
 4893SOL    HW226139   4.672   1.252   5.784 -0.5457  2.7254 -0.0095
 4894SOL     OW26140   1.885   2.156   6.408  0.5625 -0.4052 -0.0074
 4894SOL    HW126141   1.959   2.212   6.430 -2.6634  3.9181 -0.3225
 4894SOL    HW226142   1.868   2.125   6.498 -1.3834 -1.0318 -0.5831
 4895SOL     OW26143   0.183   0.343  10.908  0.9119 -0.2562  0.2564
 4895SOL    HW126144   0.158   0.416  10.851  1.2717 -0.3406 -0.0080
 4895SOL    HW226145   0.278   0.339  10.897  0.6318 -1.9805 -1.4037
 4896SOL     OW26146   4.098   3.221  11.543 -0.0252  0.5714  0.2357
 4896SOL    HW126147   4.009   3.191  11.525  1.1826 -1.4621 -2.3429
 4896SOL    HW226148   4.130   3.257  11.460  0.1058 -3.4876 -1.4829
 4897SOL     OW26149   0.253   1.987  11.633 -0.0617  0.0253 -0.0817
 4897SOL    HW126150   0.260   2.073  11.675  3.6313 -0.3912  0.2085
 4897SOL    HW226151   0.247   1.925  11.705 -4.3589  0.0755 -0.3913
 4898SOL     OW26152   0.717   4.063   0.276 -0.0754  0.0154 -0.0869
 4898SOL    HW126153   0.740   3.998   0.342  1.7862  0.7952  0.0119
 4898SOL    HW226154   0.779   4.049   0.205  0.2822  1.2400 -0.0282
 4899SOL     OW26155   3.524   0.261   7.223  0.1436 -0.5300  0.2060
 4899SOL    HW126156   3.477   0.335   7.261  0.6773  0.4852 -1.1312
 4899SOL    HW226157   3.582   0.251   7.299  1.5907  0.5314 -0.7852
 4900SOL     OW26158   4.162   2.359   7.440  0.0452 -0.2830  0.2916
 4900SOL    HW126159   4.220   2.297   7.397  0.4071  0.3338 -0.1090
 4900SOL    HW226160   4.179   2.349   7.534  1.4290 -1.0735 -0.0451
 4901SOL     OW26161   2.150   0.905   2.176  0.0780  0.8204  0.5510
 4901SOL    HW126162   2.234   0.860   2.177 -0.3774 -0.0227  0.5502
 4901SOL    HW226163   2.166   0.971   2.108 -0.8140 -0.5443 -0.9745
 4902SOL     OW26164   4.018   0.999  10.060 -0.3568 -0.2483  0.2402
 4902SOL    HW126165   3.993   1.028  10.148  1.6043 -1.5101  1.2106
 4902SOL    HW226166   3.937   0.959  10.027 -1.4206  2.4974 -0.4839
 4903SOL     OW26167   3.695   1.630  11.061  0.3350  0.1391 -0.2118
 4903SOL    HW126168   3.709   1.541  11.094  0.9648  0.5723  0.6781
 4903SOL    HW226169   3.679   1.684  11.138  0.0487 -1.5835  0.9414
 4904SOL     OW26170   4.345   1.336   2.193  0.3262  0.5402 -0.0034
 4904SOL    HW126171   4.382   1.322   2.106 -1.5836  2.0126 -1.0533
 4904SOL    HW226172   4.293   1.256   2.203 -1.2504  1.2267 -2.5633
 4905SOL     OW26173   4.034   0.544   8.699  0.3921 -0.2476  0.3266
 4905SOL    HW126174   4.021   0.555   8.605  0.7011  0.5387  0.3722
 4905SOL    HW226175   4.124   0.512   8.707  0.2750 -0.4947  0.6342
 4906SOL     OW26176   3.391   0.808  16.622  0.0967 -0.2589  0.3720
 4906SOL    HW126177   3.471   0.801  16.569 -0.3556 -1.5483 -0.1360
 4906SOL    HW226178   3.404   0.886  16.675 -0.7701 -0.1669  0.4480
 4907SOL     OW26179   1.228   0.644   6.196 -0.3301 -0.1969  0.0804
 4907SOL    HW126180   1.158   0.623   6.134 -0.2271 -0.3638  0.0209
 4907SOL    HW226181   1.217   0.572   6.259  0.3614 -0.9796 -0.6861
 4908SOL     OW26182   4.717   3.685  10.309  0.3198  0.3704  0.3945
 4908SOL    HW126183   4.692   3.680  10.216 -1.5839 -1.2599  0.9978
 4908SOL    HW226184   0.007   3.779  10.322 -0.3100  0.2179  1.9933
 4909SOL     OW26185   0.615   0.207  14.741  0.2912  0.1971  0.3162
 4909SOL    HW126186   0.615   0.114  14.719 -1.0063  0.4363 -0.6831
 4909SOL    HW226187   0.634   0.233  14.651  0.2728  0.2417  0.3250
 4910SOL     OW26188   4.158   0.907  14.338 -0.1929 -0.5055  0.7658
 4910SOL    HW126189   4.169   0.895  14.433 -0.0785  1.2254  0.9616
 4910SOL    HW226190   4.090   0.973  14.328  0.4209  0.2491  1.5657
 4911SOL     OW26191   0.830   2.160   5.565 -0.1916 -0.1705  0.4639
 4911SOL    HW126192   0.747   2.115   5.547 -0.8659  0.7296  1.3459
 4911SOL    HW226193   0.839   2.150   5.660 -0.1427 -1.0787  0.3645
 4912SOL     OW26194   3.278   1.594   5.195 -0.2885  0.6414  0.0085
 4912SOL    HW126195   3.348   1.549   5.242 -0.7406 -0.1959 -0.1152
 4912SOL    HW226196   3.247   1.662   5.255 -2.3429 -0.0369 -0.2825
 4913SOL     OW26197   1.137   2.000  10.997  0.5540  0.0494 -0.2815
 4913SOL    HW126198   1.173   2.054  10.927  2.1695 -0.0407  0.4717
 4913SOL    HW226199   1.136   1.913  10.957 -1.2497  0.5340 -1.3063
 4914SOL     OW26200   3.858   0.294  13.285  0.5298 -0.2607 -0.4354
 4914SOL    HW126201   3.799   0.316  13.213 -0.9364  3.4017  1.8868
 4914SOL    HW226202   3.829   0.203  13.286  0.0621 -0.1074 -0.0385
 4915SOL     OW26203   3.465   1.451   1.204 -0.0349  0.6374  0.3285
 4915SOL    HW126204   3.464   1.496   1.119  1.9358  0.4953  0.2237
 4915SOL    HW226205   3.552   1.413   1.199  0.0315  1.0630 -1.8483
 4916SOL     OW26206   2.490   3.331   6.739  0.3244 -0.0853 -0.1416
 4916SOL    HW126207   2.486   3.375   6.823 -2.0304  2.4336 -1.5885
 4916SOL    HW226208   2.580   3.356   6.718  0.9878 -1.0580  1.5229
 4917SOL     OW26209   3.714   2.414  13.446  0.1838  0.0675  0.4554
 4917SOL    HW126210   3.633   2.434  13.399 -1.0424 -1.0465  2.1129
 4917SOL    HW226211   3.693   2.444  13.535  0.4964 -1.7074  1.1225
 4918SOL     OW26212   0.115   4.079  16.460  0.0884 -0.2202  0.0851
 4918SOL    HW126213   0.148   3.990  16.468  1.8280  0.3834 -0.3007
 4918SOL    HW226214   0.135   4.101  16.369 -0.2102 -0.1708  0.0303
 4919SOL     OW26215   3.864   0.091  13.935 -0.4913 -0.4727 -0.3380
 4919SOL    HW126216   3.923   0.046  13.996 -0.4544  0.9825  0.7079
 4919SOL    HW226217   3.818   0.018  13.894  0.3154 -1.2846  0.2098
 4920SOL     OW26218   3.584   4.224   8.698 -0.1399  0.1690  0.3571
 4920SOL    HW126219   3.656   4.242   8.758 -0.2685  0.6195  0.3827
 4920SOL    HW226220   3.576   4.312   8.659 -1.5300  0.2916  0.9317
 4921SOL     OW26221   0.002   3.691   8.984  0.1373  0.4591  0.4309
 4921SOL    HW126222   0.054   3.634   9.040  1.9979  0.1911 -1.5744
 4921SOL    HW226223   4.654   3.714   9.044 -1.3772 -1.6184 -0.5551
 4922SOL     OW26224   4.340   2.445   9.324  0.2266 -0.7320 -0.2439
 4922SOL    HW126225   4.352   2.540   9.331 -2.9993 -0.3855  0.5481
 4922SOL    HW226226   4.364   2.416   9.236 -0.3095 -0.2023 -0.5671
 4923SOL     OW26227   4.645   3.872   6.590  0.3603 -0.0945 -0.2037
 4923SOL    HW126228   4.609   3.824   6.515  1.6454 -0.6852 -0.4298
 4923SOL    HW226229   4.563   3.875   6.640 -0.9657 -1.6901 -2.2516
 4924SOL     OW26230   0.926   3.967   7.219 -0.8271  0.2024  0.1306
 4924SOL    HW126231   0.960   4.025   7.151  2.8650 -0.8084  1.1456
 4924SOL    HW226232   0.859   4.027   7.251  0.3911  0.8342  1.5094
 4925SOL     OW26233   0.244   4.508   4.988  0.4998 -0.3959 -0.7262
 4925SOL    HW126234   0.274   4.489   4.900 -0.9080 -0.0278 -1.2774
 4925SOL    HW226235   0.290   4.589   5.009 -1.9960  1.4070 -2.2555
 4926SOL     OW26236   1.453   0.772  13.168 -0.2264  0.2207  0.5287
 4926SOL    HW126237   1.528   0.812  13.124 -0.0663  1.6710  2.1304
 4926SOL    HW226238   1.494   0.686  13.181  0.1646  0.1902 -0.8745
 4927SOL     OW26239   0.027   2.334   7.529 -0.2282  0.3019 -0.2812
 4927SOL    HW126240   0.084   2.258   7.536 -0.4531  0.0030 -1.6757
 4927SOL    HW226241   4.682   2.299   7.471  1.0411  0.0713 -1.6069
 4928SOL     OW26242   3.441   0.600   4.366 -0.1851  0.2712 -0.0529
 4928SOL    HW126243   3.382   0.675   4.372 -1.4501 -0.6884 -0.5516
 4928SOL    HW226244   3.516   0.655   4.345 -0.4516  0.6426 -0.0207
 4929SOL     OW26245   0.785   0.580   4.755 -0.0649 -0.3049  0.0033
 4929SOL    HW126246   0.777   0.671   4.786 -0.0036 -0.5699  0.7785
 4929SOL    HW226247   0.735   0.575   4.673  0.5274 -1.8917 -0.2499
 4930SOL     OW26248   0.867   1.561   3.493 -0.7551 -0.4679  0.1551
 4930SOL    HW126249   0.960   1.542   3.487 -0.5497  0.6388 -0.1348
 4930SOL    HW226250   0.840   1.539   3.404  0.6161  0.4426 -0.4752
 4931SOL     OW26251   4.266   2.719  13.476 -0.3720  0.1189 -0.1586
 4931SOL    HW126252   4.355   2.705  13.445  0.4396  0.1059  2.1356
 4931SOL    HW226253   4.238   2.635  13.515 -0.2922  0.1778  0.0260
 4932SOL     OW26254   4.132   3.154  13.954 -0.4796 -0.0730 -0.0726
 4932SOL    HW126255   4.078   3.102  14.013 -1.2630  1.7497  0.8199
 4932SOL    HW226256   4.121   3.240  13.995  0.8833 -0.1710  0.4928
 4933SOL     OW26257   1.487   3.635   2.220  0.0018 -0.0434 -0.1464
 4933SOL    HW126258   1.406   3.607   2.262  0.1028 -0.0954  0.0143
 4933SOL    HW226259   1.455   3.639   2.130  0.4821  0.5497 -0.2933
 4934SOL     OW26260   4.522   1.249   1.982 -0.3821 -0.3134  0.4363
 4934SOL    HW126261   4.551   1.296   1.903 -1.1473 -2.3783 -1.0669
 4934SOL    HW226262   4.519   1.167   1.933 -1.1444 -1.2930  2.1425
 4935SOL     OW26263   4.132   4.288   3.274 -0.1282  0.1642 -0.0428
 4935SOL    HW126264   4.099   4.335   3.197  1.4453  0.3454 -0.6080
 4935SOL    HW226265   4.225   4.288   3.249 -0.7128 -0.9509 -2.2191
 4936SOL     OW26266   4.313   0.347   1.633 -0.5538 -0.1234  0.1267
 4936SOL    HW126267   4.408   0.348   1.643 -0.6252  0.1676  0.8215
 4936SOL    HW226268   4.306   0.364   1.539  0.7302  1.1680  0.2588
 4937SOL     OW26269   3.293   1.519   5.509 -0.4820 -0.4998 -0.5301
 4937SOL    HW126270   3.361   1.459   5.539 -1.1226 -0.2831  1.3708
 4937SOL    HW226271   3.358   1.572   5.462 -0.7368  0.4776  0.2185
 4938SOL     OW26272   4.026   4.338   1.743  0.1940  0.1162 -0.0084
 4938SOL    HW126273   4.086   4.402   1.780 -0.3093  0.3509  0.3985
 4938SOL    HW226274   3.989   4.393   1.673 -1.1034 -0.3417  0.3183
 4939SOL     OW26275   1.381   1.047   8.303 -0.1037  0.1769 -0.2786
 4939SOL    HW126276   1.356   0.973   8.249 -1.3520 -1.1304  2.0802
 4939SOL    HW226277   1.447   1.007   8.359  2.4680  0.9177 -2.8071
 4940SOL     OW26278   2.349   0.915   4.713  0.4278 -0.6446 -0.3387
 4940SOL    HW126279   2.395   0.970   4.651  0.3123  0.3410  0.4508
 4940SOL    HW226280   2.424   0.875   4.758 -0.1318  0.9769  2.0361
 4941SOL     OW26281   1.077   3.774   4.771 -0.0146  0.3283  0.0198
 4941SOL    HW126282   1.126   3.724   4.836  0.0231 -2.4920 -2.1729
 4941SOL    HW226283   1.057   3.853   4.822 -1.1171 -0.4137  0.7530
 4942SOL     OW26284   1.856   3.416   6.759 -0.3054  0.1874 -0.3090
 4942SOL    HW126285   1.903   3.374   6.687  0.2937  0.1805  0.0857
 4942SOL    HW226286   1.792   3.348   6.784 -0.8214  0.1561 -1.6984
 4943SOL     OW26287   3.806   2.938  17.545 -0.4485 -0.1259 -0.0239
 4943SOL    HW126288   3.770   2.851  17.564  0.9334 -1.0037 -1.4011
 4943SOL    HW226289   3.767   3.001  17.605 -1.2086 -1.0282  0.4350
 4944SOL     OW26290   0.293   1.311   3.381  0.4459  0.2128 -0.0435
 4944SOL    HW126291   0.283   1.388   3.326  1.2754 -0.7192 -1.4988
 4944SOL    HW226292   0.344   1.353   3.450 -0.7295  0.4047  0.7054
 4945SOL     OW26293   3.886   2.044  15.766 -0.2140 -0.1831  0.5409
 4945SOL    HW126294   3.977   2.070  15.783 -0.6107  1.2175  0.4841
 4945SOL    HW226295   3.836   2.121  15.793  0.1442  0.0088  0.6619
 4946SOL     OW26296   3.554   1.022   8.476  0.5891  0.0624  0.0935
 4946SOL    HW126297   3.496   0.964   8.524  2.2305 -1.3909  0.2918
 4946SOL    HW226298   3.504   1.103   8.492  2.0477  1.1714 -0.9106
 4947SOL     OW26299   0.152   0.702   4.679  0.5280 -0.0292  0.8855
 4947SOL    HW126300   0.065   0.739   4.664  1.1992  1.0646 -0.3407
 4947SOL    HW226301   0.183   0.758   4.751  0.0574 -0.6220  1.5439
 4948SOL     OW26302   0.927   3.196   9.004  0.2952 -0.2077 -0.2938
 4948SOL    HW126303   0.934   3.119   8.947 -1.4676 -0.5448 -0.0382
 4948SOL    HW226304   0.885   3.162   9.083  0.1537  3.0539  1.0055
 4949SOL     OW26305   0.717   3.630  15.913  0.2224 -0.3248 -0.1120
 4949SOL    HW126306   0.697   3.711  15.959  0.7767 -1.2634  1.7695
 4949SOL    HW226307   0.676   3.569  15.974 -1.1730 -1.6504 -2.3594
 4950SOL     OW26308   2.660   1.745   8.202 -0.5382 -0.3572 -0.5549
 4950SOL    HW126309   2.703   1.705   8.277  0.2739 -0.0435 -0.8535
 4950SOL    HW226310   2.582   1.783   8.244 -0.5265 -1.2955  0.3238
 4951SOL     OW26311   0.925   0.223  15.324 -0.2588 -0.0212  0.2011
 4951SOL    HW126312   0.953   0.151  15.268 -1.7080 -0.1279 -0.3870
 4951SOL    HW226313   0.871   0.274  15.263 -1.3152 -0.5131  0.7209
 4952SOL     OW26314   2.813   4.469   3.606  0.3432  0.8418  0.3474
 4952SOL    HW126315   2.775   4.416   3.676  1.8987 -1.2762 -0.4087
 4952SOL    HW226316   2.906   4.451   3.614  0.8675  2.2904 -2.5269
 4953SOL     OW26317   1.631   3.860  15.723 -0.3047  0.2011  0.2339
 4953SOL    HW126318   1.618   3.810  15.804 -0.2299  1.5988  1.0980
 4953SOL    HW226319   1.722   3.847  15.698 -0.7408 -3.0851  0.3424
 4954SOL     OW26320   2.603   1.827  13.068  0.1514 -0.1073 -0.7406
 4954SOL    HW126321   2.668   1.879  13.021 -0.1354  0.1261 -0.8795
 4954SOL    HW226322   2.589   1.771  12.992 -0.1327 -1.1327  0.0744
 4955SOL     OW26323   0.051   0.837   9.145 -0.1672 -0.2288  0.8176
 4955SOL    HW126324   0.133   0.885   9.152 -0.6683  0.7206  0.2159
 4955SOL    HW226325   0.084   0.748   9.139  1.3543  0.3546  0.5926
 4956SOL     OW26326   2.189   0.723  16.832  0.6036  0.0956 -0.7496
 4956SOL    HW126327   2.185   0.725  16.737 -1.0035 -1.1623 -0.7121
 4956SOL    HW226328   2.095   0.721  16.849  0.5439 -2.5441 -1.2568
 4957SOL     OW26329   4.620   4.275   1.965  0.1581 -0.0772 -0.3276
 4957SOL    HW126330   4.714   4.262   1.953  0.3891  0.9560  0.3645
 4957SOL    HW226331   4.598   4.184   1.947 -0.2192 -0.3828  1.7138
 4958SOL     OW26332   2.588   1.506   4.526 -0.5984 -0.3215  0.2019
 4958SOL    HW126333   2.621   1.530   4.440  0.2128 -0.1824  0.5521
 4958SOL    HW226334   2.660   1.448   4.551 -1.2221 -1.8172 -1.4697
 4959SOL     OW26335   4.540   3.779   4.693 -0.1366  0.0063 -0.2624
 4959SOL    HW126336   4.558   3.857   4.641 -2.2685  0.4786 -0.3234
 4959SOL    HW226337   4.600   3.800   4.764 -1.8084  0.0842  1.1453
 4960SOL     OW26338   3.379   4.493   4.615  0.2408  0.4646  0.2693
 4960SOL    HW126339   3.389   4.479   4.709  0.1932 -1.3332  0.0119
 4960SOL    HW226340   3.356   4.586   4.619 -0.9422  0.1487  0.6511
 4961SOL     OW26341   3.515   1.154   7.489 -0.2302  0.0225  0.2369
 4961SOL    HW126342   3.525   1.059   7.484 -1.5558 -0.0034 -1.7247
 4961SOL    HW226343   3.480   1.165   7.401  1.5069 -1.8029 -0.6880
 4962SOL     OW26344   3.577   4.465   9.044  0.1217  0.0916  0.0293
 4962SOL    HW126345   3.487   4.432   9.035  0.2936 -0.6226  0.8854
 4962SOL    HW226346   3.567   4.559   9.058  0.9330  0.0734  0.7549
 4963SOL     OW26347   2.256   0.761   3.905  0.9353 -0.0782  0.2309
 4963SOL    HW126348   2.237   0.682   3.854  1.0970 -1.4238  2.2268
 4963SOL    HW226349   2.255   0.712   3.988  0.7182 -0.0383  0.2524
 4964SOL     OW26350   1.949   2.655   5.570 -0.6735 -0.2372  0.2556
 4964SOL    HW126351   1.902   2.672   5.489 -1.1427 -0.2123  0.5286
 4964SOL    HW226352   1.934   2.734   5.622 -0.2238  0.6024 -0.9093
 4965SOL     OW26353   2.274   4.376   3.326 -0.1801 -0.2045  0.8229
 4965SOL    HW126354   2.305   4.326   3.402  1.2115 -1.6460 -0.6936
 4965SOL    HW226355   2.251   4.457   3.372  0.2815  0.3177  0.1446
 4966SOL     OW26356   2.073   3.700   7.549  0.0058  0.2100  0.0663
 4966SOL    HW126357   1.990   3.693   7.597 -0.5025  0.0542 -0.8228
 4966SOL    HW226358   2.059   3.790   7.519  0.8993 -0.1398 -1.4318
 4967SOL     OW26359   2.813   2.337   7.903 -0.2077 -0.2541  0.2035
 4967SOL    HW126360   2.766   2.420   7.900  1.5244  0.6892 -0.8493
 4967SOL    HW226361   2.763   2.291   7.971 -1.5399 -1.7947 -1.7980
 4968SOL     OW26362   1.331   3.633   7.207  0.2792 -0.4072  0.0580
 4968SOL    HW126363   1.246   3.666   7.175 -0.0845  0.3529  1.8088
 4968SOL    HW226364   1.324   3.538   7.207 -0.9991 -0.3382 -3.2056
 4969SOL     OW26365   2.455   2.041  16.393  0.0881  0.7329  0.1789
 4969SOL    HW126366   2.523   2.049  16.327 -1.2202 -1.7003 -1.4459
 4969SOL    HW226367   2.382   1.998  16.348  0.6120  1.9868 -1.8908
 4970SOL     OW26368   0.805   4.464  10.082 -0.3512  0.1056  0.5151
 4970SOL    HW126369   0.829   4.552  10.112  0.2668 -1.2639  4.0514
 4970SOL    HW226370   0.819   4.403  10.154  1.2437  0.1457  0.2507
 4971SOL     OW26371   2.539   4.331   9.878 -0.1409 -0.0870  0.1768
 4971SOL    HW126372   2.604   4.270   9.913 -0.8333  0.3975  2.2858
 4971SOL    HW226373   2.511   4.379   9.956 -1.1498  0.9338 -0.8137
 4972SOL     OW26374   3.242   1.675  13.973  0.4480  0.7632  0.7164
 4972SOL    HW126375   3.291   1.618  14.032  1.6890  1.2377  0.1462
 4972SOL    HW226376   3.221   1.748  14.031  0.2732  1.3678 -0.1133
 4973SOL     OW26377   3.975   4.248  16.012 -0.0790 -0.0209  0.2022
 4973SOL    HW126378   3.954   4.265  15.921 -0.4662  1.1605  0.5115
 4973SOL    HW226379   4.039   4.315  16.035 -0.2067  0.2807 -0.3378
 4974SOL     OW26380   1.467   0.606   6.745  0.5996 -0.5547  0.3296
 4974SOL    HW126381   1.434   0.611   6.655  0.0400  1.4539  0.6504
 4974SOL    HW226382   1.501   0.517   6.741 -0.8233 -0.9692 -2.0687
 4975SOL     OW26383   0.036   0.223  10.668  0.5064 -0.6862 -0.3310
 4975SOL    HW126384   0.087   0.279  10.727  0.1931 -0.1061 -0.6097
 4975SOL    HW226385   4.669   0.250  10.689  0.8406 -1.4507  2.0490
 4976SOL     OW26386   0.013   1.876   5.962 -0.4500  0.1974  0.2784
 4976SOL    HW126387   4.653   1.843   5.926  0.4002 -0.0963 -1.4139
 4976SOL    HW226388   4.706   1.935   6.032 -0.5810 -1.6483  1.7573
 4977SOL     OW26389   3.315   0.344   2.077 -0.1176  0.1609  0.4518
 4977SOL    HW126390   3.373   0.407   2.121  1.3782  1.0076 -2.6804
 4977SOL    HW226391   3.227   0.370   2.105 -0.6165 -2.3592  1.1462
 4978SOL     OW26392   0.875   3.707   4.312 -0.5651 -0.5140 -0.4167
 4978SOL    HW126393   0.940   3.707   4.382 -1.2499 -0.3698  0.2245
 4978SOL    HW226394   0.800   3.726   4.369 -0.5029  0.0753 -0.5326
 4979SOL     OW26395   4.151   2.015   7.004 -0.0988 -0.4528 -0.7037
 4979SOL    HW126396   4.073   1.998   6.951 -0.5772  1.6121 -0.6765
 4979SOL    HW226397   4.204   1.941   6.975  0.8626 -0.4764  1.0827
 4980SOL     OW26398   0.230   3.182   4.728  0.3079 -0.3484 -0.6358
 4980SOL    HW126399   0.239   3.136   4.812  1.4465  0.4922 -0.3041
 4980SOL    HW226400   0.320   3.189   4.698  0.9984  0.0617  1.4933
 4981SOL     OW26401   0.902   0.354   7.305 -0.0325  1.1392 -0.0320
 4981SOL    HW126402   0.886   0.425   7.368  0.4797 -1.1832  2.7153
 4981SOL    HW226403   0.818   0.345   7.259  0.2620  2.3081 -0.7995
 4982SOL     OW26404   2.449   0.924   8.435  0.1654  0.2361 -0.5712
 4982SOL    HW126405   2.358   0.910   8.460  0.0326 -1.2995 -1.9048
 4982SOL    HW226406   2.496   0.924   8.518 -0.0156 -0.8333 -0.4648
 4983SOL     OW26407   2.700   3.768   3.707 -0.3405 -0.1218  0.2098
 4983SOL    HW126408   2.735   3.698   3.653 -0.3316 -2.6261  3.4797
 4983SOL    HW226409   2.619   3.782   3.657  0.0773 -0.0475 -0.4500
 4984SOL     OW26410   0.929   4.715   7.674 -0.0050  0.8434  0.1605
 4984SOL    HW126411   1.007   0.047   7.686  0.6197  0.1876 -0.9244
 4984SOL    HW226412   0.859   0.057   7.687 -1.3165 -0.7381  0.9740
 4985SOL     OW26413   2.272   2.376   0.652  0.0135  0.5739 -0.0695
 4985SOL    HW126414   2.272   2.446   0.588 -2.3876 -0.0478 -0.7381
 4985SOL    HW226415   2.363   2.380   0.682  0.7682 -1.8564 -1.9881
 4986SOL     OW26416   1.702   3.686  10.697 -0.2124 -0.4779  0.4331
 4986SOL    HW126417   1.774   3.627  10.721  1.3372  1.3827  0.3213
 4986SOL    HW226418   1.639   3.661  10.766  0.8280 -0.3915  1.4218
 4987SOL     OW26419   4.211   1.893  15.836  0.4234  0.5498 -0.0231
 4987SOL    HW126420   4.305   1.877  15.843  0.1132 -0.1901  2.6114
 4987SOL    HW226421   4.172   1.808  15.853 -1.6624  1.8595  1.8418
 4988SOL     OW26422   3.879   0.776   7.672 -0.0941 -0.2468  0.8091
 4988SOL    HW126423   3.851   0.687   7.653  0.4873 -1.0001  3.4337
 4988SOL    HW226424   3.969   0.754   7.696 -0.0012 -1.3871 -0.6018
 4989SOL     OW26425   4.095   3.939   1.974 -0.6580  0.4866  0.0138
 4989SOL    HW126426   4.188   3.918   1.984 -0.8665  0.0706  1.1671
 4989SOL    HW226427   4.048   3.875   2.029 -0.5184 -0.6838 -1.2193
 4990SOL     OW26428   4.701   0.483   3.315  0.2817 -0.3462  0.0355
 4990SOL    HW126429   0.027   0.465   3.396  0.2871  2.1244  0.5585
 4990SOL    HW226430   0.012   0.415   3.257 -1.4497  0.4590 -1.8629
 4991SOL     OW26431   4.197   0.987   6.930  0.2356  0.2415 -0.3291
 4991SOL    HW126432   4.168   0.963   6.841  1.6584 -4.4840  0.4658
 4991SOL    HW226433   4.136   0.930   6.976  1.8106  0.0246  1.4718
 4992SOL     OW26434   3.958   0.542   6.388 -0.5348 -0.2003 -0.1232
 4992SOL    HW126435   3.947   0.468   6.329 -1.5467 -0.1500  0.0081
 4992SOL    HW226436   4.013   0.608   6.344 -0.4290  0.1417  0.5119
 4993SOL     OW26437   1.088   3.250  10.305  0.1849 -0.0909 -0.3002
 4993SOL    HW126438   0.999   3.275  10.332 -0.0488  0.2758 -1.4382
 4993SOL    HW226439   1.140   3.270  10.383 -1.1404  0.7247  0.3805
 4994SOL     OW26440   1.013   0.913   3.793 -0.0539 -0.1755 -0.6957
 4994SOL    HW126441   0.923   0.879   3.791 -0.3373  0.7247 -4.4628
 4994SOL    HW226442   1.047   0.873   3.712 -0.9748 -2.0154 -0.1867
 4995SOL     OW26443   3.338   2.289  12.928  0.1480  0.3661  0.2822
 4995SOL    HW126444   3.354   2.336  13.010  0.1015 -1.6828  1.4637
 4995SOL    HW226445   3.430   2.285  12.903 -0.2475 -2.2035 -0.7950
 4996SOL     OW26446   0.040   3.003  17.057  0.2109 -0.9105  0.1293
 4996SOL    HW126447   4.699   2.976  17.123 -0.9374  0.1196 -0.5624
 4996SOL    HW226448   0.064   2.922  17.012  4.1769  0.3099  0.0839
 4997SOL     OW26449   0.597   4.256   6.085 -0.5535 -0.8308 -0.0539
 4997SOL    HW126450   0.556   4.206   6.014 -0.3546  0.5105 -1.1250
 4997SOL    HW226451   0.522   4.285   6.137  0.6316 -0.5900  1.5184
 4998SOL     OW26452   1.292   1.382  12.225  0.3988 -0.1778  0.0452
 4998SOL    HW126453   1.290   1.288  12.208 -1.1030 -0.3506  1.1014
 4998SOL    HW226454   1.287   1.420  12.138 -0.3898  1.0584  0.6266
 4999SOL     OW26455   0.128   0.396   7.106 -0.6797 -0.2447  0.0514
 4999SOL    HW126456   0.109   0.406   7.013  2.1106  0.1064 -0.4726
 4999SOL    HW226457   0.211   0.442   7.117 -1.5386  1.3956 -0.2788
 5000SOL     OW26458   4.480   2.030  14.604  0.0407  0.1510  0.7819
 5000SOL    HW126459   4.557   1.976  14.584 -2.0924 -2.2065 -1.0009
 5000SOL    HW226460   4.516   2.118  14.618  3.7309 -1.5983  2.0874
 5001SOL     OW26461   3.019   4.657   6.493  0.2963 -0.6152 -0.3483
 5001SOL    HW126462   2.968   0.015   6.485  1.6780  0.3396  0.2735
 5001SOL    HW226463   2.976   4.622   6.571 -0.0673  3.6037  1.3275
 5002SOL     OW26464   1.922   1.556  16.944  0.2792 -0.1412 -0.2970
 5002SOL    HW126465   1.873   1.476  16.963 -0.5759  0.5718  0.4688
 5002SOL    HW226466   2.001   1.533  16.895  1.7418  1.3854  1.3504
 5003SOL     OW26467   0.263   1.231   8.969 -0.4935 -0.4738  0.1811
 5003SOL    HW126468   0.233   1.259   8.883  0.2631  0.3309  0.1696
 5003SOL    HW226469   0.193   1.268   9.023  2.3619  3.8241  1.0277
 5004SOL     OW26470   3.799   0.050   5.494 -0.3236  0.1507 -0.6236
 5004SOL    HW126471   3.787   0.135   5.451 -0.3355  0.0648 -0.7913
 5004SOL    HW226472   3.888   0.059   5.528  0.0984 -0.9339 -1.4204
 5005SOL     OW26473   4.547   2.014   9.125 -0.1128 -0.2527  0.1365
 5005SOL    HW126474   4.536   1.944   9.061 -1.1669  1.7594 -1.9192
 5005SOL    HW226475   4.455   2.039   9.129 -0.4807 -1.6919  0.3429
 5006SOL     OW26476   0.688   0.261   0.286  0.0699 -0.0532  0.1707
 5006SOL    HW126477   0.619   0.196   0.300 -0.6765  0.9209  1.0819
 5006SOL    HW226478   0.658   0.298   0.203 -1.9697  0.2406  1.0372
 5007SOL     OW26479   3.136   1.693   7.602 -0.0814 -0.0599  0.5202
 5007SOL    HW126480   3.063   1.753   7.621 -1.3020 -0.6155 -2.4711
 5007SOL    HW226481   3.110   1.613   7.647 -1.1729  1.4363  2.6162
 5008SOL     OW26482   0.505   1.896   7.541  0.1937 -0.2973  0.0774
 5008SOL    HW126483   0.427   1.848   7.567  1.8196 -2.9904 -0.0425
 5008SOL    HW226484   0.512   1.870   7.449  0.9846 -0.2624  0.1241
 5009SOL     OW26485   2.917   3.715   2.440 -0.0134 -0.0616 -0.0773
 5009SOL    HW126486   2.927   3.790   2.499 -0.9853  0.5532 -0.7083
 5009SOL    HW226487   2.862   3.655   2.491  0.2820  1.0657  1.5683
 5010SOL     OW26488   1.618   3.728   8.912  0.4713 -0.0518  1.0219
 5010SOL    HW126489   1.668   3.781   8.850 -1.3519 -0.4357 -0.7484
 5010SOL    HW226490   1.578   3.803   8.956  2.9613  1.4651  0.7192
 5011SOL     OW26491   2.133   1.243   6.778  0.3817 -0.1968 -0.4265
 5011SOL    HW126492   2.192   1.181   6.822  0.5357  0.3049  0.0853
 5011SOL    HW226493   2.087   1.176   6.729 -1.1507  0.7068 -0.2310
 5012SOL     OW26494   1.060   0.992   2.811 -0.0888 -0.1763  0.2074
 5012SOL    HW126495   1.088   0.994   2.719  0.1397 -1.2743  0.2520
 5012SOL    HW226496   0.968   1.006   2.789 -0.3154 -0.3495  1.0725
 5013SOL     OW26497   4.223   0.493   2.219  0.2024  0.6609 -0.2949
 5013SOL    HW126498   4.177   0.573   2.242 -1.1754 -0.4898  1.0349
 5013SOL    HW226499   4.215   0.488   2.124 -0.9692 -0.0459 -0.1551
 5014SOL     OW26500   4.347   1.750   1.468  0.1381 -0.2641  0.2168
 5014SOL    HW126501   4.280   1.727   1.403  1.0778  1.5391 -1.3742
 5014SOL    HW226502   4.416   1.791   1.416 -1.5014  2.2835  0.0815
 5015SOL     OW26503   0.986   4.158   5.339 -0.3018  0.5261 -0.5295
 5015SOL    HW126504   0.930   4.157   5.417  0.4665 -1.7725 -0.0095
 5015SOL    HW226505   1.067   4.182   5.383 -0.4991  1.0278 -0.4408
 5016SOL     OW26506   3.508   2.269  16.331 -0.3190  0.0226 -0.2709
 5016SOL    HW126507   3.516   2.181  16.293  1.2387 -0.1415  0.4255
 5016SOL    HW226508   3.598   2.284  16.358 -0.6367  0.3033  0.6249
 5017SOL     OW26509   2.780   1.631   4.868 -0.4479 -0.1213 -0.6838
 5017SOL    HW126510   2.848   1.622   4.801  1.3316  1.1159  0.9826
 5017SOL    HW226511   2.715   1.676   4.813  0.1614  1.3410 -0.2171
 5018SOL     OW26512   0.827   2.573   2.241  0.3424 -0.2274  0.5870
 5018SOL    HW126513   0.819   2.501   2.178 -0.0408  0.0882  0.2789
 5018SOL    HW226514   0.736   2.582   2.266 -0.3363 -0.7507 -1.6961
 5019SOL     OW26515   4.065   3.008  12.770 -0.2427  0.4045 -0.4164
 5019SOL    HW126516   4.062   3.080  12.706  0.8468  0.2853 -0.6056
 5019SOL    HW226517   4.110   2.939  12.720 -0.5202 -0.3226  0.3532
 5020SOL     OW26518   1.627   1.874   4.440 -0.3474 -1.2406  0.2101
 5020SOL    HW126519   1.684   1.947   4.465 -0.3406 -1.1365 -0.1076
 5020SOL    HW226520   1.572   1.860   4.516 -4.2167  0.6636 -2.2492
 5021SOL     OW26521   0.109   1.340   9.161 -0.0667 -0.0054  0.3362
 5021SOL    HW126522   0.148   1.280   9.225  0.4046  0.6534  0.6633
 5021SOL    HW226523   0.069   1.394   9.229  0.9370  0.0552  0.8688
 5022SOL     OW26524   3.959   2.166   0.829  0.4039  0.4523 -1.0045
 5022SOL    HW126525   3.963   2.081   0.785 -0.1206  0.1511 -0.4747
 5022SOL    HW226526   3.951   2.151   0.923 -1.4889 -0.2391 -1.2638
 5023SOL     OW26527   0.575   4.681  10.194  0.3682  0.1574 -0.2830
 5023SOL    HW126528   0.513   4.633  10.139  2.1392 -0.8424 -1.4088
 5023SOL    HW226529   0.649   4.658  10.138 -0.0677  0.4905 -0.9843
 5024SOL     OW26530   0.121   1.284   3.679 -0.0693  0.3258 -0.1462
 5024SOL    HW126531   0.047   1.332   3.717 -0.0657  1.6799 -1.8299
 5024SOL    HW226532   0.195   1.324   3.725 -0.2190  0.7868 -0.3027
 5025SOL     OW26533   0.277   1.466   5.871 -0.0510  0.4854 -0.2695
 5025SOL    HW126534   0.258   1.505   5.956  0.4503 -0.9808  0.5305
 5025SOL    HW226535   0.370   1.482   5.856  0.4159  1.7696  4.0330
 5026SOL     OW26536   1.291   2.033   0.538 -0.2796 -0.2255 -0.0342
 5026SOL    HW126537   1.258   2.121   0.519 -0.3850 -0.1909  0.3096
 5026SOL    HW226538   1.350   2.030   0.463  2.3167  1.9411  1.9039
 5027SOL     OW26539   0.505   2.445   5.173  0.1917 -0.0607  0.1469
 5027SOL    HW126540   0.480   2.535   5.157 -1.1964 -0.4427  0.1906
 5027SOL    HW226541   0.598   2.463   5.184  0.3214 -0.0332 -1.0078
 5028SOL     OW26542   1.657   2.342   8.100  0.7858  0.3719  0.1033
 5028SOL    HW126543   1.622   2.289   8.171  1.5165 -2.1531 -1.4021
 5028SOL    HW226544   1.719   2.286   8.052  1.2425  0.8858  0.0998
 5029SOL     OW26545   1.827   4.278   4.679 -0.3467  0.6485 -0.1783
 5029SOL    HW126546   1.903   4.336   4.673  0.9373 -1.0899 -0.6924
 5029SOL    HW226547   1.847   4.193   4.639 -1.1216 -1.2520  3.4480
 5030SOL     OW26548   3.345   2.048   2.272  0.3503  0.1622  0.3468
 5030SOL    HW126549   3.383   2.064   2.358  1.7040  0.2608 -0.2642
 5030SOL    HW226550   3.427   2.076   2.232  0.5011 -0.9006 -0.0826
 5031SOL     OW26551   2.679   4.169   2.101  0.1367 -0.3745 -0.3255
 5031SOL    HW126552   2.589   4.151   2.131  0.3737 -0.5980  0.2511
 5031SOL    HW226553   2.676   4.135   2.012  0.6769 -2.4163  0.4318
 5032SOL     OW26554   2.359   3.203  12.338  0.1250 -0.1000  0.1749
 5032SOL    HW126555   2.405   3.180  12.419 -0.6198 -0.4090  0.5131
 5032SOL    HW226556   2.268   3.181  12.358 -0.7213  2.1537 -1.2812
 5033SOL     OW26557   4.051   0.253  15.969  0.0433  0.0359 -0.0077
 5033SOL    HW126558   4.134   0.256  15.921  0.5365 -0.6753  0.8037
 5033SOL    HW226559   4.053   0.166  16.008  2.2865 -0.1345 -0.5047
 5034SOL     OW26560   0.453   0.418   2.348  0.0610 -0.1576  0.0349
 5034SOL    HW126561   0.370   0.376   2.329  1.3953 -1.5169 -2.8663
 5034SOL    HW226562   0.509   0.340   2.346 -0.5065 -0.5613  0.2483
 5035SOL     OW26563   3.274   2.204   8.390  0.4671 -0.5217 -0.3804
 5035SOL    HW126564   3.313   2.254   8.461  0.0516 -1.4243  0.4890
 5035SOL    HW226565   3.332   2.127   8.393  0.1301 -0.7757 -0.3672
 5036SOL     OW26566   3.633   4.078   6.972  0.2651 -0.6133 -0.3755
 5036SOL    HW126567   3.688   4.000   6.985  3.1253  1.4813  0.0758
 5036SOL    HW226568   3.598   4.094   7.060 -0.5595  0.4126 -0.8911
 5037SOL     OW26569   4.560   1.086   1.530  0.4889 -0.2049  0.1164
 5037SOL    HW126570   4.602   1.007   1.495  0.7428  0.8425 -1.9800
 5037SOL    HW226571   4.489   1.101   1.468  1.4679  1.0015 -0.7128
 5038SOL     OW26572   4.198   2.182  12.043  0.0419  0.2543  0.5357
 5038SOL    HW126573   4.253   2.198  12.120 -0.1388  1.2650  0.4622
 5038SOL    HW226574   4.182   2.275  12.023 -1.2515 -0.1218 -0.1786
 5039SOL     OW26575   3.489   2.692   0.720 -0.8246  0.0534 -0.3904
 5039SOL    HW126576   3.524   2.700   0.808 -0.0914 -1.5790 -0.5295
 5039SOL    HW226577   3.407   2.740   0.735 -2.4846 -3.0523  0.6090
 5040SOL     OW26578   0.151   2.730  15.425  0.1059  0.1460  0.1560
 5040SOL    HW126579   0.201   2.811  15.432  0.2505  0.1404 -0.8867
 5040SOL    HW226580   0.183   2.681  15.501  0.2693  1.5415  0.9891
 5041SOL     OW26581   2.760   2.440   9.031 -0.3233  0.5825 -0.3703
 5041SOL    HW126582   2.782   2.438   9.124  1.1251  0.8690 -0.7153
 5041SOL    HW226583   2.769   2.534   9.022 -0.0178  0.4825 -1.0833
 5042SOL     OW26584   3.422   1.753  15.214  0.2565 -1.1177  0.0859
 5042SOL    HW126585   3.491   1.750  15.148 -1.5807  0.2156 -1.8961
 5042SOL    HW226586   3.450   1.830  15.263 -0.8395 -0.2559 -0.6684
 5043SOL     OW26587   1.757   1.989  14.947  0.0978 -0.1677 -0.9243
 5043SOL    HW126588   1.832   1.929  14.951  0.3948  0.3705  2.2257
 5043SOL    HW226589   1.681   1.936  14.968  1.7156 -2.1594 -0.0734
 5044SOL     OW26590   4.672   3.436   7.190  0.4781  0.2555  0.7118
 5044SOL    HW126591   4.682   3.509   7.130  0.2637  1.3010  1.9379
 5044SOL    HW226592   4.600   3.476   7.239 -1.0855  1.4035 -2.5808
 5045SOL     OW26593   2.472   3.723  10.912 -0.5787  0.4696 -0.1624
 5045SOL    HW126594   2.457   3.801  10.965 -2.2516  0.6382 -0.8737
 5045SOL    HW226595   2.560   3.743  10.879 -0.5429  1.3080  0.4302
 5046SOL     OW26596   0.503   3.991  10.095  0.1378 -0.0423 -0.6116
 5046SOL    HW126597   0.587   3.946  10.102 -0.4487 -1.0646 -0.2298
 5046SOL    HW226598   0.517   4.077  10.136 -0.1185 -0.5721  0.5826
 5047SOL     OW26599   0.564   1.878   5.983  0.0788  0.2101  0.6611
 5047SOL    HW126600   0.489   1.818   5.970  0.7144 -0.0327 -1.8885
 5047SOL    HW226601   0.539   1.949   5.924  1.6428 -0.2113 -0.4921
 5048SOL     OW26602   3.494   0.936   9.896 -0.1091 -0.3938  0.3479
 5048SOL    HW126603   3.433   0.937   9.823 -0.4345  0.6528  0.6298
 5048SOL    HW226604   3.502   1.031   9.907 -2.5054 -0.1005 -0.5612
 5049SOL     OW26605   1.634   3.202   3.380  0.2508  0.4317 -0.4569
 5049SOL    HW126606   1.546   3.238   3.387  0.9177  1.4622  2.8603
 5049SOL    HW226607   1.679   3.271   3.331 -0.8659  0.0744 -1.9532
 5050SOL     OW26608   4.285   2.081   3.684 -0.1840  0.0003  0.6158
 5050SOL    HW126609   4.277   2.044   3.772  1.3883  0.7769  1.0852
 5050SOL    HW226610   4.246   2.009   3.635 -1.8286  2.7708 -2.1354
 5051SOL     OW26611   1.287   3.756   8.412 -0.7584 -0.0986 -0.0693
 5051SOL    HW126612   1.219   3.823   8.412  0.3752  1.0498  0.6738
 5051SOL    HW226613   1.344   3.775   8.337  0.5210  0.3207  1.0053
 5052SOL     OW26614   0.146   3.969   2.391 -0.4247 -0.4268 -0.1500
 5052SOL    HW126615   0.077   4.035   2.386  0.0442  0.1375  0.6894
 5052SOL    HW226616   0.170   3.972   2.484 -2.1356 -0.9225  0.3159
 5053SOL     OW26617   1.740   3.398  11.691  0.0802 -0.0572  0.1729
 5053SOL    HW126618   1.824   3.444  11.684  1.0061 -1.5923  1.2615
 5053SOL    HW226619   1.689   3.445  11.624 -1.4550 -0.1515  1.2768
 5054SOL     OW26620   2.091   1.154  11.995  0.6091 -0.0576  0.4635
 5054SOL    HW126621   2.054   1.241  12.007  1.0172  0.5587 -2.6356
 5054SOL    HW226622   2.171   1.174  11.947  0.7799 -1.3143  0.2118
 5055SOL     OW26623   3.230   2.279   0.497  0.6864 -0.4043  0.4895
 5055SOL    HW126624   3.250   2.345   0.563 -2.1935  1.6964 -0.6946
 5055SOL    HW226625   3.277   2.314   0.421  2.0953  0.4889  1.7710
 5056SOL     OW26626   1.626   1.701   6.598  0.1378  0.6616  0.1382
 5056SOL    HW126627   1.583   1.786   6.608  0.5491  0.6005  2.4038
 5056SOL    HW226628   1.563   1.648   6.646 -0.2235  0.9681  0.0041
 5057SOL     OW26629   0.009   3.199   8.445  0.4464  0.7746 -0.1274
 5057SOL    HW126630   0.028   3.193   8.351 -2.0455 -0.1160 -0.5773
 5057SOL    HW226631   0.066   3.262   8.489  1.2735 -0.3635  0.4231
 5058SOL     OW26632   1.984   2.856   8.233  0.1025 -0.3171 -0.3659
 5058SOL    HW126633   2.018   2.768   8.218 -0.7143 -0.5540 -0.8252
 5058SOL    HW226634   1.996   2.865   8.327 -0.5951 -0.1370 -0.2943
 5059SOL     OW26635   4.180   3.390   4.785  0.2408 -0.4159  0.4502
 5059SOL    HW126636   4.253   3.333   4.807  0.2377 -0.5913  0.0174
 5059SOL    HW226637   4.211   3.476   4.811  0.0992 -0.0665 -0.5251
 5060SOL     OW26638   1.898   3.046   7.677  0.0771 -0.4246  0.0542
 5060SOL    HW126639   1.879   2.957   7.707  0.8943 -0.3893  0.6865
 5060SOL    HW226640   1.858   3.057   7.591  2.8348 -0.5498 -1.2501
 5061SOL     OW26641   2.489   3.160   7.172 -0.3857  0.0352  0.5815
 5061SOL    HW126642   2.482   3.065   7.171  0.6767 -0.0596  1.7025
 5061SOL    HW226643   2.580   3.175   7.145 -0.4173 -1.7947 -0.5313
 5062SOL     OW26644   0.783   4.476   4.459 -0.1277  0.8449 -0.5166
 5062SOL    HW126645   0.846   4.523   4.514 -0.3489 -0.3964  0.8052
 5062SOL    HW226646   0.709   4.483   4.520 -0.6662  1.9853 -1.2942
 5063SOL     OW26647   0.160   2.980   5.895  1.3033  0.0382  0.1724
 5063SOL    HW126648   0.133   2.976   5.987  1.2552 -1.5651  0.0935
 5063SOL    HW226649   0.252   2.960   5.913  1.1855 -1.3312 -0.6733
 5064SOL     OW26650   2.988   0.640   4.757 -0.1423 -0.3898  0.1687
 5064SOL    HW126651   3.013   0.659   4.847 -1.8693  1.1276  0.3313
 5064SOL    HW226652   2.937   0.718   4.733  0.0436  0.7703  3.5348
 5065SOL     OW26653   0.452   4.573   8.463 -0.2950 -0.0383 -0.4218
 5065SOL    HW126654   0.494   4.654   8.492  1.2134 -0.8415 -0.3836
 5065SOL    HW226655   0.509   4.540   8.393  0.3813  1.3088 -0.5082
 5066SOL     OW26656   0.301   1.721   7.577 -0.0957  0.4037  0.3971
 5066SOL    HW126657   0.254   1.700   7.496 -0.4206 -0.2711  0.7632
 5066SOL    HW226658   0.259   1.803   7.602  1.2341  1.1569  0.1727
 5067SOL     OW26659   2.669   3.273   3.709 -0.1396  1.0347 -0.5871
 5067SOL    HW126660   2.635   3.349   3.755 -0.8224 -0.3046  1.1300
 5067SOL    HW226661   2.617   3.197   3.737 -0.2379  0.7703 -1.4815
 5068SOL     OW26662   1.939   2.483   3.387  0.0869 -0.0731 -0.0474
 5068SOL    HW126663   1.936   2.397   3.345  0.5356 -0.7483  1.3081
 5068SOL    HW226664   1.958   2.527   3.304  0.6255  1.9382  1.1580
 5069SOL     OW26665   3.744   3.590   5.738  0.0402 -0.4341 -0.0465
 5069SOL    HW126666   3.666   3.535   5.744 -0.5193  0.3625  0.0838
 5069SOL    HW226667   3.809   3.535   5.781  1.2151  1.1125  0.1623
 5070SOL     OW26668   2.460   0.934   8.725  0.2224  0.4943 -0.3569
 5070SOL    HW126669   2.452   1.029   8.714 -0.3655  0.6661  1.5030
 5070SOL    HW226670   2.465   0.940   8.820 -0.2113 -0.2268 -0.2949
 5071SOL     OW26671   4.700   4.504   5.936  0.4310  0.0391 -0.7514
 5071SOL    HW126672   4.694   4.418   5.895  2.5855 -0.0622 -0.8755
 5071SOL    HW226673   4.629   4.511   5.999  0.8184 -1.3004 -0.1717
 5072SOL     OW26674   0.546   2.738   4.171 -0.1138 -0.4931 -0.6292
 5072SOL    HW126675   0.479   2.701   4.228 -0.0360 -1.8258 -1.4254
 5072SOL    HW226676   0.627   2.721   4.220  0.1993 -3.3788 -2.2180
 5073SOL     OW26677   0.031   1.230   8.401 -0.5398 -0.1059 -0.0815
 5073SOL    HW126678   4.720   1.227   8.490 -0.6660  2.1242 -0.0544
 5073SOL    HW226679   0.111   1.279   8.421 -0.8969 -0.1763  1.5317
 5074SOL     OW26680   0.044   1.947  12.888  0.0518  0.0380 -0.0298
 5074SOL    HW126681   0.023   1.860  12.855  2.2222 -0.9504  1.1675
 5074SOL    HW226682   4.681   1.983  12.911 -1.2390 -1.3994 -2.6703
 5075SOL     OW26683   3.476   0.693  14.558 -0.1835 -0.1219 -0.4929
 5075SOL    HW126684   3.453   0.609  14.598 -0.5889 -0.4814 -1.4995
 5075SOL    HW226685   3.565   0.671  14.531  0.3308  0.3078  0.8200
 5076SOL     OW26686   1.664   1.557  12.705 -0.3874 -0.7027 -0.1569
 5076SOL    HW126687   1.760   1.566  12.705 -0.5011  0.5577  2.1383
 5076SOL    HW226688   1.662   1.465  12.733 -0.4253 -0.2609  1.3229
 5077SOL     OW26689   0.545   0.123   4.309 -0.3970 -0.4000  0.9684
 5077SOL    HW126690   0.592   0.164   4.382 -0.7454  0.4790  0.7079
 5077SOL    HW226691   0.523   0.201   4.257  0.6513 -0.1601  0.8845
 5078SOL     OW26692   1.987   1.499   9.506 -0.4062 -0.6236  0.7096
 5078SOL    HW126693   2.024   1.489   9.418 -0.0503  0.6475  0.7107
 5078SOL    HW226694   1.966   1.591   9.488  1.1353 -0.1981  1.0855
 5079SOL     OW26695   2.529   0.863   7.993  0.6824 -0.0166  0.1407
 5079SOL    HW126696   2.602   0.841   8.051 -0.3637 -2.2519  0.6110
 5079SOL    HW226697   2.486   0.934   8.041  0.5943  1.5632 -2.2900
 5080SOL     OW26698   0.402   1.002   8.207 -0.6295  0.0743 -0.1694
 5080SOL    HW126699   0.337   1.073   8.200  1.3057  1.8921  0.0898
 5080SOL    HW226700   0.402   0.998   8.303 -2.5950  0.6229 -0.1541
 5081SOL     OW26701   3.827   1.891   1.429  0.1269  0.5019  0.1571
 5081SOL    HW126702   3.776   1.961   1.469 -1.3753  0.0495 -1.0068
 5081SOL    HW226703   3.760   1.830   1.401  0.0138  0.7718 -0.1564
 5082SOL     OW26704   1.634   1.703   5.912 -0.0845  0.3539  0.0066
 5082SOL    HW126705   1.706   1.640   5.924  0.8330  1.4254  0.1242
 5082SOL    HW226706   1.625   1.692   5.818  1.1476 -1.8734  0.1415
 5083SOL     OW26707   0.689   3.154   7.433 -0.3609 -0.4771 -0.3797
 5083SOL    HW126708   0.750   3.125   7.365 -1.1031 -1.5455 -0.5932
 5083SOL    HW226709   0.651   3.070   7.459 -0.1197 -0.1422  1.0699
 5084SOL     OW26710   3.849   1.359   3.099  0.2350 -0.3645  0.4054
 5084SOL    HW126711   3.877   1.282   3.050 -2.9683 -2.3789  1.7752
 5084SOL    HW226712   3.794   1.396   3.030  4.1455 -0.7603 -2.8860
 5085SOL     OW26713   2.672   2.448   8.447  0.0156  0.7078  0.3696
 5085SOL    HW126714   2.644   2.489   8.529  0.1063 -2.3739  1.9184
 5085SOL    HW226715   2.686   2.519   8.384 -2.1354 -0.2530 -1.1965
 5086SOL     OW26716   0.895   3.133   8.319 -0.0754 -0.0563 -0.3044
 5086SOL    HW126717   0.818   3.169   8.275 -0.3007 -1.0028 -0.6764
 5086SOL    HW226718   0.895   3.190   8.396  2.2603  0.7498 -0.8942
 5087SOL     OW26719   3.532   0.975   3.044 -0.7921  0.1934  0.1267
 5087SOL    HW126720   3.615   0.981   3.091 -0.8090 -0.7016  0.2770
 5087SOL    HW226721   3.535   0.884   3.015  0.0855  0.3140 -0.1879
 5088SOL     OW26722   3.923   0.155   3.423  0.1886 -0.6879  0.4300
 5088SOL    HW126723   3.869   0.223   3.384 -1.2556 -2.4935 -0.7188
 5088SOL    HW226724   3.927   0.086   3.356 -1.7070  1.6422 -2.0789
 5089SOL     OW26725   4.351   1.734   7.615  0.3593  0.0978 -0.3677
 5089SOL    HW126726   4.444   1.732   7.591  0.5942  1.6124  0.4536
 5089SOL    HW226727   4.345   1.752   7.709  1.3455  0.9729 -0.4734
 5090SOL     OW26728   2.399   3.512   3.374 -0.1257 -0.0713  0.2098
 5090SOL    HW126729   2.318   3.527   3.326  0.2101 -0.0397 -0.3489
 5090SOL    HW226730   2.387   3.427   3.416 -0.2245 -1.1223 -1.9807
 5091SOL     OW26731   0.616   3.237   4.441  0.3615 -0.1281  0.2279
 5091SOL    HW126732   0.651   3.148   4.435 -0.3266 -0.3632 -0.2634
 5091SOL    HW226733   0.606   3.257   4.348  3.3042  1.9033  0.3485
 5092SOL     OW26734   4.428   2.908   5.247 -0.2255  0.5285 -0.0076
 5092SOL    HW126735   4.488   2.833   5.238  0.5550  1.2164 -0.5874
 5092SOL    HW226736   4.359   2.883   5.308  0.6796 -1.2062  0.3121
 5093SOL     OW26737   4.487   1.329  10.052  0.5166 -0.6196  0.7459
 5093SOL    HW126738   4.435   1.249  10.043  2.4617 -1.8121  0.0182
 5093SOL    HW226739   4.441   1.384  10.115 -1.4016 -0.9692 -0.3582
 5094SOL     OW26740   0.557   2.860   5.151 -0.2925 -0.4990 -0.1099
 5094SOL    HW126741   0.611   2.837   5.226  0.6611 -2.1149 -1.3014
 5094SOL    HW226742   0.619   2.849   5.080  0.7205  0.6933  0.5975
 5095SOL     OW26743   2.143   2.147   0.542  0.4974  0.2157  0.4825
 5095SOL    HW126744   2.183   2.213   0.600  0.9024  0.1662  0.2643
 5095SOL    HW226745   2.066   2.113   0.587  1.2925 -1.9194  0.2414
 5096SOL     OW26746   1.647   3.466   5.973  0.4383 -0.0338  0.1082
 5096SOL    HW126747   1.687   3.446   5.888  1.6696 -1.7624  1.0995
 5096SOL    HW226748   1.708   3.417   6.028  3.2881  4.8857  1.3374
 5097SOL     OW26749   2.845   1.115   3.361 -0.1373 -0.5321  0.0970
 5097SOL    HW126750   2.759   1.087   3.389 -0.0566 -0.0637  0.8054
 5097SOL    HW226751   2.819   1.197   3.318  0.8872  0.1449  0.7549
 5098SOL     OW26752   1.669   4.534   6.735 -0.0757 -0.2803  0.1096
 5098SOL    HW126753   1.723   4.598   6.781 -1.7168  0.2896  1.2120
 5098SOL    HW226754   1.586   4.539   6.783 -0.3380  0.7267 -0.4580
 5099SOL     OW26755   2.945   0.122   4.355 -0.8095 -0.0483  0.0765
 5099SOL    HW126756   2.907   0.122   4.268 -0.6776 -1.3450  0.0192
 5099SOL    HW226757   3.007   0.049   4.366 -1.6199 -0.7568 -0.0377
 5100SOL     OW26758   2.534   1.313   8.759 -0.4205 -0.3006 -0.3118
 5100SOL    HW126759   2.506   1.388   8.811 -1.4055  0.2633 -1.6850
 5100SOL    HW226760   2.456   1.281   8.714 -1.2084  0.5370  0.4630
 5101SOL     OW26761   2.665   1.826   1.877 -0.1917  0.8211  0.1951
 5101SOL    HW126762   2.685   1.733   1.866  0.0210  0.7915  0.7890
 5101SOL    HW226763   2.571   1.820   1.862 -0.1518 -0.9942  0.6395
 5102SOL     OW26764   0.669   4.526   8.705 -0.3266 -0.2676 -0.3881
 5102SOL    HW126765   0.630   4.593   8.648 -0.2979  1.0000  1.0656
 5102SOL    HW226766   0.716   4.583   8.767 -1.2453  0.0632  0.0076
 5103SOL     OW26767   3.352   2.851  10.178 -0.3507 -0.1643 -0.1603
 5103SOL    HW126768   3.328   2.774  10.229  1.1664 -1.3984 -1.3034
 5103SOL    HW226769   3.422   2.879  10.237 -0.1321  0.2446 -0.6101
 5104SOL     OW26770   3.099   2.064   6.228 -0.0771 -0.6550 -0.7713
 5104SOL    HW126771   3.174   2.058   6.169 -0.5706 -0.9885 -1.3574
 5104SOL    HW226772   3.122   2.139   6.283  0.3136 -0.9684 -0.5164
 5105SOL     OW26773   1.798   0.360   3.417 -0.1121  0.2218 -0.0320
 5105SOL    HW126774   1.705   0.347   3.436 -0.2042  1.3671  0.3047
 5105SOL    HW226775   1.826   0.271   3.396  0.5259  0.0309  1.6402
 5106SOL     OW26776   1.130   0.937   7.482 -0.0572  0.4654  0.0203
 5106SOL    HW126777   1.096   0.961   7.568 -2.9292  1.1349 -1.2882
 5106SOL    HW226778   1.225   0.943   7.487  0.1167 -0.6401 -1.7434
 5107SOL     OW26779   3.654   1.241   1.543  0.9479 -0.6532 -0.0758
 5107SOL    HW126780   3.579   1.225   1.601  1.9085  3.9932  2.4249
 5107SOL    HW226781   3.617   1.212   1.459 -1.5065 -0.7646  1.0271
 5108SOL     OW26782   1.091   2.733   3.062  0.1960  0.0426  0.0599
 5108SOL    HW126783   1.054   2.651   3.094  2.3063 -0.3336  1.5240
 5108SOL    HW226784   1.185   2.727   3.079  0.3321 -0.4671 -0.8250
 5109SOL     OW26785   2.151   3.671   4.313  0.1290 -0.5504 -0.3208
 5109SOL    HW126786   2.122   3.754   4.351 -0.8809 -2.0011  2.1110
 5109SOL    HW226787   2.165   3.702   4.224 -0.8913  0.4679 -0.1169
 5110SOL     OW26788   3.356   4.662  13.459  0.0129  0.1712 -0.8052
 5110SOL    HW126789   3.436   4.672  13.406  1.3314 -1.1540  0.9319
 5110SOL    HW226790   3.377   4.575  13.495 -1.4028 -0.0034 -0.4202
 5111SOL     OW26791   2.893   0.044   2.014 -0.1799  0.0494 -0.0831
 5111SOL    HW126792   2.952   0.093   2.071 -1.4309 -0.1588  1.4182
 5111SOL    HW226793   2.945   4.689   1.995  0.7021  0.3961  0.9010
 5112SOL     OW26794   2.545   4.337   0.042  0.0456 -0.0106  0.6127
 5112SOL    HW126795   2.577   4.391  17.663 -3.1363 -1.4642 -1.8893
 5112SOL    HW226796   2.583   4.388   0.113  0.4899  0.0378  0.3403
 5113SOL     OW26797   4.579   0.005   7.538  0.1079  0.0158  0.2019
 5113SOL    HW126798   4.497   4.680   7.524  0.2142 -0.0235 -0.2722
 5113SOL    HW226799   4.645   4.663   7.561 -0.8304 -0.9022  0.2830
 5114SOL     OW26800   0.458   2.629   8.230 -0.0677 -0.1763  0.3755
 5114SOL    HW126801   0.374   2.673   8.222  0.1079  0.1356  0.2430
 5114SOL    HW226802   0.487   2.666   8.314  1.8520 -0.6267 -0.0874
 5115SOL     OW26803   4.175   0.858  13.299 -0.5765 -0.1846 -0.5392
 5115SOL    HW126804   4.154   0.861  13.205 -2.0882 -0.1171 -0.2000
 5115SOL    HW226805   4.186   0.948  13.327  3.1493 -0.2307 -1.8665
 5116SOL     OW26806   3.190   0.292  11.265 -0.3574 -0.0301  0.1671
 5116SOL    HW126807   3.200   0.337  11.349  2.9744 -0.4308 -0.0026
 5116SOL    HW226808   3.203   0.202  11.295  0.5690  0.1013  0.1641
 5117SOL     OW26809   4.149   0.425   3.349  0.2103  0.4194  0.4447
 5117SOL    HW126810   4.184   0.481   3.280  1.1300  1.4330  1.7339
 5117SOL    HW226811   4.203   0.347   3.338 -1.7453 -0.8287 -0.3788
 5118SOL     OW26812   1.005   1.746   5.401 -0.0562 -0.1872 -0.0232
 5118SOL    HW126813   0.985   1.707   5.486 -1.3059 -0.0762 -0.2606
 5118SOL    HW226814   1.027   1.833   5.434  1.8774 -0.7625  0.1745
 5119SOL     OW26815   3.929   0.564   3.783  0.5742  0.0541 -0.2188
 5119SOL    HW126816   3.941   0.536   3.692 -1.5032 -0.3283 -0.3597
 5119SOL    HW226817   4.015   0.555   3.824  0.0748 -0.4144  0.7019
 5120SOL     OW26818   1.198   3.802   3.398  0.1259  0.0828  0.0968
 5120SOL    HW126819   1.227   3.783   3.308 -1.5937 -0.6066 -0.3152
 5120SOL    HW226820   1.146   3.725   3.420  1.4623 -0.6871  0.5183
 5121SOL     OW26821   1.372   4.720  13.322  0.5049 -0.2031  0.6750
 5121SOL    HW126822   1.280   0.010  13.343 -0.3085 -1.3582 -2.1914
 5121SOL    HW226823   1.406   4.674  13.399 -0.4337  0.7923  1.6888
 5122SOL     OW26824   1.024   4.617   8.099  0.1340  0.2383 -0.4629
 5122SOL    HW126825   1.030   4.528   8.133 -1.3034 -0.0041 -0.8391
 5122SOL    HW226826   0.991   4.605   8.010 -0.4149  0.1490 -0.2504
 5123SOL     OW26827   0.046   2.310   2.544 -0.4212  0.0861  0.1160
 5123SOL    HW126828   0.130   2.266   2.536 -0.7406 -0.3950 -0.6073
 5123SOL    HW226829   0.064   2.399   2.515  1.3254 -0.5457 -0.7335
 5124SOL     OW26830   1.498   3.308   7.982 -0.4648  0.0671 -0.3718
 5124SOL    HW126831   1.476   3.259   7.903  2.6854  0.3030 -1.3709
 5124SOL    HW226832   1.592   3.328   7.983 -0.0725 -1.8053 -0.7530
 5125SOL     OW26833   0.424   2.701  11.989 -0.2240 -0.3385 -0.0520
 5125SOL    HW126834   0.492   2.634  11.988  1.3542  1.3052 -2.7769
 5125SOL    HW226835   0.463   2.773  11.941 -1.1294 -0.7835 -1.4449
 5126SOL     OW26836   4.159   2.996   9.574  0.3422  0.1676 -0.0901
 5126SOL    HW126837   4.250   2.968   9.580  0.4844  0.6632  0.1070
 5126SOL    HW226838   4.161   3.076   9.627  0.6235  1.1669 -1.6028
 5127SOL     OW26839   0.019   3.483   2.699 -0.5615 -0.0510 -0.3113
 5127SOL    HW126840   4.699   3.568   2.700 -1.0181 -0.2599 -3.0063
 5127SOL    HW226841   4.689   3.437   2.765  0.1094  0.5215  0.6234
 5128SOL     OW26842   1.470   3.220   4.552 -0.5538  0.6873 -0.7658
 5128SOL    HW126843   1.402   3.254   4.610 -2.6628 -1.0044 -2.2378
 5128SOL    HW226844   1.484   3.295   4.494 -1.1018  3.0931  2.2044
 5129SOL     OW26845   3.092   1.169   9.793 -0.1435 -0.4910 -0.3698
 5129SOL    HW126846   3.157   1.237   9.808  0.0987 -0.3894 -1.8447
 5129SOL    HW226847   3.127   1.101   9.850 -0.4329  0.4956  0.9860
 5130SOL     OW26848   1.500   3.315   4.013  0.7538 -0.0694  0.2468
 5130SOL    HW126849   1.410   3.285   3.998  0.5479  1.0419 -0.7057
 5130SOL    HW226850   1.547   3.242   3.971  0.8983  1.2995 -1.9980
 5131SOL     OW26851   3.933   1.947  17.242  0.0542  0.1984  0.3658
 5131SOL    HW126852   4.020   1.968  17.277  0.1654  0.6332 -0.1614
 5131SOL    HW226853   3.898   1.891  17.311  2.2328  0.0387  1.3550
 5132SOL     OW26854   1.335   2.096   8.412  0.5998  0.1969  0.8758
 5132SOL    HW126855   1.261   2.089   8.351  1.0631 -0.9588  0.4317
 5132SOL    HW226856   1.344   2.189   8.431  4.6120 -0.3651  1.5921
 5133SOL     OW26857   0.678   2.999   1.900 -0.6086  0.2229  0.2217
 5133SOL    HW126858   0.651   2.948   1.824 -0.0983  1.0670 -0.5259
 5133SOL    HW226859   0.747   2.945   1.939  0.7130  0.1913 -2.1324
 5134SOL     OW26860   0.172   1.804   8.141  0.1324 -0.2985 -0.0815
 5134SOL    HW126861   0.132   1.740   8.082  1.6333 -0.2786 -1.1042
 5134SOL    HW226862   0.206   1.863   8.074  0.7413  0.5039  0.9376
 5135SOL     OW26863   2.215   1.384   3.844 -0.0297 -0.1326  0.2125
 5135SOL    HW126864   2.200   1.343   3.929  1.8372  0.5783  0.8881
 5135SOL    HW226865   2.181   1.323   3.779 -1.4164 -0.3052  1.1217
 5136SOL     OW26866   3.154   2.041   5.511  0.3126  0.1776  0.1436
 5136SOL    HW126867   3.119   2.119   5.468 -0.4565 -1.9023 -2.9627
 5136SOL    HW226868   3.120   1.982   5.444  0.8885 -0.4980  0.4441
 5137SOL     OW26869   0.267   1.178   7.870  0.2404 -0.1638 -0.1827
 5137SOL    HW126870   0.280   1.199   7.962  1.4939  2.9496 -1.0607
 5137SOL    HW226871   0.188   1.226   7.843  0.3922  0.3052  0.2080
 5138SOL     OW26872   0.718   0.060   6.604 -0.0351 -0.4762  0.6592
 5138SOL    HW126873   0.805   0.034   6.634  1.5806  2.6682 -1.2145
 5138SOL    HW226874   0.717   0.011   6.522  1.5757  1.5620 -0.5731
 5139SOL     OW26875   0.633   3.928   8.825 -0.4626 -0.0923  0.6455
 5139SOL    HW126876   0.605   4.008   8.869  2.3736  1.9020 -1.2289
 5139SOL    HW226877   0.729   3.933   8.824 -0.4770 -0.0886 -1.3664
 5140SOL     OW26878   0.378   4.206   8.779 -0.3664 -0.1591 -0.2749
 5140SOL    HW126879   0.472   4.208   8.757 -0.3837 -5.2644 -0.7318
 5140SOL    HW226880   0.381   4.212   8.874  0.5998 -1.2683 -0.2327
 5141SOL     OW26881   0.031   1.120   9.448 -0.0786 -0.4191  0.0238
 5141SOL    HW126882   0.118   1.155   9.430  0.7984 -0.0330  5.1066
 5141SOL    HW226883   0.044   1.025   9.446 -3.7048 -0.9114  0.7851
 5142SOL     OW26884   3.797   2.474   6.722  0.3555  0.2030  0.1258
 5142SOL    HW126885   3.740   2.499   6.649  2.4183  2.3918 -0.7135
 5142SOL    HW226886   3.848   2.554   6.730 -1.4765  1.6882 -2.9248
 5143SOL     OW26887   0.087   3.832   3.393 -0.1880 -0.5088  0.3296
 5143SOL    HW126888   0.161   3.859   3.338 -0.9230  0.2530 -0.2965
 5143SOL    HW226889   0.064   3.748   3.354 -0.0672  0.0752 -1.0001
 5144SOL     OW26890   0.704   2.101   5.259  0.2465 -0.7158  0.0854
 5144SOL    HW126891   0.766   2.149   5.314 -0.2824  2.5423 -2.2401
 5144SOL    HW226892   0.730   2.009   5.262  0.7393 -0.5443  0.9164
 5145SOL     OW26893   3.677   3.842   8.770 -0.3538  0.1745 -0.2708
 5145SOL    HW126894   3.596   3.873   8.728  1.6127 -0.6583 -4.7122
 5145SOL    HW226895   3.708   3.922   8.812  1.7874 -0.8096  0.0246
 5146SOL     OW26896   0.379   2.375   8.123 -0.1104 -0.7748  0.3205
 5146SOL    HW126897   0.309   2.356   8.186  0.2378 -0.7781  0.7101
 5146SOL    HW226898   0.425   2.443   8.172 -2.3560  1.7794 -1.1158
 5147SOL     OW26899   3.124   0.145  10.986 -0.1488  0.0689 -0.1365
 5147SOL    HW126900   3.189   0.167  10.920  1.3915 -3.1568  0.2965
 5147SOL    HW226901   3.115   0.050  10.977  3.0508 -0.2751  0.4200
 5148SOL     OW26902   3.084   3.191   4.441 -0.1377 -0.2341  0.2530
 5148SOL    HW126903   3.089   3.135   4.363 -0.7742 -0.2270  0.2069
 5148SOL    HW226904   3.144   3.254   4.400 -2.0955 -0.3854 -2.8463
 5149SOL     OW26905   4.396   1.033   9.743  0.3394 -0.3124 -0.7203
 5149SOL    HW126906   4.417   1.113   9.791  1.5573 -0.8205 -0.3828
 5149SOL    HW226907   4.303   1.019   9.759  0.3589  0.4342  0.0454
 5150SOL     OW26908   0.020   2.763  13.441 -0.4809  0.0495  0.1733
 5150SOL    HW126909   0.006   2.669  13.443  0.1644 -0.0839 -1.4646
 5150SOL    HW226910   0.050   2.778  13.531  2.3176 -1.4585 -0.5169
 5151SOL     OW26911   4.606   3.989   4.538  0.1830  0.0002  0.5250
 5151SOL    HW126912   4.601   4.083   4.555 -0.1963 -0.2116  1.6132
 5151SOL    HW226913   4.700   3.980   4.520 -0.0140 -2.2002  0.5497
 5152SOL     OW26914   1.417   3.634   2.946 -0.0093  0.1465 -0.0494
 5152SOL    HW126915   1.436   3.618   2.854  2.5718 -0.4320  0.5788
 5152SOL    HW226916   1.478   3.577   2.993 -0.3833 -1.6481 -1.7245
 5153SOL     OW26917   2.633   3.872   3.933  0.5471  0.2128 -0.1436
 5153SOL    HW126918   2.565   3.804   3.928 -0.7813  1.4127  1.6333
 5153SOL    HW226919   2.681   3.853   3.852 -1.2322  0.2434 -1.2158
 5154SOL     OW26920   2.391   0.581  16.936  0.3148  0.4325  0.1188
 5154SOL    HW126921   2.360   0.529  17.011  1.6445 -1.3587 -0.5539
 5154SOL    HW226922   2.317   0.634  16.909  0.2053  0.9450  1.4416
 5155SOL     OW26923   2.865   1.595  10.214 -0.0635  0.4403 -0.0787
 5155SOL    HW126924   2.879   1.677  10.167  2.2741 -0.2010 -0.4867
 5155SOL    HW226925   2.878   1.529  10.147 -3.7701  0.6195 -0.9475
 5156SOL     OW26926   3.028   4.637   2.393  0.3480  0.2197  0.6239
 5156SOL    HW126927   3.055   0.005   2.384 -2.5193  0.9512 -0.4964
 5156SOL    HW226928   2.968   4.650   2.466  0.9201  0.3163  1.0757
 5157SOL     OW26929   4.442   3.005  13.374 -0.4805 -0.4028  0.4098
 5157SOL    HW126930   4.373   3.054  13.418 -1.8720  0.3784 -2.6261
 5157SOL    HW226931   4.484   3.080  13.333 -1.9368  0.7471  1.0254
 5158SOL     OW26932   3.265   0.833   7.212 -0.9134 -0.3308  0.5446
 5158SOL    HW126933   3.170   0.843   7.206 -0.6932  1.3895  0.0232
 5158SOL    HW226934   3.265   0.758   7.271  1.0901 -1.9749 -1.4966
 5159SOL     OW26935   2.622   4.012   6.981 -0.4856  0.4874 -0.0129
 5159SOL    HW126936   2.630   4.090   7.036  1.5662 -1.6612  2.7661
 5159SOL    HW226937   2.533   3.982   7.004 -0.2008 -0.3968 -0.0427
 5160SOL     OW26938   1.796   3.356   3.669  0.4622  1.1410 -0.4958
 5160SOL    HW126939   1.798   3.432   3.727 -0.4666  1.9660 -1.5417
 5160SOL    HW226940   1.702   3.363   3.649 -0.0760 -2.5639  0.7970
 5161SOL     OW26941   0.599   1.110   3.732 -0.3031 -1.0344  0.5147
 5161SOL    HW126942   0.620   1.043   3.797  1.8839 -0.4003  0.4536
 5161SOL    HW226943   0.593   1.181   3.797 -1.1415  0.4126 -1.1270
 5162SOL     OW26944   3.968   3.722   8.029  0.2629  0.7349 -0.4313
 5162SOL    HW126945   3.950   3.777   7.953  2.2042  2.0975  0.0956
 5162SOL    HW226946   4.063   3.730   8.033  0.2908 -0.4177  1.2038
 5163SOL     OW26947   0.422   0.622   2.143 -0.1428 -0.2280  0.1869
 5163SOL    HW126948   0.458   0.544   2.186  0.3294  0.3032  0.7740
 5163SOL    HW226949   0.332   0.593   2.131  0.5274 -1.7275 -1.2610
 5164SOL     OW26950   4.695   2.694   5.861  0.3580 -0.6012 -0.1940
 5164SOL    HW126951   4.654   2.771   5.899  2.8927  1.3825 -1.4692
 5164SOL    HW226952   4.658   2.622   5.913  0.8545  0.1245  1.1750
 5165SOL     OW26953   0.505   0.603  14.844  0.4021  0.3977  0.2127
 5165SOL    HW126954   0.536   0.673  14.902 -0.4648  1.1402 -0.2124
 5165SOL    HW226955   0.504   0.524  14.898 -0.9224 -0.1508 -0.6229
 5166SOL     OW26956   2.304   3.008   4.515 -0.0720  0.1322  0.0436
 5166SOL    HW126957   2.332   3.092   4.551  0.9048  0.1633 -0.8050
 5166SOL    HW226958   2.211   3.015   4.539  0.1289  0.1921  0.8081
 5167SOL     OW26959   1.394   1.898   8.608  0.0197  0.0058  0.1253
 5167SOL    HW126960   1.417   1.837   8.538 -1.6281 -2.0448  1.3571
 5167SOL    HW226961   1.360   1.976   8.565 -1.5228  0.0462  1.4175
 5168SOL     OW26962   2.828   3.209   3.463  0.2729  0.5230  0.3190
 5168SOL    HW126963   2.781   3.241   3.540 -0.2425 -1.5906  0.8739
 5168SOL    HW226964   2.819   3.271   3.390  0.3190  0.9428  0.6729
 5169SOL     OW26965   3.390   3.435   1.766 -0.3128 -0.1439  0.5471
 5169SOL    HW126966   3.409   3.423   1.859 -1.8140 -1.8528  0.6297
 5169SOL    HW226967   3.299   3.406   1.765 -0.2380 -0.3827  1.0026
 5170SOL     OW26968   4.260   1.743   0.224 -1.0817 -0.2508  0.4579
 5170SOL    HW126969   4.255   1.690   0.304 -2.0135  0.8920  1.1530
 5170SOL    HW226970   4.351   1.770   0.238 -0.8268 -0.4339 -0.7865
 5171SOL     OW26971   3.187   1.074   5.246 -0.0316  0.6766 -0.1582
 5171SOL    HW126972   3.196   1.042   5.336  2.2397 -0.3349 -0.7267
 5171SOL    HW226973   3.237   1.155   5.237 -0.7676  1.3676  2.0030
 5172SOL     OW26974   4.509   2.004  15.632  0.2426 -0.3974 -0.1633
 5172SOL    HW126975   4.446   2.025  15.563  2.3144  1.4123 -1.4956
 5172SOL    HW226976   4.514   2.092  15.668 -0.5199 -0.2452 -0.4275
 5173SOL     OW26977   2.782   1.202  16.609 -0.3504 -0.0493 -0.5684
 5173SOL    HW126978   2.833   1.282  16.593  1.3949 -0.8011  1.2898
 5173SOL    HW226979   2.857   1.149  16.634  0.8013  2.0018  0.3308
 5174SOL     OW26980   3.721   2.652   3.269 -0.3523 -0.8069  0.3274
 5174SOL    HW126981   3.739   2.719   3.335 -1.8212 -0.6348  0.5498
 5174SOL    HW226982   3.628   2.634   3.284 -0.7116  0.9797  0.3219
 5175SOL     OW26983   0.007   0.797   7.662 -0.6477 -0.9012 -0.4238
 5175SOL    HW126984   0.020   0.789   7.567  2.3895 -0.2572 -0.0744
 5175SOL    HW226985   0.019   0.704   7.680  0.3944 -0.9085 -1.1490
 5176SOL     OW26986   1.326   1.980   4.400 -0.3299  0.0659  0.4516
 5176SOL    HW126987   1.312   1.909   4.462 -0.1490  0.4562  0.9363
 5176SOL    HW226988   1.302   2.054   4.456 -3.5829  0.5824 -1.6079
 5177SOL     OW26989   3.296   1.478  14.628 -0.1279  0.4468  0.0419
 5177SOL    HW126990   3.374   1.521  14.664  0.4713  0.6537 -1.5099
 5177SOL    HW226991   3.337   1.432  14.554 -0.3450  0.6428 -0.1986
 5178SOL     OW26992   1.893   3.340   2.284 -0.0759 -0.4557  0.3223
 5178SOL    HW126993   1.955   3.379   2.222  1.6443 -1.6486  1.2912
 5178SOL    HW226994   1.813   3.382   2.252 -1.1885 -1.9021  1.2332
 5179SOL     OW26995   0.317   3.821   4.392 -0.1549  0.2806 -0.2715
 5179SOL    HW126996   0.359   3.739   4.369 -0.9342 -0.4362  0.8177
 5179SOL    HW226997   0.387   3.884   4.377 -2.2669  2.6649 -0.2450
 5180SOL     OW26998   3.623   2.746   8.469  0.2542 -0.0728 -0.3708
 5180SOL    HW126999   3.637   2.668   8.414 -0.4365 -0.9855  0.7540
 5180SOL    HW227000   3.597   2.701   8.549  1.0399 -1.4953 -0.9182
 5181SOL     OW27001   2.996   3.427   6.206 -0.0728 -0.0381 -0.5000
 5181SOL    HW127002   2.911   3.470   6.207  0.4068  0.9374 -1.7712
 5181SOL    HW227003   2.974   3.365   6.136 -1.5408  0.2119 -0.2619
 5182SOL     OW27004   3.790   1.969  15.120  0.4873 -0.5382 -0.5259
 5182SOL    HW127005   3.870   1.918  15.135  0.2881 -0.7352 -0.1449
 5182SOL    HW227006   3.735   1.948  15.195  0.2464 -0.3844 -0.6618
 5183SOL     OW27007   3.654   0.864  17.373 -0.0170  0.1506  0.7350
 5183SOL    HW127008   3.569   0.891  17.339 -0.7185 -1.1322  1.4597
 5183SOL    HW227009   3.628   0.777  17.403 -0.9790 -0.1531 -0.9769
 5184SOL     OW27010   2.430   3.733  12.923  0.2390  0.2539  0.4177
 5184SOL    HW127011   2.339   3.750  12.948  0.2369  0.0887  0.5246
 5184SOL    HW227012   2.422   3.756  12.831  1.2864  2.3865  0.8521
 5185SOL     OW27013   3.393   0.729  11.581  0.3042  0.2031  0.6410
 5185SOL    HW127014   3.391   0.677  11.501 -1.7121  0.7792  0.3355
 5185SOL    HW227015   3.452   0.800  11.558  0.7506 -0.3104  0.1949
 5186SOL     OW27016   1.785   4.142   6.938 -0.2925 -0.0736  0.1422
 5186SOL    HW127017   1.728   4.065   6.938  1.6484 -1.5303  0.8929
 5186SOL    HW227018   1.855   4.103   6.992  1.1887  1.3216 -0.7814
 5187SOL     OW27019   1.176   3.419   4.456 -0.4987 -0.0500 -0.0121
 5187SOL    HW127020   1.157   3.502   4.501 -2.4412 -1.3174  1.4872
 5187SOL    HW227021   1.223   3.459   4.382 -1.2654 -0.2642 -0.6121
 5188SOL     OW27022   1.613   0.636   1.587  0.1872  0.4535  0.0178
 5188SOL    HW127023   1.535   0.606   1.540  0.1465  2.1735 -1.0281
 5188SOL    HW227024   1.652   0.686   1.516  1.2444  0.1146  0.3674
 5189SOL     OW27025   1.197   2.965   1.870 -0.0893 -0.6540  0.3899
 5189SOL    HW127026   1.194   2.889   1.813 -1.8706  1.1877 -1.9873
 5189SOL    HW227027   1.279   2.953   1.919  0.0475 -0.0970  0.2948
 5190SOL     OW27028   2.328   3.243  12.052  0.3017 -0.8590 -0.1393
 5190SOL    HW127029   2.324   3.152  12.021 -0.5970 -1.4297  1.6744
 5190SOL    HW227030   2.347   3.227  12.145 -0.1396 -1.6385 -0.1862
 5191SOL     OW27031   2.193   0.455   5.770 -0.3393  0.0926 -0.0443
 5191SOL    HW127032   2.259   0.394   5.803  0.3748  0.0284 -1.6008
 5191SOL    HW227033   2.182   0.423   5.680 -1.5576 -0.7946  0.4129
 5192SOL     OW27034   0.745   2.795  15.689 -0.0022 -0.1554 -0.2257
 5192SOL    HW127035   0.719   2.819  15.600 -0.6382  2.2824  0.6221
 5192SOL    HW227036   0.836   2.768  15.677  0.3165  0.0917  1.6109
 5193SOL     OW27037   2.058   2.991   3.314 -0.0167 -0.2352  0.2048
 5193SOL    HW127038   2.013   2.965   3.394  1.6744 -2.1382  0.5155
 5193SOL    HW227039   1.995   3.035   3.257  0.0446 -0.5340 -0.0921
 5194SOL     OW27040   4.306   3.217   2.161  0.0632  0.0453 -0.0156
 5194SOL    HW127041   4.379   3.263   2.119 -0.1098  0.0916 -0.2676
 5194SOL    HW227042   4.228   3.242   2.111 -0.1994 -0.3795  0.1826
 5195SOL     OW27043   0.278   0.973  11.546 -0.4763  0.5585  0.7747
 5195SOL    HW127044   0.254   1.066  11.545  0.5902  0.8326  1.0246
 5195SOL    HW227045   0.370   0.975  11.570  0.2347 -0.6490 -1.7667
 5196SOL     OW27046   0.312   3.100   8.031  0.3786  0.0234  0.3913
 5196SOL    HW127047   0.328   3.178   8.084  3.0773 -1.4006  1.6936
 5196SOL    HW227048   0.278   3.132   7.947  0.6868 -1.6828 -0.3990
 5197SOL     OW27049   0.600   0.040  14.020  0.7866  0.4012 -0.0423
 5197SOL    HW127050   0.571   4.684  13.975  0.0514  2.3895 -3.0347
 5197SOL    HW227051   0.691   0.017  14.035  0.9309  0.2870 -1.0997
 5198SOL     OW27052   1.162   2.743   6.271 -0.1065  0.5492 -0.3666
 5198SOL    HW127053   1.217   2.666   6.255 -0.0463  0.6587 -0.6738
 5198SOL    HW227054   1.185   2.798   6.196 -4.1237  2.8579  0.0777
 5199SOL     OW27055   0.158   3.071   5.536 -0.3564 -0.1484 -0.1563
 5199SOL    HW127056   0.226   3.135   5.514 -1.7900  1.8795  1.3714
 5199SOL    HW227057   0.121   3.117   5.612  0.3096  0.9506 -0.5061
 5200SOL     OW27058   3.410   0.061   7.568 -0.2259  0.2094  0.0268
 5200SOL    HW127059   3.417   0.016   7.653  1.1708 -2.6935 -1.6372
 5200SOL    HW227060   3.465   4.720   7.523 -0.3812 -1.7769  2.6179
 5201SOL     OW27061   1.462   2.330   1.718 -0.1040 -0.1915  0.4299
 5201SOL    HW127062   1.497   2.243   1.704 -0.7823 -0.2609 -0.8172
 5201SOL    HW227063   1.437   2.321   1.810 -1.2063 -0.4934  0.1022
 5202SOL     OW27064   3.163   4.069   8.190 -0.4239 -0.1272 -0.5631
 5202SOL    HW127065   3.242   4.087   8.241 -1.3898 -1.0408  1.2548
 5202SOL    HW227066   3.144   4.153   8.149 -2.0330 -0.9290 -1.4467
 5203SOL     OW27067   3.040   3.457   9.902 -0.3853  0.0600  0.0545
 5203SOL    HW127068   3.136   3.459   9.902 -0.3772 -0.0993  1.2408
 5203SOL    HW227069   3.023   3.365   9.922  1.3534 -0.1239  0.7004
 5204SOL     OW27070   2.039   4.133  10.606  0.0175  0.0718  0.6752
 5204SOL    HW127071   2.109   4.156  10.666  0.8496  1.6661 -0.8792
 5204SOL    HW227072   2.068   4.203  10.546  0.6720 -0.1291  0.7558
 5205SOL     OW27073   0.541   3.488   5.034 -0.4666 -0.6411 -0.3424
 5205SOL    HW127074   0.576   3.407   5.072 -0.8077 -0.5645  0.1403
 5205SOL    HW227075   0.620   3.540   5.052 -0.9550  0.3600 -1.1131
 5206SOL     OW27076   1.049   1.013   4.673  0.4383  0.8248  0.1448
 5206SOL    HW127077   1.051   1.090   4.615 -1.0034  1.8633  1.4852
 5206SOL    HW227078   0.978   0.959   4.639 -0.0844  0.4880  1.7798
 5207SOL     OW27079   2.270   2.263   3.198 -0.7752  0.1424 -0.0012
 5207SOL    HW127080   2.276   2.234   3.107 -1.2321 -2.6837  0.8755
 5207SOL    HW227081   2.325   2.341   3.191 -4.3959  2.6610  0.0526
 5208SOL     OW27082   0.116   2.884  16.691  0.4905 -0.7479  0.1143
 5208SOL    HW127083   0.126   2.915  16.601  0.3449  0.3116  0.4654
 5208SOL    HW227084   0.028   2.914  16.712  0.6004 -1.0632  1.0578
 5209SOL     OW27085   0.414   3.951  17.186  0.3515 -0.0029 -0.2668
 5209SOL    HW127086   0.459   3.890  17.245 -0.0328  1.0212  1.0745
 5209SOL    HW227087   0.348   3.892  17.149 -0.5538  0.1586  1.0965
 5210SOL     OW27088   1.044   2.632  11.486 -0.4078  0.5304 -0.2771
 5210SOL    HW127089   1.066   2.658  11.575  1.0010 -0.8974 -0.2113
 5210SOL    HW227090   1.134   2.635  11.453 -0.3234  0.5872 -0.0450
 5211SOL     OW27091   0.173   0.895   6.589 -0.1909  0.2731  0.4895
 5211SOL    HW127092   0.243   0.933   6.643  0.4905 -0.8423  0.3926
 5211SOL    HW227093   0.221   0.817   6.559 -2.2803 -1.0961  0.7196
 5212SOL     OW27094   2.426   2.892  11.572 -0.2185 -0.0555 -0.1349
 5212SOL    HW127095   2.354   2.920  11.629 -0.8158  0.8213 -1.3260
 5212SOL    HW227096   2.370   2.870  11.498  0.5562  0.6831 -0.9375
 5213SOL     OW27097   3.479   1.654   5.405 -0.1948 -0.0700 -0.5055
 5213SOL    HW127098   3.466   1.746   5.428  0.2541  0.4647 -2.3878
 5213SOL    HW227099   3.572   1.630   5.402  0.5761  2.5210  3.3414
 5214SOL     OW27100   0.146   2.095   2.356 -0.3058 -0.5760  0.0113
 5214SOL    HW127101   0.159   2.064   2.267 -0.7481  0.7939 -0.5258
 5214SOL    HW227102   0.207   2.168   2.361  0.8734 -1.4195 -2.3866
 5215SOL     OW27103   3.044   2.689   5.983  0.3520 -0.0996 -0.5484
 5215SOL    HW127104   2.988   2.767   5.972  2.9523  1.7774 -0.4093
 5215SOL    HW227105   3.092   2.680   5.901  0.2079 -0.5466 -0.5791
 5216SOL     OW27106   0.746   3.223   1.757 -0.1145  0.1798 -0.6735
 5216SOL    HW127107   0.811   3.162   1.722 -1.3768 -1.0638 -0.8445
 5216SOL    HW227108   0.698   3.161   1.810  2.3851 -1.8440 -0.7877
 5217SOL     OW27109   2.099   2.716   6.522 -0.3181  0.4435 -0.1842
 5217SOL    HW127110   2.132   2.631   6.552 -1.6498 -0.4534 -1.2528
 5217SOL    HW227111   2.179   2.768   6.520 -0.0364  0.0108 -0.0389
 5218SOL     OW27112   4.530   0.282  11.158  0.2009 -0.2374  0.3684
 5218SOL    HW127113   4.516   0.323  11.244  1.4359 -1.0827  0.9685
 5218SOL    HW227114   4.621   0.306  11.142  0.0140  0.1273 -0.1362
 5219SOL     OW27115   4.172   4.419  16.074  0.3445 -0.4225  0.7265
 5219SOL    HW127116   4.179   4.388  16.165 -1.3386  1.3224  1.4676
 5219SOL    HW227117   4.249   4.476  16.066  0.6808 -0.9033  0.5782
 5220SOL     OW27118   0.938   3.052   1.637 -0.7525 -0.3148 -0.0624
 5220SOL    HW127119   1.019   3.094   1.666 -0.8467  0.5350 -1.0320
 5220SOL    HW227120   0.943   2.959   1.662 -0.8760 -0.3907 -0.3160
 5221SOL     OW27121   0.308   2.019  17.592  0.4321 -0.9726  0.6283
 5221SOL    HW127122   0.239   2.055  17.536  0.6212 -1.4862  0.0638
 5221SOL    HW227123   0.332   1.941  17.541  0.7741 -1.7239  1.9330
 5222SOL     OW27124   1.398   3.625   6.490  0.7743 -0.2094  0.7553
 5222SOL    HW127125   1.467   3.559   6.478  0.2964 -0.4453 -0.6663
 5222SOL    HW227126   1.390   3.661   6.402  0.7854  2.9715  2.0723
 5223SOL     OW27127   0.831   0.707  13.989  0.2306  0.1713 -0.0883
 5223SOL    HW127128   0.844   0.688  14.082  1.2383  0.5361 -0.1613
 5223SOL    HW227129   0.749   0.757  13.986 -0.7874 -1.5438 -0.8380
 5224SOL     OW27130   1.978   0.033   5.716  0.1027  0.5187  0.6005
 5224SOL    HW127131   1.931   0.110   5.747  0.7871  0.8156  0.9007
 5224SOL    HW227132   1.988   0.057   5.624  0.5063 -0.8157  0.2927
 5225SOL     OW27133   2.951   4.542   2.723  0.0661  0.2224 -0.1837
 5225SOL    HW127134   2.914   4.606   2.663  3.3317 -0.1438 -2.5944
 5225SOL    HW227135   2.961   4.586   2.808 -0.7255  1.7445 -0.8846
 5226SOL     OW27136   3.826   1.657   7.574  0.0373  0.3123 -0.2958
 5226SOL    HW127137   3.836   1.562   7.566 -0.0027  0.3662 -1.0435
 5226SOL    HW227138   3.921   1.671   7.579  0.4278 -2.4086 -0.0248
 5227SOL     OW27139   1.758   4.286   4.313  0.2790  0.5206 -0.5136
 5227SOL    HW127140   1.746   4.263   4.404 -0.6261 -0.4886 -0.8963
 5227SOL    HW227141   1.731   4.203   4.275 -2.9567  0.1560  2.6465
 5228SOL     OW27142   0.672   0.671   8.609 -0.1508 -0.1651 -0.1128
 5228SOL    HW127143   0.628   0.588   8.628 -2.1788  0.5403 -1.7528
 5228SOL    HW227144   0.651   0.665   8.515 -0.1951  0.6334 -0.1521
 5229SOL     OW27145   2.329   0.791   5.118  0.0932 -0.0573 -0.3606
 5229SOL    HW127146   2.397   0.857   5.129  0.2553 -0.5007  1.2695
 5229SOL    HW227147   2.289   0.820   5.036  1.6092  2.8060 -0.0957
 5230SOL     OW27148   1.660   2.793   7.777 -0.1304  0.0762  0.5366
 5230SOL    HW127149   1.677   2.821   7.687 -1.3279  1.6902  0.8107
 5230SOL    HW227150   1.565   2.797   7.767 -0.0586 -1.0750 -0.5568
 5231SOL     OW27151   1.205   1.409  13.443  0.0527 -0.2105  0.9669
 5231SOL    HW127152   1.280   1.456  13.409  1.5447 -3.5898 -0.4581
 5231SOL    HW227153   1.255   1.341  13.488  0.0863 -0.5598  0.4114
 5232SOL     OW27154   1.376   2.174  10.354  0.4632 -0.3770  0.2983
 5232SOL    HW127155   1.351   2.253  10.307  1.1039 -1.3287 -1.6302
 5232SOL    HW227156   1.345   2.102  10.299 -0.4827  0.4778 -0.2897
 5233SOL     OW27157   4.285   4.676   2.535 -0.1945 -0.4138  0.0947
 5233SOL    HW127158   4.281   4.615   2.462 -0.1346 -0.1639 -0.1187
 5233SOL    HW227159   4.327   0.029   2.494  1.1459 -1.9924 -1.4087
 5234SOL     OW27160   1.328   1.303  12.622  0.3877  0.5390 -0.0777
 5234SOL    HW127161   1.403   1.319  12.679 -1.3988  0.1779  2.3570
 5234SOL    HW227162   1.328   1.209  12.601 -2.7866  0.6555 -0.6027
 5235SOL     OW27163   0.793   2.139   6.472 -0.6961 -0.1428  0.3309
 5235SOL    HW127164   0.768   2.124   6.381  2.1708 -2.2288 -0.1277
 5235SOL    HW227165   0.712   2.184   6.495 -0.2241  1.4121 -1.0082
 5236SOL     OW27166   1.612   3.127   3.848 -0.4456 -0.4420  0.1360
 5236SOL    HW127167   1.595   3.089   3.762  1.2266 -0.7449 -0.0578
 5236SOL    HW227168   1.703   3.100   3.862  0.1681  0.7885 -1.4649
 5237SOL     OW27169   1.186   3.389   4.157  0.1025  0.5186  0.1122
 5237SOL    HW127170   1.105   3.357   4.197 -0.7085  0.5730 -1.5242
 5237SOL    HW227171   1.185   3.336   4.078  0.8133  1.2128 -0.3743
 5238SOL     OW27172   0.258   1.852   3.533  0.5239 -0.0366 -0.9537
 5238SOL    HW127173   0.233   1.770   3.576  3.4256 -0.1648  0.4925
 5238SOL    HW227174   0.174   1.880   3.497 -1.2118 -0.8818  2.5046
 5239SOL     OW27175   1.930   0.310   5.795  0.2796 -0.2664  0.1702
 5239SOL    HW127176   1.954   0.402   5.807 -0.3359 -0.2267  1.0896
 5239SOL    HW227177   1.867   0.311   5.866 -1.2029 -0.0662 -1.1509
 5240SOL     OW27178   2.733   2.690   2.866  0.5159 -0.3890 -0.1563
 5240SOL    HW127179   2.639   2.684   2.885  0.3633  3.7512  0.2645
 5240SOL    HW227180   2.759   2.607   2.905 -0.9913 -0.2730  1.0894
 5241SOL     OW27181   2.534   2.015  16.124  0.1854 -0.1207 -0.8215
 5241SOL    HW127182   2.518   1.921  16.129 -0.2056 -0.0816 -1.2750
 5241SOL    HW227183   2.497   2.032  16.037 -0.2735 -1.2067 -0.8392
 5242SOL     OW27184   2.208   4.645   4.849 -0.4608 -0.2140 -0.5122
 5242SOL    HW127185   2.258   4.600   4.781 -0.6797 -1.8060  0.3965
 5242SOL    HW227186   2.277   4.704   4.879 -0.7178  0.1128 -0.5551
 5243SOL     OW27187   1.584   2.567   0.195 -0.4383  0.1465 -0.6662
 5243SOL    HW127188   1.551   2.652   0.225 -1.0195 -0.7396  1.2066
 5243SOL    HW227189   1.602   2.583   0.102  1.1617 -1.2630 -0.6019
 5244SOL     OW27190   3.501   2.017  10.202 -0.2483 -0.1779  0.1431
 5244SOL    HW127191   3.516   1.941  10.258  2.7363  1.4307  1.5037
 5244SOL    HW227192   3.435   2.067  10.250 -2.0393 -2.1884 -0.1885
 5245SOL     OW27193   2.807   0.459   0.231 -0.2747  0.3659  0.6296
 5245SOL    HW127194   2.808   0.551   0.255 -0.7926  0.2366  1.1499
 5245SOL    HW227195   2.802   0.410   0.313  0.0452  1.5037  1.3319
 5246SOL     OW27196   2.653   2.322   4.738 -0.6637  0.2480 -0.0213
 5246SOL    HW127197   2.702   2.341   4.657  2.1962  3.2494  2.4018
 5246SOL    HW227198   2.597   2.400   4.732  0.0940  0.8609  0.8741
 5247SOL     OW27199   1.340   1.171   3.961 -0.0340  0.5311 -0.1254
 5247SOL    HW127200   1.406   1.227   3.919 -1.7512  4.1659  2.0380
 5247SOL    HW227201   1.331   1.220   4.042 -1.0655 -1.9416  1.2508
 5248SOL     OW27202   4.172   0.796   3.748  0.1112  0.2780  0.0150
 5248SOL    HW127203   4.250   0.822   3.797 -0.5927 -0.4941  1.5354
 5248SOL    HW227204   4.161   0.711   3.790  0.5854  0.3579  0.2955
 5249SOL     OW27205   3.844   2.687  12.199 -0.2217 -0.6568 -0.2035
 5249SOL    HW127206   3.764   2.685  12.146 -0.2648 -1.5173 -0.1006
 5249SOL    HW227207   3.882   2.599  12.200  0.3670 -0.3990  0.3361
 5250SOL     OW27208   1.960   2.127   6.141  0.4182 -0.3480  0.1430
 5250SOL    HW127209   1.958   2.110   6.235 -1.5361  0.9181  0.3282
 5250SOL    HW227210   1.985   2.219   6.151  0.8157 -0.5733  1.2107
 5251SOL     OW27211   3.738   2.997  15.965 -0.4906 -0.0902  0.4713
 5251SOL    HW127212   3.646   2.983  15.987  0.7545 -2.7215  4.0391
 5251SOL    HW227213   3.737   3.006  15.870  0.1436  0.4117  0.5107
 5252SOL     OW27214   4.213   0.758   5.411 -0.0590  0.5826  0.0008
 5252SOL    HW127215   4.126   0.795   5.424 -0.5446 -1.3098  2.0924
 5252SOL    HW227216   4.253   0.823   5.353 -0.1576  0.1650 -0.5332
 5253SOL     OW27217   2.030   2.401  14.740 -0.1186 -0.1672  0.0190
 5253SOL    HW127218   2.091   2.461  14.782 -1.0132  0.7857 -0.0581
 5253SOL    HW227219   1.969   2.387  14.813 -0.9240 -1.9390 -0.9767
 5254SOL     OW27220   3.014   3.877  10.138  0.5195 -0.1464  0.3589
 5254SOL    HW127221   3.043   3.787  10.129  0.0400 -0.2775  0.1123
 5254SOL    HW227222   3.070   3.919  10.073  0.5605  1.1500  1.2188
 5255SOL     OW27223   3.533   0.904   6.559 -0.2978 -0.0943 -0.0302
 5255SOL    HW127224   3.442   0.890   6.535 -0.1318 -1.4958  0.1569
 5255SOL    HW227225   3.513   0.947   6.642 -1.4382 -0.3964 -0.1614
 5256SOL     OW27226   2.209   4.682   1.873 -0.1894 -0.2863  0.1497
 5256SOL    HW127227   2.135   4.647   1.823  0.1513  1.0470 -1.2914
 5256SOL    HW227228   2.276   4.627   1.833 -0.8100  0.3303 -1.7532
 5257SOL     OW27229   2.934   3.252  10.035  0.7619  0.5840 -0.2634
 5257SOL    HW127230   2.921   3.157  10.032 -0.9125  0.7552  1.8814
 5257SOL    HW227231   2.844   3.271  10.060  0.5919  0.8397 -1.0681
 5258SOL     OW27232   0.085   4.686   8.004  0.1786  0.1166  0.0462
 5258SOL    HW127233   0.126   4.612   8.049  0.5761  0.2861 -0.0346
 5258SOL    HW227234   0.066   0.021   8.078 -1.0847 -0.1179 -0.0995
 5259SOL     OW27235   2.884   1.204   4.627 -0.4933  0.0814  0.0587
 5259SOL    HW127236   2.971   1.166   4.639 -0.6237 -0.1571  0.2343
 5259SOL    HW227237   2.841   1.185   4.711 -1.3977  0.0065 -0.4227
 5260SOL     OW27238   2.337   0.771   2.890  0.6545  0.0211  0.1186
 5260SOL    HW127239   2.246   0.785   2.863 -0.1519 -1.8875  1.8632
 5260SOL    HW227240   2.314   0.745   2.979 -1.1219  1.0079 -0.0570
 5261SOL     OW27241   2.147   1.323  10.320 -0.0108  0.2837  0.1723
 5261SOL    HW127242   2.184   1.251  10.372  0.4738  1.5221  1.5232
 5261SOL    HW227243   2.061   1.296  10.288  0.0703  0.3490 -0.1001
 5262SOL     OW27244   4.172   1.236   7.470  0.0431 -0.0507 -0.5727
 5262SOL    HW127245   4.125   1.167   7.517 -0.9121 -0.5830 -2.3187
 5262SOL    HW227246   4.196   1.305   7.532 -1.0678  0.9607 -1.2624
 5263SOL     OW27247   3.695   0.048   3.920  0.2148  0.0730 -0.1566
 5263SOL    HW127248   3.699   0.095   3.837 -1.7560 -1.3198 -1.0255
 5263SOL    HW227249   3.772   4.713   3.914 -0.0265 -0.1466 -1.0763
 5264SOL     OW27250   2.032   0.987   1.427 -0.2687 -0.3059 -0.0927
 5264SOL    HW127251   2.086   1.058   1.392 -0.5346 -1.2855 -2.4829
 5264SOL    HW227252   2.071   0.915   1.378  1.4694  0.6883 -0.1844
 5265SOL     OW27253   2.442   4.083  16.790  0.6349  0.2137 -0.6885
 5265SOL    HW127254   2.460   4.082  16.884 -1.4890 -0.2959 -0.2859
 5265SOL    HW227255   2.517   4.033  16.759 -0.3197 -1.7959  0.2810
 5266SOL     OW27256   3.087   4.049  13.226  0.1838 -0.0240  0.7525
 5266SOL    HW127257   3.116   3.959  13.239  2.1327  0.4365 -0.3986
 5266SOL    HW227258   2.996   4.043  13.256  0.2249  0.1656  0.9165
 5267SOL     OW27259   3.181   1.398   2.197 -0.2888 -0.0651 -0.1797
 5267SOL    HW127260   3.237   1.428   2.268  0.2757 -2.5456  0.3928
 5267SOL    HW227261   3.191   1.304   2.187 -1.4858 -0.0070 -1.9664
 5268SOL     OW27262   0.568   2.675   8.952  0.0760  0.2373  0.2604
 5268SOL    HW127263   0.567   2.756   8.901  0.7228 -0.4766 -0.8750
 5268SOL    HW227264   0.655   2.642   8.933  0.1592  0.8531 -0.4292
 5269SOL     OW27265   2.519   0.375  16.160  0.3267  0.2797  0.2889
 5269SOL    HW127266   2.563   0.342  16.082 -0.2326 -2.2818  1.0566
 5269SOL    HW227267   2.590   0.432  16.191  0.2329  0.0511  0.9207
 5270SOL     OW27268   2.030   1.436   6.567 -0.0348 -0.4961  0.0374
 5270SOL    HW127269   1.997   1.383   6.640  0.3473  0.6450  1.0360
 5270SOL    HW227270   1.960   1.426   6.503  0.5088  1.2380 -0.8183
 5271SOL     OW27271   1.044   1.307  12.431  0.2588  0.3405  0.3610
 5271SOL    HW127272   0.981   1.263  12.489 -0.1201  2.1909  1.3538
 5271SOL    HW227273   1.022   1.265  12.348 -2.9871  0.9736  0.8979
 5272SOL     OW27274   0.806   4.161  13.508 -0.0054 -0.6619  0.3731
 5272SOL    HW127275   0.833   4.072  13.484  1.6867 -0.7015  2.4412
 5272SOL    HW227276   0.890   4.207  13.503  0.6900 -1.9552  0.0846
 5273SOL     OW27277   0.978   4.422   7.088  0.4317 -0.1441 -0.6839
 5273SOL    HW127278   1.044   4.408   7.155  0.6517  0.7925 -0.6991
 5273SOL    HW227279   1.027   4.451   7.011  0.7465 -1.1608 -0.8574
 5274SOL     OW27280   2.421   2.534   7.112 -0.5831  0.0107  0.0207
 5274SOL    HW127281   2.328   2.516   7.121 -0.1881 -2.2974 -0.4082
 5274SOL    HW227282   2.453   2.546   7.202  0.1366 -0.5682 -0.1610
 5275SOL     OW27283   4.302   0.384   8.406  0.6690 -0.4792  0.0524
 5275SOL    HW127284   4.283   0.384   8.500 -0.7685 -2.4136 -0.2290
 5275SOL    HW227285   4.210   0.385   8.379  0.1266  0.3540  1.9212
 5276SOL     OW27286   4.023   2.433   8.659  0.7123 -0.2307  0.2679
 5276SOL    HW127287   4.029   2.341   8.687 -1.3692  0.3958  2.7607
 5276SOL    HW227288   4.025   2.475   8.745  1.7879 -2.1354  1.1867
 5277SOL     OW27289   4.580   0.567  12.864  0.8978 -0.1542  0.1405
 5277SOL    HW127290   4.547   0.590  12.777  1.8021  4.2910  0.9766
 5277SOL    HW227291   4.674   0.559  12.852  0.8693  1.3776 -1.0673
 5278SOL     OW27292   2.122   3.479   3.675  0.0837  0.1799 -0.5372
 5278SOL    HW127293   2.049   3.487   3.737  2.1917 -2.9472  2.4053
 5278SOL    HW227294   2.171   3.409   3.719 -0.5356 -0.0383 -0.1877
 5279SOL     OW27295   0.196   2.767   1.816  0.1900 -0.3433  0.2009
 5279SOL    HW127296   0.267   2.727   1.866  1.2318  0.9620 -0.2415
 5279SOL    HW227297   0.249   2.825   1.761  0.4524 -2.5355 -1.8782
 5280SOL     OW27298   1.527   3.750   6.748  0.1063 -0.5015 -0.1184
 5280SOL    HW127299   1.584   3.779   6.677  1.2767  0.8948  1.3701
 5280SOL    HW227300   1.443   3.794   6.739  0.0178 -1.0318 -1.7422
 5281SOL     OW27301   1.308   0.304   3.477 -0.8426  0.3599 -0.5446
 5281SOL    HW127302   1.251   0.346   3.413 -0.0383  4.1093  1.2227
 5281SOL    HW227303   1.260   0.223   3.491  3.4417 -1.8757  1.3713
 5282SOL     OW27304   3.192   2.326   6.366 -0.2208 -0.4094  0.0218
 5282SOL    HW127305   3.220   2.412   6.333 -3.6084  0.5031 -0.4850
 5282SOL    HW227306   3.099   2.336   6.381 -0.4472 -1.4523 -0.6298
 5283SOL     OW27307   1.977   4.226  12.950  0.3683 -0.0739  0.1515
 5283SOL    HW127308   2.037   4.228  12.875 -3.1801 -1.9888 -2.7564
 5283SOL    HW227309   1.907   4.278  12.910  0.6405 -1.8819 -2.7092
 5284SOL     OW27310   0.949   1.910   7.439 -0.3016 -0.2710  0.3116
 5284SOL    HW127311   0.983   1.898   7.350  1.3476 -2.3434  1.2190
 5284SOL    HW227312   0.856   1.902   7.420 -0.0699 -0.1477 -0.8910
 5285SOL     OW27313   1.973   0.858  13.174 -0.3699  0.1826  0.4397
 5285SOL    HW127314   2.017   0.818  13.249  1.0101 -0.1289 -0.5442
 5285SOL    HW227315   1.953   0.787  13.114  2.0763  0.6789 -0.9489
 5286SOL     OW27316   3.514   3.415   2.022  0.5370  0.2149 -0.4201
 5286SOL    HW127317   3.561   3.498   2.030  1.9100 -0.4038 -2.1800
 5286SOL    HW227318   3.587   3.355   2.010 -0.1194 -0.5397 -0.6593
 5287SOL     OW27319   3.380   2.035   3.226 -0.3646  0.0112 -0.2567
 5287SOL    HW127320   3.371   2.012   3.133  1.2743 -0.6481 -0.2537
 5287SOL    HW227321   3.425   1.954   3.250 -1.6833 -0.8363 -0.6219
 5288SOL     OW27322   4.306   3.150  14.629 -0.2574 -0.5660 -1.0491
 5288SOL    HW127323   4.273   3.166  14.718  0.5064 -1.0630 -0.6741
 5288SOL    HW227324   4.327   3.057  14.633 -1.6542 -0.8711 -0.7074
 5289SOL     OW27325   3.412   0.815  14.827  0.4766 -0.4817 -0.0114
 5289SOL    HW127326   3.431   0.780  14.740 -0.4887 -0.7363 -0.1269
 5289SOL    HW227327   3.320   0.792  14.843 -0.3059  1.6716 -1.3529
 5290SOL     OW27328   0.006   1.578   3.435 -0.1921 -0.2222  0.5827
 5290SOL    HW127329   0.026   1.611   3.523  0.4816 -0.1100  0.3875
 5290SOL    HW227330   0.051   1.493   3.439 -0.9494 -0.5843  1.3581
 5291SOL     OW27331   4.145   2.718   3.186  0.2694  0.5644  0.1324
 5291SOL    HW127332   4.235   2.685   3.185  0.3264  0.7929 -1.1957
 5291SOL    HW227333   4.132   2.740   3.094 -0.2558  1.2835  0.3845
 5292SOL     OW27334   0.924   1.903  16.994 -0.0340 -0.3210  0.0488
 5292SOL    HW127335   0.994   1.838  17.003  0.5167  0.2219 -0.2553
 5292SOL    HW227336   0.861   1.861  17.052  0.4693 -1.2707 -0.0926
 5293SOL     OW27337   2.688   3.249   1.169 -0.6817  0.2403  0.0053
 5293SOL    HW127338   2.660   3.196   1.243 -1.4899 -0.8602 -1.0949
 5293SOL    HW227339   2.673   3.336   1.205 -1.7024  0.0708  0.0079
 5294SOL     OW27340   2.571   4.616   0.622 -0.6832  0.0371  0.1944
 5294SOL    HW127341   2.627   4.694   0.628 -3.2651  1.7535  1.9428
 5294SOL    HW227342   2.485   4.654   0.640 -1.0955 -2.8318  4.1325
 5295SOL     OW27343   0.036   1.313   5.448  0.4346  0.7149  0.7443
 5295SOL    HW127344   4.682   1.338   5.499  0.7001  4.4564 -0.7447
 5295SOL    HW227345   0.101   1.372   5.486  0.0226 -0.1592  2.8016
 5296SOL     OW27346   3.734   4.431   0.205 -0.7239  0.0740  0.0990
 5296SOL    HW127347   3.687   4.507   0.171  0.8371  1.2821  0.5910
 5296SOL    HW227348   3.679   4.358   0.180 -1.2731  0.8844 -1.0546
 5297SOL     OW27349   2.234   1.644  13.790  0.3752 -0.2174  0.1261
 5297SOL    HW127350   2.182   1.582  13.842  0.7705  1.4049  2.4431
 5297SOL    HW227351   2.285   1.577  13.743  1.1260 -0.0365  0.6949
 5298SOL     OW27352   1.767   1.942   6.876 -0.0340 -0.0336 -0.1575
 5298SOL    HW127353   1.710   1.914   6.948 -0.5247  2.0831  0.2861
 5298SOL    HW227354   1.793   2.029   6.907  0.7382 -0.5260  0.5558
 5299SOL     OW27355   4.525   0.168   3.492 -0.3035  0.1549  0.6362
 5299SOL    HW127356   4.544   0.184   3.584  0.6610  0.7330  0.3469
 5299SOL    HW227357   4.611   0.172   3.449  0.0630  0.6387  1.4221
 5300SOL     OW27358   1.964   2.238  13.579 -0.1419  0.1940  1.0097
 5300SOL    HW127359   2.051   2.201  13.593  0.6927  1.8493  0.1630
 5300SOL    HW227360   1.946   2.192  13.497 -0.8641 -0.6755  1.6498
 5301SOL     OW27361   2.279   4.656   3.111  0.3886 -0.0692 -0.3555
 5301SOL    HW127362   2.328   0.013   3.094  1.1518 -0.4842 -0.0981
 5301SOL    HW227363   2.344   4.612   3.166 -1.3702 -1.6163  0.4885
 5302SOL     OW27364   4.025   0.377  11.127 -0.5890 -0.1055  0.7964
 5302SOL    HW127365   4.033   0.457  11.076 -3.0013  0.0912  0.7322
 5302SOL    HW227366   4.110   0.335  11.115 -0.6355 -0.0179  0.1759
 5303SOL     OW27367   2.823   2.032  14.554 -0.0051  0.2772  0.2493
 5303SOL    HW127368   2.892   1.973  14.583 -0.8605 -1.1518 -0.5746
 5303SOL    HW227369   2.865   2.117  14.553  2.4667 -0.9474  0.1883
 5304SOL     OW27370   1.406   2.665   3.572  0.1947 -0.8141 -0.5446
 5304SOL    HW127371   1.447   2.585   3.606 -0.8668 -0.1959  2.1665
 5304SOL    HW227372   1.361   2.629   3.496 -0.8453 -0.8313  0.0839
 5305SOL     OW27373   2.822   2.305   4.232  0.0073 -0.2701  0.1510
 5305SOL    HW127374   2.828   2.393   4.270  0.8498 -0.2894  0.0774
 5305SOL    HW227375   2.846   2.325   4.141  0.8581 -1.6762  0.0606
 5306SOL     OW27376   2.385   0.493   3.196 -0.1631  0.4357  0.3346
 5306SOL    HW127377   2.341   0.409   3.188  2.5481 -1.1054  1.4757
 5306SOL    HW227378   2.444   0.478   3.270  0.2555 -1.1650 -0.3176
 5307SOL     OW27379   4.676   0.260  12.780  0.2034  0.3326 -0.0687
 5307SOL    HW127380   4.673   0.205  12.858  0.6088 -1.8944 -1.6223
 5307SOL    HW227381   4.592   0.307  12.776  0.6302  0.9439 -1.8411
 5308SOL     OW27382   1.227   3.390   3.710 -0.4128 -0.3264 -0.0817
 5308SOL    HW127383   1.248   3.316   3.767  0.9343  0.1770  0.0646
 5308SOL    HW227384   1.132   3.374   3.704 -0.6420  1.1772 -0.5633
 5309SOL     OW27385   3.160   2.868   4.329 -0.9689 -0.0968  0.0021
 5309SOL    HW127386   3.150   2.785   4.282 -1.5266  0.7553 -1.3619
 5309SOL    HW227387   3.070   2.894   4.349 -0.1891  1.9391  0.8429
 5310SOL     OW27388   3.769   0.629   3.263 -0.4819  0.4465 -0.3532
 5310SOL    HW127389   3.782   0.592   3.176 -3.6061 -0.9898 -0.2208
 5310SOL    HW227390   3.843   0.689   3.274 -0.1310 -0.3544  1.6805
 5311SOL     OW27391   2.399   1.420   6.794  0.0694 -0.5718  0.2859
 5311SOL    HW127392   2.316   1.375   6.778 -1.5196  1.9127  1.6842
 5311SOL    HW227393   2.418   1.450   6.705 -0.4759  0.2521  0.4542
 5312SOL     OW27394   0.421   2.577   5.641 -0.6202  0.3269  0.0066
 5312SOL    HW127395   0.368   2.501   5.661 -1.8203  0.9615 -0.7907
 5312SOL    HW227396   0.402   2.645   5.706  1.4979  0.9400  0.0141
 5313SOL     OW27397   2.961   4.498   9.492  0.0487 -0.2588  0.3538
 5313SOL    HW127398   2.990   4.447   9.568 -1.5373  1.7016  2.2999
 5313SOL    HW227399   2.969   4.429   9.426 -0.2285  0.6096 -0.5706
 5314SOL     OW27400   4.402   2.499   4.221  0.3801  0.6443  0.5082
 5314SOL    HW127401   4.325   2.515   4.276 -0.5963 -0.6316 -0.5040
 5314SOL    HW227402   4.452   2.435   4.272  0.5378 -0.1833 -0.6956
 5315SOL     OW27403   3.019   3.904   1.254  0.8247  0.3648 -0.3834
 5315SOL    HW127404   3.017   3.843   1.327  2.0271 -0.8385 -1.3400
 5315SOL    HW227405   3.109   3.934   1.271  0.7738 -0.0645  0.6257
 5316SOL     OW27406   2.381   0.667  10.546  0.6884  0.6824  0.3571
 5316SOL    HW127407   2.335   0.636  10.623 -1.1851  1.9154 -0.2714
 5316SOL    HW227408   2.339   0.753  10.540 -0.2093  0.2738  0.8038
 5317SOL     OW27409   0.246   0.692  15.030  0.5441  0.2947  0.8486
 5317SOL    HW127410   0.235   0.627  15.099 -0.9970 -1.1420 -0.7341
 5317SOL    HW227411   0.339   0.714  15.031  1.3220 -2.9099 -0.0007
 5318SOL     OW27412   4.527   2.830  14.887 -0.1215 -0.2584  0.4503
 5318SOL    HW127413   4.519   2.750  14.939 -1.9058  0.1328  0.7656
 5318SOL    HW227414   4.578   2.884  14.947  0.0981 -0.7825  0.7336
 5319SOL     OW27415   2.193   2.747   5.686  0.9425  0.8787  0.7548
 5319SOL    HW127416   2.123   2.690   5.653  2.6576 -0.3661 -0.7787
 5319SOL    HW227417   2.245   2.688   5.740  0.6332 -0.2850 -0.2138
 5320SOL     OW27418   4.518   4.126   9.191  0.4138  0.0383  0.0092
 5320SOL    HW127419   4.558   4.067   9.127 -1.8360 -1.9383  0.3972
 5320SOL    HW227420   4.586   4.192   9.202 -0.5858  1.4511 -2.3497
 5321SOL     OW27421   2.715   0.523   4.627 -0.2822 -0.8678 -0.7409
 5321SOL    HW127422   2.789   0.466   4.603  0.0892 -0.4477 -0.5856
 5321SOL    HW227423   2.749   0.562   4.707 -1.3681  0.2354 -0.8192
 5322SOL     OW27424   1.690   2.612  10.821  0.2308 -0.7030 -0.1547
 5322SOL    HW127425   1.611   2.603  10.767 -0.1828  1.6765  0.0559
 5322SOL    HW227426   1.690   2.523  10.858 -1.7863 -1.5878 -2.3169
 5323SOL     OW27427   4.068   1.363  13.549 -0.2124 -0.0912 -0.4288
 5323SOL    HW127428   4.135   1.384  13.614  1.0137 -1.6726 -1.1751
 5323SOL    HW227429   3.990   1.381  13.602 -0.9378 -1.7536 -0.9397
 5324SOL     OW27430   3.611   4.019   3.440  0.1404  0.4611 -0.4154
 5324SOL    HW127431   3.654   4.027   3.355  1.4919  1.3357  0.3535
 5324SOL    HW227432   3.675   3.974   3.496 -0.0584 -2.1397 -2.2629
 5325SOL     OW27433   3.009   0.370   7.652  0.0128 -0.6665  0.2741
 5325SOL    HW127434   2.992   0.330   7.737  1.5611  2.2688  1.9627
 5325SOL    HW227435   2.974   0.457   7.668 -0.2356 -0.8651  0.7797
 5326SOL     OW27436   1.824   4.102   5.877  0.6318  0.0413  0.5898
 5326SOL    HW127437   1.916   4.097   5.851  1.1273  0.2252  2.2755
 5326SOL    HW227438   1.845   4.073   5.966  4.4238  0.7615 -0.0603
 5327SOL     OW27439   2.909   2.036  15.894 -0.1762 -0.3456  0.3579
 5327SOL    HW127440   2.865   1.955  15.919 -0.2549 -0.5505 -0.4601
 5327SOL    HW227441   2.843   2.098  15.926  1.4911  2.5278 -1.7255
 5328SOL     OW27442   0.162   1.407   5.192 -0.1143  0.2857  0.8079
 5328SOL    HW127443   0.120   1.356   5.262 -0.7910 -1.1631 -0.6572
 5328SOL    HW227444   0.241   1.356   5.174 -0.4525 -0.7568  2.2177
 5329SOL     OW27445   4.675   1.475   4.529 -0.1917  0.2294  0.1045
 5329SOL    HW127446   4.654   1.443   4.617 -1.6512 -0.5969 -0.5542
 5329SOL    HW227447   0.020   1.415   4.495 -2.6464 -2.1343 -0.6152
 5330SOL     OW27448   2.939   2.414   6.395 -0.3080 -0.3585  0.0145
 5330SOL    HW127449   2.891   2.487   6.434  0.6519  0.7482 -0.8534
 5330SOL    HW227450   2.922   2.433   6.303  1.1683 -0.6543 -0.3190
 5331SOL     OW27451   1.257   2.017   4.820 -0.2013  0.2605  0.4291
 5331SOL    HW127452   1.180   1.974   4.783 -0.6231  0.0337  1.5714
 5331SOL    HW227453   1.284   2.071   4.746 -0.4156  1.8217  1.4845
 5332SOL     OW27454   2.739   1.058   6.677  0.0096  0.2044 -0.1988
 5332SOL    HW127455   2.754   1.111   6.756  0.3424  0.1327 -0.2127
 5332SOL    HW227456   2.645   1.049   6.666  0.0744 -0.9805  0.2357
 5333SOL     OW27457   4.305   1.404   8.247 -0.4294  0.1997  0.0520
 5333SOL    HW127458   4.218   1.445   8.249  0.0096  1.0060  1.7007
 5333SOL    HW227459   4.309   1.360   8.332 -0.8439  1.3221  0.6532
 5334SOL     OW27460   3.349   3.075   3.416  0.2484  0.0993  0.2015
 5334SOL    HW127461   3.362   3.040   3.504  1.2752  2.6245  1.0589
 5334SOL    HW227462   3.254   3.081   3.429  0.2785  0.7642  0.1213
 5335SOL     OW27463   1.274   0.438   0.035  0.0419  0.1823  0.6058
 5335SOL    HW127464   1.266   0.412  17.636 -1.1225  0.1532  0.7112
 5335SOL    HW227465   1.344   0.502   0.043  0.4164 -0.0142 -1.0343
 5336SOL     OW27466   3.502   4.678   3.537  0.1916 -0.2460  0.0728
 5336SOL    HW127467   3.578   4.718   3.579  0.1086  0.7727 -0.7248
 5336SOL    HW227468   3.514   4.589   3.569 -0.4449 -0.6024 -0.6868
 5337SOL     OW27469   2.163   0.339   4.513 -0.5080 -0.4679  0.3244
 5337SOL    HW127470   2.189   0.247   4.519 -2.6356 -1.2056 -1.9093
 5337SOL    HW227471   2.157   0.367   4.604 -0.2222 -0.2619  0.2806
 5338SOL     OW27472   0.729   1.563   6.766  0.0626 -0.3232  0.4272
 5338SOL    HW127473   0.772   1.522   6.841 -0.1962 -0.5245  0.4674
 5338SOL    HW227474   0.795   1.627   6.739  0.6683 -1.0915  0.0896
 5339SOL     OW27475   2.511   0.285   4.106 -0.1839 -0.0923  0.1645
 5339SOL    HW127476   2.496   0.316   4.196  0.4310 -2.1843  0.9697
 5339SOL    HW227477   2.426   0.303   4.066  0.4123 -0.4325 -1.2208
 5340SOL     OW27478   1.410   3.941   6.001 -0.4734  0.1482  0.1681
 5340SOL    HW127479   1.459   4.013   5.962 -0.8194  0.2953  0.0053
 5340SOL    HW227480   1.354   3.917   5.927 -0.8658 -2.1745  1.2162
 5341SOL     OW27481   1.482   1.462   7.980 -0.1890  0.2325  0.1280
 5341SOL    HW127482   1.406   1.516   7.957 -0.7243  0.5812  2.6824
 5341SOL    HW227483   1.452   1.372   7.988  1.2599 -0.5122 -2.8694
 5342SOL     OW27484   1.277   4.523  11.816 -0.1323  0.0320  0.4352
 5342SOL    HW127485   1.253   4.432  11.834 -1.0639  0.7235  2.6612
 5342SOL    HW227486   1.221   4.564  11.882  1.2794  1.0323  1.0029
 5343SOL     OW27487   2.784   1.739   7.448 -0.2318  0.2243 -0.4415
 5343SOL    HW127488   2.857   1.687   7.484 -0.7743 -0.6321 -0.5802
 5343SOL    HW227489   2.815   1.820   7.488 -0.6256 -0.3809  1.0923
 5344SOL     OW27490   1.007   3.778   5.428  0.4826 -0.0385 -0.3801
 5344SOL    HW127491   1.066   3.728   5.371 -0.0123 -0.3586 -0.6062
 5344SOL    HW227492   1.067   3.793   5.501 -0.8233  1.0049  0.4617
 5345SOL     OW27493   1.740   3.091   1.126 -0.2094 -0.0009 -0.1366
 5345SOL    HW127494   1.829   3.057   1.124  0.6163  2.1247 -0.0691
 5345SOL    HW227495   1.743   3.117   1.218  1.6202 -1.8943  0.3206
 5346SOL     OW27496   0.314   2.713   5.884  0.0497  0.1061  0.1270
 5346SOL    HW127497   0.362   2.795   5.895  0.5014 -0.3434  1.5083
 5346SOL    HW227498   0.290   2.685   5.973 -1.2885  1.0966  0.0714
 5347SOL     OW27499   0.485   2.361  16.834 -0.6849  0.4059 -1.0377
 5347SOL    HW127500   0.506   2.270  16.811 -0.7223  0.2378 -0.3995
 5347SOL    HW227501   0.539   2.399  16.765  0.3251 -0.8816 -0.9664
 5348SOL     OW27502   0.227   1.082  13.340  0.0874  0.4091 -0.1968
 5348SOL    HW127503   0.306   1.028  13.344  0.8745  1.5754  0.3124
 5348SOL    HW227504   0.208   1.092  13.246  2.0824  0.4845 -0.5949
 5349SOL     OW27505   3.955   2.850   9.656 -0.3089 -0.5886  0.0522
 5349SOL    HW127506   3.919   2.847   9.567  1.7132  0.8839 -0.8171
 5349SOL    HW227507   4.026   2.914   9.644 -3.8876  3.2115 -0.6433
 5350SOL     OW27508   0.517   3.683   9.292  0.5781 -0.0748 -0.5344
 5350SOL    HW127509   0.441   3.633   9.263 -0.6085  0.8587  0.9565
 5350SOL    HW227510   0.465   3.729   9.358 -1.5488 -0.7180 -1.7406
 5351SOL     OW27511   1.116   2.449   0.395  0.4097 -0.4127  0.4214
 5351SOL    HW127512   1.113   2.526   0.339  1.6760 -1.0089 -0.4576
 5351SOL    HW227513   1.209   2.425   0.392  0.7526  1.0370 -0.3596
 5352SOL     OW27514   1.540   2.292   4.360  0.3748 -0.4679  0.0095
 5352SOL    HW127515   1.578   2.226   4.418 -0.3405  0.3545  1.4137
 5352SOL    HW227516   1.621   2.339   4.341 -0.5018  0.4787 -1.3809
 5353SOL     OW27517   0.108   1.692  11.688  0.0357 -0.1726  0.1441
 5353SOL    HW127518   0.138   1.745  11.763  0.8267  1.0807 -1.0583
 5353SOL    HW227519   0.070   1.752  11.625 -0.9771 -1.0496 -0.0717
 5354SOL     OW27520   3.010   2.793   3.389  0.0706 -0.8729 -0.1836
 5354SOL    HW127521   2.947   2.847   3.342  0.6004 -0.2986 -0.2248
 5354SOL    HW227522   2.995   2.715   3.336 -0.1833 -0.1774 -1.1250
 5355SOL     OW27523   4.721   1.946  13.493 -0.1629  0.0055  0.1607
 5355SOL    HW127524   4.701   2.038  13.511  0.2254  0.5768 -2.4460
 5355SOL    HW227525   0.083   1.935  13.537  0.8781 -0.2294 -1.9195
 5356SOL     OW27526   2.853   3.528   4.817  0.5140  0.6627  0.0022
 5356SOL    HW127527   2.900   3.479   4.749 -1.2096 -1.0123  0.0090
 5356SOL    HW227528   2.853   3.458   4.884 -1.4897  0.1296 -0.5489
 5357SOL     OW27529   0.320   1.466   1.861  0.4306  0.4659  0.3867
 5357SOL    HW127530   0.363   1.486   1.944 -0.9942  1.5267  0.8729
 5357SOL    HW227531   0.376   1.524   1.809 -0.2187  2.5464  1.9897
 5358SOL     OW27532   0.791   3.976   4.687  0.1047  0.2448  0.2029
 5358SOL    HW127533   0.776   3.902   4.628 -1.2255  0.5041  0.2116
 5358SOL    HW227534   0.853   4.028   4.636 -1.7328  2.2491  0.0344
 5359SOL     OW27535   0.385   3.299  11.698 -0.3207 -0.2804  0.1809
 5359SOL    HW127536   0.432   3.350  11.632  0.0447 -1.1970 -0.2622
 5359SOL    HW227537   0.387   3.363  11.769 -0.5434  0.3550 -0.3855
 5360SOL     OW27538   1.544   0.560   2.174 -0.1395 -0.1445 -0.8300
 5360SOL    HW127539   1.622   0.584   2.125  0.2091  0.8029  0.1977
 5360SOL    HW227540   1.497   0.643   2.167  0.2607 -0.1518 -3.5240
 5361SOL     OW27541   2.958   4.473   6.699 -0.1095  0.5054  0.5173
 5361SOL    HW127542   2.951   4.378   6.698  1.3654  0.4401 -1.9564
 5361SOL    HW227543   2.925   4.496   6.786 -2.5202  0.4489 -0.3627
 5362SOL     OW27544   2.788   4.060   3.555  0.0593 -0.5654  0.5228
 5362SOL    HW127545   2.864   4.046   3.613  1.7346 -1.3820 -1.8562
 5362SOL    HW227546   2.752   4.130   3.609 -0.4345 -1.5753  1.4888
 5363SOL     OW27547   1.162   2.784   8.112  0.0018 -0.2651  0.0158
 5363SOL    HW127548   1.208   2.857   8.154  0.0244  0.8100 -1.8395
 5363SOL    HW227549   1.091   2.833   8.070 -0.4359  0.9680  2.2058
 5364SOL     OW27550   2.362   3.713   1.570  0.1913  0.0809  0.4744
 5364SOL    HW127551   2.288   3.752   1.617 -1.5958 -0.5060 -1.8342
 5364SOL    HW227552   2.317   3.701   1.487 -0.9966  0.0057  1.1336
 5365SOL     OW27553   2.414   1.883   3.318 -0.7165 -0.4056 -0.5260
 5365SOL    HW127554   2.468   1.952   3.357  1.8362 -3.0249  0.5794
 5365SOL    HW227555   2.439   1.885   3.225 -0.3656  3.9520 -0.3830
 5366SOL     OW27556   0.617   1.765  16.266  0.2414 -0.1759 -0.0587
 5366SOL    HW127557   0.634   1.834  16.201 -1.5179  1.3487  1.1226
 5366SOL    HW227558   0.702   1.727  16.289  0.6125 -0.4976 -1.9656
 5367SOL     OW27559   3.781   3.981   4.532  0.0876 -0.0309 -0.3565
 5367SOL    HW127560   3.843   3.983   4.605 -1.1187 -1.7679  0.7245
 5367SOL    HW227561   3.740   3.896   4.549 -0.6114 -0.0222 -2.0246
 5368SOL     OW27562   1.248   2.208   2.760 -0.0417  0.0582  0.3338
 5368SOL    HW127563   1.188   2.277   2.789  0.7059  0.6362  0.4884
 5368SOL    HW227564   1.188   2.133   2.761 -0.8634  0.7186  1.1628
 5369SOL     OW27565   1.933   2.429  10.294  0.4553  0.6689 -0.3033
 5369SOL    HW127566   1.866   2.361  10.284 -0.4776  1.3339  1.4565
 5369SOL    HW227567   1.892   2.481  10.363 -0.4617 -1.0047  0.4064
 5370SOL     OW27568   0.552   3.422   1.295 -0.4002 -0.5581 -0.1340
 5370SOL    HW127569   0.561   3.360   1.367  1.3810  1.1431  1.1280
 5370SOL    HW227570   0.501   3.365   1.237 -0.1617 -1.4395  0.5187
 5371SOL     OW27571   1.881   4.708   4.116 -0.4324  0.1865 -0.2461
 5371SOL    HW127572   1.893   0.034   4.197 -2.3324 -1.6290  1.1232
 5371SOL    HW227573   1.824   4.641   4.154  0.1978  0.5371  1.2961
 5372SOL     OW27574   0.768   4.413   2.638 -0.3044  0.3187  0.2882
 5372SOL    HW127575   0.773   4.493   2.584 -0.5742  0.4961  0.5231
 5372SOL    HW227576   0.681   4.384   2.608 -0.3150  0.3921  0.2470
 5373SOL     OW27577   2.599   2.183   7.996  1.0012  1.0122  0.1204
 5373SOL    HW127578   2.533   2.139   8.048  0.7038  1.6775  0.3069
 5373SOL    HW227579   2.595   2.146   7.908  1.6369  1.7294 -0.2132
 5374SOL     OW27580   1.573   0.036   8.665 -0.2098  0.7115 -0.2210
 5374SOL    HW127581   1.625   0.051   8.587  0.3210 -0.4957 -0.1029
 5374SOL    HW227582   1.504   4.701   8.632  0.5162 -0.1433 -0.2497
 5375SOL     OW27583   2.163   1.343   5.293  0.1202  0.6402  0.1705
 5375SOL    HW127584   2.255   1.355   5.314  0.0134  2.0516 -0.1654
 5375SOL    HW227585   2.160   1.304   5.206  0.2886  1.0866 -0.0318
 5376SOL     OW27586   4.545   4.047   3.030  0.1826 -0.3933  0.2077
 5376SOL    HW127587   4.517   4.085   2.947 -1.0511  1.0152  1.2835
 5376SOL    HW227588   4.468   4.047   3.088  1.2213 -0.7758  1.6024
 5377SOL     OW27589   1.585   0.008   7.422  0.1535 -0.5162  0.0427
 5377SOL    HW127590   1.560   4.706   7.333 -0.8965 -1.1281  0.5112
 5377SOL    HW227591   1.624   4.651   7.457  0.0934 -0.2231  0.8008
 5378SOL     OW27592   2.348   2.888   1.030 -0.1333  0.2974 -0.8793
 5378SOL    HW127593   2.365   2.808   0.980 -0.6325  1.1400 -2.4043
 5378SOL    HW227594   2.437   2.917   1.049  0.5793 -1.7960 -0.9901
 5379SOL     OW27595   1.579   3.732   2.680 -0.1733  0.6528  0.2882
 5379SOL    HW127596   1.496   3.690   2.657 -0.0591  1.1649 -1.0281
 5379SOL    HW227597   1.575   3.803   2.617  1.6421 -1.4394 -2.2100
 5380SOL     OW27598   0.904   3.842   6.446  0.0003 -0.0560  0.4650
 5380SOL    HW127599   0.842   3.777   6.478  1.2108 -3.1304 -3.4554
 5380SOL    HW227600   0.971   3.841   6.515 -0.0885  0.9028  0.5685
 5381SOL     OW27601   2.859   2.905   1.440  0.1426  1.1044  0.0997
 5381SOL    HW127602   2.925   2.868   1.499 -1.3089  1.7549  2.1219
 5381SOL    HW227603   2.891   2.873   1.355  1.7681  0.0274  1.1086
 5382SOL     OW27604   1.386   0.280   1.311 -0.2123 -0.0710  0.2416
 5382SOL    HW127605   1.468   0.311   1.274  0.0291 -2.3232 -1.0917
 5382SOL    HW227606   1.325   0.289   1.239 -0.4191  3.1372  0.8455
 5383SOL     OW27607   3.149   0.048  12.473  0.3700 -0.4065 -0.1997
 5383SOL    HW127608   3.093   0.037  12.550  0.9483  0.4642  0.3403
 5383SOL    HW227609   3.123   4.692  12.424 -0.9479 -0.0907 -0.0211
 5384SOL     OW27610   1.117   2.445   6.580 -0.5294 -0.2629  0.2503
 5384SOL    HW127611   1.181   2.420   6.646 -1.2191 -1.7487  0.3637
 5384SOL    HW227612   1.119   2.540   6.582 -1.6111 -0.2272 -0.2626
 5385SOL     OW27613   4.474   3.361   4.286  0.5011 -0.1895  0.4500
 5385SOL    HW127614   4.462   3.395   4.375  2.6299 -0.1179  0.7101
 5385SOL    HW227615   4.437   3.432   4.233  0.9882 -2.0718 -2.4144
 5386SOL     OW27616   2.847   3.730   8.696  0.1069 -0.2043  0.1867
 5386SOL    HW127617   2.936   3.762   8.678 -0.8294  2.0679 -0.2541
 5386SOL    HW227618   2.845   3.743   8.790 -2.7092 -0.4212  0.1549
 5387SOL     OW27619   1.276   1.447   5.615 -0.4642  0.1671  0.4687
 5387SOL    HW127620   1.277   1.541   5.633  1.2169  0.3847 -0.6828
 5387SOL    HW227621   1.355   1.427   5.564  0.1043  2.4603  0.4430
 5388SOL     OW27622   3.473   2.125   4.077  0.5427  0.1134 -0.2887
 5388SOL    HW127623   3.392   2.161   4.112  0.7680  1.5889 -1.3297
 5388SOL    HW227624   3.534   2.118   4.151  1.0112 -0.6729 -0.7406
 5389SOL     OW27625   0.722   4.028   9.870  0.2029  0.3734 -0.1148
 5389SOL    HW127626   0.811   4.025   9.836  0.2346  1.3795 -0.1000
 5389SOL    HW227627   0.674   4.063   9.795  0.8765  0.0774 -0.6822
 5390SOL     OW27628   2.423   0.374  10.741 -0.4143 -0.2026  0.4362
 5390SOL    HW127629   2.463   0.442  10.795  2.5168  0.3053 -2.3496
 5390SOL    HW227630   2.332   0.385  10.770 -0.5252 -1.1094  0.4155
 5391SOL     OW27631   4.361   4.720   2.786  0.2016 -0.4489 -0.1318
 5391SOL    HW127632   4.424   4.653   2.811 -0.6156 -0.7503  1.0932
 5391SOL    HW227633   4.324   4.691   2.703 -0.4313  0.8416 -0.2967
 5392SOL     OW27634   2.716   1.345   3.845  0.1667  0.7388 -0.3438
 5392SOL    HW127635   2.702   1.427   3.892 -0.9681  0.8198 -0.8043
 5392SOL    HW227636   2.640   1.299   3.881  0.3171 -0.7485 -1.9230
 5393SOL     OW27637   3.631   2.686  15.821 -0.0703 -0.0401  0.2844
 5393SOL    HW127638   3.610   2.627  15.894 -0.7730  0.0057  0.1128
 5393SOL    HW227639   3.562   2.750  15.834  1.8638  1.8309  1.4706
 5394SOL     OW27640   0.706   1.859   6.208  0.0624  0.2824 -0.5767
 5394SOL    HW127641   0.774   1.799   6.178 -1.5718 -1.8807  0.0363
 5394SOL    HW227642   0.656   1.879   6.128 -2.6172 -0.7124  0.8526
 5395SOL     OW27643   1.851   2.347   4.509  0.2790 -0.2240 -0.5188
 5395SOL    HW127644   1.855   2.344   4.414 -1.9940 -1.0458 -0.5862
 5395SOL    HW227645   1.945   2.355   4.526  0.2074  2.0395 -1.2638
 5396SOL     OW27646   2.803   1.469   7.594  0.4787  0.1007  0.2794
 5396SOL    HW127647   2.897   1.491   7.595  0.6918 -0.7815  0.0372
 5396SOL    HW227648   2.779   1.485   7.685 -2.3750  0.8595 -0.6104
 5397SOL     OW27649   3.117   0.884  16.599 -0.3672  0.2814 -0.2869
 5397SOL    HW127650   3.144   0.918  16.513  0.1001 -1.5733 -0.8786
 5397SOL    HW227651   3.197   0.836  16.621 -0.9889 -1.6182 -2.1805
 5398SOL     OW27652   1.968   4.546   3.809  0.4677  0.3387 -0.4628
 5398SOL    HW127653   1.983   4.504   3.724  2.7484  2.3819 -1.0853
 5398SOL    HW227654   2.043   4.605   3.814  1.4596 -0.6797 -2.9846
 5399SOL     OW27655   2.740   1.004   7.793  0.3651  0.2270 -0.0044
 5399SOL    HW127656   2.721   0.943   7.863  1.6424  2.9185  2.6933
 5399SOL    HW227657   2.829   1.029   7.820  0.4130  1.5815 -1.3550
 5400SOL     OW27658   1.558   2.249   6.792 -0.2491 -0.0038 -0.3358
 5400SOL    HW127659   1.649   2.273   6.805 -0.5090  1.1085 -0.6090
 5400SOL    HW227660   1.543   2.172   6.847 -0.2061 -1.3263 -2.1727
 5401SOL     OW27661   1.817   1.077   7.585 -0.0982 -0.4218  0.6131
 5401SOL    HW127662   1.911   1.061   7.579 -0.0868  0.0074 -0.3897
 5401SOL    HW227663   1.795   1.025   7.508  1.2803 -0.8557  0.5056
 5402SOL     OW27664   1.364   1.719   0.710  0.1724  0.2861 -0.2386
 5402SOL    HW127665   1.406   1.788   0.660  0.5773  0.0688 -0.1945
 5402SOL    HW227666   1.271   1.741   0.714 -0.6223 -3.0908  0.2593
 5403SOL     OW27667   1.536   4.155   4.572  0.5630  0.3994 -0.1741
 5403SOL    HW127668   1.498   4.068   4.560  0.9271 -0.0375  1.9318
 5403SOL    HW227669   1.478   4.212   4.522 -1.4673 -0.9122  0.6750
 5404SOL     OW27670   1.342   1.394  16.675 -0.5094 -0.3519 -0.3360
 5404SOL    HW127671   1.259   1.360  16.710 -0.0292  0.5534  1.6881
 5404SOL    HW227672   1.325   1.488  16.682 -1.5412 -0.5688  0.0213
 5405SOL     OW27673   1.030   2.231  11.182 -0.0281  0.4784 -0.0191
 5405SOL    HW127674   1.004   2.304  11.126 -0.8857  0.2305  0.0636
 5405SOL    HW227675   0.965   2.238  11.252 -0.2124  2.2486 -0.3636
 5406SOL     OW27676   0.673   1.990   8.841 -0.1082  0.5381 -0.7360
 5406SOL    HW127677   0.768   1.981   8.839 -0.2824 -1.5320  0.3306
 5406SOL    HW227678   0.644   1.907   8.803 -0.5121 -0.3548  1.5450
 5407SOL     OW27679   2.314   1.952   2.255  0.0190 -0.0668  0.3493
 5407SOL    HW127680   2.228   1.933   2.217  0.5997 -0.9203 -0.5234
 5407SOL    HW227681   2.291   2.006   2.331  0.6104 -0.7822  1.0389
 5408SOL     OW27682   3.032   1.382  16.866  0.7650  0.2732  0.1371
 5408SOL    HW127683   2.956   1.395  16.923  0.9915 -2.6547  1.0670
 5408SOL    HW227684   2.986   1.413  16.787  2.4626  2.2418 -0.0727
 5409SOL     OW27685   3.571   1.551   8.051  0.3686  0.0482  0.1103
 5409SOL    HW127686   3.578   1.482   8.116  1.1805  1.3132  1.3748
 5409SOL    HW227687   3.596   1.628   8.102 -1.5879  2.0807 -1.9791
 5410SOL     OW27688   2.059   1.159   4.546 -0.2154  0.2383 -0.0163
 5410SOL    HW127689   2.095   1.185   4.631 -1.0978  0.9440  0.1479
 5410SOL    HW227690   2.049   1.065   4.555  1.5475 -0.0776 -1.2156
 5411SOL     OW27691   1.435   1.112  13.219 -0.5219 -0.3400  0.2193
 5411SOL    HW127692   1.452   1.083  13.309  0.6189 -0.9415 -0.1973
 5411SOL    HW227693   1.481   1.196  13.217  0.4969 -0.9242 -0.7893
 5412SOL     OW27694   2.719   0.078   5.141  0.0152  0.2886  0.0029
 5412SOL    HW127695   2.808   0.069   5.175 -0.0504  1.9578  0.6032
 5412SOL    HW227696   2.676   0.056   5.223  1.2992 -0.0373  0.5886
 5413SOL     OW27697   0.555   0.602   1.915 -0.2877  0.8889  0.2175
 5413SOL    HW127698   0.516   0.618   2.001  0.2330  1.3908  0.3553
 5413SOL    HW227699   0.490   0.645   1.860 -0.4209  1.6597  0.9830
 5414SOL     OW27700   2.234   3.134   6.986 -0.7054  0.0819 -0.2339
 5414SOL    HW127701   2.305   3.102   7.042 -1.1245 -1.4949 -0.6148
 5414SOL    HW227702   2.205   3.214   7.030 -3.0197  0.1963 -1.9773
 5415SOL     OW27703   3.775   1.152  11.015 -0.6396  0.6577  0.2754
 5415SOL    HW127704   3.702   1.096  11.040 -0.4391  0.1151 -0.3482
 5415SOL    HW227705   3.819   1.091  10.956 -0.0781  1.1895  0.1402
 5416SOL     OW27706   1.079   1.127   7.109  0.1119  0.2247  0.3257
 5416SOL    HW127707   1.078   1.197   7.044  0.2979  1.1547  1.3348
 5416SOL    HW227708   1.152   1.159   7.162 -0.4859 -0.7348  1.7363
 5417SOL     OW27709   4.102   1.896   9.647  0.7206  0.8720 -0.3704
 5417SOL    HW127710   4.193   1.922   9.662  0.2595  2.0690  0.3420
 5417SOL    HW227711   4.056   1.977   9.627 -0.1326  0.4283 -0.1852
 5418SOL     OW27712   0.761   4.440   7.266 -0.5341 -0.1146  0.1929
 5418SOL    HW127713   0.789   4.513   7.322  0.6573  0.2844 -0.9200
 5418SOL    HW227714   0.835   4.431   7.206  0.0124 -0.3411  0.8936
 5419SOL     OW27715   2.746   3.275  12.469  0.0061 -0.1224 -0.5671
 5419SOL    HW127716   2.805   3.203  12.490  1.2704  1.1611  0.3197
 5419SOL    HW227717   2.662   3.249  12.507 -1.3952  0.8415 -3.0004
 5420SOL     OW27718   3.365   3.023  15.502  0.0911 -0.0095  0.3600
 5420SOL    HW127719   3.402   3.093  15.449 -2.6764  2.2795  1.4929
 5420SOL    HW227720   3.277   3.011  15.464 -0.1714  3.2987 -0.0454
 5421SOL     OW27721   0.095   2.165  12.708  0.1952  0.3854 -0.3106
 5421SOL    HW127722   0.062   2.092  12.761  1.9884  0.6364  1.1578
 5421SOL    HW227723   0.044   2.178  12.628 -1.6575  0.7668  0.9463
 5422SOL     OW27724   4.637   0.171  12.008 -0.4855  0.2383 -0.1621
 5422SOL    HW127725   4.682   0.234  12.064  0.0926 -0.5688  0.2814
 5422SOL    HW227726   4.631   0.102  12.074 -0.8185  1.0954  0.7192
 5423SOL     OW27727   0.356   4.443  16.301 -0.7199  0.3464 -0.4784
 5423SOL    HW127728   0.290   4.428  16.369 -0.4958  1.6209  0.0218
 5423SOL    HW227729   0.438   4.406  16.335  0.6088  1.6980 -2.1854
 5424SOL     OW27730   0.983   0.378  10.845 -0.1814 -0.4675  0.1811
 5424SOL    HW127731   0.971   0.285  10.824  3.0476 -0.4462 -1.8106
 5424SOL    HW227732   1.073   0.371  10.877  0.1816  2.9970 -0.1499
 5425SOL     OW27733   1.975   3.767   7.191  0.2123  0.1288  0.2365
 5425SOL    HW127734   1.907   3.773   7.124  0.7506  2.0780 -0.1501
 5425SOL    HW227735   1.974   3.673   7.210 -1.5304  0.0433 -0.2844
 5426SOL     OW27736   0.740   3.105  11.739  0.2532  0.2295  0.7682
 5426SOL    HW127737   0.813   3.054  11.775 -0.7644 -0.1181  2.3148
 5426SOL    HW227738   0.681   3.124  11.812 -0.4592 -1.9814  0.7568
 5427SOL     OW27739   2.185   3.315   3.170  0.0806 -0.4727 -0.2322
 5427SOL    HW127740   2.243   3.259   3.119  1.4604  0.9400 -0.2205
 5427SOL    HW227741   2.162   3.372   3.097 -0.1542  0.8610  0.8706
 5428SOL     OW27742   3.215   2.826   5.161 -0.1388 -0.3794  0.2673
 5428SOL    HW127743   3.301   2.858   5.134 -0.0465 -1.1953 -0.4410
 5428SOL    HW227744   3.198   2.756   5.097  2.0707 -3.2842  2.8304
 5429SOL     OW27745   2.140   4.365   6.530 -0.7924  0.5266  0.0451
 5429SOL    HW127746   2.051   4.335   6.548 -1.4488  2.1920 -0.3816
 5429SOL    HW227747   2.126   4.458   6.549 -1.6552 -0.0207  2.0866
 5430SOL     OW27748   0.869   4.224   7.511  0.7379 -1.1567  0.5107
 5430SOL    HW127749   0.939   4.158   7.507 -0.2636 -2.1542 -0.7264
 5430SOL    HW227750   0.808   4.181   7.451  1.2956 -0.0874 -0.8278
 5431SOL     OW27751   2.912   0.112   7.226  0.3001  0.3367  0.3489
 5431SOL    HW127752   2.856   0.127   7.303  0.3772  0.3280  0.4068
 5431SOL    HW227753   2.926   0.201   7.194 -0.8493  0.0270 -1.0186
 5432SOL     OW27754   0.020   2.648   5.472  0.4222  0.6078 -0.2649
 5432SOL    HW127755   0.073   2.570   5.451 -1.3431 -0.0983 -2.1410
 5432SOL    HW227756   0.081   2.688   5.534 -1.2182 -2.7302  3.4654
 5433SOL     OW27757   1.463   1.486   2.858  0.2285  0.3385 -0.1773
 5433SOL    HW127758   1.454   1.536   2.940 -2.1465  1.7238 -1.2963
 5433SOL    HW227759   1.545   1.516   2.819  0.1183 -0.0010 -0.6546
 5434SOL     OW27760   1.382   3.189  13.732 -0.7602 -0.5825  0.4234
 5434SOL    HW127761   1.342   3.264  13.686 -1.5808 -1.2555  0.0342
 5434SOL    HW227762   1.300   3.149  13.762 -0.5193 -0.5076  1.1568
 5435SOL     OW27763   2.099   1.447   6.963 -0.6617  0.0469  0.0428
 5435SOL    HW127764   2.068   1.375   7.018 -1.2805 -0.6512 -1.2342
 5435SOL    HW227765   2.104   1.408   6.876  0.9178 -0.7911  0.4955
 5436SOL     OW27766   1.957   2.409   6.167 -0.0778 -0.6041 -0.5014
 5436SOL    HW127767   2.021   2.478   6.180 -1.1913 -0.0820  2.2737
 5436SOL    HW227768   1.901   2.426   6.242  2.8740 -1.6841  1.9728
 5437SOL     OW27769   2.464   2.423   5.396 -0.2868  0.2239  0.0702
 5437SOL    HW127770   2.376   2.456   5.374  0.1612  1.1986 -0.2708
 5437SOL    HW227771   2.514   2.493   5.354  2.1174 -0.8866  1.1296
 5438SOL     OW27772   2.797   0.773   8.593 -0.2151  0.5670  0.1262
 5438SOL    HW127773   2.735   0.706   8.565  0.8663  0.1420 -1.1989
 5438SOL    HW227774   2.884   0.736   8.584  0.3796  2.3649 -1.5207
 5439SOL     OW27775   0.195   1.526   4.914 -0.8001  0.1341 -0.1117
 5439SOL    HW127776   0.290   1.523   4.910 -0.7090  2.5982  0.5113
 5439SOL    HW227777   0.188   1.477   4.995 -0.3115  0.6410  0.2303
 5440SOL     OW27778   3.400   3.315  14.147  0.2115  0.1579 -0.2090
 5440SOL    HW127779   3.334   3.271  14.094 -0.3132 -0.9123  1.3115
 5440SOL    HW227780   3.353   3.308  14.230 -0.2045 -2.1369 -0.6344
 5441SOL     OW27781   4.122   1.642   6.626  0.4395  0.1055 -0.3001
 5441SOL    HW127782   4.197   1.611   6.576  0.1670  0.3332 -0.8540
 5441SOL    HW227783   4.048   1.602   6.581  0.7258 -0.4651 -0.2572
 5442SOL     OW27784   1.147   1.538  11.039  0.0735 -0.4278  0.1684
 5442SOL    HW127785   1.225   1.578  11.001  1.7415 -2.4755  1.4190
 5442SOL    HW227786   1.177   1.447  11.048  0.7497 -0.5266 -3.1391
 5443SOL     OW27787   1.285   0.207  17.091 -0.3677 -0.5596  0.4421
 5443SOL    HW127788   1.284   0.274  17.023  0.5794 -0.1253  0.8576
 5443SOL    HW227789   1.241   0.243  17.169  0.5550  0.9492  0.2745
 5444SOL     OW27790   1.327   0.175   5.754 -0.0879  0.4453 -0.1185
 5444SOL    HW127791   1.397   0.160   5.818  0.0373 -0.4023 -0.4565
 5444SOL    HW227792   1.361   0.107   5.695  1.7386  1.7385 -0.5718
 5445SOL     OW27793   0.520   3.052   2.672 -0.3172  0.0528 -0.3952
 5445SOL    HW127794   0.486   3.111   2.604  1.2149  1.1575 -0.2005
 5445SOL    HW227795   0.515   2.964   2.635 -1.0164 -0.1339  0.1438
 5446SOL     OW27796   3.312   0.030   4.543 -0.1096  0.4968 -0.1946
 5446SOL    HW127797   3.319   0.121   4.515  2.1076  1.4352  3.5676
 5446SOL    HW227798   3.225   0.027   4.582 -0.0777  0.1274 -0.1527
 5447SOL     OW27799   0.300   2.550   8.959  0.2566  0.3593 -0.1601
 5447SOL    HW127800   0.253   2.467   8.964 -0.8992  0.9994 -0.4388
 5447SOL    HW227801   0.263   2.591   9.038  0.5991  1.2553 -0.4663
 5448SOL     OW27802   2.616   4.241   3.024 -0.8093  0.2783 -0.2426
 5448SOL    HW127803   2.529   4.261   3.059  0.3872 -0.9340  3.3882
 5448SOL    HW227804   2.648   4.176   3.086  1.1671  0.6487 -0.8833
 5449SOL     OW27805   4.131   4.434   5.486  0.5241  0.2140 -0.3155
 5449SOL    HW127806   4.038   4.439   5.465  0.4906  2.1444  0.2448
 5449SOL    HW227807   4.121   4.475   5.572 -2.3006  0.5098 -0.7825
 5450SOL     OW27808   2.899   0.976   8.745 -0.7288  0.4600 -0.4161
 5450SOL    HW127809   2.832   1.042   8.761 -3.0204 -1.6492 -1.2415
 5450SOL    HW227810   2.844   0.903   8.715  0.5847 -1.4300  1.8268
 5451SOL     OW27811   0.278   1.399   2.402  0.0492 -0.3907  0.3850
 5451SOL    HW127812   0.337   1.325   2.387 -1.5620 -1.1225 -2.4696
 5451SOL    HW227813   0.233   1.398   2.317 -1.1242  3.2317  0.9567
 5452SOL     OW27814   2.474   1.229   5.984 -0.5948 -0.0998 -0.1846
 5452SOL    HW127815   2.507   1.317   6.001 -0.4510 -0.2094  0.0875
 5452SOL    HW227816   2.401   1.251   5.925 -0.1348 -0.2215 -0.7997
 5453SOL     OW27817   3.225   1.280   1.693  0.4367  0.3103 -0.7640
 5453SOL    HW127818   3.276   1.354   1.660  1.6811 -0.6291 -0.9472
 5453SOL    HW227819   3.275   1.251   1.770 -1.2082  0.6771  0.4349
 5454SOL     OW27820   1.059   2.748   5.802 -0.1985 -0.3841  0.5283
 5454SOL    HW127821   1.073   2.839   5.831  1.6146 -1.3958  2.7671
 5454SOL    HW227822   0.995   2.713   5.863  0.5373 -1.1104  0.8715
 5455SOL     OW27823   1.894   3.010   5.333  0.1774 -0.0073 -0.0931
 5455SOL    HW127824   1.888   3.019   5.238 -0.2645  0.9287  0.0186
 5455SOL    HW227825   1.953   2.935   5.336  0.3328  0.1073 -0.2962
 5456SOL     OW27826   3.683   3.889   0.920  0.1502  0.0424  0.3001
 5456SOL    HW127827   3.601   3.937   0.932 -1.0399 -1.5392 -1.5926
 5456SOL    HW227828   3.681   3.834   0.999  0.2664 -0.7682 -0.2644
 5457SOL     OW27829   0.509   2.009  10.207  0.3636 -0.0368 -0.4549
 5457SOL    HW127830   0.516   1.976  10.117  1.5536 -1.7622  0.2640
 5457SOL    HW227831   0.440   1.957  10.247  0.0173  1.0528  0.3637
 5458SOL     OW27832   0.762   0.044  16.925  0.2431 -0.2831 -0.3163
 5458SOL    HW127833   0.855   0.038  16.905  0.0992  0.3292 -1.1814
 5458SOL    HW227834   0.742   4.676  16.904 -1.2993  0.4892 -2.1531
 5459SOL     OW27835   4.357   3.540   3.572 -0.6260 -0.0680 -0.7633
 5459SOL    HW127836   4.358   3.634   3.592 -1.3307 -0.2996  0.3906
 5459SOL    HW227837   4.365   3.506   3.661 -0.4730  0.1098 -0.7085
 5460SOL     OW27838   2.097   4.317   5.328 -0.4560  0.1875  0.4972
 5460SOL    HW127839   2.068   4.382   5.392 -1.9648 -1.2114  1.2419
 5460SOL    HW227840   2.095   4.362   5.243  1.7521  0.2587  0.4822
 5461SOL     OW27841   0.641   1.934  16.025  0.0816 -0.1551  0.2521
 5461SOL    HW127842   0.551   1.939  15.993  0.2713 -1.0371 -0.4287
 5461SOL    HW227843   0.674   1.870  15.962  1.1462 -2.3216  3.0405
 5462SOL     OW27844   1.854   4.682   6.048  0.0841  0.1705 -0.8957
 5462SOL    HW127845   1.922   0.027   6.055 -0.3526  0.4763  0.4341
 5462SOL    HW227846   1.899   4.621   5.990  0.8252  0.6291 -0.8098
 5463SOL     OW27847   2.211   2.716   3.679  0.0810  0.6624 -0.1732
 5463SOL    HW127848   2.266   2.745   3.606 -2.5426  0.7824 -2.1304
 5463SOL    HW227849   2.225   2.780   3.748 -3.0136  0.6543  0.4838
 5464SOL     OW27850   1.820   1.477   3.430  0.2099 -0.0480 -0.0841
 5464SOL    HW127851   1.789   1.514   3.347 -2.0693 -3.1528 -0.5972
 5464SOL    HW227852   1.809   1.385   3.406  1.2313 -0.2796  0.3452
 5465SOL     OW27853   3.165   3.163   0.727  0.7802  0.0666  0.3305
 5465SOL    HW127854   3.189   3.182   0.636 -0.4131  0.8004  0.1791
 5465SOL    HW227855   3.080   3.206   0.738  1.1414  1.2409 -1.4777
 5466SOL     OW27856   0.132   4.024   4.441  0.2949 -0.1592  0.4753
 5466SOL    HW127857   0.179   3.949   4.405  0.1855 -0.7664  1.5991
 5466SOL    HW227858   0.204   4.070   4.484  1.4865 -0.0274 -1.6731
 5467SOL     OW27859   4.581   3.070   5.398  0.7992 -0.0122  0.5184
 5467SOL    HW127860   4.562   3.031   5.483  0.4703 -1.1963 -0.0935
 5467SOL    HW227861   4.525   3.018   5.340  1.8035 -0.5197  0.0122
 5468SOL     OW27862   4.720   2.870   7.749  0.3584 -0.7228  0.0609
 5468SOL    HW127863   4.686   2.804   7.809 -0.7051  0.8396  1.1753
 5468SOL    HW227864   0.064   2.821   7.701  0.3419 -0.2387 -0.4622
 5469SOL     OW27865   1.824   1.206   3.335 -0.2748 -0.0790 -0.0552
 5469SOL    HW127866   1.891   1.152   3.293 -0.4338  0.0197 -0.4376
 5469SOL    HW227867   1.750   1.213   3.274  0.0886 -0.5841 -0.5524
 5470SOL     OW27868   4.437   4.423  10.469 -0.0173 -0.6107  0.0316
 5470SOL    HW127869   4.505   4.373  10.515  0.9901  0.1916 -0.5780
 5470SOL    HW227870   4.378   4.443  10.542 -0.7982 -2.8557  0.0261
 5471SOL     OW27871   2.797   3.520   7.820  0.1887 -0.2471  0.4300
 5471SOL    HW127872   2.708   3.525   7.785 -0.1603 -1.0104  1.2144
 5471SOL    HW227873   2.799   3.612   7.849  1.2469 -0.2306  0.2938
 5472SOL     OW27874   3.783   4.494   3.188  0.3756 -0.1403 -0.2352
 5472SOL    HW127875   3.701   4.446   3.197  0.5292 -0.4179 -0.3038
 5472SOL    HW227876   3.827   4.462   3.110  1.5548  1.3562 -0.1890
 5473SOL     OW27877   3.004   0.512   4.263  0.4783 -0.5355 -0.0664
 5473SOL    HW127878   2.992   0.419   4.281 -2.6412 -0.3412 -1.1409
 5473SOL    HW227879   2.978   0.513   4.171  1.1132 -1.0673 -0.2550
 5474SOL     OW27880   2.841   2.416   2.963 -0.3752 -0.0082 -0.1957
 5474SOL    HW127881   2.822   2.342   3.020  0.8619 -0.4795 -0.3889
 5474SOL    HW227882   2.937   2.406   2.963 -0.2238  1.6174  1.7042
 5475SOL     OW27883   2.723   2.546  12.334  0.0736 -0.1697 -0.2678
 5475SOL    HW127884   2.814   2.521  12.315 -0.3774 -0.3026 -2.2708
 5475SOL    HW227885   2.711   2.604  12.259  0.0615 -0.0384 -0.1644
 5476SOL     OW27886   1.317   1.100   9.466  0.2159 -1.1088 -0.8952
 5476SOL    HW127887   1.385   1.055   9.417  1.2871  0.1344 -0.5275
 5476SOL    HW227888   1.247   1.041   9.436 -0.9526  1.6019 -3.5534
 5477SOL     OW27889   1.207   1.731   8.797 -0.6455  0.3664 -0.3758
 5477SOL    HW127890   1.303   1.731   8.795 -0.6951 -0.4125 -2.2015
 5477SOL    HW227891   1.186   1.815   8.758 -0.1254  0.2425 -0.9204
 5478SOL     OW27892   2.985   1.550   2.994  0.0766  0.4219 -0.4255
 5478SOL    HW127893   3.022   1.488   3.057  0.2800  1.5350  0.5509
 5478SOL    HW227894   2.935   1.607   3.052  0.1416  1.3841 -1.3195
 5479SOL     OW27895   2.160   0.934   4.918 -0.3091 -0.0075 -0.4557
 5479SOL    HW127896   2.202   0.923   4.832  0.2195 -1.2184 -0.0300
 5479SOL    HW227897   2.066   0.919   4.920 -0.4773  0.9071 -1.1873
 5480SOL     OW27898   2.793   0.250   4.152  0.1133 -0.4929  0.7435
 5480SOL    HW127899   2.700   0.273   4.155  0.1428 -0.5004  1.5617
 5480SOL    HW227900   2.823   0.304   4.079 -1.9703  2.3602  1.9650
 5481SOL     OW27901   2.267   0.589  17.629  0.0040  0.8179 -0.1829
 5481SOL    HW127902   2.333   0.633  17.682  0.5756 -0.1254 -0.1148
 5481SOL    HW227903   2.247   0.507  17.673  0.5277  0.8028  0.0188
 5482SOL     OW27904   0.412   0.696   4.946 -0.0346  0.3588 -0.2956
 5482SOL    HW127905   0.454   0.611   4.957 -1.0345  0.2049  2.2503
 5482SOL    HW227906   0.461   0.726   4.870 -0.9866 -1.0444 -1.4705
 5483SOL     OW27907   0.943   2.169   9.902 -0.2028  0.2570  0.2364
 5483SOL    HW127908   0.929   2.078   9.929  0.4686 -0.7157 -2.6592
 5483SOL    HW227909   0.851   2.193   9.889 -0.5817  0.4502  3.3328
 5484SOL     OW27910   4.447   2.565   7.139 -0.4196  0.3963  0.1923
 5484SOL    HW127911   4.433   2.471   7.126  0.4187  0.1799  0.7673
 5484SOL    HW227912   4.467   2.589   7.049  4.0263 -0.6845  0.8880
 5485SOL     OW27913   0.180   3.301   1.803 -0.2066  0.6992  0.5429
 5485SOL    HW127914   0.248   3.366   1.821 -1.0186  1.9545 -0.9528
 5485SOL    HW227915   0.215   3.229   1.856 -1.2213 -0.4407 -0.3272
 5486SOL     OW27916   4.526   3.868  11.568 -0.5353 -0.5097 -0.5263
 5486SOL    HW127917   4.558   3.910  11.648  3.0091  0.5893 -2.5443
 5486SOL    HW227918   4.593   3.801  11.559  1.6456  1.6591 -0.5062
 5487SOL     OW27919   2.495   2.483   6.845  0.1086  0.1398  0.2082
 5487SOL    HW127920   2.589   2.468   6.854  0.3190  1.1675 -0.2994
 5487SOL    HW227921   2.480   2.512   6.935  0.2545 -1.8791  0.8898
 5488SOL     OW27922   4.495   1.065   4.058  0.1676  0.2622 -0.0701
 5488SOL    HW127923   4.519   1.155   4.037  1.5940 -0.1488 -0.2005
 5488SOL    HW227924   4.515   1.051   4.151  1.0203  1.3491 -0.0830
 5489SOL     OW27925   4.651   4.553   3.298  0.4779 -0.4554  0.4907
 5489SOL    HW127926   4.676   4.510   3.379  0.7373 -0.5927  0.3382
 5489SOL    HW227927   4.692   4.640   3.302 -0.0217 -0.1259 -1.1763
 5490SOL     OW27928   2.496   1.260   6.975 -0.4233 -0.4356  0.2468
 5490SOL    HW127929   2.428   1.207   6.933 -1.0741 -0.0007  0.7726
 5490SOL    HW227930   2.473   1.336   6.922 -0.9741 -0.7005  0.1058
 5491SOL     OW27931   0.636   2.897  12.484 -0.3733  0.4937 -0.3481
 5491SOL    HW127932   0.702   2.829  12.503 -2.2316 -1.3647 -0.5461
 5491SOL    HW227933   0.562   2.837  12.486 -1.6411  2.1062  1.8015
 5492SOL     OW27934   4.484   2.390   9.061  0.3177 -0.4367 -0.2062
 5492SOL    HW127935   4.529   2.352   8.986 -1.8414  0.8366 -2.1160
 5492SOL    HW227936   4.394   2.375   9.032  0.5163 -0.4327 -0.8199
 5493SOL     OW27937   0.748   2.044   7.195  0.1324  0.0745  0.1713
 5493SOL    HW127938   0.689   1.972   7.176 -0.6534  1.1939 -1.6602
 5493SOL    HW227939   0.711   2.089   7.271 -1.8441  1.3645 -1.5505
 5494SOL     OW27940   0.941   3.358   3.724 -0.4983 -0.1106 -0.4901
 5494SOL    HW127941   0.895   3.274   3.719 -0.1640 -0.2116 -1.9140
 5494SOL    HW227942   0.875   3.421   3.696 -0.3419  0.9095  1.4948
 5495SOL     OW27943   0.114   3.972   9.736 -0.1573 -0.8275  0.6181
 5495SOL    HW127944   0.200   3.961   9.778  2.0445  1.9484 -3.2124
 5495SOL    HW227945   0.107   4.067   9.726 -1.5807 -0.7887  1.9740
 5496SOL     OW27946   3.970   4.649   6.817 -0.3103  0.3889  0.0079
 5496SOL    HW127947   4.058   4.643   6.855 -0.2288  2.4042  0.1737
 5496SOL    HW227948   3.929   4.686   6.895 -1.0573 -0.4605  0.0029
 5497SOL     OW27949   2.208   2.472  16.613  0.6314 -0.1725  0.4852
 5497SOL    HW127950   2.248   2.546  16.657  2.1241 -1.2286  0.8927
 5497SOL    HW227951   2.146   2.527  16.564  0.6601  0.8899  1.6435
 5498SOL     OW27952   2.264   4.500   2.295 -0.1043  0.6149 -0.1486
 5498SOL    HW127953   2.215   4.582   2.287  1.0515  1.5907  2.4852
 5498SOL    HW227954   2.278   4.470   2.206 -2.8541 -0.0456 -0.3468
 5499SOL     OW27955   1.317   3.540   8.552  0.3754  0.0147  0.1460
 5499SOL    HW127956   1.261   3.539   8.630  0.5073 -0.4071  0.2351
 5499SOL    HW227957   1.301   3.630   8.521  0.4002 -0.0444 -0.0420
 5500SOL     OW27958   2.964   3.893  11.752  0.5090 -0.1112  0.5223
 5500SOL    HW127959   3.025   3.933  11.814  0.1209  1.5554 -0.1686
 5500SOL    HW227960   3.021   3.827  11.712 -0.1275 -0.2082 -0.2134
 5501SOL     OW27961   2.288   2.300   1.237  0.6911 -0.0648 -0.1440
 5501SOL    HW127962   2.285   2.323   1.144  1.2078  3.6381  0.7636
 5501SOL    HW227963   2.364   2.349   1.265 -0.7639  0.6745  2.4823
 5502SOL     OW27964   0.289   2.765   4.384 -0.0604 -0.8405  0.0055
 5502SOL    HW127965   0.313   2.674   4.404 -0.5103 -0.7450  0.9833
 5502SOL    HW227966   0.247   2.798   4.463  0.2879 -0.5468  0.0663
 5503SOL     OW27967   3.442   1.998   3.831  0.3735 -0.1322  0.0808
 5503SOL    HW127968   3.461   2.065   3.766 -0.7309 -1.0077 -1.1527
 5503SOL    HW227969   3.445   2.051   3.911  1.5745  0.9535 -0.6773
 5504SOL     OW27970   0.337   0.357   6.045  0.1640 -0.3529  0.2470
 5504SOL    HW127971   0.426   0.388   6.066 -0.0374 -1.2104  2.3922
 5504SOL    HW227972   0.288   0.438   6.032  1.4990 -0.3240 -4.4362
 5505SOL     OW27973   3.066   2.073   3.579  0.0018 -0.0288  0.5371
 5505SOL    HW127974   2.977   2.052   3.552 -1.0743  3.9353  1.0104
 5505SOL    HW227975   3.113   1.991   3.591  1.1806  0.5668  0.0443
 5506SOL     OW27976   4.213   1.294  11.535  0.1499 -0.4846 -0.4303
 5506SOL    HW127977   4.302   1.329  11.547  1.7294 -4.1820 -1.0984
 5506SOL    HW227978   4.222   1.199  11.541  1.0931 -0.2833  1.5033
 5507SOL     OW27979   3.281   3.880  11.886 -0.0749  0.5755 -0.2358
 5507SOL    HW127980   3.226   3.837  11.952 -3.2620  1.3493 -2.3552
 5507SOL    HW227981   3.360   3.901  11.935  0.2675  1.0245 -0.9762
 5508SOL     OW27982   0.549   1.349   3.910  0.3037 -0.0519  0.1946
 5508SOL    HW127983   0.630   1.341   3.960 -0.6200 -0.4180  1.6370
 5508SOL    HW227984   0.568   1.431   3.865 -1.8039  0.2863 -0.1135
 5509SOL     OW27985   2.989   1.695   4.689 -0.7826 -0.0592  0.2812
 5509SOL    HW127986   3.078   1.659   4.690 -1.0943 -0.8339 -0.1964
 5509SOL    HW227987   3.028   1.782   4.703 -0.0740 -0.5186  1.1476
 5510SOL     OW27988   3.983   1.122   8.168  0.2603 -0.0005  0.9275
 5510SOL    HW127989   4.046   1.088   8.232  0.3968 -2.0224 -0.2836
 5510SOL    HW227990   3.932   1.045   8.144 -0.0337  0.1280  1.1542
 5511SOL     OW27991   0.907   0.888  11.712  0.3292  0.4816  0.4702
 5511SOL    HW127992   0.914   0.951  11.640 -1.7377 -0.5566 -0.6401
 5511SOL    HW227993   1.000   0.873  11.725  0.7390 -0.7107 -3.7684
 5512SOL     OW27994   0.807   3.206   3.913  0.8012 -0.1124  0.2525
 5512SOL    HW127995   0.829   3.294   3.945  1.0259  0.3900 -1.2700
 5512SOL    HW227996   0.716   3.214   3.882  0.7433  0.3411  0.5269
 5513SOL     OW27997   3.527   2.682   4.243  0.3039 -0.1869  0.1383
 5513SOL    HW127998   3.519   2.632   4.324 -2.1698 -0.4412 -0.2430
 5513SOL    HW227999   3.597   2.630   4.202  1.0075  1.3281 -0.5615
 5514SOL     OW28000   2.496   1.180   4.804 -0.2464  0.3784  0.2451
 5514SOL    HW128001   2.589   1.188   4.826 -0.7333  1.3626  1.9023
 5514SOL    HW228002   2.509   1.149   4.714 -1.5721  3.0663 -0.8350
 5515SOL     OW28003   4.604   3.012   8.605 -0.4568  0.2654 -0.3353
 5515SOL    HW128004   4.627   3.084   8.546 -0.2382 -2.0850 -3.1106
 5515SOL    HW228005   4.519   3.038   8.640 -0.3771  1.2786 -0.8798
 5516SOL     OW28006   3.161   3.764   2.767  0.3547  0.3743  1.2173
 5516SOL    HW128007   3.221   3.823   2.814  0.8046  1.6634 -0.9708
 5516SOL    HW228008   3.080   3.810   2.791 -0.5884  0.4841 -2.1788
 5517SOL     OW28009   2.645   0.917   1.504  0.4771  0.3741  0.5551
 5517SOL    HW128010   2.721   0.969   1.530  1.7254 -0.5825 -1.1760
 5517SOL    HW228011   2.664   0.833   1.546 -1.7763 -0.8323 -0.8436
 5518SOL     OW28012   1.279   0.864   3.407  0.4429  0.3564  0.2590
 5518SOL    HW128013   1.328   0.787   3.435 -0.5936 -1.2630 -2.3193
 5518SOL    HW228014   1.282   0.856   3.311 -1.6960  1.9297  0.0563
 5519SOL     OW28015   3.666   0.877   5.825  0.6205  0.1423 -0.7619
 5519SOL    HW128016   3.733   0.861   5.892 -0.0764  0.6735  0.0526
 5519SOL    HW228017   3.601   0.825   5.872 -1.6593  3.6098 -0.1149
 5520SOL     OW28018   2.612   0.548   8.507 -0.6098  0.1989  0.1172
 5520SOL    HW128019   2.662   0.555   8.426 -0.9576  0.9350 -0.0321
 5520SOL    HW228020   2.521   0.535   8.482 -0.8207 -3.6202  2.7652
 5521SOL     OW28021   3.785   3.248   2.476 -0.3050  0.2847  0.3362
 5521SOL    HW128022   3.737   3.166   2.475  0.6176 -0.2479 -0.0130
 5521SOL    HW228023   3.873   3.224   2.448 -1.0764 -1.5137 -0.4959
 5522SOL     OW28024   0.513   4.181   6.875  0.6346  0.2117  0.2056
 5522SOL    HW128025   0.559   4.231   6.808  2.7029 -1.1924  0.5813
 5522SOL    HW228026   0.505   4.090   6.845  1.0408  0.2535 -0.0285
 5523SOL     OW28027   2.377   3.654   5.499  0.0312 -0.2237  0.7536
 5523SOL    HW128028   2.318   3.604   5.557  2.2306 -1.2203  2.1222
 5523SOL    HW228029   2.357   3.613   5.415 -1.6935  2.7945 -0.2981
 5524SOL     OW28030   3.187   3.256   3.708  0.3739 -0.0870  0.2529
 5524SOL    HW128031   3.223   3.187   3.764  0.9397 -1.0965 -1.3307
 5524SOL    HW228032   3.267   3.300   3.679 -0.0546 -0.5926 -1.7268
 5525SOL     OW28033   1.204   3.627  10.525  0.1956 -1.4429  0.7539
 5525SOL    HW128034   1.282   3.671  10.493 -2.6619  0.4719 -3.5038
 5525SOL    HW228035   1.158   3.704  10.561  1.4703  0.2583 -1.2853
 5526SOL     OW28036   1.326   4.667   2.354  0.6247  0.7759  0.1134
 5526SOL    HW128037   1.234   4.647   2.372  1.3642 -0.9174  1.9345
 5526SOL    HW228038   1.341   4.615   2.275 -0.2554 -2.2696  1.9461
 5527SOL     OW28039   0.193   1.309   6.420  0.2919 -0.4161  0.3365
 5527SOL    HW128040   0.239   1.266   6.492  0.4997 -1.4052 -0.3895
 5527SOL    HW228041   0.258   1.380   6.417  0.1565 -0.2690  0.9167
 5528SOL     OW28042   0.340   3.346   7.389 -0.3081  0.0495 -0.3746
 5528SOL    HW128043   0.349   3.336   7.294  1.9048 -1.0541 -0.0371
 5528SOL    HW228044   0.270   3.409   7.406 -0.2610 -0.2905  1.0595
 5529SOL     OW28045   1.939   0.044   1.223 -0.5478 -0.1375  0.7111
 5529SOL    HW128046   1.882   0.049   1.300 -1.8270  0.3298 -0.2571
 5529SOL    HW228047   2.021   0.076   1.260 -1.2407 -0.2930  2.4146
 5530SOL     OW28048   2.718   2.732   4.747 -0.3270 -0.3404  0.5692
 5530SOL    HW128049   2.643   2.774   4.705  1.5063  0.4849 -1.9073
 5530SOL    HW228050   2.788   2.793   4.721 -1.1936 -0.0685 -1.1059
 5531SOL     OW28051   2.339   0.445  13.964 -0.2789 -0.3656 -0.1392
 5531SOL    HW128052   2.374   0.415  14.047  0.3666  0.7649 -0.0012
 5531SOL    HW228053   2.355   0.368  13.910 -3.3252 -0.4513 -0.9609
 5532SOL     OW28054   2.562   0.507   7.753  0.3563  0.1523 -0.2453
 5532SOL    HW128055   2.513   0.509   7.835  0.7581  0.2923 -0.0127
 5532SOL    HW228056   2.491   0.519   7.689 -2.6864 -1.4982  2.8111
 5533SOL     OW28057   3.696   3.594   8.431 -0.3427  0.0678 -0.3445
 5533SOL    HW128058   3.693   3.559   8.342 -0.1739  0.6969 -0.5979
 5533SOL    HW228059   3.710   3.689   8.423 -1.1908  0.1377 -0.8779
 5534SOL     OW28060   3.061   0.502  17.556  0.1445  0.1263  0.3958
 5534SOL    HW128061   2.986   0.545  17.514  0.3267  1.7510  1.7227
 5534SOL    HW228062   3.119   0.577  17.572 -0.3541  0.7033 -0.4393
 5535SOL     OW28063   3.479   1.460   3.762  0.0439  0.3292  0.1006
 5535SOL    HW128064   3.475   1.555   3.752  1.4283  0.2345 -1.4165
 5535SOL    HW228065   3.432   1.428   3.685  0.9744  1.9647 -1.1337
 5536SOL     OW28066   0.007   0.125   8.229 -0.1230  0.1834 -0.0486
 5536SOL    HW128067   0.028   0.201   8.175  4.2987 -1.7844 -1.0618
 5536SOL    HW228068   4.637   0.143   8.246 -0.4297 -2.5183  1.2410
 5537SOL     OW28069   1.211   3.867   1.843  0.1055 -0.0716  0.2118
 5537SOL    HW128070   1.222   3.905   1.756 -0.1669 -1.0703 -0.2565
 5537SOL    HW228071   1.117   3.871   1.858 -0.0910 -1.1089 -0.7927
 5538SOL     OW28072   0.893   1.388   8.308 -0.1863  0.2463 -0.3806
 5538SOL    HW128073   0.853   1.472   8.287 -2.3866 -1.1234 -1.7451
 5538SOL    HW228074   0.842   1.329   8.253  0.9356  0.3454 -1.5352
 5539SOL     OW28075   4.159   4.305   7.572  0.2357 -0.1347 -0.1411
 5539SOL    HW128076   4.154   4.221   7.617 -1.9918 -1.3267 -2.5924
 5539SOL    HW228077   4.103   4.360   7.627 -0.5389 -1.0083 -0.0612
 5540SOL     OW28078   1.432   2.346   5.429  0.1990  0.1602  0.3314
 5540SOL    HW128079   1.433   2.255   5.461  2.1175 -0.4402 -1.4525
 5540SOL    HW228080   1.385   2.332   5.347 -0.8057  3.3683  0.3389
 5541SOL     OW28081   0.884   2.418   4.620  1.1892 -0.1228  0.7556
 5541SOL    HW128082   0.867   2.356   4.691  2.0254  0.2930  1.3094
 5541SOL    HW228083   0.831   2.369   4.557  2.8057 -0.9432  0.0590
 5542SOL     OW28084   0.483   3.198   5.950 -0.3260  0.5401  0.4770
 5542SOL    HW128085   0.404   3.251   5.945 -1.3903 -1.1845 -0.9392
 5542SOL    HW228086   0.509   3.181   5.859 -0.3039  1.3819  0.3277
 5543SOL     OW28087   4.425   1.952   6.312 -0.3252 -0.3800 -0.3156
 5543SOL    HW128088   4.422   2.029   6.256 -1.0665  0.7769  1.3304
 5543SOL    HW228089   4.383   1.883   6.261 -0.7203  0.4743 -1.1404
 5544SOL     OW28090   2.703   0.960   7.326 -0.0344 -0.2097  0.8499
 5544SOL    HW128091   2.697   1.039   7.381 -1.7842 -0.1294  0.5482
 5544SOL    HW228092   2.613   0.927   7.331 -0.7612  1.7601  0.7688
 5545SOL     OW28093   3.690   2.651   2.990  0.1320 -0.3174  0.5269
 5545SOL    HW128094   3.720   2.653   3.081  0.8710 -0.9186  0.2973
 5545SOL    HW228095   3.766   2.604   2.955  1.1205  2.1907 -0.6929
 5546SOL     OW28096   0.287   4.029   3.549 -0.1919  0.7537 -0.2399
 5546SOL    HW128097   0.337   3.954   3.581  1.4727  2.7069  1.6950
 5546SOL    HW228098   0.194   4.008   3.551  0.1307 -0.8824 -2.1111
 5547SOL     OW28099   0.651   0.560  13.564  0.0055 -0.1794  0.0289
 5547SOL    HW128100   0.673   0.561  13.657 -0.0972  0.2966  0.0465
 5547SOL    HW228101   0.668   0.472  13.529  1.1685  1.0002 -2.3487
 5548SOL     OW28102   0.724   0.039   3.019  1.0607 -0.0113  0.0645
 5548SOL    HW128103   0.732   0.095   3.096 -3.4324 -0.7047  1.0394
 5548SOL    HW228104   0.788   4.691   3.031 -0.0065 -0.9251  0.3933
 5549SOL     OW28105   4.624   1.542   6.782 -0.2588  0.1224 -0.1598
 5549SOL    HW128106   4.647   1.457   6.745  1.8107  0.0898  1.1796
 5549SOL    HW228107   4.711   1.563   6.817  0.1021  1.1574 -1.7098
 5550SOL     OW28108   1.685   2.568   9.836 -0.0089 -0.0676  0.4910
 5550SOL    HW128109   1.699   2.481   9.797  0.7836 -0.2749  1.2359
 5550SOL    HW228110   1.772   2.594   9.865  0.5185  0.3522 -1.4702
 5551SOL     OW28111   2.941   1.917   6.874 -0.2761  0.6268  0.1335
 5551SOL    HW128112   2.983   1.884   6.953  0.4414  0.3721 -0.3526
 5551SOL    HW228113   2.850   1.900   6.899 -0.5884  1.2325 -0.5607
 5552SOL     OW28114   2.111   3.326   0.215  0.0686 -0.4298  0.2794
 5552SOL    HW128115   2.165   3.249   0.232  1.0283  0.9202  3.3143
 5552SOL    HW228116   2.147   3.389   0.278 -1.1085 -0.7635  1.2832
 5553SOL     OW28117   1.578   0.697  15.382  0.3310  0.2498 -0.2267
 5553SOL    HW128118   1.656   0.642  15.368  0.5751  0.5042  0.1273
 5553SOL    HW228119   1.596   0.779  15.335  1.0273  1.7927  2.7017
 5554SOL     OW28120   2.903   2.477   6.137 -0.3316 -0.0005 -0.3215
 5554SOL    HW128121   2.951   2.534   6.077  0.7991 -1.6297 -0.9573
 5554SOL    HW228122   2.876   2.406   6.078  1.2336  0.3481 -1.4290
 5555SOL     OW28123   2.994   0.031   4.047 -0.0742  0.2163 -0.0019
 5555SOL    HW128124   2.990   4.687   3.978  0.4619  1.2928 -1.0831
 5555SOL    HW228125   2.910   0.073   4.030  0.5606  2.1376  1.6096
 5556SOL     OW28126   1.002   3.113  10.613  0.3394 -0.0671 -0.3545
 5556SOL    HW128127   0.954   3.178  10.663 -1.3865 -2.0317  0.5250
 5556SOL    HW228128   1.067   3.164  10.564 -0.8078  2.2277  0.5225
 5557SOL     OW28129   4.384   3.719   0.913  0.2298  0.5874 -0.2524
 5557SOL    HW128130   4.418   3.629   0.913  0.5574  0.7088 -2.3663
 5557SOL    HW228131   4.467   3.764   0.929  0.7180 -0.3178 -0.2408
 5558SOL     OW28132   3.259   4.045   6.074  0.2898  0.2038 -0.0202
 5558SOL    HW128133   3.284   4.106   6.144 -0.5244 -0.3959  0.7970
 5558SOL    HW228134   3.216   3.981   6.130 -1.2415 -0.1823 -1.6307
 5559SOL     OW28135   1.191   2.950  14.809 -0.2226 -0.7245 -0.6805
 5559SOL    HW128136   1.280   2.918  14.799  0.3323  0.6330  0.0317
 5559SOL    HW228137   1.202   3.013  14.879 -1.1238 -1.8435  0.4621
 5560SOL     OW28138   2.527   0.195   6.864  0.6217  0.2200 -0.3205
 5560SOL    HW128139   2.569   0.141   6.798  0.2757  0.9335 -1.1314
 5560SOL    HW228140   2.580   0.196   6.944  0.1217 -1.4409  0.0342
 5561SOL     OW28141   3.432   0.171   4.007  0.0427  0.1848 -0.1570
 5561SOL    HW128142   3.502   0.108   3.990 -0.6211 -1.3124  2.6132
 5561SOL    HW228143   3.482   0.239   4.053 -0.3224  0.4536 -0.1570
 5562SOL     OW28144   2.341   3.861   0.871 -0.2156  0.0765 -0.4793
 5562SOL    HW128145   2.335   3.777   0.916 -0.0244  0.2361 -0.1566
 5562SOL    HW228146   2.389   3.843   0.790  1.0832 -0.1311  0.3326
 5563SOL     OW28147   0.279   2.717  12.341  0.1952  0.1993 -0.1265
 5563SOL    HW128148   0.342   2.714  12.413 -2.7340 -3.3088  2.3393
 5563SOL    HW228149   0.267   2.624  12.320 -0.5495 -0.0890  1.5694
 5564SOL     OW28150   0.422   2.526  17.285  0.0749 -0.4169  0.4471
 5564SOL    HW128151   0.503   2.483  17.257  0.8583  1.1860  0.2462
 5564SOL    HW228152   0.377   2.524  17.200  1.1108 -1.8698 -0.0733
 5565SOL     OW28153   4.500   4.259   2.825  0.2000  0.3283 -0.7766
 5565SOL    HW128154   4.415   4.217   2.809 -0.9135  2.2565  0.1225
 5565SOL    HW228155   4.505   4.296   2.737 -0.4413  1.4925 -0.3154
 5566SOL     OW28156   4.646   0.510   1.295 -0.2147  0.5475 -0.1030
 5566SOL    HW128157   4.703   0.547   1.227  0.9703 -1.7795 -0.3944
 5566SOL    HW228158   4.698   0.440   1.335 -0.1895  0.9064  0.5018
 5567SOL     OW28159   0.886   3.563   7.768  0.5660  0.0677  0.0286
 5567SOL    HW128160   0.856   3.604   7.687 -0.4767 -0.9246 -0.0808
 5567SOL    HW228161   0.907   3.477   7.732 -0.6413  0.0591 -0.6439
 5568SOL     OW28162   3.661   0.557  13.709  0.2797  0.2886 -0.0841
 5568SOL    HW128163   3.663   0.639  13.758 -0.9039  0.3830 -0.1848
 5568SOL    HW228164   3.688   0.490  13.772 -0.8345  0.8435  0.9990
 5569SOL     OW28165   2.108   2.183   2.744  0.5991 -0.1988 -0.5683
 5569SOL    HW128166   2.137   2.228   2.664  2.6761 -0.8892 -0.2098
 5569SOL    HW228167   2.065   2.102   2.717  1.0247 -1.1990  1.7760
 5570SOL     OW28168   3.668   1.990  15.612  0.3720 -0.3583  0.5153
 5570SOL    HW128169   3.705   1.906  15.585 -0.6274 -1.3132  2.0960
 5570SOL    HW228170   3.739   2.016  15.671 -1.0424  0.9327  1.6606
 5571SOL     OW28171   3.560   2.091   8.318 -0.0311 -0.1010  0.5053
 5571SOL    HW128172   3.653   2.071   8.317  0.2659  1.2887 -1.6521
 5571SOL    HW228173   3.544   2.050   8.403  2.0198 -1.1744  0.3791
 5572SOL     OW28174   1.355   4.444  16.012 -0.0748  0.2568  0.2749
 5572SOL    HW128175   1.363   4.501  15.936  2.4966 -2.1726 -1.2883
 5572SOL    HW228176   1.288   4.495  16.058  1.1106 -1.3234  3.7905
 5573SOL     OW28177   3.462   4.710   9.290  0.2370  0.1450  0.4076
 5573SOL    HW128178   3.512   4.699   9.210  0.7824  0.5747  0.6868
 5573SOL    HW228179   3.504   4.660   9.360  1.5043  0.2068 -0.3013
 5574SOL     OW28180   4.297   0.398   6.368  0.2620 -0.6107 -0.1836
 5574SOL    HW128181   4.226   0.425   6.426  1.7028  0.0525  1.2862
 5574SOL    HW228182   4.242   0.342   6.314 -0.2196  0.4391 -0.7780
 5575SOL     OW28183   1.926   3.038   7.252  0.4109  0.1674  0.8222
 5575SOL    HW128184   1.999   3.098   7.238 -1.0669  2.0118  1.1691
 5575SOL    HW228185   1.853   3.081   7.208 -0.2316 -1.1573  0.5725
 5576SOL     OW28186   3.841   4.553   7.331 -0.3476  0.2683  0.1151
 5576SOL    HW128187   3.781   4.563   7.258  0.0989 -1.3554 -0.4755
 5576SOL    HW228188   3.908   4.498   7.291 -1.5030  0.2243 -1.7371
 5577SOL     OW28189   3.076   4.470   8.748 -0.5273  0.1820 -0.3816
 5577SOL    HW128190   3.034   4.551   8.721 -1.1418 -0.2280 -0.6783
 5577SOL    HW228191   3.157   4.473   8.698 -0.7112 -0.2159 -0.7151
 5578SOL     OW28192   3.711   0.279  17.147  0.6446  0.0119 -0.2788
 5578SOL    HW128193   3.653   0.343  17.188  1.2517 -0.5819  1.4959
 5578SOL    HW228194   3.777   0.266  17.214  0.2751 -0.7817 -0.0661
 5579SOL     OW28195   1.087   1.156   9.180 -0.0257  0.5783 -0.1450
 5579SOL    HW128196   1.023   1.090   9.155 -2.2114  2.4671  0.5115
 5579SOL    HW228197   1.157   1.135   9.118 -0.7633 -0.8889 -0.4723
 5580SOL     OW28198   3.715   1.726   8.637  0.4089 -0.4892  0.0537
 5580SOL    HW128199   3.675   1.682   8.561 -1.5860 -0.4353  1.0645
 5580SOL    HW228200   3.796   1.741   8.588  0.7316 -0.2028  0.6816
 5581SOL     OW28201   1.388   1.578   1.920 -0.3492 -0.0719 -0.0457
 5581SOL    HW128202   1.419   1.490   1.896 -0.7900 -0.4341  0.7028
 5581SOL    HW228203   1.297   1.565   1.893  0.3438 -1.0335 -1.9274
 5582SOL     OW28204   2.725   4.662   9.102 -0.0161  0.0195 -0.2845
 5582SOL    HW128205   2.651   4.611   9.137  0.2700  0.3076  0.7442
 5582SOL    HW228206   2.702   4.659   9.009  0.0438  0.7941 -0.3247
 5583SOL     OW28207   3.831   3.267  14.268 -1.0163  0.1883  0.9214
 5583SOL    HW128208   3.759   3.206  14.285 -1.7037  1.5715  2.9088
 5583SOL    HW228209   3.782   3.326  14.211  0.3494 -0.2534 -0.7286
 5584SOL     OW28210   0.757   0.137   0.047 -0.2285  0.4751 -0.4420
 5584SOL    HW128211   0.803   0.189   0.113 -2.8099  1.4343  0.5966
 5584SOL    HW228212   0.733   0.055   0.089  2.2698 -0.4743 -0.8961
 5585SOL     OW28213   3.010   2.654   4.209 -0.4525 -0.0601 -0.0341
 5585SOL    HW128214   3.066   2.639   4.133 -0.0321  1.3180  0.0080
 5585SOL    HW228215   2.951   2.722   4.176 -1.1859 -0.5070  0.3722
 5586SOL     OW28216   2.398   3.584   9.161 -0.5325 -0.1105 -0.1967
 5586SOL    HW128217   2.351   3.505   9.133 -0.5077 -0.8216  1.7371
 5586SOL    HW228218   2.430   3.552   9.246  0.4722  0.8445 -0.2238
 5587SOL     OW28219   0.821   1.351   1.147 -0.5005  0.5992  0.3706
 5587SOL    HW128220   0.902   1.332   1.099 -0.2440 -0.5952  1.2576
 5587SOL    HW228221   0.786   1.421   1.092  0.0145  0.1618 -0.5066
 5588SOL     OW28222   4.550   2.535   8.292 -0.2801 -0.4756  0.1534
 5588SOL    HW128223   4.499   2.483   8.354  1.4653 -1.0858  1.0848
 5588SOL    HW228224   4.511   2.622   8.304  3.0457  0.9024  1.0110
 5589SOL     OW28225   1.899   1.151   6.949  0.0465  0.0786 -0.4265
 5589SOL    HW128226   1.933   1.071   6.989  2.5066  1.3968  0.1179
 5589SOL    HW228227   1.903   1.207   7.026  2.4953 -2.3766  1.2331
 5590SOL     OW28228   2.603   3.458  17.609  0.2016 -0.4527  0.6212
 5590SOL    HW128229   2.640   3.385  17.560 -0.8125  0.0857 -0.9324
 5590SOL    HW228230   2.648   3.451   0.000 -3.2596  0.5768  2.5731
 5591SOL     OW28231   0.679   1.126   4.518 -0.6467 -0.1554  0.1011
 5591SOL    HW128232   0.698   1.218   4.499  0.3930 -0.5953 -0.9475
 5591SOL    HW228233   0.649   1.101   4.431 -0.8444  0.5950 -0.0471
 5592SOL     OW28234   4.073   1.319   3.602 -0.5396  0.1580 -0.5557
 5592SOL    HW128235   4.111   1.267   3.673 -0.3063 -1.1392 -1.6505
 5592SOL    HW228236   4.141   1.386   3.594 -0.6337  0.2712 -0.3977
 5593SOL     OW28237   2.191   1.305   1.666 -0.6068  0.1318 -0.0455
 5593SOL    HW128238   2.273   1.296   1.618 -0.3801 -0.8840  0.5554
 5593SOL    HW228239   2.214   1.382   1.719  0.0973 -0.0919 -0.0355
 5594SOL     OW28240   4.228   0.950  17.592  0.0506  0.1946 -0.0252
 5594SOL    HW128241   4.134   0.939  17.585 -0.3649  2.5696  1.7907
 5594SOL    HW228242   4.245   0.977  17.502 -0.3882 -0.9998 -0.4575
 5595SOL     OW28243   3.694   4.392  13.882  0.0131 -0.0436  0.5072
 5595SOL    HW128244   3.699   4.297  13.872  0.6393  0.1680 -1.2812
 5595SOL    HW228245   3.678   4.405  13.975  0.1872  0.3735  0.4817
 5596SOL     OW28246   0.051   2.418   1.447 -0.3243 -0.4303 -0.1475
 5596SOL    HW128247   4.714   2.364   1.500  0.8146 -0.4343  1.1325
 5596SOL    HW228248   4.718   2.425   1.370 -0.7662 -0.8088  0.1314
 5597SOL     OW28249   1.819   1.463   1.867  0.7892 -0.4799 -0.5296
 5597SOL    HW128250   1.778   1.539   1.907  2.5401  1.3488 -2.2102
 5597SOL    HW228251   1.745   1.402   1.861  0.9888 -0.5895 -1.9410
 5598SOL     OW28252   1.936   3.579   6.230 -0.4125 -0.0820 -0.0874
 5598SOL    HW128253   1.869   3.626   6.279 -0.7306 -0.1560 -0.4540
 5598SOL    HW228254   2.012   3.590   6.288 -1.6592  2.9230  0.9773
 5599SOL     OW28255   0.435   3.851   3.128 -0.3192  0.3520 -0.3378
 5599SOL    HW128256   0.358   3.899   3.096 -0.0281  1.0027 -0.0748
 5599SOL    HW228257   0.462   3.806   3.048  0.4545  1.9393 -0.9715
 5600SOL     OW28258   4.411   4.137  17.605  0.8471  0.2465  0.5068
 5600SOL    HW128259   4.487   4.183  17.640  0.4607  1.7103 -0.6126
 5600SOL    HW228260   4.349   4.182  17.663 -1.4027  0.1624 -1.8292
 5601SOL     OW28261   0.337   1.593   8.628 -0.1187  0.1547 -0.2607
 5601SOL    HW128262   0.298   1.508   8.611 -1.1318  0.8140 -1.1491
 5601SOL    HW228263   0.372   1.610   8.541 -1.1249  4.3710  0.1877
 5602SOL     OW28264   2.701   1.849   6.556 -0.1115  0.9583  0.1498
 5602SOL    HW128265   2.636   1.812   6.617 -0.8948  1.9863 -0.0701
 5602SOL    HW228266   2.642   1.897   6.498  2.0293  1.0665 -1.9050
 5603SOL     OW28267   4.206   2.657   0.259  0.4870  0.0939  0.3920
 5603SOL    HW128268   4.234   2.744   0.287  0.5809  0.2070 -0.0544
 5603SOL    HW228269   4.121   2.658   0.303 -0.8507 -0.1442 -2.2470
 5604SOL     OW28270   1.376   1.250  13.560  0.5834 -0.0870  0.1952
 5604SOL    HW128271   1.423   1.323  13.520  2.1311 -1.5991 -0.6969
 5604SOL    HW228272   1.430   1.177  13.531  1.2951  1.1518 -1.5575
 5605SOL     OW28273   0.460   2.406  14.586 -0.4737  0.1472 -0.3328
 5605SOL    HW128274   0.554   2.390  14.581 -0.5141 -0.4693  1.0236
 5605SOL    HW228275   0.455   2.468  14.659 -0.8572 -1.0144  0.6305
 5606SOL     OW28276   4.393   0.986   9.017 -0.0725 -0.0227  0.2630
 5606SOL    HW128277   4.363   0.915   9.074 -1.3690  0.1004 -0.2565
 5606SOL    HW228278   4.450   0.931   8.962 -0.3714  0.3888 -0.4622
 5607SOL     OW28279   4.081   2.612   9.691 -0.0239 -0.4253 -0.0341
 5607SOL    HW128280   4.031   2.693   9.695 -0.5647 -0.7848  0.4263
 5607SOL    HW228281   4.161   2.639   9.646  0.5221  0.0024  1.1980
 5608SOL     OW28282   2.061   3.296   6.639 -0.2384  0.5073 -0.1651
 5608SOL    HW128283   2.122   3.357   6.597  0.7925 -0.9929 -0.8359
 5608SOL    HW228284   2.118   3.261   6.707  0.8446  1.2794 -0.6709
 5609SOL     OW28285   1.734   0.704   8.987 -0.3873  0.0670 -0.1961
 5609SOL    HW128286   1.719   0.752   8.905  0.0369 -0.1641 -0.4089
 5609SOL    HW228287   1.665   0.637   8.981 -0.5634  0.5015 -3.2311
 5610SOL     OW28288   2.829   2.276   0.963  0.1500 -0.2173  0.3532
 5610SOL    HW128289   2.756   2.300   1.020 -1.1510  2.2302 -2.3350
 5610SOL    HW228290   2.826   2.350   0.902  2.0263  0.0387  0.5561
 5611SOL     OW28291   0.132   0.368   7.828 -0.0846  0.0377 -0.0898
 5611SOL    HW128292   0.093   0.349   7.913 -0.3443  2.2730  0.3022
 5611SOL    HW228293   0.073   0.314   7.776 -1.2378 -0.2680  1.5378
 5612SOL     OW28294   2.996   2.316   4.881 -0.4724 -0.7348  0.3702
 5612SOL    HW128295   2.989   2.275   4.795 -2.0151 -1.5844  0.9173
 5612SOL    HW228296   2.906   2.349   4.883  0.3736  1.7107 -0.7494
 5613SOL     OW28297   3.148   1.530   1.887 -0.4135 -0.3413  0.3509
 5613SOL    HW128298   3.078   1.532   1.952 -1.7414 -1.6388 -1.0240
 5613SOL    HW228299   3.125   1.603   1.830 -0.0531  1.0527  1.9988
 5614SOL     OW28300   3.463   4.176  16.356 -0.0435 -0.0849 -0.2461
 5614SOL    HW128301   3.543   4.171  16.409  0.6148  1.4966 -1.0974
 5614SOL    HW228302   3.479   4.268  16.337  0.6403  0.2780  2.0028
 5615SOL     OW28303   0.943   1.369   9.111  0.2786 -0.1384  0.1742
 5615SOL    HW128304   0.866   1.318   9.086 -0.1592  1.5279 -1.8806
 5615SOL    HW228305   1.004   1.297   9.128  0.4102 -0.6904 -2.5607
 5616SOL     OW28306   3.197   1.214  16.736 -0.4935  0.3094  0.6308
 5616SOL    HW128307   3.146   1.277  16.787 -3.3103 -0.8591 -0.7149
 5616SOL    HW228308   3.138   1.139  16.744 -0.4900  0.4167  1.6040
 5617SOL     OW28309   2.471   2.821   6.949  0.0782  0.6476  0.3935
 5617SOL    HW128310   2.566   2.817   6.966 -0.4428 -1.4099  2.9052
 5617SOL    HW228311   2.480   2.841   6.856  0.1126  0.4293  0.3500
 5618SOL     OW28312   0.461   1.288  10.947  0.0859 -0.1835  0.0380
 5618SOL    HW128313   0.440   1.349  10.876  1.2062 -1.2278 -1.2059
 5618SOL    HW228314   0.541   1.322  10.986  0.8374 -0.0528 -1.5856
 5619SOL     OW28315   3.651   0.939   4.966  0.6880 -0.2442 -0.0819
 5619SOL    HW128316   3.577   1.000   4.975 -0.2316 -1.8407  3.0298
 5619SOL    HW228317   3.619   0.853   4.995  2.3860 -0.2052  1.8677
 5620SOL     OW28318   1.686   2.529  12.871  0.4113 -0.6357  0.4014
 5620SOL    HW128319   1.687   2.517  12.776  1.4427  1.8567  0.1128
 5620SOL    HW228320   1.778   2.536  12.898  0.6704  0.1319 -0.7003
 5621SOL     OW28321   1.380   4.287   7.181 -0.2625 -0.5305 -0.5356
 5621SOL    HW128322   1.368   4.330   7.265  0.6189  3.4943 -2.4675
 5621SOL    HW228323   1.474   4.274   7.173 -0.2857 -1.8603  1.4430
 5622SOL     OW28324   1.830   0.675   1.106  0.2483  0.1637 -0.0170
 5622SOL    HW128325   1.854   0.583   1.099 -0.4844  0.0106 -0.5439
 5622SOL    HW228326   1.903   0.705   1.160  1.8183 -0.2440 -1.8995
 5623SOL     OW28327   1.548   4.096   1.185 -0.2887 -0.4469  0.2766
 5623SOL    HW128328   1.507   4.102   1.271  0.1204  0.4280  0.4104
 5623SOL    HW228329   1.479   4.132   1.130 -0.0739 -0.9103 -0.2921
 5624SOL     OW28330   3.787   1.606   3.868  0.4055  0.1868  0.3573
 5624SOL    HW128331   3.748   1.519   3.872  1.1795 -0.0028  3.4024
 5624SOL    HW228332   3.767   1.631   3.778  1.9095  0.6983  0.1694
 5625SOL     OW28333   0.769   0.311   9.132 -0.7451  0.2033 -0.2685
 5625SOL    HW128334   0.675   0.319   9.146 -0.5103  0.6511  1.0902
 5625SOL    HW228335   0.781   0.223   9.168  0.5702  1.1154  1.5742
 5626SOL     OW28336   4.123   4.599   5.722  0.0213 -0.0499  0.1793
 5626SOL    HW128337   4.049   4.652   5.749 -0.4182  0.2352 -1.5934
 5626SOL    HW228338   4.171   4.592   5.805 -0.3942 -1.5269  0.2802
 5627SOL     OW28339   2.506   3.548   2.413  0.3229 -0.4240 -0.5572
 5627SOL    HW128340   2.475   3.581   2.497  0.1643  0.5407 -1.0003
 5627SOL    HW228341   2.565   3.480   2.446 -0.5444 -1.0239 -0.2399
 5628SOL     OW28342   3.867   2.935  12.135 -0.0672 -0.1195 -0.0545
 5628SOL    HW128343   3.787   2.970  12.175  0.7730  2.7699 -0.9164
 5628SOL    HW228344   3.880   2.847  12.172  1.2763  0.5603  1.0813
 5629SOL     OW28345   2.924   3.897   2.826 -0.2397 -0.7437 -0.4847
 5629SOL    HW128346   2.877   3.882   2.908 -0.3319 -1.4172 -0.6578
 5629SOL    HW228347   2.852   3.875   2.767 -1.6144 -1.7959  1.5866
 5630SOL     OW28348   2.248   3.518  13.773  0.1977 -0.4411 -0.1039
 5630SOL    HW128349   2.197   3.522  13.692 -1.5598 -2.1155  0.9298
 5630SOL    HW228350   2.306   3.446  13.746  0.1309 -0.6304  0.2517
 5631SOL     OW28351   3.274   3.458   3.174 -0.1646  0.6184  0.4623
 5631SOL    HW128352   3.334   3.530   3.188  0.7998  0.0764 -0.9290
 5631SOL    HW228353   3.332   3.382   3.181  2.0420  2.4253  1.5822
 5632SOL     OW28354   1.139   2.991  13.237  0.1127 -0.0024 -0.1584
 5632SOL    HW128355   1.206   2.975  13.171 -0.7099  0.2733 -1.0592
 5632SOL    HW228356   1.123   2.904  13.274  2.5390 -1.9213 -3.6909
 5633SOL     OW28357   3.279   4.052   7.760  0.7124 -0.6728  0.2972
 5633SOL    HW128358   3.213   4.006   7.709  1.3635 -0.6652 -0.5484
 5633SOL    HW228359   3.223   4.106   7.816  1.2526 -0.3195  0.4968
 5634SOL     OW28360   1.315   1.399   5.216 -0.0448  0.1185 -0.4562
 5634SOL    HW128361   1.268   1.482   5.231  1.8713  1.3279 -1.1819
 5634SOL    HW228362   1.359   1.396   5.301  1.8099 -1.6272 -1.5113
 5635SOL     OW28363   0.222   3.443   6.498 -0.0936  0.2555  0.2012
 5635SOL    HW128364   0.268   3.359   6.499  0.0710  0.3429 -0.1441
 5635SOL    HW228365   0.152   3.429   6.434 -1.6480 -0.3867  2.0538
 5636SOL     OW28366   3.948   1.294  11.683  0.1149  0.9787  0.4042
 5636SOL    HW128367   3.963   1.380  11.644  0.9762  1.2857  1.4195
 5636SOL    HW228368   4.030   1.249  11.665 -1.6548 -2.0856 -0.1570
 5637SOL     OW28369   1.121   2.846  17.207  0.4992 -0.5284  0.5258
 5637SOL    HW128370   1.143   2.939  17.218  1.0219 -0.6159  0.2004
 5637SOL    HW228371   1.072   2.829  17.287  0.9181 -1.1286  0.6540
 5638SOL     OW28372   0.935   2.739   9.147  0.9101 -0.1152 -0.2317
 5638SOL    HW128373   0.870   2.682   9.106  1.6780 -1.8481  0.9771
 5638SOL    HW228374   0.941   2.713   9.239  0.5660  1.8719  0.3543
 5639SOL     OW28375   1.701   1.693  15.267 -0.2328 -0.1887 -0.2763
 5639SOL    HW128376   1.688   1.668  15.176  0.6380 -1.5361 -0.0311
 5639SOL    HW228377   1.796   1.677  15.270 -0.4044 -1.4246 -1.3915
 5640SOL     OW28378   3.955   2.138   8.577 -0.1858 -0.2590  0.4315
 5640SOL    HW128379   3.871   2.175   8.603 -0.5182 -2.6385  2.7032
 5640SOL    HW228380   3.925   2.092   8.498 -1.0225  0.8338  0.1087
 5641SOL     OW28381   3.160   4.320   4.795  0.8821  0.5248  0.2552
 5641SOL    HW128382   3.209   4.242   4.769 -0.8280 -0.3984 -0.2345
 5641SOL    HW228383   3.093   4.334   4.728  0.0438 -2.1643  0.5017
 5642SOL     OW28384   0.042   4.450   3.517  0.0514 -0.3175 -0.0437
 5642SOL    HW128385   0.088   4.529   3.545 -1.1627  0.7036 -0.9316
 5642SOL    HW228386   4.714   4.429   3.595 -1.0822 -0.3984 -0.8007
 5643SOL     OW28387   3.747   2.464   8.018 -0.1526 -0.5029  0.3252
 5643SOL    HW128388   3.823   2.504   7.975 -0.8215 -0.8999 -1.2481
 5643SOL    HW228389   3.697   2.428   7.945 -0.3503  1.5874 -0.5522
 5644SOL     OW28390   3.173   2.169   5.034  0.2464  0.3685  0.0027
 5644SOL    HW128391   3.108   2.223   4.990  1.0622  0.9293 -0.5220
 5644SOL    HW228392   3.191   2.224   5.111  0.6337  0.9876 -0.5352
 5645SOL     OW28393   4.561   4.367   6.513  0.3941 -0.2831  0.5878
 5645SOL    HW128394   4.567   4.279   6.475 -0.6449 -0.0081 -0.2382
 5645SOL    HW228395   4.500   4.358   6.586  1.0944  0.2985  1.2317
 5646SOL     OW28396   1.715   4.143   1.667  0.0838 -0.4581 -0.4091
 5646SOL    HW128397   1.693   4.185   1.584  0.3452  0.0247 -0.2289
 5646SOL    HW228398   1.628   4.140   1.706 -0.0851  0.9511 -0.6985
 5647SOL     OW28399   2.059   3.742   4.883 -0.1468 -0.1346 -0.1596
 5647SOL    HW128400   2.006   3.692   4.820  0.3494 -1.7503  0.7083
 5647SOL    HW228401   2.130   3.779   4.830  0.6032  0.2468  1.1195
 5648SOL     OW28402   2.629   4.444   3.878  0.0081  0.2636  0.7950
 5648SOL    HW128403   2.567   4.506   3.915 -0.3255 -0.1856  0.9866
 5648SOL    HW228404   2.696   4.440   3.946  1.0450  1.6129 -0.1371
 5649SOL     OW28405   3.127   3.525   1.624  0.2311 -0.1926 -0.1685
 5649SOL    HW128406   3.085   3.532   1.538  0.5983  0.7831 -0.2766
 5649SOL    HW228407   3.093   3.441   1.654  0.1411 -0.1443 -0.1373
 5650SOL     OW28408   4.372   0.778   0.032 -0.0183 -0.5305  0.1373
 5650SOL    HW128409   4.326   0.844  17.674 -0.1129  0.2028  1.1697
 5650SOL    HW228410   4.305   0.724   0.074 -0.1843  0.3734  1.0297
 5651SOL     OW28411   2.419   3.227   0.136 -0.1620  0.0777  0.1880
 5651SOL    HW128412   2.367   3.148   0.148 -1.4523  0.8935 -0.0560
 5651SOL    HW228413   2.436   3.246   0.229  1.6004  0.6218 -0.2383
 5652SOL     OW28414   0.647   4.235   8.773 -0.1018  0.1544 -0.8041
 5652SOL    HW128415   0.686   4.235   8.861  0.1268 -3.1616 -0.8822
 5652SOL    HW228416   0.673   4.319   8.735 -0.9135  0.9143  0.3257
 5653SOL     OW28417   2.619   3.288  12.161  0.3007  0.0016  0.9994
 5653SOL    HW128418   2.559   3.252  12.227  0.0787  0.3552  0.9913
 5653SOL    HW228419   2.698   3.313  12.209  2.3254 -2.3990 -1.0740
 5654SOL     OW28420   1.820   1.215   5.051  0.0851 -0.2015 -0.3146
 5654SOL    HW128421   1.792   1.228   4.960 -0.1441  1.7333  0.0382
 5654SOL    HW228422   1.812   1.306   5.078  4.6136 -0.0024  0.2820
 5655SOL     OW28423   3.063   4.594   5.626  0.3906 -0.1834  0.4022
 5655SOL    HW128424   2.992   4.555   5.676  0.7233 -0.7084  0.4644
 5655SOL    HW228425   3.137   4.538   5.650  2.1428  1.9542 -0.0198
 5656SOL     OW28426   3.220   0.419   9.045  0.2407 -0.2528  0.4173
 5656SOL    HW128427   3.182   0.449   9.127  2.9003 -2.9698  2.6347
 5656SOL    HW228428   3.275   0.346   9.073  1.2594  0.1633 -0.4950
 5657SOL     OW28429   1.372   1.780  12.286 -0.6570 -0.0728  0.1493
 5657SOL    HW128430   1.313   1.840  12.241  0.8494  0.6203 -0.8893
 5657SOL    HW228431   1.413   1.737  12.211 -0.7572 -1.0598  0.6499
 5658SOL     OW28432   1.931   3.198   9.508  0.0531  0.6342 -0.2633
 5658SOL    HW128433   1.845   3.234   9.484 -0.2059  0.3348  0.2306
 5658SOL    HW228434   1.970   3.181   9.422  0.2852 -0.9017  0.1438
 5659SOL     OW28435   4.084   0.893   6.116 -0.2921  0.2240 -0.1775
 5659SOL    HW128436   4.050   0.891   6.206 -0.8036  1.4923 -0.3432
 5659SOL    HW228437   4.070   0.987   6.106 -0.4768 -0.1609 -3.3752
 5660SOL     OW28438   0.842   4.144   5.095  0.4831  0.4157  0.4148
 5660SOL    HW128439   0.869   4.110   5.180  0.2331 -1.1185 -0.1354
 5660SOL    HW228440   0.930   4.156   5.060 -0.4220 -0.0213 -1.9897
 5661SOL     OW28441   2.733   0.243   0.941  0.0317  0.3678  0.0581
 5661SOL    HW128442   2.671   0.306   0.978  0.4886 -1.0996  3.3302
 5661SOL    HW228443   2.814   0.272   0.982 -0.3868  0.8342  0.5643
 5662SOL     OW28444   3.221   2.894   0.577 -0.1736  0.0949  0.3952
 5662SOL    HW128445   3.197   2.979   0.615  1.3347  0.3636  0.7374
 5662SOL    HW228446   3.178   2.835   0.639 -0.4071  0.2282  0.3596
 5663SOL     OW28447   3.218   2.560   1.790  0.0696  0.6157 -0.2181
 5663SOL    HW128448   3.307   2.594   1.801  0.6526 -0.9155 -0.2105
 5663SOL    HW228449   3.179   2.567   1.877  0.5893 -0.6180  0.1146
 5664SOL     OW28450   0.148   2.482  12.213  0.1156  0.2101 -0.2607
 5664SOL    HW128451   0.189   2.396  12.210  1.3252  0.8107 -0.7387
 5664SOL    HW228452   0.053   2.471  12.218 -0.1054  1.3599 -2.0530
 5665SOL     OW28453   1.672   4.246   6.186  0.6028  0.0670 -0.3598
 5665SOL    HW128454   1.613   4.206   6.250 -1.3074  0.5195 -1.8553
 5665SOL    HW228455   1.750   4.256   6.241  0.7662 -1.4554 -0.3144
 5666SOL     OW28456   4.098   0.400   2.532  0.6393 -0.6826 -0.0366
 5666SOL    HW128457   4.114   0.329   2.595  2.0757 -1.3448 -1.1582
 5666SOL    HW228458   4.038   0.355   2.474 -1.2252  0.3974  1.0622
 5667SOL     OW28459   3.469   1.512   4.589  0.0639 -0.2910 -0.4162
 5667SOL    HW128460   3.482   1.594   4.637 -1.9513  0.2711 -0.8345
 5667SOL    HW228461   3.547   1.499   4.535 -0.1456 -1.2862 -0.4930
 5668SOL     OW28462   0.912   3.463   4.121  0.0097 -0.6268  0.0418
 5668SOL    HW128463   0.889   3.539   4.175  1.7103  0.1941 -0.3685
 5668SOL    HW228464   0.977   3.493   4.058 -0.5932  0.6780  0.0334
 5669SOL     OW28465   3.419   0.563   6.226  0.1277  0.0920  0.1619
 5669SOL    HW128466   3.370   0.646   6.221 -0.6251 -0.2784  1.4204
 5669SOL    HW228467   3.368   0.514   6.162  1.5265 -2.5734  1.0930
 5670SOL     OW28468   2.023   0.739   7.762 -0.1448 -0.1557 -0.1312
 5670SOL    HW128469   2.023   0.723   7.667 -1.8335  1.0284 -0.3528
 5670SOL    HW228470   2.086   0.675   7.793 -0.7377 -0.8365 -0.3257
 5671SOL     OW28471   2.413   1.338   9.101 -0.7886 -0.0198  0.2164
 5671SOL    HW128472   2.369   1.261   9.064  1.0056 -1.2863  0.7192
 5671SOL    HW228473   2.419   1.397   9.026  0.3309 -1.7935 -1.0918
 5672SOL     OW28474   3.182   4.197   1.011  0.0875 -0.0511 -0.7998
 5672SOL    HW128475   3.178   4.149   1.094  3.0828 -1.9589 -1.7701
 5672SOL    HW228476   3.207   4.285   1.040  2.6229 -0.2115 -2.4481
 5673SOL     OW28477   2.107   3.123  12.431 -0.3616 -0.9723 -0.0246
 5673SOL    HW128478   2.131   3.043  12.384 -2.3268  0.0931 -2.7993
 5673SOL    HW228479   2.069   3.083  12.510  0.0031  2.0522  1.6837
 5674SOL     OW28480   2.449   3.495  10.367 -0.1204  0.6016 -0.1849
 5674SOL    HW128481   2.496   3.520  10.288  3.4182 -0.5607  1.5252
 5674SOL    HW228482   2.436   3.404  10.341 -1.2298  0.0482  2.3221
 5675SOL     OW28483   0.215   3.497   2.107  0.0294  0.0913 -0.4606
 5675SOL    HW128484   0.286   3.442   2.141  0.3772  1.1606  0.5265
 5675SOL    HW228485   0.239   3.584   2.139  2.3572 -0.9574  0.6456
 5676SOL     OW28486   0.324   2.218   2.598  0.0653  0.1193 -0.2519
 5676SOL    HW128487   0.387   2.231   2.527  0.8235  0.3618  0.4653
 5676SOL    HW228488   0.375   2.159   2.653  2.5705  2.1902 -0.3799
 5677SOL     OW28489   0.559   4.329   5.459 -0.0338 -0.1189 -0.3055
 5677SOL    HW128490   0.628   4.393   5.476  0.6859 -0.8888 -0.3688
 5677SOL    HW228491   0.487   4.367   5.509  2.0801  0.9474  1.9224
 5678SOL     OW28492   2.256   2.505   4.433  0.0750 -0.1593  0.0783
 5678SOL    HW128493   2.267   2.476   4.343  0.7436 -1.3805  0.5458
 5678SOL    HW228494   2.177   2.556   4.416 -1.6565 -2.4941  1.1097
 5679SOL     OW28495   2.980   4.202  15.756  0.3202 -0.3832  0.2878
 5679SOL    HW128496   2.952   4.111  15.768 -0.2149 -0.2194  0.2535
 5679SOL    HW228497   2.901   4.247  15.726 -0.3534  0.0378  2.7555
 5680SOL     OW28498   2.506   4.630   8.617  0.3250  0.2338  0.4308
 5680SOL    HW128499   2.465   4.603   8.535 -0.8323 -1.4612  1.5764
 5680SOL    HW228500   2.540   4.716   8.592  0.3344 -0.1231 -0.8058
 5681SOL     OW28501   4.291   2.995  12.234 -0.4194 -0.6037  0.1076
 5681SOL    HW128502   4.371   2.956  12.198  0.3815 -0.1504  1.3532
 5681SOL    HW228503   4.262   2.936  12.304  2.9791 -1.5302  0.7388
 5682SOL     OW28504   1.251   0.636   1.755 -0.5004 -0.2099  0.2723
 5682SOL    HW128505   1.160   0.610   1.737 -0.8562  1.2189 -0.0096
 5682SOL    HW228506   1.286   0.608   1.671 -0.9593 -1.1400  0.3843
 5683SOL     OW28507   1.193   3.217   1.693  0.0225 -0.1817 -0.1387
 5683SOL    HW128508   1.208   3.279   1.622  1.1257 -0.7292 -0.3865
 5683SOL    HW228509   1.275   3.169   1.702  1.6016  2.6087  0.2181
 5684SOL     OW28510   1.626   2.492   5.554  0.0589 -0.2470 -1.0125
 5684SOL    HW128511   1.543   2.472   5.511 -1.0789  0.1263  0.9924
 5684SOL    HW228512   1.603   2.565   5.612  0.1381 -2.3383  1.6284
 5685SOL     OW28513   1.087   2.143  10.181  0.0970 -0.2284 -0.1164
 5685SOL    HW128514   1.126   2.223  10.144 -0.3529 -0.4842 -1.1405
 5685SOL    HW228515   1.079   2.080  10.110  0.4388 -0.0795 -0.2864
 5686SOL     OW28516   0.245   4.307   4.005  0.0016 -0.5890  0.1056
 5686SOL    HW128517   0.268   4.238   4.068 -1.5091 -1.1901 -0.0170
 5686SOL    HW228518   0.181   4.269   3.945 -1.4564  1.2551  0.4818
 5687SOL     OW28519   4.181   1.102   3.822  0.2918  0.7355  0.5706
 5687SOL    HW128520   4.143   1.016   3.840  1.4710 -0.5437 -3.0346
 5687SOL    HW228521   4.274   1.088   3.838 -0.0961  1.0433  3.1355
 5688SOL     OW28522   0.597   3.112  12.003  0.2261 -0.3858  0.1159
 5688SOL    HW128523   0.607   3.206  12.018 -0.3108 -0.6056  1.8636
 5688SOL    HW228524   0.602   3.070  12.089 -0.2150  2.3993  1.5233
 5689SOL     OW28525   0.541   1.694   6.598 -0.0012 -0.7448  0.3757
 5689SOL    HW128526   0.593   1.761   6.554 -0.3816  1.2444  2.9859
 5689SOL    HW228527   0.607   1.652   6.653 -1.5195 -2.9065  0.5473
 5690SOL     OW28528   0.470   2.241  14.858  0.2221  0.0377  0.7445
 5690SOL    HW128529   0.389   2.210  14.899  0.7152 -1.5450  0.5445
 5690SOL    HW228530   0.462   2.203  14.770  2.0052  0.7941  0.2515
 5691SOL     OW28531   2.345   4.711   6.196  0.1640  0.0083  0.0409
 5691SOL    HW128532   2.430   4.671   6.215  0.7338 -0.6263 -3.7296
 5691SOL    HW228533   2.323   4.672   6.111 -0.2324 -0.1631  0.2250
 5692SOL     OW28534   3.518   4.554   8.344  0.1031 -0.6857 -0.0288
 5692SOL    HW128535   3.571   4.524   8.271  0.0508  2.5372 -1.4020
 5692SOL    HW228536   3.478   4.633   8.308  0.9605  0.4003  1.4048
 5693SOL     OW28537   1.838   2.798   2.379  0.3155  0.4386 -0.1194
 5693SOL    HW128538   1.749   2.779   2.348  0.1582  1.3244 -0.1955
 5693SOL    HW228539   1.855   2.848   2.299  0.1124  1.6839  0.6246
 5694SOL     OW28540   2.842   4.277   2.438  0.4612 -0.0986  0.0786
 5694SOL    HW128541   2.880   4.344   2.382 -1.1484  0.4132 -0.4174
 5694SOL    HW228542   2.850   4.199   2.382 -1.9709  1.4355 -2.4577
 5695SOL     OW28543   2.213   3.945  16.828 -0.3602 -0.0833  0.8020
 5695SOL    HW128544   2.265   3.876  16.787 -1.4053  1.6084 -3.3442
 5695SOL    HW228545   2.275   4.018  16.827 -0.3335 -0.0928  1.5478
 5696SOL     OW28546   3.112   3.420   3.406  0.4189  0.3150  0.2220
 5696SOL    HW128547   3.122   3.515   3.402 -2.6346  0.6072 -0.4717
 5696SOL    HW228548   3.133   3.413   3.313  0.3890 -1.8589  0.3825
 5697SOL     OW28549   0.022   2.488   0.258 -0.0989 -0.1233 -0.1096
 5697SOL    HW128550   4.684   2.512   0.327 -1.0208 -1.4660 -0.4564
 5697SOL    HW228551   0.014   2.393   0.249 -0.8564 -0.0278 -0.3866
 5698SOL     OW28552   2.293   2.327  11.625 -0.0827  0.3605  0.8014
 5698SOL    HW128553   2.359   2.394  11.606  0.3270 -0.6415 -1.2862
 5698SOL    HW228554   2.346   2.262  11.671  0.5976  0.5759  0.3113
 5699SOL     OW28555   0.267   3.924   7.054  0.2645  0.3130  0.0354
 5699SOL    HW128556   0.329   3.962   7.116  0.2895  0.4121 -0.0495
 5699SOL    HW228557   0.276   3.829   7.057  0.6830  0.4276  2.1703
 5700SOL     OW28558   3.336   3.989   5.232 -0.2743  0.2918  0.4608
 5700SOL    HW128559   3.316   4.077   5.200 -0.8265 -0.4103 -1.1717
 5700SOL    HW228560   3.370   4.004   5.320  0.1820  0.4973  0.2511
 5701SOL     OW28561   1.924   2.639   9.917 -0.7051 -0.8798 -0.1608
 5701SOL    HW128562   1.996   2.623   9.978 -1.5221 -0.5974  0.8822
 5701SOL    HW228563   1.976   2.651   9.838  1.0702 -1.5126  0.9292
 5702SOL     OW28564   1.332   2.378   8.861 -0.3500 -0.2676  0.5014
 5702SOL    HW128565   1.361   2.408   8.774  0.5278  0.9257  1.2015
 5702SOL    HW228566   1.278   2.452   8.887 -1.0675  0.0878 -1.9518
 5703SOL     OW28567   2.050   2.687  13.378  0.3013 -0.0369  0.0781
 5703SOL    HW128568   1.974   2.634  13.402 -0.2810  0.6005 -0.3290
 5703SOL    HW228569   2.120   2.623  13.370 -0.7403 -0.9714 -1.6157
 5704SOL     OW28570   2.227   3.588   1.819 -0.2198  0.0870 -0.0178
 5704SOL    HW128571   2.160   3.638   1.866  0.4854  1.2178 -0.2279
 5704SOL    HW228572   2.300   3.604   1.879  0.3641  1.7755 -1.1964
 5705SOL     OW28573   2.743   3.988  10.581  0.2989 -0.0118  0.6942
 5705SOL    HW128574   2.686   3.940  10.521  0.4860 -1.8694  1.9930
 5705SOL    HW228575   2.822   4.002  10.529  0.8765 -1.8345  1.0906
 5706SOL     OW28576   0.531   4.697  10.807  0.4995 -0.2334 -0.2196
 5706SOL    HW128577   0.559   0.024  10.884 -1.8870  0.1144  0.4337
 5706SOL    HW228578   0.444   0.015  10.800  2.4102  3.3445 -2.7458
 5707SOL     OW28579   3.945   0.971   4.911 -0.4234 -0.0809 -0.1370
 5707SOL    HW128580   3.939   1.038   4.979 -0.1874 -1.3280  1.0982
 5707SOL    HW228581   3.853   0.945   4.916 -0.1301 -1.0932 -0.0937
 5708SOL     OW28582   0.394   2.602   9.948 -0.2608  0.3634  0.0793
 5708SOL    HW128583   0.370   2.531  10.008 -0.1980 -0.1183 -0.4677
 5708SOL    HW228584   0.487   2.602   9.970 -0.2678  0.3107  0.1096
 5709SOL     OW28585   4.133   2.122  15.712 -0.8311 -0.5856  0.0497
 5709SOL    HW128586   4.178   2.195  15.669  1.1183 -1.0870  1.2215
 5709SOL    HW228587   4.195   2.093  15.779 -0.9648  1.4927  1.0978
 5710SOL     OW28588   1.303   0.409   5.625 -0.1460  0.0210 -0.3613
 5710SOL    HW128589   1.278   0.324   5.660  0.9170  0.6373  1.9181
 5710SOL    HW228590   1.396   0.401   5.649 -0.9496 -3.1462  1.5802
 5711SOL     OW28591   0.930   3.866   5.971 -0.2783 -0.2571 -0.3341
 5711SOL    HW128592   1.011   3.820   5.948 -1.9063 -2.6488 -1.2437
 5711SOL    HW228593   0.900   3.891   5.884  0.6192  1.5028 -0.1418
 5712SOL     OW28594   4.313   4.521  10.692  0.5150 -0.0764 -0.5783
 5712SOL    HW128595   4.378   4.560  10.750 -0.2320  0.8539 -0.3820
 5712SOL    HW228596   4.281   4.602  10.653 -1.9160 -1.9241 -2.4693
 5713SOL     OW28597   3.985   0.714   5.638  0.7081  0.3181  0.4110
 5713SOL    HW128598   4.081   0.705   5.641  1.0582  3.5480 -1.1789
 5713SOL    HW228599   3.977   0.784   5.703  2.1422 -0.7231  1.7088
 5714SOL     OW28600   3.011   2.191   6.864 -0.5537  0.3176 -0.0812
 5714SOL    HW128601   2.982   2.222   6.778  0.2384 -1.0959 -0.8743
 5714SOL    HW228602   2.982   2.099   6.866  0.8819 -0.1423 -0.4545
 5715SOL     OW28603   0.696   2.791  11.681 -0.1342 -0.1650 -0.3694
 5715SOL    HW128604   0.617   2.838  11.707  0.0659 -1.3683  2.3968
 5715SOL    HW228605   0.713   2.835  11.598  0.2117 -0.1985 -0.3145
 5716SOL     OW28606   2.214   1.748   8.761 -0.0090  0.5131  0.1575
 5716SOL    HW128607   2.163   1.729   8.839  1.1928  1.4666  1.1894
 5716SOL    HW228608   2.295   1.757   8.812  1.1888 -0.0159 -1.6306
 5717SOL     OW28609   0.363   1.496   7.301 -0.6090 -0.2382  0.3136
 5717SOL    HW128610   0.440   1.552   7.289  1.5549 -3.0291  1.1799
 5717SOL    HW228611   0.419   1.423   7.328  1.9381  1.5892  0.0288
 5718SOL     OW28612   2.000   0.646   2.576  0.4874  0.0711  0.4245
 5718SOL    HW128613   2.001   0.575   2.640  0.2722 -1.1470 -0.9188
 5718SOL    HW228614   2.071   0.618   2.518  0.1953 -1.0384  0.6181
 5719SOL     OW28615   3.447   4.673   7.868 -0.7946 -0.3984 -0.1504
 5719SOL    HW128616   3.517   4.702   7.926 -2.1750  0.1378  1.2241
 5719SOL    HW228617   3.496   4.611   7.814  1.1140  0.1944  0.9030
 5720SOL     OW28618   4.455   1.916   4.332  0.3370 -0.4460 -0.4472
 5720SOL    HW128619   4.501   1.842   4.372  1.3929  0.2583 -0.3826
 5720SOL    HW228620   4.408   1.942   4.411  1.6042  0.7782 -0.0970
 5721SOL     OW28621   3.948   2.764   1.743 -0.0941 -0.2452  0.0354
 5721SOL    HW128622   3.921   2.845   1.699  1.4413 -0.4683 -1.3234
 5721SOL    HW228623   3.988   2.728   1.664 -2.3767 -2.5867 -0.0436
 5722SOL     OW28624   2.103   2.710  10.528  0.0111 -0.4480 -0.1968
 5722SOL    HW128625   2.076   2.783  10.584  1.4585  0.1903 -0.3499
 5722SOL    HW228626   2.016   2.672  10.513 -0.9609  2.2577 -1.3849
 5723SOL     OW28627   0.658   3.693   3.768  0.0264 -0.5194 -0.4218
 5723SOL    HW128628   0.635   3.617   3.822  0.0310 -0.4800 -0.3644
 5723SOL    HW228629   0.712   3.655   3.699 -1.5562 -1.6879 -1.0256
 5724SOL     OW28630   4.400   2.364  14.913 -0.5241 -0.8798  0.0796
 5724SOL    HW128631   4.338   2.354  14.985 -1.1956  0.2684 -0.3383
 5724SOL    HW228632   4.447   2.445  14.936 -2.2776  0.3213 -0.5399
 5725SOL     OW28633   4.576   0.493   5.925 -0.5997  0.2121 -0.2951
 5725SOL    HW128634   4.585   0.519   6.016  0.0516 -2.7713  0.5201
 5725SOL    HW228635   4.487   0.458   5.918 -0.0114 -1.4868  0.5300
 5726SOL     OW28636   1.017   0.769   2.298 -0.1390  0.6600  0.2673
 5726SOL    HW128637   0.994   0.834   2.232 -4.7119 -0.2245  1.0243
 5726SOL    HW228638   0.933   0.759   2.341  1.7413  1.4387  4.1078
 5727SOL     OW28639   4.263   4.061   3.107 -0.2141  0.3143 -0.1910
 5727SOL    HW128640   4.194   4.076   3.172  1.4547  2.6100  1.0454
 5727SOL    HW228641   4.211   4.031   3.033 -0.1549  1.7444 -0.8242
 5728SOL     OW28642   2.458   0.384   7.067  0.5346  0.2162  0.2332
 5728SOL    HW128643   2.550   0.381   7.091  0.7606 -2.9302 -1.0387
 5728SOL    HW228644   2.460   0.316   6.999  1.5472 -0.2737  0.7641
 5729SOL     OW28645   4.394   1.231   4.335 -0.4554 -0.6475 -0.6563
 5729SOL    HW128646   4.301   1.238   4.312 -0.2836 -0.3716 -1.2657
 5729SOL    HW228647   4.400   1.164   4.403 -0.9437 -1.3732 -1.3225
 5730SOL     OW28648   4.012   3.971   2.454  0.7048 -0.2969  0.6387
 5730SOL    HW128649   4.091   4.024   2.441 -0.5416  1.4742  0.2881
 5730SOL    HW228650   3.973   4.004   2.535 -1.6090 -1.3144 -0.0460
 5731SOL     OW28651   2.239   1.674   1.909  0.3726  0.2258 -0.4262
 5731SOL    HW128652   2.158   1.672   1.860 -0.2454 -0.1680  0.6058
 5731SOL    HW228653   2.263   1.582   1.904 -1.0556 -0.1482 -0.3483
 5732SOL     OW28654   3.917   1.142   1.483 -0.4207 -0.1166  0.6075
 5732SOL    HW128655   3.963   1.222   1.458  1.2121 -1.5402 -1.0625
 5732SOL    HW228656   3.827   1.172   1.494 -0.6837 -0.2908 -0.9778
 5733SOL     OW28657   4.077   0.453   7.957 -0.1955 -0.3125  0.7414
 5733SOL    HW128658   4.062   0.542   7.991  2.2943  0.4296 -0.1588
 5733SOL    HW228659   4.045   0.466   7.868 -0.4301  0.9244  1.0004
 5734SOL     OW28660   0.356   3.425   5.588 -1.0041  0.3010  0.0714
 5734SOL    HW128661   0.408   3.483   5.644  0.6106 -0.7810 -0.3057
 5734SOL    HW228662   0.405   3.343   5.585 -2.3705 -0.5887  1.8541
 5735SOL     OW28663   3.690   4.421  13.021  0.1692 -0.2763 -0.3828
 5735SOL    HW128664   3.706   4.391  12.931 -1.1605 -2.7186  0.1814
 5735SOL    HW228665   3.596   4.440  13.017  0.5808  1.9279  0.5079
 5736SOL     OW28666   4.473   4.495   1.914 -0.2064  0.7025 -0.0191
 5736SOL    HW128667   4.535   4.428   1.941  0.2111  0.8952 -0.5015
 5736SOL    HW228668   4.491   4.502   1.820 -0.0289 -2.1183 -0.2051
 5737SOL     OW28669   1.029   4.643   6.004  0.2624 -0.4996  0.4265
 5737SOL    HW128670   1.039   4.651   5.909 -1.3579 -1.9939  0.1186
 5737SOL    HW228671   0.958   4.579   6.008 -0.7855  0.5511 -1.2063
 5738SOL     OW28672   4.585   3.787   1.463 -0.1884  0.1649  0.4188
 5738SOL    HW128673   4.631   3.770   1.381 -1.6156  1.5612 -0.6743
 5738SOL    HW228674   4.633   3.729   1.522  0.6864  2.6707  2.1401
 5739SOL     OW28675   4.562   2.308   6.704 -0.7697  0.6614  0.1314
 5739SOL    HW128676   4.485   2.296   6.760  0.4717  1.3981  1.9880
 5739SOL    HW228677   4.618   2.358   6.764  0.7080  0.2968 -0.9302
 5740SOL     OW28678   2.893   4.080   2.231 -0.5569 -0.3911 -0.2875
 5740SOL    HW128679   2.874   4.000   2.183  0.2312 -0.0571 -1.1492
 5740SOL    HW228680   2.821   4.126   2.189 -1.1109 -0.3314  0.7307
 5741SOL     OW28681   4.260   2.690   8.528 -0.4123  0.4556 -0.2766
 5741SOL    HW128682   4.287   2.710   8.438 -2.3413  0.0303 -0.9341
 5741SOL    HW228683   4.176   2.648   8.513 -1.4526  1.6371  2.3417
 5742SOL     OW28684   2.863   3.991   4.285  0.0696  0.0884 -0.0729
 5742SOL    HW128685   2.945   3.943   4.275 -1.3866 -2.4785  0.2400
 5742SOL    HW228686   2.860   4.027   4.196 -0.4812  1.2851  0.4259
 5743SOL     OW28687   2.479   0.410   0.234 -0.2935  0.5348 -0.8349
 5743SOL    HW128688   2.496   0.388   0.142 -1.0338  0.2433 -0.9059
 5743SOL    HW228689   2.531   0.487   0.257  1.6334 -1.6306  1.9328
 5744SOL     OW28690   3.996   3.421   5.510 -0.0589 -0.3154  0.0983
 5744SOL    HW128691   3.979   3.458   5.423  0.2597 -0.7949 -0.1684
 5744SOL    HW228692   4.050   3.344   5.490  1.3478  0.5379  0.6441
 5745SOL     OW28693   3.516   2.655   7.088 -0.8663  0.2942  0.1786
 5745SOL    HW128694   3.522   2.567   7.125 -1.6501 -0.3935 -1.3271
 5745SOL    HW228695   3.469   2.642   7.005 -1.3291  0.7545  0.3675
 5746SOL     OW28696   3.273   0.586   6.596  0.1854  0.5678 -0.4314
 5746SOL    HW128697   3.259   0.600   6.689  1.5849  2.7623 -0.5296
 5746SOL    HW228698   3.292   0.679   6.583 -0.0728  0.8891  1.5307
 5747SOL     OW28699   1.568   3.437  11.898  1.0553  0.7939  0.7017
 5747SOL    HW128700   1.632   3.416  11.830 -2.3393 -0.1193 -2.2213
 5747SOL    HW228701   1.583   3.386  11.977 -1.1536 -0.7615  0.0995
 5748SOL     OW28702   0.330   2.499  17.025 -0.2203  0.5048  0.3059
 5748SOL    HW128703   0.368   2.452  16.950 -2.6366  0.4668 -0.8919
 5748SOL    HW228704   0.238   2.504  17.002 -0.6317  0.3346  1.9362
 5749SOL     OW28705   0.282   1.932   1.835 -0.2548  0.2490 -0.1983
 5749SOL    HW128706   0.326   1.966   1.913  0.3538 -2.1442  0.5045
 5749SOL    HW228707   0.234   1.858   1.871  0.5588 -0.3999 -0.4341
 5750SOL     OW28708   0.923   2.499   6.875 -0.0900 -0.3294 -0.0419
 5750SOL    HW128709   0.919   2.456   6.790 -1.6148 -0.8556  0.2846
 5750SOL    HW228710   0.858   2.447   6.923 -0.9099  0.7523  0.0127
 5751SOL     OW28711   1.983   2.372   9.978  0.0075 -0.0221 -0.0455
 5751SOL    HW128712   1.925   2.439   9.943 -0.8317 -2.1571 -2.7308
 5751SOL    HW228713   1.916   2.305   9.990 -2.3440  2.2352 -0.7274
 5752SOL     OW28714   0.217   1.781   2.735 -0.2656 -0.3974 -0.7035
 5752SOL    HW128715   0.201   1.822   2.649 -1.5319  1.2791  0.3229
 5752SOL    HW228716   0.184   1.853   2.789 -0.0896 -0.4250 -0.5604
 5753SOL     OW28717   3.941   4.559  15.931 -0.8117  0.0077  0.2984
 5753SOL    HW128718   4.007   4.542  15.999 -1.0175  0.5854  0.6450
 5753SOL    HW228719   3.991   4.578  15.852  0.7107  1.0800  1.4980
 5754SOL     OW28720   0.667   1.938   9.936  0.9470  0.6187 -0.5056
 5754SOL    HW128721   0.725   1.933  10.012 -1.1321 -1.0554  0.9476
 5754SOL    HW228722   0.732   1.937   9.866 -0.0574  0.1309 -1.4265
 5755SOL     OW28723   2.570   0.284   4.671  0.2711  0.0727 -0.3921
 5755SOL    HW128724   2.640   0.349   4.671 -0.2351  0.6167 -1.0456
 5755SOL    HW228725   2.598   0.238   4.750 -1.1391 -0.5218 -0.2388
 5756SOL     OW28726   2.073   1.799  13.269  0.4153 -0.0458 -0.5090
 5756SOL    HW128727   2.162   1.807  13.235  0.6951 -2.5316 -0.3549
 5756SOL    HW228728   2.043   1.716  13.232 -1.6559 -0.0706  1.2442
 5757SOL     OW28729   3.634   0.211   8.304 -0.5706 -0.3705 -0.0241
 5757SOL    HW128730   3.689   0.190   8.380 -0.5949  1.2701  0.4457
 5757SOL    HW228731   3.657   0.302   8.290 -0.3712 -0.1047  2.0190
 5758SOL     OW28732   3.933   4.000   2.730 -0.1275 -0.0769  0.1248
 5758SOL    HW128733   3.847   3.966   2.704  0.5540 -1.2163 -0.6627
 5758SOL    HW228734   3.905   4.078   2.777  2.4458  0.2721  1.0670
 5759SOL     OW28735   1.581   2.527  10.585 -0.7036  0.5878 -0.5787
 5759SOL    HW128736   1.580   2.433  10.572 -0.7523  0.7068 -1.4665
 5759SOL    HW228737   1.497   2.565  10.557  0.4655  1.4422 -2.9324
 5760SOL     OW28738   4.180   1.244   6.927 -0.0986 -0.2420 -0.0474
 5760SOL    HW128739   4.221   1.259   6.842 -0.5002  3.0349  0.3334
 5760SOL    HW228740   4.189   1.149   6.931 -0.6475 -0.2308  1.6273
 5761SOL     OW28741   1.776   4.377  15.840  0.0288  0.0820  0.0966
 5761SOL    HW128742   1.861   4.333  15.844  0.2254  0.4257 -0.3178
 5761SOL    HW228743   1.724   4.306  15.803  1.3298  0.5737 -2.6799
 5762SOL     OW28744   1.130   2.984   8.311 -0.5309 -0.0352 -0.4880
 5762SOL    HW128745   1.048   3.033   8.309 -0.1112  0.8235  2.4206
 5762SOL    HW228746   1.188   3.057   8.331 -0.6010 -0.2534  0.5383
 5763SOL     OW28747   0.603   4.227   2.064  0.3533 -0.0388 -0.0914
 5763SOL    HW128748   0.678   4.212   2.122 -1.6839 -1.8580  2.0719
 5763SOL    HW228749   0.646   4.292   2.008  0.4072  1.1969  1.3918
 5764SOL     OW28750   2.424   2.819   3.523  0.1914  0.0385 -0.0399
 5764SOL    HW128751   2.492   2.756   3.498  0.7357  0.2049  1.0458
 5764SOL    HW228752   2.473   2.901   3.515 -0.2655  0.1878 -1.3582
 5765SOL     OW28753   2.117   1.256   5.044  0.0807 -0.2682  0.7367
 5765SOL    HW128754   2.126   1.161   5.057 -0.7436 -0.3557  0.6473
 5765SOL    HW228755   2.022   1.258   5.031 -0.1420 -0.0542  2.4359
 5766SOL     OW28756   3.995   4.372   0.593  0.1065 -0.1827  0.1730
 5766SOL    HW128757   3.970   4.304   0.655  2.6498 -1.9449 -0.7555
 5766SOL    HW228758   4.081   4.396   0.628 -0.8361  2.2784  0.8353
 5767SOL     OW28759   1.285   1.515   2.277  0.2220 -0.0567 -0.8872
 5767SOL    HW128760   1.268   1.604   2.306  1.9485  0.0099 -0.0444
 5767SOL    HW228761   1.361   1.499   2.334  0.2435  0.2224 -0.8383
 5768SOL     OW28762   4.580   2.754   3.018  0.6168 -0.1177  0.1283
 5768SOL    HW128763   4.531   2.724   3.095  0.2345  0.4613  0.1116
 5768SOL    HW228764   4.603   2.675   2.969  2.2302  0.4109  0.0506
 5769SOL     OW28765   2.428   3.228   5.329  0.2628  0.6871  0.2124
 5769SOL    HW128766   2.352   3.192   5.374  0.8367 -2.1345 -1.0691
 5769SOL    HW228767   2.489   3.261   5.395  0.8437  0.6533 -0.2965
 5770SOL     OW28768   0.739   2.957   6.512 -0.1707  0.0482 -0.5286
 5770SOL    HW128769   0.765   2.874   6.551  0.1527 -0.1200 -1.1036
 5770SOL    HW228770   0.813   2.962   6.452 -0.6884  0.6452 -1.1258
 5771SOL     OW28771   4.609   2.238  10.772  0.3779 -0.3264 -0.4737
 5771SOL    HW128772   4.592   2.280  10.856 -1.0027 -0.2436 -0.7951
 5771SOL    HW228773   4.655   2.312  10.731  0.0989 -0.4320 -0.9795
 5772SOL     OW28774   2.684   3.110   5.832  0.2318 -0.8006  0.2083
 5772SOL    HW128775   2.645   3.188   5.793  0.4515  0.1508  1.9174
 5772SOL    HW228776   2.704   3.135   5.922  0.9030  0.1473 -0.1972
 5773SOL     OW28777   3.127   2.087  17.239 -0.2712  0.7584 -0.1741
 5773SOL    HW128778   3.047   2.102  17.289 -1.2404  1.4153 -1.9156
 5773SOL    HW228779   3.099   2.098  17.148 -1.3755 -0.3280  0.0443
 5774SOL     OW28780   3.713   0.390   2.725  0.2016 -0.1756  0.3186
 5774SOL    HW128781   3.783   0.372   2.788 -0.6459  2.3854  1.9814
 5774SOL    HW228782   3.661   0.309   2.727 -1.4586  0.8564 -1.5122
 5775SOL     OW28783   1.961   3.647   4.649 -0.1049  0.4114 -0.4915
 5775SOL    HW128784   1.879   3.664   4.602 -0.0922 -0.3231 -0.7636
 5775SOL    HW228785   2.023   3.698   4.596 -0.1983  1.0336 -0.0087
 5776SOL     OW28786   3.445   2.293  14.909  0.5230 -0.3602  0.7635
 5776SOL    HW128787   3.526   2.246  14.890  0.3523  0.2202 -1.3603
 5776SOL    HW228788   3.379   2.242  14.864 -1.3191  1.6507  1.1509
 5777SOL     OW28789   3.816   1.704   4.406 -0.2531  0.0957  0.5210
 5777SOL    HW128790   3.720   1.711   4.403 -0.2321 -0.0510 -0.3667
 5777SOL    HW228791   3.827   1.685   4.313  1.5178  1.2570  0.5152
 5778SOL     OW28792   3.063   0.474   1.319  0.0796  0.4798  0.2095
 5778SOL    HW128793   2.988   0.534   1.320  0.9782  1.5996 -0.0862
 5778SOL    HW228794   3.082   0.465   1.413 -0.3107 -0.1765  0.2315
 5779SOL     OW28795   1.831   2.220   6.986 -0.3697  0.4094  0.0494
 5779SOL    HW128796   1.805   2.311   7.001  0.1369  1.1448 -3.5437
 5779SOL    HW228797   1.874   2.199   7.069  0.0356  2.4147  0.3306
 5780SOL     OW28798   0.715   0.661  17.688  0.0295  0.2494  0.6458
 5780SOL    HW128799   0.709   0.651  17.593 -0.3405 -1.0985  0.8088
 5780SOL    HW228800   0.792   0.612   0.022 -0.1388  0.2427  1.1186
 5781SOL     OW28801   2.400   4.437   5.397 -0.4678  0.4865 -0.4434
 5781SOL    HW128802   2.350   4.434   5.316  1.0030 -0.2557 -1.3187
 5781SOL    HW228803   2.483   4.473   5.367 -0.8116  0.6750 -1.1623
 5782SOL     OW28804   2.702   3.361   2.421 -0.6662  0.2959 -0.1014
 5782SOL    HW128805   2.732   3.271   2.437 -0.4514  0.2960 -0.5201
 5782SOL    HW228806   2.722   3.397   2.507  0.2566 -1.2373  0.3348
 5783SOL     OW28807   0.294   2.352  17.469  0.3082 -0.0048  0.3388
 5783SOL    HW128808   0.365   2.290  17.484  0.0818 -0.0746  1.1137
 5783SOL    HW228809   0.342   2.403  17.404  0.6369 -1.1995 -0.3767
 5784SOL     OW28810   3.805   4.212   6.026  0.1029  0.3321  0.5949
 5784SOL    HW128811   3.814   4.210   5.931 -2.8884  0.6215  0.2910
 5784SOL    HW228812   3.738   4.146   6.044  0.7100 -0.6599 -0.7519
 5785SOL     OW28813   3.885   2.275   2.414  0.1962  0.4583 -0.1490
 5785SOL    HW128814   3.896   2.190   2.373  1.2642 -0.6010  2.3216
 5785SOL    HW228815   3.793   2.264   2.439 -0.5012 -0.5393 -3.1676
 5786SOL     OW28816   0.502   3.010  13.184  0.1246 -0.2970 -0.5002
 5786SOL    HW128817   0.592   2.999  13.213  0.1557  0.0983 -0.4409
 5786SOL    HW228818   0.522   3.066  13.109  0.0337  0.9787  0.4205
 5787SOL     OW28819   1.131   2.934   4.339  0.4032 -0.6771 -0.0530
 5787SOL    HW128820   1.214   2.976   4.362  0.2280  0.1338 -0.9148
 5787SOL    HW228821   1.132   2.934   4.244 -1.2762 -3.9523 -0.0727
 5788SOL     OW28822   1.939   4.014   8.182  0.7102  0.2260 -0.6832
 5788SOL    HW128823   1.920   3.925   8.155 -2.2085  0.8968 -0.8727
 5788SOL    HW228824   1.970   3.996   8.270 -0.5220 -0.3956 -0.3806
 5789SOL     OW28825   1.065   2.029  15.019 -0.8552  0.6179  0.6045
 5789SOL    HW128826   1.121   2.042  15.095  1.9242 -2.0031 -0.9894
 5789SOL    HW228827   0.978   2.013  15.056 -0.2929 -2.7143  0.5137
 5790SOL     OW28828   1.101   2.902   4.041 -0.3974 -0.0715  0.2880
 5790SOL    HW128829   1.065   2.932   3.958 -0.9744  0.4997  0.7462
 5790SOL    HW228830   1.059   2.816   4.043  0.7845 -0.6619 -0.1552
 5791SOL     OW28831   2.428   0.984   0.980  0.3699  0.0494 -0.8340
 5791SOL    HW128832   2.420   1.065   0.931 -1.1680 -1.9622 -3.9188
 5791SOL    HW228833   2.401   0.920   0.913 -1.4273 -0.7436  0.6367
 5792SOL     OW28834   0.437   0.769   3.307  0.0734  0.0411 -0.2389
 5792SOL    HW128835   0.396   0.845   3.349  1.4234  1.0609 -0.7749
 5792SOL    HW228836   0.467   0.811   3.226 -0.8792  0.1449 -0.5361
 5793SOL     OW28837   2.332   1.799  12.001  0.0193  0.0472 -0.2218
 5793SOL    HW128838   2.268   1.798  12.072  0.4112  1.2687  0.1459
 5793SOL    HW228839   2.399   1.752  12.049  0.1408 -0.8430 -1.2636
 5794SOL     OW28840   1.643   4.642  15.698 -0.5856 -0.6512 -0.5158
 5794SOL    HW128841   1.614   4.585  15.626 -3.1311 -0.4675  0.3508
 5794SOL    HW228842   1.708   4.586  15.740 -1.4572  0.2730  2.0362
 5795SOL     OW28843   3.215   3.185   0.993 -0.5432  0.1392  0.5656
 5795SOL    HW128844   3.252   3.260   0.946  0.4360 -0.2824  0.6615
 5795SOL    HW228845   3.181   3.145   0.912  1.3822 -0.6748  0.1485
 5796SOL     OW28846   0.398   3.747   6.829 -0.1319 -0.2206 -0.1177
 5796SOL    HW128847   0.305   3.768   6.837  0.1693  0.6489  1.1342
 5796SOL    HW228848   0.399   3.661   6.788 -1.2787 -0.8802  1.2534
 5797SOL     OW28849   2.203   2.425   8.579  0.1653 -0.0505 -0.3608
 5797SOL    HW128850   2.234   2.339   8.550  1.7204  0.2982  0.3239
 5797SOL    HW228851   2.134   2.417   8.513  1.2956 -0.3668 -1.5045
 5798SOL     OW28852   3.780   0.614  14.560  0.0177 -0.2744 -0.6861
 5798SOL    HW128853   3.743   0.600  14.473  1.9498  2.3151 -1.9317
 5798SOL    HW228854   3.871   0.643  14.549  1.1694 -2.8871  1.9593
 5799SOL     OW28855   0.488   4.275   7.532 -0.0304 -0.0078 -0.0029
 5799SOL    HW128856   0.396   4.261   7.511 -0.1165  1.7702 -0.8063
 5799SOL    HW228857   0.516   4.185   7.550  0.5034 -0.1278 -1.4331
 5800SOL     OW28858   0.513   1.304   6.337 -0.3482  0.0307  0.4748
 5800SOL    HW128859   0.539   1.391   6.306 -1.6794  0.2111 -0.1073
 5800SOL    HW228860   0.548   1.302   6.426 -0.4601  0.8596  0.5386
 5801SOL     OW28861   4.383   0.377   7.728  0.9735 -0.5314  0.2231
 5801SOL    HW128862   4.468   0.339   7.704  0.0103 -2.5963  0.0391
 5801SOL    HW228863   4.400   0.462   7.769 -1.5971 -0.9938  2.2666
 5802SOL     OW28864   0.604   3.488   1.935 -0.0621  0.0747  0.1030
 5802SOL    HW128865   0.572   3.402   1.960  2.4534 -1.0275 -0.4479
 5802SOL    HW228866   0.700   3.484   1.933 -0.0019  1.6586 -0.4510
 5803SOL     OW28867   1.102   2.881   7.386  0.0702  0.0172 -0.2130
 5803SOL    HW128868   1.154   2.805   7.412 -2.5544 -1.8069 -0.2415
 5803SOL    HW228869   1.017   2.840   7.369 -0.1610  0.6446 -0.5920
 5804SOL     OW28870   0.761   4.721   2.487  0.7152  0.5480 -0.5587
 5804SOL    HW128871   0.731   0.040   2.406 -1.4650 -1.4199 -0.7627
 5804SOL    HW228872   0.701   0.042   2.547  0.4506  0.3534 -0.6829
 5805SOL     OW28873   2.512   4.590   7.601  0.1974 -0.5016 -0.4670
 5805SOL    HW128874   2.463   4.508   7.600 -0.6455  0.0135 -1.9536
 5805SOL    HW228875   2.446   4.659   7.591 -0.4085 -1.1863 -1.1914
 5806SOL     OW28876   2.121   1.041   3.825  0.0730  0.1139  0.0364
 5806SOL    HW128877   2.137   0.947   3.836 -0.0579  0.0943  0.0554
 5806SOL    HW228878   2.198   1.074   3.871  0.0515  2.2585 -1.4982
 5807SOL     OW28879   3.465   1.744   6.096  0.2830 -0.0862  0.0439
 5807SOL    HW128880   3.555   1.723   6.071  0.6433  2.2414 -0.5834
 5807SOL    HW228881   3.436   1.661   6.134 -1.3494  1.5258  2.2788
 5808SOL     OW28882   3.971   0.816   3.268  0.3008 -0.2244  0.5018
 5808SOL    HW128883   4.014   0.833   3.352  0.9664  0.4798  0.0147
 5808SOL    HW228884   4.032   0.757   3.224 -2.1169 -0.9702 -1.8347
 5809SOL     OW28885   3.322   4.565   8.627 -0.4038  0.5852  0.1622
 5809SOL    HW128886   3.319   4.660   8.616 -0.3237  0.7372  1.4688
 5809SOL    HW228887   3.415   4.549   8.643 -0.7836  0.7159  2.4351
 5810SOL     OW28888   4.312   2.763   1.748  0.2681  0.4420 -0.0379
 5810SOL    HW128889   4.270   2.694   1.798  1.5697  0.2991  0.8630
 5810SOL    HW228890   4.400   2.770   1.786  0.5691  2.9914 -1.1778
 5811SOL     OW28891   4.137   2.471   9.929  0.4048 -0.1346 -0.3781
 5811SOL    HW128892   4.107   2.387   9.896  1.7324 -0.8930  0.3665
 5811SOL    HW228893   4.132   2.515   9.844 -1.3432  1.4845  0.5633
 5812SOL     OW28894   4.251   0.678   5.695  0.3898 -0.3363 -0.6793
 5812SOL    HW128895   4.262   0.700   5.602  0.4133 -1.3528 -0.9136
 5812SOL    HW228896   4.281   0.587   5.690  0.4710 -0.2393 -2.0156
 5813SOL     OW28897   3.951   1.071   6.604  0.0748  0.1291 -0.0396
 5813SOL    HW128898   3.905   1.035   6.679 -0.8937 -1.0403 -1.2067
 5813SOL    HW228899   3.892   1.137   6.568 -0.2468 -0.2828 -0.2620
 5814SOL     OW28900   2.284   1.274   5.807  0.3864 -0.0533  0.3955
 5814SOL    HW128901   2.230   1.214   5.757  0.2234 -1.4913  2.3163
 5814SOL    HW228902   2.224   1.346   5.828  2.5971  1.3681  1.8884
 5815SOL     OW28903   1.130   0.368   0.245 -0.1628 -0.0732 -0.3743
 5815SOL    HW128904   1.193   0.385   0.315 -0.2797 -1.5834  0.0983
 5815SOL    HW228905   1.184   0.383   0.167 -1.9583  0.1670 -1.5784
 5816SOL     OW28906   4.117   0.586   6.937 -0.4979  0.0993  0.9688
 5816SOL    HW128907   4.079   0.667   6.970  0.1624  1.9578 -2.8612
 5816SOL    HW228908   4.194   0.591   6.994  0.7055 -0.6339 -0.5920
 5817SOL     OW28909   1.442   0.345   8.112  0.0702  0.2153 -0.5416
 5817SOL    HW128910   1.353   0.379   8.119 -0.6396 -1.4346 -1.4646
 5817SOL    HW228911   1.434   0.267   8.057  2.2092 -1.0641  0.9551
 5818SOL     OW28912   2.390   4.001   5.374 -0.5589 -0.4636  0.1602
 5818SOL    HW128913   2.404   3.912   5.342  0.0006 -0.4370  0.3255
 5818SOL    HW228914   2.392   4.046   5.289  0.2372 -0.8396 -0.0169
 5819SOL     OW28915   2.928   1.177   3.853 -0.2244 -0.4571 -0.4380
 5819SOL    HW128916   2.938   1.123   3.775 -0.4033  0.7352 -1.2738
 5819SOL    HW228917   2.843   1.215   3.832 -1.0468 -2.2421 -0.3397
 5820SOL     OW28918   3.147   1.075   9.452 -0.8239  0.5925  0.3507
 5820SOL    HW128919   3.176   1.155   9.408 -0.0723  1.0041  1.6096
 5820SOL    HW228920   3.057   1.098   9.474 -0.5355  2.6989 -0.6679
 5821SOL     OW28921   0.414   2.947  12.182 -0.0491  0.3784 -0.3400
 5821SOL    HW128922   0.382   2.869  12.227  0.4384  0.5370  0.2795
 5821SOL    HW228923   0.344   2.959  12.117 -0.0678  0.6143 -0.2776
 5822SOL     OW28924   4.431   0.252   2.806  0.0310 -0.2262 -0.1220
 5822SOL    HW128925   4.413   0.159   2.813  0.2451 -0.2230  0.5294
 5822SOL    HW228926   4.523   0.247   2.833 -0.1685 -0.4863  0.5007
 5823SOL     OW28927   0.802   0.122   8.508  0.2137 -1.3648 -0.2092
 5823SOL    HW128928   0.763   0.160   8.430 -1.1977 -0.8348  0.7587
 5823SOL    HW228929   0.723   0.090   8.551 -0.8372 -0.2098 -1.2928
 5824SOL     OW28930   2.633   1.232   5.438  0.3074  0.5923 -0.0234
 5824SOL    HW128931   2.630   1.261   5.346  0.1840  0.7340  0.0242
 5824SOL    HW228932   2.718   1.270   5.462  0.3607  0.5044 -0.0756
 5825SOL     OW28933   3.821   4.712   9.947 -0.0521 -0.5775  0.2991
 5825SOL    HW128934   3.781   4.676   9.868  0.2424  1.1693 -0.6284
 5825SOL    HW228935   3.868   0.064   9.911 -0.2987  0.9375  3.1664
 5826SOL     OW28936   3.607   4.239   0.853 -0.2195  0.7394 -0.1259
 5826SOL    HW128937   3.540   4.172   0.869  0.2924  0.2782  0.0868
 5826SOL    HW228938   3.581   4.256   0.763  2.0790  0.4627 -0.8502
 5827SOL     OW28939   2.970   2.363   8.692 -0.7652  0.1265 -0.5739
 5827SOL    HW128940   2.992   2.286   8.744  0.5726  0.2196 -1.0253
 5827SOL    HW228941   2.998   2.435   8.749  2.0416 -0.4549 -1.2521
 5828SOL     OW28942   3.319   3.606   8.375 -0.5612 -0.3128  0.0421
 5828SOL    HW128943   3.228   3.599   8.402 -1.1194  1.1194 -1.4750
 5828SOL    HW228944   3.344   3.698   8.386  1.0042 -0.5509 -1.5704
 5829SOL     OW28945   4.370   4.280   4.721  0.5340  0.1219 -0.2043
 5829SOL    HW128946   4.317   4.323   4.787 -0.1783 -0.5517 -0.3362
 5829SOL    HW228947   4.305   4.217   4.691 -0.7659  1.1045  0.5597
 5830SOL     OW28948   1.680   1.002  10.631 -0.5116  0.2018  0.2856
 5830SOL    HW128949   1.692   1.073  10.568 -0.9285 -1.1755 -1.3343
 5830SOL    HW228950   1.770   0.989  10.663 -1.2120  0.4674  2.3494
 5831SOL     OW28951   2.336   1.635   3.625 -0.6325  0.4923 -0.3467
 5831SOL    HW128952   2.282   1.714   3.625  0.6932  1.4570 -3.5498
 5831SOL    HW228953   2.274   1.564   3.639  1.7052 -1.0066  2.4472
 5832SOL     OW28954   0.835   4.052   6.655  0.0993 -0.1373 -0.7632
 5832SOL    HW128955   0.755   4.083   6.613  0.3221  1.1216 -0.2632
 5832SOL    HW228956   0.819   3.958   6.668 -0.1421 -0.0616 -0.4927
 5833SOL     OW28957   1.954   1.534   4.775  0.3264 -0.0657 -0.8525
 5833SOL    HW128958   1.954   1.545   4.680  2.1926  1.0049 -0.7265
 5833SOL    HW228959   1.868   1.566   4.802 -0.7333 -3.8253  0.2506
 5834SOL     OW28960   4.355   0.901  15.572 -0.2265  0.0647 -0.3368
 5834SOL    HW128961   4.393   0.815  15.589  0.3909  0.0682 -1.7077
 5834SOL    HW228962   4.417   0.940  15.510  0.2156 -0.4807 -0.2355
 5835SOL     OW28963   4.348   1.044  13.558  0.6166  0.1118  0.1484
 5835SOL    HW128964   4.280   1.065  13.494  0.9369 -4.4975 -1.6889
 5835SOL    HW228965   4.310   1.083  13.637  0.7054  1.3180 -0.4009
 5836SOL     OW28966   2.391   2.115   3.600  0.3079  0.5473  0.0984
 5836SOL    HW128967   2.354   2.202   3.589  0.6787  0.9080  1.7048
 5836SOL    HW228968   2.361   2.095   3.688 -2.3013 -3.5526 -1.7269
 5837SOL     OW28969   2.624   2.340   3.280 -0.0479 -0.2705 -0.3927
 5837SOL    HW128970   2.714   2.318   3.256  0.1927 -0.4999  0.7004
 5837SOL    HW228971   2.583   2.305   3.201  0.4719  1.7534 -1.5595
 5838SOL     OW28972   0.940   4.192   2.603 -0.3441 -0.2990  0.2505
 5838SOL    HW128973   0.899   4.149   2.529  0.1722  1.1479 -0.8782
 5838SOL    HW228974   0.878   4.260   2.627 -0.3696 -1.3175  3.0528
 5839SOL     OW28975   4.594   3.468   5.209 -0.1756 -0.3835  0.0814
 5839SOL    HW128976   4.589   3.413   5.287  1.8227 -2.3963 -1.1847
 5839SOL    HW228977   4.672   3.427   5.171 -0.9405 -0.8431 -0.9963
 5840SOL     OW28978   0.781   4.370   8.070 -0.0261 -0.4276  0.1698
 5840SOL    HW128979   0.874   4.354   8.053  0.6079  2.6248  0.7507
 5840SOL    HW228980   0.742   4.355   7.984  0.1677  1.3831 -0.2346
 5841SOL     OW28981   2.656   2.442   2.264 -0.3502  0.5330 -0.2573
 5841SOL    HW128982   2.602   2.514   2.296  0.9209  0.9210  1.0160
 5841SOL    HW228983   2.615   2.438   2.178  2.1214 -1.2773 -1.3417
 5842SOL     OW28984   4.037   0.330  16.530  0.0375  0.2420  0.1567
 5842SOL    HW128985   4.104   0.382  16.574 -0.9174  2.0248 -0.5015
 5842SOL    HW228986   4.085   0.248  16.518 -0.7070 -0.4095  1.7701
 5843SOL     OW28987   3.799   2.758   7.521  0.0810  0.8066 -0.0615
 5843SOL    HW128988   3.721   2.741   7.469 -0.9799  1.6470  1.2791
 5843SOL    HW228989   3.831   2.842   7.489  0.4548  1.2243  1.3725
 5844SOL     OW28990   0.374   3.691   0.300 -0.1595  0.1593  0.5788
 5844SOL    HW128991   0.281   3.672   0.310 -0.1347  0.1552  0.8018
 5844SOL    HW228992   0.393   3.713   0.391 -0.0283 -1.8204  1.0196
 5845SOL     OW28993   4.684   1.923   6.348  0.7657  0.2734 -0.2325
 5845SOL    HW128994   4.707   1.834   6.375 -2.0377 -0.5596 -0.5679
 5845SOL    HW228995   4.595   1.902   6.320  1.5533 -0.4750 -2.1990
 5846SOL     OW28996   4.045   2.225   4.997 -0.3977  0.3239  0.3818
 5846SOL    HW128997   4.089   2.213   5.081 -0.3735 -2.3396 -0.0092
 5846SOL    HW228998   4.084   2.301   4.953  2.0853  0.9989  3.6986
 5847SOL     OW28999   3.563   4.354   2.365  0.5587 -1.0663 -0.0220
 5847SOL    HW129000   3.543   4.327   2.455 -0.0300  0.6755  0.3804
 5847SOL    HW229001   3.643   4.305   2.345  2.2735  1.1493  1.4070
 5848SOL     OW29002   0.370   4.080   2.566 -0.5256 -0.1479  0.4920
 5848SOL    HW129003   0.365   4.164   2.611  0.7927 -1.3657  2.8957
 5848SOL    HW229004   0.309   4.021   2.611 -1.2888 -0.3812 -0.8114
 5849SOL     OW29005   0.282   0.861   2.729  0.1558 -0.5244  0.1450
 5849SOL    HW129006   0.195   0.830   2.751  0.0688 -1.0983 -1.0095
 5849SOL    HW229007   0.267   0.877   2.636  0.1132 -0.3448  0.1819
 5850SOL     OW29008   3.780   2.805   6.642 -0.3103 -0.3227 -0.4501
 5850SOL    HW129009   3.720   2.846   6.581 -1.2045 -0.1370  0.5577
 5850SOL    HW229010   3.715   2.791   6.711  1.1148  0.7210  1.1043
 5851SOL     OW29011   2.622   2.998   8.436  0.2909 -0.0228  0.4651
 5851SOL    HW129012   2.707   3.011   8.480 -0.2574 -0.3791  1.6396
 5851SOL    HW229013   2.610   2.910   8.472  0.4228 -0.5909 -0.8755
 5852SOL     OW29014   3.598   1.075   8.204  0.4605  0.0354  0.0963
 5852SOL    HW129015   3.516   1.049   8.163  0.7825 -0.0369 -0.5111
 5852SOL    HW229016   3.581   1.046   8.293 -0.4555  0.1312 -0.0455
 5853SOL     OW29017   0.770   4.042   8.532  0.4212  0.4268  0.1938
 5853SOL    HW129018   0.676   4.061   8.535  0.1711 -0.6762 -0.5847
 5853SOL    HW229019   0.791   4.126   8.490  0.0018  0.2808 -0.3171
 5854SOL     OW29020   1.167   0.117   8.140 -0.2342  0.1098 -0.4764
 5854SOL    HW129021   1.188   0.135   8.048 -1.4639  0.6915 -0.6571
 5854SOL    HW229022   1.095   0.056   8.125 -0.1181 -0.0814 -0.2498
 5855SOL     OW29023   2.147   3.919   4.428 -0.6333  0.8775  0.2175
 5855SOL    HW129024   2.232   3.924   4.385 -0.1521  1.3008  1.2205
 5855SOL    HW229025   2.162   3.991   4.490  1.2428  0.4877  0.2158
 5856SOL     OW29026   1.960   1.659   6.988 -0.6321 -0.3425 -0.3384
 5856SOL    HW129027   1.934   1.672   6.897 -2.0708 -2.3610 -0.2066
 5856SOL    HW229028   2.017   1.582   6.983  1.2939  1.1219 -0.6105
 5857SOL     OW29029   1.039   2.590   7.121  0.2640 -0.0034  0.5024
 5857SOL    HW129030   0.985   2.571   7.045  2.1639 -2.1208 -0.3366
 5857SOL    HW229031   0.990   2.547   7.191 -0.0200 -1.4588 -0.5996
 5858SOL     OW29032   3.100   1.408   1.007 -0.1586  0.4692  0.1926
 5858SOL    HW129033   3.170   1.352   0.974  0.3880  0.0150  2.1243
 5858SOL    HW229034   3.134   1.493   0.979 -0.8324  1.5808  2.6866
 5859SOL     OW29035   0.411   3.919   8.174  0.6744  0.0526 -0.1701
 5859SOL    HW129036   0.331   3.866   8.176  0.2479  0.7008 -0.2703
 5859SOL    HW229037   0.443   3.906   8.085  2.9806 -2.9248  1.0714
 5860SOL     OW29038   2.100   4.054   2.264 -0.3851 -0.0373 -0.5979
 5860SOL    HW129039   2.078   3.968   2.230  1.0140 -0.2974 -0.8523
 5860SOL    HW229040   2.169   4.034   2.327  2.2328  1.2279 -3.0501
 5861SOL     OW29041   4.050   2.269   2.776  0.3488  0.1481 -0.1223
 5861SOL    HW129042   4.137   2.301   2.752 -0.4382  1.7242 -0.8282
 5861SOL    HW229043   3.999   2.338   2.733 -2.5528 -0.4977  2.2468
 5862SOL     OW29044   1.340   4.686   7.235 -0.1859 -0.3331  0.3907
 5862SOL    HW129045   1.309   4.711   7.148 -0.1566  0.4819  0.6167
 5862SOL    HW229046   1.279   4.617   7.260 -0.5249 -0.6576 -1.3394
 5863SOL     OW29047   0.090   0.536   8.305 -0.4925  0.0432 -0.1813
 5863SOL    HW129048   0.090   0.630   8.286 -1.3326  0.4574  1.8839
 5863SOL    HW229049   4.722   0.520   8.329 -1.1925  2.9585 -0.8783
 5864SOL     OW29050   1.202   3.398   5.590 -0.2106  0.5840  0.3530
 5864SOL    HW129051   1.265   3.398   5.662 -1.6109  1.7823  1.5901
 5864SOL    HW229052   1.134   3.456   5.626  1.2995  1.9603  0.9785
 5865SOL     OW29053   1.921   0.642  12.473 -0.2811 -0.0136 -0.1051
 5865SOL    HW129054   1.956   0.676  12.391  2.0740 -1.2647  0.4013
 5865SOL    HW229055   1.989   0.581  12.501 -1.4673 -1.2145  0.1763
 5866SOL     OW29056   1.043   1.544  15.132 -0.5327 -0.1949 -0.1133
 5866SOL    HW129057   1.080   1.609  15.072 -1.4408  1.5863  1.2779
 5866SOL    HW229058   1.085   1.570  15.213 -0.1273 -2.0102  0.2612
 5867SOL     OW29059   2.474   2.010  10.228 -0.6871  0.2964 -0.1681
 5867SOL    HW129060   2.455   1.934  10.172 -0.7070 -1.8908  2.8240
 5867SOL    HW229061   2.419   1.996  10.305 -1.3271  0.2650 -0.6296
 5868SOL     OW29062   0.494   4.276  10.549 -0.0700  1.2620 -0.2584
 5868SOL    HW129063   0.573   4.229  10.524 -0.0514 -0.8782  3.8934
 5868SOL    HW229064   0.529   4.365  10.559  0.2094  1.1954 -0.6331
 5869SOL     OW29065   3.327   2.317   1.680  0.2070 -0.1872 -0.0908
 5869SOL    HW129066   3.315   2.252   1.610  4.0386 -0.6285 -0.3530
 5869SOL    HW229067   3.242   2.361   1.681  0.6642  0.6841  0.0938
 5870SOL     OW29068   1.072   1.253   4.276 -0.1684  0.0836 -0.3595
 5870SOL    HW129069   1.029   1.297   4.202 -0.9742  1.5274  0.9642
 5870SOL    HW229070   1.161   1.235   4.246 -0.2371  0.1136 -0.5844
 5871SOL     OW29071   4.398   1.173  15.363  0.0311 -0.3947  0.0552
 5871SOL    HW129072   4.465   1.106  15.357 -1.7475 -2.1187 -0.3803
 5871SOL    HW229073   4.316   1.125  15.373 -1.6887  2.7869  1.5353
 5872SOL     OW29074   0.982   1.916  17.390 -0.4545 -0.6347 -0.0100
 5872SOL    HW129075   0.998   1.968  17.469  1.5734  0.4924 -1.1627
 5872SOL    HW229076   1.024   1.968  17.321 -0.3296  0.1734  0.6679
 5873SOL     OW29077   2.746   2.512   0.803  0.0085  0.4053 -0.1739
 5873SOL    HW129078   2.662   2.470   0.782  1.2479 -0.0603 -4.0986
 5873SOL    HW229079   2.729   2.605   0.822 -1.0939  0.6049 -2.1597
 5874SOL     OW29080   4.180   3.790   7.716  0.4888 -0.3798  0.5368
 5874SOL    HW129081   4.219   3.778   7.803  0.3543 -3.2883  0.1857
 5874SOL    HW229082   4.090   3.764   7.735  0.4436 -0.1643  0.6165
 5875SOL     OW29083   3.956   0.503   5.812  0.1072  0.4292  0.0241
 5875SOL    HW129084   4.015   0.438   5.772 -0.6975 -0.9471  1.0883
 5875SOL    HW229085   3.965   0.575   5.749  1.4167 -0.4320 -0.7946
 5876SOL     OW29086   1.272   0.974   0.647  0.3975 -0.3776 -0.3774
 5876SOL    HW129087   1.300   1.028   0.721 -1.4218 -1.8718  1.3720
 5876SOL    HW229088   1.348   0.982   0.589  0.7993  0.4120  0.2647
 5877SOL     OW29089   1.824   1.094  14.793  0.3960  0.6581  0.2439
 5877SOL    HW129090   1.776   1.038  14.732  0.9182  1.9242 -1.3001
 5877SOL    HW229091   1.906   1.051  14.768 -0.2436 -0.9975  0.9570
 5878SOL     OW29092   0.525   0.100   6.780 -0.6806 -0.3815  0.3195
 5878SOL    HW129093   0.590   0.081   6.712 -0.3700  3.5771 -0.5017
 5878SOL    HW229094   0.580   0.158   6.833 -1.3796  0.0975  0.5121
 5879SOL     OW29095   2.555   3.245  10.608 -0.1686  0.4249 -0.3832
 5879SOL    HW129096   2.509   3.203  10.681 -0.4460  0.4923 -0.5189
 5879SOL    HW229097   2.554   3.178  10.539  3.0501  0.7091 -0.6921
 5880SOL     OW29098   3.961   0.317   3.153  0.5704 -0.4939 -0.4845
 5880SOL    HW129099   4.040   0.341   3.202  0.5287 -2.4681  0.5628
 5880SOL    HW229100   3.892   0.321   3.218 -0.1228  0.4773 -1.2872
 5881SOL     OW29101   3.992   2.083   5.608  0.1718  0.7906  0.1465
 5881SOL    HW129102   4.064   2.134   5.570  0.7999  0.4013  0.7944
 5881SOL    HW229103   4.008   2.000   5.563  1.8579  0.3025  1.6412
 5882SOL     OW29104   2.925   3.525   2.215 -0.2751  0.0613 -0.4416
 5882SOL    HW129105   2.892   3.485   2.135 -2.3486  0.5401  0.1696
 5882SOL    HW229106   2.873   3.472   2.277 -0.9822  0.0904 -1.0128
 5883SOL     OW29107   2.602   2.703  16.736  0.0317  0.3671  0.4877
 5883SOL    HW129108   2.635   2.656  16.813 -1.8401 -2.3004 -0.3441
 5883SOL    HW229109   2.547   2.634  16.700 -0.9304  0.5835  1.5341
 5884SOL     OW29110   4.519   0.294   4.644  0.1478 -0.3523  0.1515
 5884SOL    HW129111   4.514   0.202   4.619  1.2767 -0.0203 -1.3222
 5884SOL    HW229112   4.593   0.288   4.705  1.2373  0.2042 -1.0984
 5885SOL     OW29113   1.188   2.525   8.179  0.0363  0.3388 -0.0816
 5885SOL    HW129114   1.166   2.613   8.150  1.9571  1.5649  2.1367
 5885SOL    HW229115   1.270   2.520   8.130 -0.4211  0.2354 -0.8284
 5886SOL     OW29116   3.991   0.714   0.679  0.3157 -0.2949  0.3522
 5886SOL    HW129117   4.067   0.714   0.737  1.3973  0.4526 -1.0566
 5886SOL    HW229118   4.035   0.759   0.606  1.8425 -2.7862 -0.2525
 5887SOL     OW29119   4.249   2.612   3.697 -0.0384  0.3389  0.6338
 5887SOL    HW129120   4.285   2.525   3.677 -1.3881  0.5917 -2.9079
 5887SOL    HW229121   4.237   2.648   3.609 -0.5771 -1.7418 -0.1706
 5888SOL     OW29122   3.505   2.189  12.619  0.0395 -0.2410  0.0159
 5888SOL    HW129123   3.410   2.197  12.625  0.0499  0.5589 -1.0953
 5888SOL    HW229124   3.542   2.245  12.687 -1.6605  1.1929 -0.2408
 5889SOL     OW29125   4.514   0.740  16.325 -0.2242 -0.3851 -0.8262
 5889SOL    HW129126   4.462   0.736  16.245 -0.1615  1.2685 -0.9585
 5889SOL    HW229127   4.482   0.667  16.378  2.1205 -1.9155 -1.4979
 5890SOL     OW29128   0.054   0.697  14.196 -0.3585 -0.4703  0.0938
 5890SOL    HW129129   0.020   0.608  14.207  0.6148 -0.7344  0.9842
 5890SOL    HW229130   4.711   0.728  14.135  0.7889  0.2653 -0.7790
 5891SOL     OW29131   4.335   2.706   4.066 -0.3893  0.0452 -0.0171
 5891SOL    HW129132   4.342   2.624   4.115 -0.7246  0.4857  0.7773
 5891SOL    HW229133   4.372   2.687   3.980  0.7364  1.9862  0.0468
 5892SOL     OW29134   1.908   0.378   1.131 -0.1384 -0.3070  0.1228
 5892SOL    HW129135   1.967   0.317   1.088  0.7688  1.2386 -0.8477
 5892SOL    HW229136   1.964   0.383   1.209 -0.3035  1.5610  0.1349
 5893SOL     OW29137   3.481   4.673   2.620 -0.4525 -0.2874  0.0666
 5893SOL    HW129138   3.403   4.626   2.591 -1.2943  1.6631 -0.8263
 5893SOL    HW229139   3.475   4.648   2.712 -0.1319 -3.2611 -0.7273
 5894SOL     OW29140   3.414   2.958   3.658  0.2712  0.2484 -0.2097
 5894SOL    HW129141   3.346   2.971   3.724 -0.1684  0.9889 -0.8090
 5894SOL    HW229142   3.489   2.920   3.705 -0.7698  0.5705  1.6897
 5895SOL     OW29143   1.737   0.013   6.903 -0.3628 -0.0951 -0.2133
 5895SOL    HW129144   1.815   0.056   6.868 -1.2638  2.9256  1.4933
 5895SOL    HW229145   1.681   0.089   6.917 -0.0653 -0.1468  1.2712
 5896SOL     OW29146   4.153   3.768   3.524  0.2055 -0.0863 -0.2951
 5896SOL    HW129147   4.168   3.690   3.472  2.0224  0.4877 -0.6448
 5896SOL    HW229148   4.069   3.744   3.562  0.3794 -2.2088 -1.2552
 5897SOL     OW29149   3.855   2.252   8.199  0.1501 -0.4495 -0.3109
 5897SOL    HW129150   3.821   2.313   8.133  1.9150  1.1730  0.2934
 5897SOL    HW229151   3.862   2.317   8.269 -0.1202 -1.3471  0.5478
 5898SOL     OW29152   3.882   0.806   4.325  0.6154 -0.0838 -0.3377
 5898SOL    HW129153   3.897   0.845   4.239  0.3858  0.6070 -0.0709
 5898SOL    HW229154   3.949   0.738   4.320  0.7870 -0.1092  2.1997
 5899SOL     OW29155   3.709   2.850   2.093 -0.7731 -0.1227  0.5539
 5899SOL    HW129156   3.655   2.850   2.014 -0.7522  0.3323  0.5412
 5899SOL    HW229157   3.743   2.760   2.088  0.2340  0.2266  1.0363
 5900SOL     OW29158   3.253   1.121   6.974 -0.2779 -0.1332  0.2074
 5900SOL    HW129159   3.172   1.086   6.938  0.2020  0.4026 -1.4254
 5900SOL    HW229160   3.218   1.157   7.055  1.9966  1.6904  0.3843
 5901SOL     OW29161   2.611   3.826   6.270  0.2055 -0.3374  0.0559
 5901SOL    HW129162   2.640   3.873   6.192  0.2431  0.9892  0.8818
 5901SOL    HW229163   2.682   3.840   6.332  1.3336  2.2516 -1.8336
 5902SOL     OW29164   0.493   2.733   7.314  0.4368  0.7169  0.3788
 5902SOL    HW129165   0.400   2.718   7.330  0.3904 -0.1507 -0.7355
 5902SOL    HW229166   0.491   2.758   7.222 -1.3264 -1.6692 -0.2157
 5903SOL     OW29167   1.405   1.108   4.883 -0.2262  0.9272 -0.4930
 5903SOL    HW129168   1.344   1.175   4.852  0.8923  2.7672  1.3082
 5903SOL    HW229169   1.374   1.100   4.973  3.2732 -0.0580  0.6159
 5904SOL     OW29170   3.044   0.314   9.694  0.4806  0.0707  0.1544
 5904SOL    HW129171   3.073   0.243   9.636 -1.4630  0.2505 -1.0364
 5904SOL    HW229172   3.062   0.271   9.777 -1.6566 -0.6183  0.2427
 5905SOL     OW29173   3.057   4.190   3.231  0.2035 -0.0270  0.0129
 5905SOL    HW129174   2.997   4.255   3.269  3.6454  3.8982 -1.3040
 5905SOL    HW229175   3.036   4.205   3.139 -1.0791 -0.5113  0.2244
 5906SOL     OW29176   1.542   2.737  16.163 -0.4683  0.1143  0.2002
 5906SOL    HW129177   1.610   2.795  16.129 -1.1928  1.2976  0.7710
 5906SOL    HW229178   1.466   2.773  16.118 -0.8084  0.2352  0.8650
 5907SOL     OW29179   4.042   1.474   7.774 -0.0988  0.5292  0.0186
 5907SOL    HW129180   3.947   1.478   7.763 -0.2255  0.2250  1.0247
 5907SOL    HW229181   4.050   1.519   7.858  2.3044 -3.1184  1.7218
 5908SOL     OW29182   3.410   3.117  10.083  0.3183  0.1542  0.3730
 5908SOL    HW129183   3.336   3.178  10.080  1.1970  1.3219  2.0768
 5908SOL    HW229184   3.371   3.036  10.116  0.7188  0.5084  1.7244
 5909SOL     OW29185   2.923   2.127  17.447 -0.0431 -0.1717  0.4031
 5909SOL    HW129186   2.966   2.211  17.466  0.8796 -0.9943  1.9438
 5909SOL    HW229187   2.846   2.151  17.499  0.8574  1.8942  0.8037
 5910SOL     OW29188   0.358   4.072   5.262  0.0827 -0.1163 -0.1261
 5910SOL    HW129189   0.290   4.104   5.203 -0.1649  1.9350  1.2652
 5910SOL    HW229190   0.427   4.050   5.200 -0.8968  2.2010 -2.0506
 5911SOL     OW29191   0.258   3.940   8.701  0.5269  0.3853 -0.0741
 5911SOL    HW129192   0.279   3.855   8.740  3.5793  2.1084  2.1033
 5911SOL    HW229193   0.305   4.004   8.755 -0.0960  0.1148  0.7789
 5912SOL     OW29194   0.064   4.518  14.810 -0.2934 -0.5410 -0.4208
 5912SOL    HW129195   4.703   4.491  14.773 -0.4695 -1.2948  0.5265
 5912SOL    HW229196   0.057   4.609  14.840 -1.0233 -1.1535  1.2796
 5913SOL     OW29197   2.546   1.332   2.153 -0.8443 -0.2555  0.2215
 5913SOL    HW129198   2.641   1.345   2.156 -0.9927  1.3534 -1.9090
 5913SOL    HW229199   2.527   1.426   2.150 -1.5864 -0.4019  0.2790
 5914SOL     OW29200   0.180   3.706   2.377 -0.3824 -0.1919  0.7948
 5914SOL    HW129201   0.164   3.799   2.361  0.9675  0.0251  0.6643
 5914SOL    HW229202   0.264   3.701   2.332 -0.9995  0.5963 -0.4408
 5915SOL     OW29203   0.130   2.542   7.374  0.1475 -0.3330 -0.1815
 5915SOL    HW129204   0.113   2.517   7.283  5.1760 -0.6160 -1.0349
 5915SOL    HW229205   0.097   2.465   7.421  1.1965  0.3644  1.6875
 5916SOL     OW29206   1.019   4.694   3.682 -0.3102 -0.4518  0.1634
 5916SOL    HW129207   0.948   4.631   3.670 -0.9447  0.0377  1.3416
 5916SOL    HW229208   0.984   0.060   3.676 -0.0396 -0.2725  1.2944
 5917SOL     OW29209   2.855   4.540   4.328  0.0363 -0.3927 -0.0846
 5917SOL    HW129210   2.907   4.518   4.251  0.5559 -0.3230  0.2466
 5917SOL    HW229211   2.770   4.562   4.289 -0.4366  0.7834  1.6105
 5918SOL     OW29212   4.250   0.362  13.078 -0.6970 -0.1135  0.0948
 5918SOL    HW129213   4.223   0.323  12.994  1.2787  0.2507 -0.6992
 5918SOL    HW229214   4.194   0.439  13.064 -0.6111  0.3606  2.4172
 5919SOL     OW29215   3.723   2.850   0.140 -0.4957 -0.0456  0.3165
 5919SOL    HW129216   3.776   2.772   0.124 -0.0842  0.2398  0.2869
 5919SOL    HW229217   3.784   2.921   0.121  0.8183 -1.3517 -0.2912
 5920SOL     OW29218   1.672   0.848   8.767  0.2731 -0.4628 -0.5128
 5920SOL    HW129219   1.712   0.908   8.704 -0.9875  1.8808  0.9420
 5920SOL    HW229220   1.623   0.799   8.701 -1.7876 -2.2986  2.3647
 5921SOL     OW29221   1.606   3.504   1.013 -0.3449 -0.2707  0.2638
 5921SOL    HW129222   1.535   3.526   1.074  2.5618  2.8460  2.5179
 5921SOL    HW229223   1.627   3.413   1.031  0.8155  0.1910  1.2526
 5922SOL     OW29224   3.681   3.395  14.089 -0.1260 -0.1309 -0.2595
 5922SOL    HW129225   3.591   3.376  14.117 -1.1805  2.4309 -1.9573
 5922SOL    HW229226   3.662   3.446  14.010  0.1508 -1.6477 -1.3174
 5923SOL     OW29227   4.111   0.188  13.241  0.1461  0.1860  0.8609
 5923SOL    HW129228   4.171   0.250  13.201 -0.3914 -0.3733 -0.8307
 5923SOL    HW229229   4.024   0.229  13.239 -0.8224 -1.9285 -0.6592
 5924SOL     OW29230   4.710   0.528   4.283  0.6944  0.0662  0.2284
 5924SOL    HW129231   4.705   0.466   4.211  2.7645  0.8433 -0.5879
 5924SOL    HW229232   4.631   0.503   4.331  0.4071 -3.4807 -2.1388
 5925SOL     OW29233   3.303   3.835   7.202  0.3684  0.0355 -0.0445
 5925SOL    HW129234   3.284   3.812   7.294  2.3450 -1.0471  0.0821
 5925SOL    HW229235   3.221   3.877   7.176  0.3474  0.8660  1.3494
 5926SOL     OW29236   0.676   1.367   8.786  0.2474  0.3821 -0.1661
 5926SOL    HW129237   0.768   1.348   8.768 -0.0962 -1.7081  0.2528
 5926SOL    HW229238   0.655   1.326   8.870  1.0730  0.2826 -0.0086
 5927SOL     OW29239   0.339   4.437   5.253  0.1469 -0.5338  0.3791
 5927SOL    HW129240   0.321   4.381   5.178  0.3075  0.2979 -0.2778
 5927SOL    HW229241   0.408   4.393   5.303  1.6488  0.6909 -0.6161
 5928SOL     OW29242   4.208   3.177  13.419  0.1367  0.0778  0.1129
 5928SOL    HW129243   4.125   3.130  13.423 -0.1830  0.6622  0.3597
 5928SOL    HW229244   4.210   3.198  13.326  3.7963 -1.6001 -0.2173
 5929SOL     OW29245   4.173   3.095   6.111  0.1963  0.5744 -0.3692
 5929SOL    HW129246   4.192   3.057   6.025  0.0105 -0.3488 -0.0086
 5929SOL    HW229247   4.161   3.186   6.085 -3.0544  0.3881  0.5467
 5930SOL     OW29248   0.848   2.423  10.532  0.4783 -0.7153  0.4082
 5930SOL    HW129249   0.858   2.345  10.478 -1.6789 -2.1865  2.1527
 5930SOL    HW229250   0.937   2.460  10.534  0.2614 -0.0154 -1.9719
 5931SOL     OW29251   3.260   4.512   2.580  0.1723 -0.4917 -0.3285
 5931SOL    HW129252   3.174   4.527   2.619  0.4275  1.0273 -0.3264
 5931SOL    HW229253   3.239   4.482   2.491 -0.7143 -0.8704  0.0161
 5932SOL     OW29254   0.491   0.137   2.129 -0.2273 -0.1284  0.1520
 5932SOL    HW129255   0.465   0.061   2.078 -0.2288 -1.5374  2.2268
 5932SOL    HW229256   0.470   0.209   2.069  1.8856 -0.4375 -0.9305
 5933SOL     OW29257   4.204   1.659   4.212 -0.6882  0.2290 -0.5452
 5933SOL    HW129258   4.299   1.657   4.215 -0.6811 -1.4020 -1.8693
 5933SOL    HW229259   4.188   1.692   4.123 -2.5167 -0.9359 -0.6621
 5934SOL     OW29260   0.709   3.517  10.520  0.0206  0.3768  0.3517
 5934SOL    HW129261   0.648   3.526  10.593 -0.0897  0.3374  0.2648
 5934SOL    HW229262   0.654   3.491  10.447  1.0663 -0.1326 -0.2538
 5935SOL     OW29263   4.111   2.335   0.688  0.4871  0.5776  0.0537
 5935SOL    HW129264   4.165   2.267   0.647 -3.3118 -0.1464 -3.8227
 5935SOL    HW229265   4.040   2.279   0.720  1.1996  0.2271  1.0086
 5936SOL     OW29266   1.968   3.504   4.149 -0.3999 -0.1925  0.0241
 5936SOL    HW129267   1.979   3.419   4.106 -2.0444  0.9887 -2.7602
 5936SOL    HW229268   2.054   3.517   4.191 -0.6612  0.8966  0.2183
 5937SOL     OW29269   1.980   4.461   6.262 -0.2555 -0.4342 -0.1189
 5937SOL    HW129270   2.028   4.428   6.338  0.2991  0.4685 -0.0919
 5937SOL    HW229271   2.042   4.455   6.189 -0.6979 -1.3312 -0.4334
 5938SOL     OW29272   0.277   1.626   4.244  0.0543  0.0439 -0.4349
 5938SOL    HW129273   0.227   1.584   4.174  0.7741  0.4018 -1.1768
 5938SOL    HW229274   0.306   1.558   4.305 -0.2036  1.0120  0.7694
 5939SOL     OW29275   1.201   0.881   9.371  0.0327  0.2023 -0.4320
 5939SOL    HW129276   1.158   0.815   9.426 -0.2669 -0.4475 -1.4497
 5939SOL    HW229277   1.177   0.855   9.282 -0.5264  0.0919 -0.2498
 5940SOL     OW29278   2.413   1.094   2.181 -0.3996  0.1181 -0.1989
 5940SOL    HW129279   2.488   1.041   2.152  0.0807  0.0514  1.1880
 5940SOL    HW229280   2.449   1.183   2.176 -0.3646  0.0911 -0.4496
 5941SOL     OW29281   3.368   2.272   7.029  0.0708  0.0116  0.7257
 5941SOL    HW129282   3.384   2.185   6.991  0.6534  0.3647  0.1669
 5941SOL    HW229283   3.459   2.295   7.048  0.3867 -0.6179 -0.0186
 5942SOL     OW29284   3.664   2.229   6.118 -0.0554  0.3230 -0.2269
 5942SOL    HW129285   3.675   2.153   6.060 -0.4238 -1.0094  1.4431
 5942SOL    HW229286   3.741   2.274   6.084 -1.5487  0.7521 -3.0458
 5943SOL     OW29287   4.511   3.483   6.385 -0.1590  0.1348  0.2372
 5943SOL    HW129288   4.438   3.466   6.326 -1.6820  2.2141  1.5193
 5943SOL    HW229289   4.461   3.491   6.467  1.6005  0.7086  1.2336
 5944SOL     OW29290   3.227   3.162   2.355 -0.4544 -0.0076 -0.0724
 5944SOL    HW129291   3.321   3.145   2.344 -0.4320  0.6536 -0.9185
 5944SOL    HW229292   3.216   3.257   2.344 -0.4792  0.1451  1.3146
 5945SOL     OW29293   2.820   2.167   1.288  0.1645 -0.2035  0.0809
 5945SOL    HW129294   2.878   2.145   1.360 -0.9346  1.1239  1.3733
 5945SOL    HW229295   2.745   2.192   1.342  1.0242  1.8097  0.3647
 5946SOL     OW29296   1.719   2.102   4.572  0.3663 -0.7180 -0.1804
 5946SOL    HW129297   1.788   2.046   4.608  0.6717 -0.1507  0.1131
 5946SOL    HW229298   1.772   2.177   4.545  1.9218 -1.6280  0.3640
 5947SOL     OW29299   1.897   0.647   9.782  0.2112  0.7693 -0.1217
 5947SOL    HW129300   1.811   0.680   9.810  0.8165  0.8295  1.6495
 5947SOL    HW229301   1.947   0.707   9.837 -1.2528  2.7920 -1.0075
 5948SOL     OW29302   3.500   2.118   7.634  0.4376  0.3078  0.5032
 5948SOL    HW129303   3.414   2.086   7.664  0.2479  1.7544  1.5455
 5948SOL    HW229304   3.556   2.041   7.639  1.1953  0.7403 -1.5137
 5949SOL     OW29305   2.399   0.727   7.804 -0.0944 -0.0970 -0.2510
 5949SOL    HW129306   2.455   0.743   7.880 -3.1257  0.2899  1.9053
 5949SOL    HW229307   2.442   0.789   7.746  0.8146 -0.7365 -0.2525
 5950SOL     OW29308   2.638   1.808   1.484 -0.1739  0.7237  0.0410
 5950SOL    HW129309   2.598   1.856   1.411 -0.8463 -0.7412 -0.5494
 5950SOL    HW229310   2.638   1.875   1.553 -3.7846 -1.1910  1.8610
 5951SOL     OW29311   1.690   1.243   5.677  0.5781 -0.3054 -0.2517
 5951SOL    HW129312   1.674   1.149   5.675  2.0417 -0.5579  0.2854
 5951SOL    HW229313   1.695   1.265   5.770 -1.3431 -1.1109  0.0383
 5952SOL     OW29314   2.469   1.980   3.924 -0.0699  0.4801 -0.3789
 5952SOL    HW129315   2.463   2.061   3.975 -0.6470 -0.5373  1.1376
 5952SOL    HW229316   2.375   1.966   3.927 -0.1753  1.2738  0.1369
 5953SOL     OW29317   0.646   2.144   3.971 -0.4791 -0.1821  0.0942
 5953SOL    HW129318   0.739   2.165   3.987 -0.7831  0.5827  0.8933
 5953SOL    HW229319   0.640   2.161   3.877  0.6092  2.4808  0.4794
 5954SOL     OW29320   3.354   3.633   9.676  0.0396 -0.1405 -0.0096
 5954SOL    HW129321   3.332   3.561   9.734  0.7470 -0.2375  0.1450
 5954SOL    HW229322   3.290   3.702   9.694 -1.5440 -1.6048 -0.0640
 5955SOL     OW29323   2.695   4.218  15.754 -0.2323 -0.8312  0.6299
 5955SOL    HW129324   2.646   4.136  15.747 -1.7782  0.1886 -0.5554
 5955SOL    HW229325   2.633   4.290  15.745  2.1970  1.3155  1.0013
 5956SOL     OW29326   4.279   2.816  15.941  0.5422 -0.1149 -0.0848
 5956SOL    HW129327   4.191   2.797  15.909  0.8991  1.9178 -2.1945
 5956SOL    HW229328   4.317   2.729  15.957 -0.0705 -0.3074  0.3570
 5957SOL     OW29329   1.699   3.077   7.501  0.6867 -0.0507 -0.2756
 5957SOL    HW129330   1.645   3.049   7.427  0.8978 -0.6861 -0.1918
 5957SOL    HW229331   1.644   3.076   7.579 -1.2483 -4.5162 -1.6566
 5958SOL     OW29332   4.488   0.405   8.055  0.7858 -0.2567 -0.3365
 5958SOL    HW129333   4.436   0.435   7.981  3.0290  0.8322 -1.4566
 5958SOL    HW229334   4.442   0.322   8.069 -0.1976 -0.0205 -2.1876
 5959SOL     OW29335   0.076   3.494  13.367 -0.0211  0.2636  0.8461
 5959SOL    HW129336   0.094   3.403  13.390  3.2331  1.3689  2.5374
 5959SOL    HW229337   0.048   3.533  13.450 -2.0294 -0.7294  0.6380
 5960SOL     OW29338   1.880   4.363   1.400 -0.1537  0.2977  0.0335
 5960SOL    HW129339   1.920   4.421   1.335 -0.1710  0.6211  0.3133
 5960SOL    HW229340   1.928   4.281   1.396  0.1498  0.5575 -1.7443
 5961SOL     OW29341   0.574   2.827   1.723  0.3364 -0.1808  0.0469
 5961SOL    HW129342   0.597   2.791   1.637  1.1294  1.6073 -0.4826
 5961SOL    HW229343   0.611   2.764   1.785  0.7764  0.7172  0.6922
 5962SOL     OW29344   0.937   1.694   6.162  0.3935 -0.0031  0.1584
 5962SOL    HW129345   0.994   1.766   6.137  2.0308 -0.7027  1.9062
 5962SOL    HW229346   1.003   1.635   6.198 -2.8809 -2.9480  1.4032
 5963SOL     OW29347   0.550   0.534   3.973 -0.0895  0.7302 -0.2809
 5963SOL    HW129348   0.545   0.449   4.016  3.1674  0.2805 -0.8209
 5963SOL    HW229349   0.468   0.525   3.924 -0.1476  0.8943 -0.2148
 5964SOL     OW29350   3.878   4.257  13.134  0.2270 -0.3128  0.0732
 5964SOL    HW129351   3.809   4.311  13.097 -1.7561 -0.5392  3.4143
 5964SOL    HW229352   3.855   4.166  13.117 -1.5925  0.2747 -0.6182
 5965SOL     OW29353   2.865   1.534   3.681 -0.4819  0.3845  0.1292
 5965SOL    HW129354   2.862   1.451   3.729  0.6241  0.3934  0.2246
 5965SOL    HW229355   2.782   1.579   3.699 -0.5427 -0.1910  1.2944
 5966SOL     OW29356   3.974   2.613   7.953  0.4597 -0.1869  0.6264
 5966SOL    HW129357   3.959   2.666   8.031  1.8263  0.7576  0.2437
 5966SOL    HW229358   4.067   2.592   7.967  0.4513 -1.7208 -1.6920
 5967SOL     OW29359   4.229   3.597   2.017  0.2379 -0.5832 -0.0062
 5967SOL    HW129360   4.182   3.533   1.965  0.5814 -0.5394 -0.3711
 5967SOL    HW229361   4.314   3.608   1.973  0.1310  4.2404  0.9496
 5968SOL     OW29362   2.836   3.999   5.314 -0.1711 -0.3332 -0.0141
 5968SOL    HW129363   2.906   3.941   5.284  1.0894  0.4362  1.4365
 5968SOL    HW229364   2.789   4.028   5.235 -0.7496 -3.8837 -0.9870
 5969SOL     OW29365   0.071   4.549   7.546 -0.2514  0.0517  0.4425
 5969SOL    HW129366   0.011   4.493   7.595 -0.4603  0.7551  0.9806
 5969SOL    HW229367   0.130   4.486   7.505 -1.2337 -1.3058  1.1144
 5970SOL     OW29368   1.553   3.269   1.400  0.5334 -0.1914 -0.0387
 5970SOL    HW129369   1.625   3.214   1.368  0.3043 -0.1713 -0.5881
 5970SOL    HW229370   1.612   3.336   1.434  2.0243 -1.1477 -0.7327
 5971SOL     OW29371   3.556   1.180   6.388 -0.2676  0.3913 -0.4572
 5971SOL    HW129372   3.533   1.199   6.479  1.4211 -1.0833  0.2718
 5971SOL    HW229373   3.483   1.230   6.351  1.2105  2.0062 -1.1583
 5972SOL     OW29374   1.239   0.839   5.637  0.0042 -0.7994 -0.8196
 5972SOL    HW129375   1.229   0.787   5.716 -1.2276 -1.5901 -1.4950
 5972SOL    HW229376   1.203   0.770   5.581  0.2388 -0.9681 -0.7604
 5973SOL     OW29377   1.991   1.443   3.114 -0.4551 -0.5679  0.1710
 5973SOL    HW129378   2.077   1.479   3.136 -1.6517  1.5599  1.4482
 5973SOL    HW229379   1.988   1.359   3.159 -2.2035  0.1883  1.4817
 5974SOL     OW29380   1.929   3.664   5.323  0.1065 -0.3457 -0.1722
 5974SOL    HW129381   2.006   3.713   5.295 -0.0995  0.3154  0.4192
 5974SOL    HW229382   1.962   3.575   5.319 -0.1161 -0.3919 -0.9394
 5975SOL     OW29383   1.303   3.634   4.329  0.2699  0.1352  0.3191
 5975SOL    HW129384   1.258   3.714   4.302  0.0529 -0.0188  0.2200
 5975SOL    HW229385   1.306   3.601   4.240  2.3257 -1.3293  0.9334
 5976SOL     OW29386   4.405   2.286   3.075  0.2412 -0.4632 -0.7886
 5976SOL    HW129387   4.391   2.365   3.023 -0.2928 -0.4058 -0.5658
 5976SOL    HW229388   4.323   2.239   3.056 -0.7528  0.5682  0.9778
 5977SOL     OW29389   4.634   3.325   5.456  0.4007 -0.0441 -0.2646
 5977SOL    HW129390   4.638   3.237   5.418 -2.4711 -0.2078 -0.2022
 5977SOL    HW229391   4.577   3.313   5.533  0.3135  1.9731 -0.0088
 5978SOL     OW29392   1.289   2.281  15.879  0.7038 -0.7319  0.6271
 5978SOL    HW129393   1.303   2.329  15.960 -0.8570  0.5377  0.1458
 5978SOL    HW229394   1.289   2.186  15.892  2.1175 -0.6663  1.1323
 5979SOL     OW29395   0.574   4.493   4.654 -0.2495  0.1008 -0.0044
 5979SOL    HW129396   0.599   4.470   4.744 -0.4457  2.9098  0.7795
 5979SOL    HW229397   0.537   4.581   4.653  0.6239  0.4629 -0.9812
 5980SOL     OW29398   4.338   3.433  13.481 -0.1099 -0.0832  0.1318
 5980SOL    HW129399   4.325   3.430  13.575  0.1283 -0.1687  0.1614
 5980SOL    HW229400   4.325   3.339  13.469 -1.1864  0.0492  0.2911
 5981SOL     OW29401   0.680   0.054   4.931 -1.0603  0.7287 -0.4397
 5981SOL    HW129402   0.713   0.131   4.978  0.1477  0.1182 -0.2973
 5981SOL    HW229403   0.724   0.072   4.848  0.7171  0.4361  0.4475
 5982SOL     OW29404   2.132   2.791   8.919 -0.0047  0.0087 -0.6441
 5982SOL    HW129405   2.106   2.713   8.966  1.7448  0.1654  0.6047
 5982SOL    HW229406   2.156   2.757   8.833  1.1658  0.9436 -0.7016
 5983SOL     OW29407   2.722   3.435   6.591  0.4027  0.4045 -0.1638
 5983SOL    HW129408   2.706   3.523   6.626  0.6900  0.1284  0.6626
 5983SOL    HW229409   2.665   3.420   6.517 -0.6195  0.9327  0.5183
 5984SOL     OW29410   4.590   4.574   4.148 -0.1374 -0.1117 -0.0847
 5984SOL    HW129411   4.532   4.498   4.137  0.6305 -0.5478 -1.1558
 5984SOL    HW229412   4.610   4.578   4.241 -3.6686  2.4576  0.5440
 5985SOL     OW29413   3.596   2.569   3.599 -0.6951  0.2195  0.1250
 5985SOL    HW129414   3.669   2.521   3.637 -0.4230  1.6772  1.4320
 5985SOL    HW229415   3.552   2.496   3.555 -0.1965  1.0507 -1.7247
 5986SOL     OW29416   2.354   0.550   7.569  0.5247 -0.0560 -0.5134
 5986SOL    HW129417   2.339   0.618   7.503 -1.2270 -0.6488 -0.7448
 5986SOL    HW229418   2.280   0.491   7.553  0.7716 -0.2120 -1.0632
 5987SOL     OW29419   1.805   1.566   2.992  0.0090 -0.1839 -0.5517
 5987SOL    HW129420   1.884   1.534   3.035  0.3404  0.8232 -0.4230
 5987SOL    HW229421   1.760   1.577   3.075 -1.1999  0.5997 -1.3114
 5988SOL     OW29422   3.437   2.793   1.024 -0.0419 -0.3077  0.1711
 5988SOL    HW129423   3.500   2.758   1.087 -2.2966 -1.6799  1.6471
 5988SOL    HW229424   3.460   2.886   1.019  2.0628 -0.9455 -2.1056
 5989SOL     OW29425   2.567   3.129   2.042 -0.1313 -0.3071  0.3765
 5989SOL    HW129426   2.618   3.149   2.120 -0.7475  0.1736  0.6627
 5989SOL    HW229427   2.499   3.067   2.066  0.3052 -0.8975  0.0866
 5990SOL     OW29428   4.530   0.505   8.308  0.7975 -0.2086  0.7625
 5990SOL    HW129429   4.515   0.494   8.214 -1.1839 -1.3193  1.2109
 5990SOL    HW229430   4.466   0.445   8.348  1.2372 -1.8291 -0.9858
 5991SOL     OW29431   4.070   4.279   0.958 -0.2103  0.2995  0.0174
 5991SOL    HW129432   3.987   4.327   0.962  0.1959  0.9305  1.0723
 5991SOL    HW229433   4.039   4.189   0.950 -0.3865  0.2063  1.6846
 5992SOL     OW29434   0.842   3.091  12.509  0.0456 -0.5323 -0.4579
 5992SOL    HW129435   0.873   3.008  12.545  0.7024  0.4282  1.1932
 5992SOL    HW229436   0.920   3.128  12.467 -0.0671  0.7391  0.4528
 5993SOL     OW29437   0.278   1.222   9.352  0.2791  0.0099  0.0653
 5993SOL    HW129438   0.351   1.284   9.359 -1.2360  1.5601  2.0227
 5993SOL    HW229439   0.325   1.150   9.308  1.5008  0.2890  0.9244
 5994SOL     OW29440   4.009   3.668   2.535  0.0996 -0.0235 -0.5235
 5994SOL    HW129441   3.954   3.631   2.466  0.2017  2.2154 -1.7728
 5994SOL    HW229442   4.044   3.745   2.490  0.5977 -0.8235 -1.5065
 5995SOL     OW29443   3.725   3.777  10.286  0.5027 -0.2380 -0.5672
 5995SOL    HW129444   3.742   3.820  10.202 -2.3049 -0.6084 -1.3238
 5995SOL    HW229445   3.638   3.738  10.278  0.1557  0.6048 -0.8406
 5996SOL     OW29446   3.426   2.118   2.519  0.0961  0.4239 -0.3340
 5996SOL    HW129447   3.471   2.051   2.570  0.6590 -0.7508 -2.3557
 5996SOL    HW229448   3.425   2.181   2.591 -1.4538 -1.9967  1.7738
 5997SOL     OW29449   4.484   3.159   2.460  0.1467 -0.6839 -0.3539
 5997SOL    HW129450   4.432   3.088   2.423 -0.8916 -0.9561  1.6656
 5997SOL    HW229451   4.409   3.218   2.475  0.8379  0.3373 -0.8559
 5998SOL     OW29452   2.140   1.797  10.119 -0.4151  0.4732 -0.4374
 5998SOL    HW129453   2.086   1.719  10.127  1.4783 -0.6213  1.9094
 5998SOL    HW229454   2.104   1.841  10.196  0.5103  1.5634 -0.6110
 5999SOL     OW29455   0.623   0.953   2.008 -0.1307  0.8389  0.1821
 5999SOL    HW129456   0.571   0.906   1.942  2.2200 -3.0407  1.0862
 5999SOL    HW229457   0.562   0.977   2.077  0.6524 -0.2896  1.2777
 6000SOL     OW29458   0.916   0.799  13.746 -0.1357  0.3696 -0.1596
 6000SOL    HW129459   0.918   0.760  13.833  0.0529 -0.3025 -0.4643
 6000SOL    HW229460   1.002   0.769  13.717  0.9309  1.7620  1.6096
 6001SOL     OW29461   4.328   2.552   6.643  0.0006  0.5539 -0.2616
 6001SOL    HW129462   4.270   2.589   6.576 -0.4993 -1.9985 -1.2610
 6001SOL    HW229463   4.366   2.637   6.664 -1.5518  0.5578  2.5824
 6002SOL     OW29464   4.662   3.428   7.572 -0.3058 -0.4399 -0.1041
 6002SOL    HW129465   4.621   3.477   7.500 -1.4105 -1.6899 -0.3172
 6002SOL    HW229466   4.582   3.397   7.614  0.4162 -2.1875 -0.0255
 6003SOL     OW29467   0.768   2.390   7.060 -0.5796  0.2895  0.8810
 6003SOL    HW129468   0.719   2.424   7.134 -1.9331 -1.1055  0.6069
 6003SOL    HW229469   0.740   2.299   7.066 -2.6765  0.8514 -0.4093
 6004SOL     OW29470   3.300   3.589   1.090 -0.0270 -0.0423 -0.0453
 6004SOL    HW129471   3.307   3.534   1.012 -1.7085 -0.2865 -0.0293
 6004SOL    HW229472   3.393   3.607   1.104 -0.2083 -0.1952  1.3633
 6005SOL     OW29473   4.129   0.789   8.294 -0.2632 -0.0004 -0.0477
 6005SOL    HW129474   4.143   0.874   8.335 -1.2773  0.2081 -0.1218
 6005SOL    HW229475   4.173   0.798   8.209 -1.8664 -1.8236 -1.0646
 6006SOL     OW29476   0.046   2.938   0.978 -0.5280 -0.3829 -0.3935
 6006SOL    HW129477   4.695   2.918   1.036  1.6354 -0.6268  2.3105
 6006SOL    HW229478   0.056   2.854   0.934 -3.6205 -0.6614 -0.5945
 6007SOL     OW29479   4.107   2.544   5.157 -0.3677 -0.2706 -0.0555
 6007SOL    HW129480   4.086   2.577   5.070 -0.2501 -0.0560 -0.0033
 6007SOL    HW229481   4.200   2.531   5.138  0.4039  1.2608  2.5507
 6008SOL     OW29482   1.543   3.610   6.969  0.0170  0.0492  0.3289
 6008SOL    HW129483   1.452   3.600   6.998  0.6937 -1.2929  1.9899
 6008SOL    HW229484   1.551   3.656   6.885  0.3775 -2.8825 -1.2378
 6009SOL     OW29485   2.482   4.605   7.883 -0.4067  0.2621 -0.4721
 6009SOL    HW129486   2.530   4.650   7.813 -1.0019 -2.5527 -2.6637
 6009SOL    HW229487   2.390   4.607   7.856 -1.1234  0.1247  2.0073
 6010SOL     OW29488   4.647   0.739   7.978  0.1987 -0.3040  1.0847
 6010SOL    HW129489   4.658   0.721   8.071 -0.3074  1.1400  1.4353
 6010SOL    HW229490   4.701   0.816   7.958 -2.3667  1.1018 -0.4041
 6011SOL     OW29491   1.934   0.686  16.851  0.0173 -0.0130 -0.2435
 6011SOL    HW129492   1.910   0.613  16.908  1.5286 -0.5173 -0.2660
 6011SOL    HW229493   1.844   0.719  16.841 -0.7158 -1.6277  1.0814
 6012SOL     OW29494   1.963   4.424  14.964  0.7159 -0.6151 -0.1676
 6012SOL    HW129495   1.961   4.456  15.054 -2.7606  0.8291 -0.7718
 6012SOL    HW229496   1.970   4.500  14.906  0.1221  0.1176  0.7183
 6013SOL     OW29497   0.870   3.567   4.815 -0.8631 -0.3913 -0.2493
 6013SOL    HW129498   0.836   3.656   4.818 -1.1602 -0.5119  0.0515
 6013SOL    HW229499   0.941   3.592   4.756 -0.1776  0.9934  1.1583
 6014SOL     OW29500   4.085   0.319   6.906  0.3511  0.4999 -0.6747
 6014SOL    HW129501   4.093   0.414   6.895  1.0901  0.7330  1.7594
 6014SOL    HW229502   4.175   0.288   6.893 -0.5892 -1.7630 -1.8939
 6015SOL     OW29503   1.461   0.664   8.903 -0.1731 -0.5056  0.3829
 6015SOL    HW129504   1.379   0.615   8.913 -2.1947  2.3087 -2.1286
 6015SOL    HW229505   1.491   0.639   8.816  1.5140  0.8942  0.5721
 6016SOL     OW29506   0.728   2.736   5.731 -0.0741 -0.4632 -0.0511
 6016SOL    HW129507   0.665   2.675   5.693  0.1791 -1.3884  0.9898
 6016SOL    HW229508   0.805   2.727   5.674 -1.6727  2.5678 -2.6362
 6017SOL     OW29509   4.411   0.993  16.543 -0.0236  0.5749  0.1484
 6017SOL    HW129510   4.402   0.898  16.546  0.9345  0.5320  1.5261
 6017SOL    HW229511   4.449   1.002  16.456 -0.2013 -3.0000 -0.3024
 6018SOL     OW29512   1.595   1.352  13.191  0.3971  0.0573  0.7111
 6018SOL    HW129513   1.565   1.368  13.102  2.8860 -0.8231 -0.2928
 6018SOL    HW229514   1.689   1.372  13.186  0.6466 -1.0657  0.9145
 6019SOL     OW29515   2.883   0.557   7.834 -0.6096 -0.2355 -0.2485
 6019SOL    HW129516   2.833   0.576   7.913  0.4846  1.1680  0.1039
 6019SOL    HW229517   2.861   0.464   7.828  1.7588 -0.8098 -0.1347
 6020SOL     OW29518   4.026   3.878   6.046  0.0436  0.7402  0.6640
 6020SOL    HW129519   4.079   3.896   6.123  2.9949 -0.4685 -1.0581
 6020SOL    HW229520   4.091   3.879   5.975 -0.4580 -0.8940  0.1873
 6021SOL     OW29521   1.502   1.436  13.421  1.0378 -0.0746  0.1250
 6021SOL    HW129522   1.561   1.510  13.408 -0.3075  0.7252 -1.4375
 6021SOL    HW229523   1.538   1.383  13.350  0.4427 -1.5494  0.9220
 6022SOL     OW29524   0.723   2.794   5.356 -0.0996 -0.2732  0.3371
 6022SOL    HW129525   0.721   2.700   5.343  1.9712 -0.3547  0.7649
 6022SOL    HW229526   0.814   2.808   5.380  0.2002  0.3543 -1.1167
 6023SOL     OW29527   3.489   4.334   1.846 -0.3984  1.0227  0.1679
 6023SOL    HW129528   3.438   4.358   1.923 -2.5205 -2.3740 -0.1943
 6023SOL    HW229529   3.582   4.342   1.868  0.5548 -0.5986 -3.2709
 6024SOL     OW29530   0.444   1.542   8.147  0.2647  0.4543 -0.1814
 6024SOL    HW129531   0.490   1.458   8.149 -2.6279 -1.2195 -3.1414
 6024SOL    HW229532   0.353   1.514   8.135  0.6276 -0.3456 -1.0157
 6025SOL     OW29533   3.250   4.195  11.603 -0.0248  0.0588  0.4874
 6025SOL    HW129534   3.202   4.158  11.529 -1.1017  0.8854  0.7605
 6025SOL    HW229535   3.265   4.111  11.646  0.0363 -1.0356 -1.6780
 6026SOL     OW29536   2.074   4.095   6.776 -0.2841  0.6524 -0.6469
 6026SOL    HW129537   1.986   4.061   6.760  0.2877 -2.8193  3.3830
 6026SOL    HW229538   2.129   4.034   6.727 -0.3081 -1.3274  1.7886
 6027SOL     OW29539   0.349   2.948   7.609  0.0076  0.0903 -0.4049
 6027SOL    HW129540   0.289   2.878   7.634  0.0349  0.1040 -0.3014
 6027SOL    HW229541   0.320   3.016   7.671  1.2845 -1.5545  2.0142
 6028SOL     OW29542   1.499   1.080   5.440  0.0147  0.1922  0.0360
 6028SOL    HW129543   1.573   1.085   5.379  2.7810  1.2424  3.4975
 6028SOL    HW229544   1.484   0.986   5.431  1.5176  0.0346 -0.8281
 6029SOL     OW29545   3.516   0.036  12.856 -0.0149 -0.1685 -1.1759
 6029SOL    HW129546   3.491   0.052  12.947 -3.2225 -3.3092 -1.5433
 6029SOL    HW229547   3.504   0.124  12.820 -0.5388  0.6402  0.9916
 6030SOL     OW29548   0.774   2.429   2.821  0.1957 -0.8343 -0.2892
 6030SOL    HW129549   0.711   2.392   2.883  1.6777 -1.1727  1.0174
 6030SOL    HW229550   0.741   2.519   2.824 -0.4587 -1.1231  0.9239
 6031SOL     OW29551   2.672   3.214   2.722  0.0707  0.3538 -0.3381
 6031SOL    HW129552   2.602   3.244   2.664 -0.2611 -2.4237 -1.3901
 6031SOL    HW229553   2.666   3.119   2.725  2.6617  0.1340 -1.8285
 6032SOL     OW29554   2.557   2.205   7.063  0.3369 -0.2028 -0.3864
 6032SOL    HW129555   2.576   2.151   6.986 -2.3401  0.3062 -1.4020
 6032SOL    HW229556   2.631   2.267   7.060  0.4224 -0.4363 -3.3558
 6033SOL     OW29557   4.327   1.624   1.741 -0.4379  0.1486  0.0162
 6033SOL    HW129558   4.347   1.653   1.652  2.7894 -1.2028  0.3020
 6033SOL    HW229559   4.263   1.556   1.721  1.6036 -1.1435 -2.2068
 6034SOL     OW29560   2.248   4.018   2.486 -0.0994 -0.2305  0.0021
 6034SOL    HW129561   2.343   4.014   2.474  0.0712  0.1922  1.2302
 6034SOL    HW229562   2.241   4.098   2.537 -1.3972 -0.3391  0.0054
 6035SOL     OW29563   3.472   2.297   2.748  0.0913 -0.1784  0.0317
 6035SOL    HW129564   3.452   2.390   2.745 -1.7859 -0.5670  0.6076
 6035SOL    HW229565   3.555   2.294   2.795  0.4663 -1.6545 -0.7073
 6036SOL     OW29566   4.445   1.423  11.584 -0.0487 -0.4512  0.0496
 6036SOL    HW129567   4.475   1.496  11.638 -1.6014 -0.1783  0.5386
 6036SOL    HW229568   4.509   1.358  11.613  2.8129  2.2412 -0.3249
 6037SOL     OW29569   4.521   0.674  12.624  0.1814  0.0734 -0.2513
 6037SOL    HW129570   4.437   0.707  12.594 -0.9795 -0.8630  1.9529
 6037SOL    HW229571   4.569   0.755  12.640 -0.2810  0.6899 -2.0177
 6038SOL     OW29572   1.216   0.047   3.491  0.3443 -0.4182  0.6457
 6038SOL    HW129573   1.136   0.083   3.454  0.6276  1.6442  2.0448
 6038SOL    HW229574   1.189   0.012   3.576  0.7762  2.9863  2.1534
 6039SOL     OW29575   2.758   0.692   2.586 -0.4716 -0.5474 -0.2567
 6039SOL    HW129576   2.848   0.707   2.557 -0.1497  1.8132  2.0382
 6039SOL    HW229577   2.731   0.629   2.519 -0.5427 -2.3098  1.4349
 6040SOL     OW29578   0.675   4.331  17.449 -0.2419 -0.0193  0.2806
 6040SOL    HW129579   0.722   4.327  17.532 -0.0142  0.3026  0.1655
 6040SOL    HW229580   0.682   4.242  17.414 -0.3487 -0.1407  0.5654
 6041SOL     OW29581   1.003   0.664   4.096 -0.0320  0.0911  0.2021
 6041SOL    HW129582   1.047   0.579   4.097 -2.2362 -1.0855 -1.2953
 6041SOL    HW229583   0.987   0.674   4.002  1.3669 -0.4517 -0.0872
 6042SOL     OW29584   2.178   2.760   4.134  0.1743  0.1590 -0.0441
 6042SOL    HW129585   2.098   2.712   4.112  0.4473 -1.1734  1.9156
 6042SOL    HW229586   2.237   2.694   4.169 -1.8924 -0.8041  1.6538
 6043SOL     OW29587   0.945   2.047   7.647  0.5216  0.0365 -0.1524
 6043SOL    HW129588   0.977   1.993   7.575  1.2296  2.3319 -1.5796
 6043SOL    HW229589   0.871   1.991   7.670  0.3194 -0.1753 -1.3049
 6044SOL     OW29590   1.892   2.087   0.635 -0.1891  0.3672 -1.0202
 6044SOL    HW129591   1.830   2.023   0.671  1.6783 -1.5317 -1.2077
 6044SOL    HW229592   1.864   2.168   0.678  0.6724  0.1392 -0.0253
 6045SOL     OW29593   3.992   3.977   3.729 -0.1831  0.3052  0.2039
 6045SOL    HW129594   4.042   3.955   3.807  2.0705  1.9825 -0.7728
 6045SOL    HW229595   4.014   4.070   3.720 -2.5842  0.5890 -2.8344
 6046SOL     OW29596   2.219   1.686   7.686  0.7332  0.0457  0.1039
 6046SOL    HW129597   2.263   1.605   7.711 -1.0798 -1.0589 -0.2991
 6046SOL    HW229598   2.238   1.675   7.593  1.7637 -1.4666  0.4864
 6047SOL     OW29599   4.340   2.325   6.421  0.2169 -0.6194 -0.0631
 6047SOL    HW129600   4.309   2.352   6.508 -1.0124 -1.1124 -0.3414
 6047SOL    HW229601   4.262   2.310   6.368  1.2225  0.0554 -1.7046
 6048SOL     OW29602   0.208   4.571   6.077  0.3506  0.0997 -0.9605
 6048SOL    HW129603   0.143   4.529   6.019  1.6479 -1.9997 -0.9091
 6048SOL    HW229604   0.149   4.613   6.138  1.2677  0.5856 -0.4154
 6049SOL     OW29605   2.314   0.191   0.174 -0.3040 -0.0851 -0.3081
 6049SOL    HW129606   2.357   0.267   0.214  0.4699  0.3376 -1.9257
 6049SOL    HW229607   2.261   0.227   0.103 -0.1571 -1.1015 -0.9353
 6050SOL     OW29608   1.052   0.207   1.591  0.3447 -0.0330 -0.4188
 6050SOL    HW129609   1.033   0.300   1.596 -0.6339 -0.0768 -2.8231
 6050SOL    HW229610   1.069   0.185   1.682 -0.0745 -1.4244 -0.6723
 6051SOL     OW29611   1.758   4.162   5.490 -0.3008 -0.3230  0.0896
 6051SOL    HW129612   1.729   4.207   5.411  0.0180  2.6960  1.6804
 6051SOL    HW229613   1.794   4.230   5.546  2.1104 -1.7454  0.2563
 6052SOL     OW29614   3.937   1.436   6.557  0.7906  0.5468 -0.1007
 6052SOL    HW129615   3.907   1.402   6.472 -1.1446  3.0948 -0.4298
 6052SOL    HW229616   4.020   1.388   6.563 -0.0497 -0.8185  0.4787
 6053SOL     OW29617   4.325   2.407   8.580 -0.0173  0.0321 -0.2595
 6053SOL    HW129618   4.242   2.404   8.628  0.2446  1.0471  0.2506
 6053SOL    HW229619   4.357   2.495   8.600 -0.8131  0.5283 -1.1641
 6054SOL     OW29620   3.256   2.747   8.016  0.4324 -1.1450  0.0397
 6054SOL    HW129621   3.165   2.776   8.021  1.4871  2.2108 -0.5460
 6054SOL    HW229622   3.258   2.732   7.921  1.3488  0.8789 -0.2520
 6055SOL     OW29623   0.907   0.478  11.587 -0.4059 -0.4559 -0.6849
 6055SOL    HW129624   1.000   0.498  11.577 -0.0490 -2.5324 -1.5934
 6055SOL    HW229625   0.871   0.541  11.525 -0.5349  0.3895  0.2521
 6056SOL     OW29626   4.359   0.476   2.573 -0.4854  0.3649  0.1801
 6056SOL    HW129627   4.367   0.407   2.639 -1.3367  0.9268  0.8594
 6056SOL    HW229628   4.266   0.468   2.552  0.0326 -2.6960 -1.0364
 6057SOL     OW29629   1.217   1.988  10.476 -0.0075 -0.2653 -0.5348
 6057SOL    HW129630   1.275   2.061  10.454  2.7341 -2.5236 -0.9069
 6057SOL    HW229631   1.205   2.005  10.570 -0.1235 -0.1044 -0.5803
 6058SOL     OW29632   3.310   2.537   0.958  0.3193 -0.3468 -0.4060
 6058SOL    HW129633   3.347   2.618   0.992 -1.8367  1.2245 -1.8132
 6058SOL    HW229634   3.274   2.504   1.040 -0.0935  1.5158  0.1541
 6059SOL     OW29635   1.853   0.943   4.091  0.1247 -0.3200  0.6035
 6059SOL    HW129636   1.788   0.876   4.068  0.4264  0.2134 -1.7451
 6059SOL    HW229637   1.849   0.929   4.186 -0.5844  0.0078  0.6246
 6060SOL     OW29638   1.593   1.130   3.140 -0.0607  0.1531 -0.3212
 6060SOL    HW129639   1.630   1.059   3.088 -0.5437  0.2034 -0.7342
 6060SOL    HW229640   1.562   1.070   3.209 -1.8634  0.5337 -0.7965
 6061SOL     OW29641   0.807   1.565   5.958 -0.2000 -0.1971 -0.6484
 6061SOL    HW129642   0.833   1.621   6.031 -0.5729  0.7773 -1.2552
 6061SOL    HW229643   0.896   1.546   5.929 -0.3410  1.4118 -2.1376
 6062SOL     OW29644   2.248   2.525   3.382  0.3250 -0.0482  0.1629
 6062SOL    HW129645   2.161   2.562   3.368  0.5860  0.4578 -0.1452
 6062SOL    HW229646   2.280   2.519   3.292  0.7454  0.5694  0.2677
 6063SOL     OW29647   0.465   1.524   5.602  0.3034  0.0685  0.5301
 6063SOL    HW129648   0.509   1.522   5.687 -1.4618 -1.0847  1.4235
 6063SOL    HW229649   0.426   1.610   5.617  0.9564  0.6454 -1.0373
 6064SOL     OW29650   0.667   1.693   8.902  0.1232  0.1984 -0.2151
 6064SOL    HW129651   0.753   1.649   8.905  0.2550  0.5954  1.9104
 6064SOL    HW229652   0.637   1.669   8.990  0.4334 -0.4823 -0.2907
 6065SOL     OW29653   0.547   1.619  13.804  0.0927  0.0513  0.2936
 6065SOL    HW129654   0.503   1.574  13.732  0.3253  1.8570 -0.9734
 6065SOL    HW229655   0.473   1.594  13.860 -1.7453  1.3430 -1.5539
 6066SOL     OW29656   1.969   0.370  13.214 -0.2581  0.2011 -0.3087
 6066SOL    HW129657   1.881   0.408  13.208 -0.4350 -0.0389  0.8251
 6066SOL    HW229658   1.973   0.323  13.130 -1.9732  1.6260 -1.2159
 6067SOL     OW29659   1.585   0.408   5.640 -0.3457 -0.0366  0.1947
 6067SOL    HW129660   1.666   0.416   5.590 -0.8622  2.1331 -0.2990
 6067SOL    HW229661   1.625   0.383   5.723  0.1136  1.4898  0.4378
 6068SOL     OW29662   4.579   1.463   6.474  0.3200  0.2378  0.4755
 6068SOL    HW129663   4.514   1.403   6.440  1.8334 -0.7795 -0.6152
 6068SOL    HW229664   4.610   1.411   6.549 -2.2004 -1.5483  0.2701
 6069SOL     OW29665   3.237   0.969   7.725 -0.3662  0.5948 -0.1641
 6069SOL    HW129666   3.198   0.903   7.783 -0.8183  0.3704 -0.7237
 6069SOL    HW229667   3.301   1.013   7.781 -0.3253 -1.8692  1.7199
 6070SOL     OW29668   0.763   3.940   2.502  0.1251 -0.0388 -0.2766
 6070SOL    HW129669   0.843   3.903   2.465  1.2550  1.3697  0.7525
 6070SOL    HW229670   0.763   3.894   2.586 -0.2212  0.5860  0.0649
 6071SOL     OW29671   4.132   1.049   9.176 -0.2792 -0.2283  0.2264
 6071SOL    HW129672   4.218   1.028   9.139  0.4456  0.7243  1.3840
 6071SOL    HW229673   4.136   0.974   9.235 -2.0412 -0.4237  0.1065
 6072SOL     OW29674   2.909   2.270   5.936 -0.5382  0.1788  0.1575
 6072SOL    HW129675   2.968   2.195   5.949  1.4592  2.0330  1.7061
 6072SOL    HW229676   2.942   2.312   5.856  1.5867 -1.3102  0.2557
 6073SOL     OW29677   1.650   2.317  13.068 -0.1931  0.4725 -1.4363
 6073SOL    HW129678   1.662   2.385  13.134 -0.3760 -0.6580 -0.2481
 6073SOL    HW229679   1.658   2.368  12.987 -2.1355 -1.6577 -2.9647
 6074SOL     OW29680   0.290   0.955   9.195 -0.1385 -0.1139 -0.1174
 6074SOL    HW129681   0.353   0.932   9.263 -2.4758 -1.3598  1.6231
 6074SOL    HW229682   0.343   0.977   9.118  1.6341 -0.5002  0.9896
 6075SOL     OW29683   1.492   3.543   7.563 -0.0940  0.8017  0.2568
 6075SOL    HW129684   1.503   3.465   7.619 -0.7202  0.5733  0.0655
 6075SOL    HW229685   1.399   3.543   7.540  0.1467  0.6105 -0.7115
 6076SOL     OW29686   0.619   3.303  10.996 -0.7525  0.2945 -0.1451
 6076SOL    HW129687   0.651   3.265  10.915  2.9925 -1.3325  2.1017
 6076SOL    HW229688   0.668   3.385  11.004 -0.0598 -0.1301 -0.0316
 6077SOL     OW29689   0.387   4.349   6.221  0.2067 -0.1505  0.3683
 6077SOL    HW129690   0.397   4.306   6.306 -1.6406 -0.9644  0.1607
 6077SOL    HW229691   0.330   4.424   6.236 -0.1143 -0.5979  1.3362
 6078SOL     OW29692   3.815   1.266   3.521  0.0434  0.2797 -0.0332
 6078SOL    HW129693   3.782   1.293   3.607 -1.6513  1.0162 -0.9038
 6078SOL    HW229694   3.908   1.282   3.537  0.0631  0.5899 -0.4416
 6079SOL     OW29695   2.904   4.018   7.288 -0.2704 -0.7094 -1.0946
 6079SOL    HW129696   2.812   3.991   7.294 -0.4765  0.0239 -0.8780
 6079SOL    HW229697   2.904   4.099   7.340  1.4957 -1.1546 -0.4293
 6080SOL     OW29698   0.423   3.428  12.255 -0.3121  0.3116  0.1709
 6080SOL    HW129699   0.360   3.356  12.253 -0.6759  0.5683  2.1096
 6080SOL    HW229700   0.455   3.403  12.342 -1.8083  0.0449  0.6455
 6081SOL     OW29701   1.855   0.352   7.879 -0.9120 -0.4060  0.2594
 6081SOL    HW129702   1.769   0.374   7.917 -0.3506 -1.2820  2.0341
 6081SOL    HW229703   1.911   0.372   7.953 -1.6037  1.4779  0.3032
 6082SOL     OW29704   3.646   3.059  14.225  0.2229  0.0704  0.0795
 6082SOL    HW129705   3.578   2.994  14.243 -1.3843  0.8692 -3.2377
 6082SOL    HW229706   3.624   3.087  14.137  0.3768 -1.3656 -0.4128
 6083SOL     OW29707   3.444   1.305  13.490  0.0634 -0.2850  0.2091
 6083SOL    HW129708   3.452   1.276  13.581  0.8444 -2.0465 -0.4045
 6083SOL    HW229709   3.488   1.239  13.436 -0.4591 -0.3133 -0.1837
 6084SOL     OW29710   1.857   4.458   2.201 -0.1200 -0.3458 -0.0448
 6084SOL    HW129711   1.925   4.418   2.145  0.4038  0.6505 -0.1207
 6084SOL    HW229712   1.895   4.458   2.288 -1.1320 -0.3757  0.3895
 6085SOL     OW29713   2.495   2.424  10.149  0.0766 -0.0208 -0.0684
 6085SOL    HW129714   2.558   2.361  10.114 -1.0925 -1.2697  0.0995
 6085SOL    HW229715   2.425   2.368  10.182 -0.5791 -1.0133 -3.1075
 6086SOL     OW29716   2.866   2.513  11.421 -0.0719  0.2457  0.0625
 6086SOL    HW129717   2.947   2.493  11.469 -0.7887  0.3892  1.3364
 6086SOL    HW229718   2.841   2.425  11.396 -1.5383  0.4721  0.7322
 6087SOL     OW29719   1.410   1.046   7.463  0.2882 -0.0388  0.3134
 6087SOL    HW129720   1.479   0.986   7.491  0.9396 -0.0931 -1.3671
 6087SOL    HW229721   1.386   1.091   7.544 -0.4753  1.0706 -0.5322
 6088SOL     OW29722   0.366   4.006   9.846 -0.5812 -0.2185  0.6003
 6088SOL    HW129723   0.383   4.100   9.832 -1.4032 -0.1701 -0.1006
 6088SOL    HW229724   0.421   3.998   9.924  0.8759  1.1628 -0.2585
 6089SOL     OW29725   2.883   3.029   7.182  0.5870  0.5433 -0.1378
 6089SOL    HW129726   2.908   3.062   7.095  1.0310  0.3699 -0.0767
 6089SOL    HW229727   2.830   3.100   7.219  0.9887  0.6050  0.3143
 6090SOL     OW29728   3.032   1.126  17.667 -0.2426 -0.5111  0.2025
 6090SOL    HW129729   2.957   1.073  17.641 -1.1563  0.2521  1.2426
 6090SOL    HW229730   2.997   1.170   0.052  2.0909  0.2288  0.8251
 6091SOL     OW29731   4.691   0.921  14.584  0.6191  0.0531 -0.9075
 6091SOL    HW129732   4.702   0.899  14.492 -0.8154  1.1434 -1.3568
 6091SOL    HW229733   4.616   0.980  14.574 -0.9350 -1.2561  2.7519
 6092SOL     OW29734   0.612   1.842   3.186 -0.3570 -0.5257  0.3334
 6092SOL    HW129735   0.611   1.933   3.156 -0.8827 -1.0786 -1.2949
 6092SOL    HW229736   0.529   1.845   3.234  0.4371  2.3143  1.5268
 6093SOL     OW29737   1.289   1.242   2.624  0.3131 -0.2062 -0.3383
 6093SOL    HW129738   1.353   1.183   2.583 -0.2527 -1.1336  0.1083
 6093SOL    HW229739   1.305   1.225   2.717  1.7506 -0.4390 -0.6262
 6094SOL     OW29740   3.643   2.859   8.853 -0.4762 -0.4984 -0.1347
 6094SOL    HW129741   3.700   2.805   8.908 -1.0911 -1.6756 -0.6312
 6094SOL    HW229742   3.586   2.790   8.818 -0.4915  1.0801 -3.1971
 6095SOL     OW29743   4.053   3.104   2.833 -0.2395  0.4153  0.3331
 6095SOL    HW129744   4.058   3.109   2.929 -3.4949 -2.1500  0.6660
 6095SOL    HW229745   4.003   3.023   2.822 -0.7254  0.7671 -0.0105
 6096SOL     OW29746   2.225   4.722   3.811  0.0093 -0.3293  0.0302
 6096SOL    HW129747   2.224   0.071   3.747  0.8286  0.4024  0.8443
 6096SOL    HW229748   2.265   4.654   3.757  1.7335  0.5840  0.1546
 6097SOL     OW29749   1.716   4.471   3.482  0.6312  0.3125  0.1151
 6097SOL    HW129750   1.642   4.519   3.518  0.4370  0.6270 -0.6919
 6097SOL    HW229751   1.730   4.413   3.557 -0.7281 -0.7451 -0.4438
 6098SOL     OW29752   1.847   3.814   3.728  0.1249 -0.1390  0.4493
 6098SOL    HW129753   1.805   3.729   3.735  2.4084 -1.2493  0.6921
 6098SOL    HW229754   1.776   3.868   3.693 -0.6961  0.3784  2.8689
 6099SOL     OW29755   3.161   1.136   4.747  0.1264 -0.2057  0.5946
 6099SOL    HW129756   3.216   1.060   4.763 -1.8802 -2.2009 -1.9317
 6099SOL    HW229757   3.207   1.184   4.678  0.4695 -1.6765 -0.2069
 6100SOL     OW29758   1.288   4.686   1.764  0.1307  0.0536  0.2545
 6100SOL    HW129759   1.257   4.636   1.689 -0.9813  0.2087  0.6067
 6100SOL    HW229760   1.373   4.709   1.726 -0.7449  2.1570 -0.4373
 6101SOL     OW29761   1.742   2.108   0.072 -0.0345  0.7414 -0.3819
 6101SOL    HW129762   1.684   2.142   0.005 -3.1894 -0.6133  1.6724
 6101SOL    HW229763   1.718   2.171   0.140 -0.7009  0.9864 -0.8505
 6102SOL     OW29764   1.063   2.697   2.296 -0.0179 -0.4190  0.4268
 6102SOL    HW129765   0.983   2.647   2.277 -0.6211  0.5253  0.4751
 6102SOL    HW229766   1.056   2.687   2.391 -1.3777  0.7953  0.4386
 6103SOL     OW29767   4.321   3.929   6.590 -0.3740  0.0241  0.3403
 6103SOL    HW129768   4.338   4.013   6.548 -0.6790 -0.6272 -1.0874
 6103SOL    HW229769   4.313   3.965   6.678 -0.5737  3.7909 -1.2318
 6104SOL     OW29770   1.918   4.198  14.818  0.0939  0.3206  0.3702
 6104SOL    HW129771   2.001   4.150  14.818  0.3486  0.7661 -3.1827
 6104SOL    HW229772   1.941   4.273  14.873  2.7032 -1.3757  1.5853
 6105SOL     OW29773   3.507   4.533   5.113  0.6306  0.5754 -0.0899
 6105SOL    HW129774   3.493   4.611   5.167  0.3950  0.3542  0.1703
 6105SOL    HW229775   3.518   4.463   5.177 -0.7261  0.3768 -0.0650
 6106SOL     OW29776   2.515   0.293   6.451  0.5037 -0.2533  0.0942
 6106SOL    HW129777   2.453   0.298   6.523 -2.2001 -1.7054 -2.1082
 6106SOL    HW229778   2.463   0.287   6.371  0.4166 -0.6852  0.1833
 6107SOL     OW29779   1.423   2.507   8.044  0.4564  0.3589  0.1422
 6107SOL    HW129780   1.396   2.464   7.963 -0.8057 -1.0549  1.3086
 6107SOL    HW229781   1.494   2.445   8.064 -1.5286 -1.9565  0.0435
 6108SOL     OW29782   0.737   3.841  14.099  1.1510 -0.9879 -0.1919
 6108SOL    HW129783   0.768   3.838  14.008 -2.1277  1.0886 -1.3615
 6108SOL    HW229784   0.817   3.817  14.147  2.2982  1.6726 -0.8067
 6109SOL     OW29785   3.195   1.064   5.541 -0.4965  0.3196 -0.4958
 6109SOL    HW129786   3.128   0.998   5.527  0.3630 -0.3848 -1.2957
 6109SOL    HW229787   3.211   1.062   5.635 -0.6839  1.4024 -0.4341
 6110SOL     OW29788   4.098   0.224   7.374  0.3388 -0.2570 -0.0462
 6110SOL    HW129789   4.139   0.267   7.449 -0.6621 -1.9875  1.4854
 6110SOL    HW229790   4.176   0.220   7.318  0.6066 -0.4908  0.3498
 6111SOL     OW29791   0.818   0.241   6.052  0.0627  0.5333 -0.2332
 6111SOL    HW129792   0.820   0.155   6.008  0.2313  2.0471 -3.1958
 6111SOL    HW229793   0.742   0.217   6.105 -0.7102 -0.5829 -1.8112
 6112SOL     OW29794   2.047   3.343  17.650  0.2766  0.0826 -0.3167
 6112SOL    HW129795   2.123   3.398  17.633  0.4193 -0.1500 -0.4411
 6112SOL    HW229796   2.062   3.326   0.050 -2.5732 -0.1727  0.1087
 6113SOL     OW29797   2.752   1.368   3.336 -0.4319 -0.3117  0.0264
 6113SOL    HW129798   2.709   1.337   3.416  3.2623 -1.2956  1.6541
 6113SOL    HW229799   2.680   1.410   3.289 -1.2119  1.9380  3.2030
 6114SOL     OW29800   0.348   4.435   5.673  0.3956 -0.3923  0.3523
 6114SOL    HW129801   0.342   4.357   5.729  0.0127  0.1096  1.0092
 6114SOL    HW229802   0.277   4.487   5.711  2.9087  2.2660  1.3655
 6115SOL     OW29803   1.841   2.001   5.921 -0.1486 -0.1135 -0.4260
 6115SOL    HW129804   1.875   2.066   5.982  2.7385 -0.8462 -1.2571
 6115SOL    HW229805   1.768   1.970   5.975  1.3445 -1.7672  0.6076
 6116SOL     OW29806   1.599   2.399   7.726  0.0967 -0.8084  0.0830
 6116SOL    HW129807   1.546   2.340   7.779 -0.5987 -0.8081 -0.6182
 6116SOL    HW229808   1.540   2.425   7.656  0.0192  0.7464  0.7251
 6117SOL     OW29809   4.284   1.276   9.532  0.3251  0.1430 -0.0583
 6117SOL    HW129810   4.331   1.317   9.605 -0.1407  0.9137 -0.1817
 6117SOL    HW229811   4.357   1.256   9.474  2.2003  3.7476  0.9794
 6118SOL     OW29812   0.467   4.574   6.357  0.1989  0.0445 -0.1452
 6118SOL    HW129813   0.518   4.567   6.438  2.6709 -1.9197 -1.8410
 6118SOL    HW229814   0.500   4.499   6.307 -2.8848 -1.0987 -0.4105
 6119SOL     OW29815   0.781   2.506   1.105 -0.1755 -0.3806 -0.2452
 6119SOL    HW129816   0.844   2.573   1.080 -0.5645 -0.0049 -0.2084
 6119SOL    HW229817   0.745   2.544   1.185  0.4826  0.4762 -0.3661
 6120SOL     OW29818   3.118   2.242   8.896  0.0578  0.9725 -0.2298
 6120SOL    HW129819   3.214   2.245   8.899  0.1028  1.6252 -2.8629
 6120SOL    HW229820   3.098   2.198   8.979  0.4447  0.9820 -0.1317
 6121SOL     OW29821   1.598   4.375  13.740  0.7292  0.5712 -0.5025
 6121SOL    HW129822   1.524   4.349  13.794  0.1717  0.8967 -1.1166
 6121SOL    HW229823   1.624   4.460  13.777  0.3040  0.2113  0.6197
 6122SOL     OW29824   1.472   1.865  15.289  0.2775 -0.6769  0.2532
 6122SOL    HW129825   1.462   1.863  15.194  2.5039 -1.6911  0.0238
 6122SOL    HW229826   1.556   1.818  15.294  1.8195  2.3377  2.5386
 6123SOL     OW29827   3.677   2.262  17.307 -0.2029 -0.1081 -0.0481
 6123SOL    HW129828   3.590   2.226  17.291  0.2368 -0.7428 -1.0464
 6123SOL    HW229829   3.725   2.207  17.369  0.0167  1.4739  1.1836
 6124SOL     OW29830   3.316   2.838   6.320  0.6519 -0.0772  0.3019
 6124SOL    HW129831   3.277   2.923   6.343  0.5161  0.5847 -2.2713
 6124SOL    HW229832   3.269   2.800   6.245 -1.0110 -0.4900  1.5649
 6125SOL     OW29833   2.760   1.213   4.889 -0.0284 -0.5388  0.2366
 6125SOL    HW129834   2.847   1.201   4.929 -0.4160  1.7479  1.7632
 6125SOL    HW229835   2.711   1.263   4.955 -0.8191  0.8356 -1.4031
 6126SOL     OW29836   4.011   3.228   7.406 -0.6471 -0.1281  0.7301
 6126SOL    HW129837   3.964   3.163   7.354 -0.8859  0.4788  0.1928
 6126SOL    HW229838   3.936   3.287   7.415  0.6261  1.7366 -0.7277
 6127SOL     OW29839   2.215   1.157  11.720  0.2401 -0.0097  0.3591
 6127SOL    HW129840   2.130   1.198  11.706  0.2404 -0.1507 -0.0372
 6127SOL    HW229841   2.195   1.064  11.721 -1.0161  0.2603  0.2441
 6128SOL     OW29842   4.606   0.998  13.741 -0.1843 -0.0254 -0.3914
 6128SOL    HW129843   4.699   1.000  13.764 -0.3896  0.6077  0.3559
 6128SOL    HW229844   4.575   1.018  13.829  3.2805 -1.7843  1.2236
 6129SOL     OW29845   1.412   3.558   0.770 -0.0125  0.7154  0.1554
 6129SOL    HW129846   1.369   3.639   0.796  0.3660  0.9760 -0.0395
 6129SOL    HW229847   1.446   3.528   0.854 -1.3764 -0.2343  0.3796
 6130SOL     OW29848   3.416   2.626   3.267 -0.4333 -0.1923  0.6006
 6130SOL    HW129849   3.327   2.615   3.299 -0.0085  1.0338  2.1989
 6130SOL    HW229850   3.420   2.578   3.184 -1.3188  0.6767  0.0590
 6131SOL     OW29851   3.773   4.312   8.910  0.3001  0.0868 -0.1596
 6131SOL    HW129852   3.710   4.361   8.962 -0.5679 -0.7471 -0.4264
 6131SOL    HW229853   3.853   4.320   8.963 -0.5908  1.3658  0.9965
 6132SOL     OW29854   0.415   3.986   0.133 -0.5206 -0.6482 -0.1830
 6132SOL    HW129855   0.422   3.935   0.052 -2.2603  0.6538 -1.1515
 6132SOL    HW229856   0.335   3.940   0.160 -1.5484 -0.6517 -3.1957
 6133SOL     OW29857   0.511   3.233   7.616  0.0757 -0.1606 -0.2312
 6133SOL    HW129858   0.599   3.228   7.577 -0.4614  0.3546 -1.5336
 6133SOL    HW229859   0.461   3.270   7.543  2.4920  2.3603 -0.6299
 6134SOL     OW29860   3.287   4.499   1.038  0.3868  0.3648  1.2805
 6134SOL    HW129861   3.333   4.535   1.114 -0.6377  0.7272  1.7283
 6134SOL    HW229862   3.359   4.503   0.975 -0.0749  1.7422  0.8345
 6135SOL     OW29863   4.347   1.898   7.852 -0.1148 -0.0318 -0.2552
 6135SOL    HW129864   4.353   1.990   7.827 -3.1808  0.3287  0.3005
 6135SOL    HW229865   4.283   1.906   7.922 -0.6514 -1.0054 -0.6351
 6136SOL     OW29866   2.309   2.759  16.619  0.2292 -0.4327 -0.7210
 6136SOL    HW129867   2.392   2.743  16.575  1.9945  0.6004  2.2507
 6136SOL    HW229868   2.276   2.836  16.573  1.0114  1.1812  1.3992
 6137SOL     OW29869   0.096   3.149   8.768  0.1715 -0.1393 -0.2807
 6137SOL    HW129870   0.041   3.174   8.694 -0.4835 -0.5060  0.0876
 6137SOL    HW229871   0.056   3.209   8.830 -1.4812 -0.2333 -1.2626
 6138SOL     OW29872   0.891   3.764   8.996  0.3289 -0.2592 -0.1655
 6138SOL    HW129873   0.967   3.737   9.048 -1.1376 -3.2099  0.4318
 6138SOL    HW229874   0.936   3.805   8.922 -0.2891 -0.5841 -0.7225
 6139SOL     OW29875   3.885   0.385  17.360  0.4514  0.1002  0.0048
 6139SOL    HW129876   3.841   0.456  17.406  0.4292  0.6804 -0.9062
 6139SOL    HW229877   3.917   0.339  17.437  1.5021  1.6919  0.5136
 6140SOL     OW29878   0.148   1.519   8.951 -0.4874  0.2200  0.0651
 6140SOL    HW129879   0.223   1.552   8.999  0.6181 -2.8751  0.4040
 6140SOL    HW229880   0.115   1.457   9.016  2.5003 -0.8557  0.5570
 6141SOL     OW29881   3.428   2.416  15.145 -0.2341  0.0321  0.5275
 6141SOL    HW129882   3.435   2.404  15.050 -1.7529  0.2701  0.3813
 6141SOL    HW229883   3.412   2.509  15.132 -1.0934 -0.1755  0.0988
 6142SOL     OW29884   0.865   2.673   4.109 -0.0101  0.4002  0.1015
 6142SOL    HW129885   0.932   2.605   4.115 -1.4302 -1.0748 -0.7003
 6142SOL    HW229886   0.875   2.732   4.183  1.4099  1.8397 -1.2471
 6143SOL     OW29887   0.279   3.018   4.934  0.0342  0.1860 -0.2319
 6143SOL    HW129888   0.285   2.945   4.996 -1.6001  0.8368  0.7156
 6143SOL    HW229889   0.197   2.988   4.895  0.3793 -0.2816 -0.5907
 6144SOL     OW29890   3.028   0.805  10.035  0.1993  0.4740  0.3646
 6144SOL    HW129891   3.057   0.755  10.111  1.8314 -2.7778 -2.4203
 6144SOL    HW229892   3.067   0.891  10.051  3.6156 -0.7604 -1.3917
 6145SOL     OW29893   1.651   4.293   7.140 -0.5055 -0.3326 -0.8549
 6145SOL    HW129894   1.719   4.236   7.105  1.1728  1.5649 -0.6582
 6145SOL    HW229895   1.672   4.382   7.110 -1.3151 -0.5491 -2.0602
 6146SOL     OW29896   1.487   3.871   7.204 -0.0566 -0.1363 -0.0806
 6146SOL    HW129897   1.442   3.905   7.281 -0.5766 -1.2946  0.1367
 6146SOL    HW229898   1.452   3.782   7.194 -2.2058  0.3566  3.0056
 6147SOL     OW29899   0.918   3.701  13.742  0.0579  0.0397  0.3174
 6147SOL    HW129900   0.872   3.776  13.781 -0.3179  0.8203 -1.5871
 6147SOL    HW229901   0.870   3.689  13.660  1.7725  0.3069 -0.7298
 6148SOL     OW29902   4.186   4.099   6.790 -0.0183  0.1721 -0.1709
 6148SOL    HW129903   4.159   4.187   6.764 -1.0390 -0.3403 -0.8605
 6148SOL    HW229904   4.137   4.098   6.873 -0.5867  0.3818 -0.5020
 6149SOL     OW29905   2.275   1.898   2.649 -0.0403  1.4467  0.1974
 6149SOL    HW129906   2.185   1.915   2.621 -0.2362  1.4695  0.8239
 6149SOL    HW229907   2.323   1.976   2.622  1.5861 -0.9128 -3.7567
 6150SOL     OW29908   3.334   1.398   3.459  0.3640 -0.0905 -0.5440
 6150SOL    HW129909   3.367   1.310   3.479  1.2246  0.1254 -1.0223
 6150SOL    HW229910   3.256   1.391   3.515 -0.8711 -1.2398 -2.3954
 6151SOL     OW29911   1.455   4.162   4.823  0.5652 -0.2700 -0.3844
 6151SOL    HW129912   1.539   4.151   4.869  0.5545  3.2042  0.4721
 6151SOL    HW229913   1.482   4.172   4.731 -0.5888  2.2536 -0.4417
 6152SOL     OW29914   3.902   0.855  16.017  0.1814 -0.0145  0.4817
 6152SOL    HW129915   3.868   0.822  16.101  0.0610 -2.5372 -0.5492
 6152SOL    HW229916   3.947   0.777  15.986 -0.1743 -0.0790  0.1276
 6153SOL     OW29917   0.670   1.280   0.308  0.0752  0.2045 -0.1066
 6153SOL    HW129918   0.635   1.242   0.389  2.1931  0.0498  0.7277
 6153SOL    HW229919   0.763   1.263   0.320  0.0283  0.3843  0.5129
 6154SOL     OW29920   3.740   1.749  17.162  0.4623  0.0098 -0.2222
 6154SOL    HW129921   3.705   1.838  17.163  2.2958  0.7720 -1.9336
 6154SOL    HW229922   3.738   1.740  17.257 -2.4026 -1.9693 -0.4798
 6155SOL     OW29923   0.028   2.981  16.439  0.5781  0.1299  0.5362
 6155SOL    HW129924   4.720   2.923  16.370  3.0698  0.6076 -0.9785
 6155SOL    HW229925   0.065   3.055  16.390 -1.2501  0.5459 -0.2095
 6156SOL     OW29926   1.066   2.410   4.925  0.0233  0.1515  0.2017
 6156SOL    HW129927   1.030   2.325   4.900 -0.4087  0.5951 -0.7019
 6156SOL    HW229928   1.045   2.405   5.018 -1.2849  1.0938 -0.0426
 6157SOL     OW29929   0.490   1.957  16.470  0.6675  0.2049  0.1966
 6157SOL    HW129930   0.455   2.018  16.404  0.5219  1.9404  1.8829
 6157SOL    HW229931   0.496   1.877  16.418  0.0260 -0.2745  0.8695
 6158SOL     OW29932   3.569   3.068   2.457  0.6343  0.0204 -0.4083
 6158SOL    HW129933   3.505   3.036   2.521 -0.9102  0.9203 -1.5067
 6158SOL    HW229934   3.525   3.041   2.376 -0.3249  1.3929 -0.3513
 6159SOL     OW29935   3.911   1.913   8.905  0.2323 -0.5778  0.2719
 6159SOL    HW129936   3.872   1.874   8.827 -1.7297 -3.8233  2.8996
 6159SOL    HW229937   4.005   1.897   8.893  0.5635 -1.3450  3.7777
 6160SOL     OW29938   3.462   1.451  17.064 -0.2412  0.7009  0.5476
 6160SOL    HW129939   3.494   1.417  16.980 -0.3063  0.0199  0.7928
 6160SOL    HW229940   3.382   1.401  17.080  0.8365 -1.7336 -1.5246
 6161SOL     OW29941   2.221   2.351   2.516  0.2206 -0.0812 -0.4504
 6161SOL    HW129942   2.213   2.412   2.589  0.3047  1.5932 -1.8683
 6161SOL    HW229943   2.172   2.392   2.445  1.9248  2.9468  0.1361
 6162SOL     OW29944   2.484   1.461  15.384  0.4387 -0.4114 -0.3972
 6162SOL    HW129945   2.468   1.508  15.466  3.6131  2.8321 -1.6323
 6162SOL    HW229946   2.485   1.543  15.335 -0.0973 -0.8939 -1.2012
 6163SOL     OW29947   2.940   3.392   3.663 -0.8501  0.0235 -0.1205
 6163SOL    HW129948   3.007   3.361   3.602 -0.6904 -1.6532  0.8946
 6163SOL    HW229949   2.867   3.331   3.652  0.6118 -1.8613  0.6219
 6164SOL     OW29950   1.976   1.859   7.399 -0.4595  0.1785  0.3810
 6164SOL    HW129951   1.980   1.849   7.304 -1.4909 -1.5404  0.5121
 6164SOL    HW229952   1.896   1.910   7.413  0.4873  2.2157 -1.5877
 6165SOL     OW29953   3.472   2.252   1.887 -0.1515 -0.4855  0.6045
 6165SOL    HW129954   3.422   2.297   1.820 -0.7701 -2.2965 -0.1350
 6165SOL    HW229955   3.557   2.256   1.844 -0.3362  1.4927  0.3973
 6166SOL     OW29956   3.977   2.203  15.255 -0.1419  0.0457 -0.6381
 6166SOL    HW129957   4.062   2.166  15.234 -0.2768 -1.1904  0.9387
 6166SOL    HW229958   3.959   2.139  15.324  0.3908 -1.5238 -1.9706
 6167SOL     OW29959   4.256   3.091  15.641  0.1812  0.2837 -0.2496
 6167SOL    HW129960   4.175   3.141  15.649 -0.4361 -0.4467 -1.8534
 6167SOL    HW229961   4.311   3.139  15.579 -1.3883  0.7271 -1.2992
 6168SOL     OW29962   1.561   4.007   0.874 -0.3072  0.5261 -0.7829
 6168SOL    HW129963   1.650   4.014   0.840  0.1110  0.2407  0.2470
 6168SOL    HW229964   1.576   4.040   0.963  0.0797 -1.4538 -0.1203
 6169SOL     OW29965   4.571   3.173   4.117  0.0223 -0.2773  0.1859
 6169SOL    HW129966   4.576   3.247   4.178  0.1410 -0.2781  0.1777
 6169SOL    HW229967   4.492   3.132   4.153  1.1562 -0.4927  2.4595
 6170SOL     OW29968   4.516   2.624   2.679  0.5935 -0.1861 -0.2534
 6170SOL    HW129969   4.531   2.619   2.584 -0.4685  0.3477 -0.4533
 6170SOL    HW229970   4.443   2.686   2.682 -0.0687 -0.8951 -1.4125
 6171SOL     OW29971   2.359   2.601   7.466  0.0481  0.2392  0.0767
 6171SOL    HW129972   2.429   2.573   7.407  1.7101 -0.2843  2.3187
 6171SOL    HW229973   2.290   2.536   7.452  0.7411 -0.1081 -1.8577
 6172SOL     OW29974   4.386   3.142   4.482 -0.4783 -0.0830  0.6480
 6172SOL    HW129975   4.439   3.150   4.561 -1.1460 -1.4950  1.2443
 6172SOL    HW229976   4.399   3.049   4.464  2.7319  0.5209 -0.2118
 6173SOL     OW29977   4.347   4.181   6.491  0.0378  0.0640 -0.2094
 6173SOL    HW129978   4.284   4.250   6.472 -1.8587 -1.5387  0.2860
 6173SOL    HW229979   4.353   4.137   6.406  2.8311  0.2244 -0.0808
 6174SOL     OW29980   4.314   2.907   0.386 -0.1240 -0.2884  0.6786
 6174SOL    HW129981   4.371   2.836   0.356 -0.7229 -0.3021 -0.4189
 6174SOL    HW229982   4.343   2.912   0.477 -1.4397 -2.2900  1.1928
 6175SOL     OW29983   3.820   1.437  16.878 -0.5393  0.4066  0.2227
 6175SOL    HW129984   3.887   1.419  16.945 -4.2035 -1.3212  3.3937
 6175SOL    HW229985   3.809   1.529  16.902 -2.0951  0.2668  0.0534
 6176SOL     OW29986   3.566   2.236  10.464 -0.1238 -0.0670 -0.3770
 6176SOL    HW129987   3.607   2.285  10.536 -2.4260 -1.2717  1.7748
 6176SOL    HW229988   3.612   2.257  10.383 -0.1892  1.1341 -0.1011
 6177SOL     OW29989   1.300   0.402   7.601  0.0690 -0.0703 -0.2178
 6177SOL    HW129990   1.372   0.403   7.664  0.7467 -2.0992 -0.9406
 6177SOL    HW229991   1.310   0.309   7.580  0.3678  0.5455 -2.8130
 6178SOL     OW29992   3.025   4.544   8.401 -0.8759  0.1973  0.1201
 6178SOL    HW129993   2.972   4.601   8.458  0.5309  0.1774  1.4193
 6178SOL    HW229994   2.974   4.464   8.390 -0.0719 -0.3000  0.0847
 6179SOL     OW29995   3.804   4.251   6.309 -0.1558  0.5858  0.5175
 6179SOL    HW129996   3.780   4.260   6.217  1.1636  0.0227  0.1147
 6179SOL    HW229997   3.892   4.212   6.307  0.6906  2.5313 -0.2860
 6180SOL     OW29998   4.308   0.707   1.697 -0.7331  0.5251  0.0044
 6180SOL    HW129999   4.303   0.621   1.738  1.3304 -0.5780 -2.0671
 6180SOL    HW230000   4.399   0.732   1.712 -0.2805 -0.1145 -1.6417
 6181SOL     OW30001   1.979   3.539   1.626 -0.3974  0.5986 -0.5631
 6181SOL    HW130002   2.000   3.632   1.623  1.5306  0.1665 -0.5925
 6181SOL    HW230003   2.058   3.497   1.660 -0.6103  0.6478 -0.0155
 6182SOL     OW30004   3.440   3.737   8.960  0.3858  0.6570 -0.0961
 6182SOL    HW130005   3.521   3.782   8.936 -0.6667  1.7072 -1.6330
 6182SOL    HW230006   3.413   3.698   8.877  2.8731 -2.6660  0.6152
 6183SOL     OW30007   2.710   0.761  16.952 -1.0190  0.3338  0.3182
 6183SOL    HW130008   2.763   0.827  16.996 -1.2153 -1.2726  2.9281
 6183SOL    HW230009   2.757   0.754  16.868 -1.1828  1.4968  0.1371
 6184SOL     OW30010   3.490   3.890   7.827 -0.6292  0.1416 -0.1300
 6184SOL    HW130011   3.516   3.881   7.735 -0.5428 -0.9303 -0.0056
 6184SOL    HW230012   3.414   3.948   7.825 -0.6802  0.0081 -1.9461
 6185SOL     OW30013   3.753   1.418  10.627 -0.1115 -0.0736  0.2195
 6185SOL    HW130014   3.658   1.431  10.626 -0.4241 -2.2224  0.3477
 6185SOL    HW230015   3.779   1.412  10.719  1.4193  2.4364 -0.0732
 6186SOL     OW30016   2.037   0.353   2.543 -0.0184  0.2067  0.9700
 6186SOL    HW130017   2.039   0.371   2.449  0.0527  0.2082  0.9717
 6186SOL    HW230018   2.103   0.284   2.550 -0.1995 -0.1399 -0.7800
 6187SOL     OW30019   4.658   0.093   7.297  0.6987 -0.0869  0.2175
 6187SOL    HW130020   4.706   0.012   7.277  1.2351 -0.0249  1.2948
 6187SOL    HW230021   4.601   0.073   7.371 -0.5887 -2.6802 -1.4475
 6188SOL     OW30022   4.300   1.152   8.104  0.7939  0.1394 -0.2946
 6188SOL    HW130023   4.283   1.243   8.130 -1.4516 -0.7816  1.4027
 6188SOL    HW230024   4.393   1.158   8.084  0.4668  1.0475 -1.5507
 6189SOL     OW30025   2.129   4.300   6.938 -0.1607 -0.1570  0.2401
 6189SOL    HW130026   2.110   4.234   6.871 -0.5946  1.2670 -1.0302
 6189SOL    HW230027   2.126   4.240   7.013 -1.7204 -0.4588 -0.0584
 6190SOL     OW30028   0.040   4.460   5.212 -0.4895  0.5349 -0.2234
 6190SOL    HW130029   4.687   4.460   5.154 -1.6589 -1.0602  1.3134
 6190SOL    HW230030   0.112   4.478   5.151  0.2575  1.3195  0.8887
 6191SOL     OW30031   1.970   3.024   5.061  0.2636  0.4208  0.1450
 6191SOL    HW130032   1.954   3.080   4.985  0.3708  0.5151  0.1916
 6191SOL    HW230033   2.063   3.038   5.079  0.4894  0.2789 -0.8984
 6192SOL     OW30034   2.133   1.945   8.475  0.0592  0.1503  0.1149
 6192SOL    HW130035   2.048   1.915   8.441  0.2686 -2.7512  2.1330
 6192SOL    HW230036   2.188   1.869   8.457 -0.4539 -0.3397  0.5863
 6193SOL     OW30037   2.290   4.301   9.426 -0.1414  0.2209  0.2196
 6193SOL    HW130038   2.246   4.219   9.404 -0.0429 -0.0938  1.2045
 6193SOL    HW230039   2.317   4.299   9.518 -0.9403 -2.0684  0.4064
 6194SOL     OW30040   1.022   2.391  14.185  0.2209  0.4911  0.1819
 6194SOL    HW130041   0.933   2.379  14.216 -0.0943  1.3773 -0.3856
 6194SOL    HW230042   1.057   2.302  14.188  0.3809  0.5467  0.0130
 6195SOL     OW30043   2.779   3.772   3.042  0.2221 -0.2218  0.3893
 6195SOL    HW130044   2.841   3.722   3.094  0.3708 -0.6367 -0.1849
 6195SOL    HW230045   2.692   3.747   3.074  0.6252  0.7264  2.2063
 6196SOL     OW30046   1.492   1.339   4.633 -0.0119  0.2704  0.0205
 6196SOL    HW130047   1.408   1.346   4.679  1.1009  0.8560  1.9364
 6196SOL    HW230048   1.534   1.422   4.654 -1.1944  1.2021 -1.3510
 6197SOL     OW30049   2.794   2.204  12.256 -0.0759 -0.3214 -0.1671
 6197SOL    HW130050   2.749   2.131  12.214 -1.0254 -0.9021  1.8333
 6197SOL    HW230051   2.725   2.229  12.318 -1.9357 -0.4139 -2.1823
 6198SOL     OW30052   4.401   1.136   3.618  0.4922  0.2140  0.8948
 6198SOL    HW130053   4.329   1.099   3.568  0.1667  1.8926  0.0946
 6198SOL    HW230054   4.444   1.154   3.535  0.1707  0.1526  0.7133
 6199SOL     OW30055   0.198   2.270   8.963 -0.1512 -0.1505 -0.0585
 6199SOL    HW130056   0.290   2.246   8.973 -0.0857  0.5966  1.1544
 6199SOL    HW230057   0.145   2.192   8.978 -0.3219  0.7768  4.0480
 6200SOL     OW30058   3.021   2.612   9.829 -0.1302  0.3585  0.2330
 6200SOL    HW130059   3.103   2.565   9.841  0.1191  0.2425 -1.8704
 6200SOL    HW230060   3.037   2.692   9.880 -1.7865  0.7907  0.0763
 6201SOL     OW30061   2.603   2.296  10.759 -0.0301  0.3274  0.2447
 6201SOL    HW130062   2.669   2.227  10.750 -0.2515  0.0065  1.0995
 6201SOL    HW230063   2.650   2.376  10.734 -0.2068  0.8258  1.4992
 6202SOL     OW30064   3.931   1.260   8.872 -0.0103  0.2660 -0.3381
 6202SOL    HW130065   3.938   1.266   8.967 -0.5345  2.5911 -0.4516
 6202SOL    HW230066   3.835   1.261   8.867 -0.1906 -0.4019  3.0212
 6203SOL     OW30067   1.927   4.646   1.904  0.0500  0.0377  1.0510
 6203SOL    HW130068   1.851   4.694   1.872 -0.8793 -1.9038  0.3446
 6203SOL    HW230069   1.964   4.704   1.970  1.5587 -1.7325  1.7680
 6204SOL     OW30070   1.294   3.560   9.304 -0.3529 -0.0998 -0.5908
 6204SOL    HW130071   1.298   3.641   9.355 -2.2831  0.1943 -0.9237
 6204SOL    HW230072   1.297   3.500   9.379 -1.3655  0.8111  0.1780
 6205SOL     OW30073   3.153   3.485   5.087 -0.6707  0.7986  0.6077
 6205SOL    HW130074   3.245   3.511   5.089 -0.5325  0.3510  0.0405
 6205SOL    HW230075   3.144   3.422   5.159 -0.4308 -1.2332 -1.1359
 6206SOL     OW30076   3.141   2.824   0.942 -0.7997 -0.3586 -0.2110
 6206SOL    HW130077   3.052   2.848   0.968  0.3073  2.7219  0.7289
 6206SOL    HW230078   3.125   2.762   0.871 -2.1441 -0.1425 -0.0974
 6207SOL     OW30079   3.346   0.957  17.558  0.2298  0.4141  0.2524
 6207SOL    HW130080   3.382   0.970  17.470 -0.6256  3.6452  0.3957
 6207SOL    HW230081   3.372   1.036  17.604 -1.3442  0.2875  1.3409
 6208SOL     OW30082   1.320   3.800   0.852  0.0419  0.5251  0.2817
 6208SOL    HW130083   1.385   3.867   0.831 -1.1960  0.6149 -3.3474
 6208SOL    HW230084   1.244   3.831   0.803  0.6311  1.3179 -0.1326
 6209SOL     OW30085   2.943   1.433   2.065 -0.5662  0.8541  0.2498
 6209SOL    HW130086   2.908   1.471   2.146  0.3334  0.1828  0.9573
 6209SOL    HW230087   3.030   1.413   2.099  0.8367  2.2689 -2.4652
 6210SOL     OW30088   2.010   2.393  10.874 -0.0496  0.2359  0.8355
 6210SOL    HW130089   1.949   2.322  10.858  0.2042 -0.1248  1.4503
 6210SOL    HW230090   2.031   2.414  10.783 -0.4534  0.9951  0.9197
 6211SOL     OW30091   2.611   1.972   2.202 -0.5948  0.1016 -0.3074
 6211SOL    HW130092   2.559   1.989   2.123 -0.6293 -2.0008 -0.7310
 6211SOL    HW230093   2.542   1.933   2.256  0.9072  0.3435  1.7758
 6212SOL     OW30094   2.132   0.367   4.243  0.1217 -0.6794  0.6389
 6212SOL    HW130095   2.046   0.324   4.247  0.3323 -1.2868 -1.4095
 6212SOL    HW230096   2.146   0.389   4.335 -0.2893  1.2423  0.2527
 6213SOL     OW30097   1.080   1.877   5.020  0.2123  1.2522  0.6267
 6213SOL    HW130098   1.118   1.888   5.108  0.4584  1.9946  0.4315
 6213SOL    HW230099   1.144   1.834   4.964  0.4996  0.2386  1.7223
 6214SOL     OW30100   0.263   2.674   7.058  0.0076  0.1138 -0.3947
 6214SOL    HW130101   0.291   2.610   6.993 -0.0490  1.1858 -1.4790
 6214SOL    HW230102   0.195   2.621   7.100  2.1786 -2.0241  0.4052
 6215SOL     OW30103   1.685   0.307   5.905  0.2232 -0.3710  0.8010
 6215SOL    HW130104   1.642   0.224   5.926  0.8541 -0.6495  0.9848
 6215SOL    HW230105   1.655   0.356   5.982 -1.5058  0.8153 -0.6186
 6216SOL     OW30106   2.724   1.171   4.422  0.0728 -0.4782 -0.0364
 6216SOL    HW130107   2.783   1.194   4.493 -0.3656  1.7446 -0.3980
 6216SOL    HW230108   2.785   1.109   4.381  0.3850  0.9795 -1.7906
 6217SOL     OW30109   3.622   1.018   2.148 -0.4644 -0.9465 -0.3726
 6217SOL    HW130110   3.632   0.957   2.222  1.5534  2.1398  1.9057
 6217SOL    HW230111   3.650   1.103   2.181  0.8742 -1.5213 -0.0019
 6218SOL     OW30112   1.034   1.916   3.399 -0.0186 -0.0316  0.5842
 6218SOL    HW130113   1.004   2.002   3.428 -1.1327 -0.4466  0.6476
 6218SOL    HW230114   1.110   1.904   3.456 -0.7929 -1.7976  1.2613
 6219SOL     OW30115   4.067   3.277   2.056 -0.3522 -0.5040  0.0725
 6219SOL    HW130116   4.008   3.202   2.062 -2.3320  1.1202  0.7246
 6219SOL    HW230117   4.092   3.264   1.964  1.5810 -0.0452  0.5294
 6220SOL     OW30118   3.694   0.568  17.492  0.1195 -0.6511 -0.1979
 6220SOL    HW130119   3.684   0.536  17.581  1.5082 -0.6063 -0.0273
 6220SOL    HW230120   3.767   0.628  17.506  0.6625 -1.4185  0.1883
 6221SOL     OW30121   1.775   2.906   9.876 -0.2693 -0.6055  0.5255
 6221SOL    HW130122   1.796   2.996   9.898  1.2516 -0.2748 -2.2693
 6221SOL    HW230123   1.857   2.872   9.913  0.8426  1.9726  0.4036
 6222SOL     OW30124   2.502   1.760   8.860  0.2756  0.3822  0.0192
 6222SOL    HW130125   2.596   1.760   8.840  0.3872  1.6494  0.5548
 6222SOL    HW230126   2.485   1.834   8.917  0.1106  1.6266 -1.6403
 6223SOL     OW30127   3.236   2.211   2.824  0.2807 -0.0815 -0.5308
 6223SOL    HW130128   3.330   2.228   2.825 -0.0442  1.5695  1.3057
 6223SOL    HW230129   3.234   2.128   2.777 -0.6428  0.2707 -1.1213
 6224SOL     OW30130   1.256   3.251   4.712 -0.4909  0.1644  0.2297
 6224SOL    HW130131   1.180   3.234   4.657  1.0120 -1.1196 -1.4424
 6224SOL    HW230132   1.251   3.347   4.716 -0.8700  0.1638 -0.2746
 6225SOL     OW30133   1.632   3.509  10.479  0.1249 -0.1553 -0.1665
 6225SOL    HW130134   1.554   3.463  10.510  1.1263 -0.6780  1.5793
 6225SOL    HW230135   1.654   3.547  10.564 -0.1008 -2.4803  0.9287
 6226SOL     OW30136   0.570   1.406   4.309  0.3636 -0.9172  0.2309
 6226SOL    HW130137   0.509   1.420   4.381 -0.6438  1.0835 -1.0193
 6226SOL    HW230138   0.649   1.416   4.362  0.7961 -0.3744 -0.5232
 6227SOL     OW30139   2.615   4.577   5.308  0.1110  0.4133  0.1795
 6227SOL    HW130140   2.697   4.529   5.314  0.9719  1.7850 -0.6499
 6227SOL    HW230141   2.621   4.631   5.386  1.9376  1.2101 -0.5256
 6228SOL     OW30142   0.130   2.628   4.663 -0.0307 -0.4224 -0.1082
 6228SOL    HW130143   0.133   2.536   4.687 -0.3676  0.0085  1.5535
 6228SOL    HW230144   0.213   2.661   4.698  0.8065 -2.8412  0.1896
 6229SOL     OW30145   1.487   1.420   8.379 -0.2547  0.0606  0.2245
 6229SOL    HW130146   1.564   1.395   8.328 -0.9521  0.4109 -1.0101
 6229SOL    HW230147   1.508   1.380   8.463  2.0626  0.5984 -0.1029
 6230SOL     OW30148   0.384   4.427   3.551 -0.3994  0.1451 -0.2234
 6230SOL    HW130149   0.309   4.481   3.577  1.0167  2.2422 -0.4997
 6230SOL    HW230150   0.392   4.367   3.625  0.1310  0.6316  0.1197
 6231SOL     OW30151   2.098   2.589   9.689  0.2774  0.8385 -0.0200
 6231SOL    HW130152   2.154   2.666   9.692  0.9573  0.3661 -0.8533
 6231SOL    HW230153   2.099   2.563   9.597 -2.8838  0.6150 -0.0024
 6232SOL     OW30154   0.714   0.965   6.982  0.2439 -0.3158  0.4166
 6232SOL    HW130155   0.766   0.988   7.059 -1.8650  1.3613  1.3200
 6232SOL    HW230156   0.772   0.899   6.942  0.6459  1.3142 -1.6803
 6233SOL     OW30157   0.441   0.783  10.247 -0.4750  0.4134 -0.0670
 6233SOL    HW130158   0.413   0.732  10.322  1.7686  0.2985  0.6963
 6233SOL    HW230159   0.536   0.789  10.259 -0.5433 -0.4995  0.8670
 6234SOL     OW30160   3.514   0.763  15.204 -0.0424  0.4460  0.9468
 6234SOL    HW130161   3.604   0.751  15.173  0.4841  0.6319  2.3961
 6234SOL    HW230162   3.478   0.675  15.200  0.4940  0.3908 -2.2096
 6235SOL     OW30163   2.696   1.752  12.788  0.2754  0.0294 -0.0078
 6235SOL    HW130164   2.785   1.721  12.775 -0.3065 -0.9725 -1.4686
 6235SOL    HW230165   2.704   1.848  12.793  0.7218  0.0531 -1.4870
 6236SOL     OW30166   1.545   4.581  11.577  0.0995 -0.5954  0.0702
 6236SOL    HW130167   1.502   4.628  11.649  1.0728  0.3763  0.0146
 6236SOL    HW230168   1.602   4.651  11.545 -1.7717  1.0991  0.4431
 6237SOL     OW30169   0.710   4.249  15.809 -0.2508 -0.2177  0.1064
 6237SOL    HW130170   0.728   4.223  15.899 -1.3975 -0.7661  0.1761
 6237SOL    HW230171   0.615   4.258  15.798 -0.3245 -2.0245 -0.6930
 6238SOL     OW30172   3.670   1.659   2.621  0.3359 -0.1095  0.2957
 6238SOL    HW130173   3.628   1.574   2.633  1.8745 -0.8060  0.8442
 6238SOL    HW230174   3.643   1.708   2.699  0.1389 -0.2596  0.3207
 6239SOL     OW30175   2.247   3.087   5.105 -0.0276  0.9205  0.0033
 6239SOL    HW130176   2.313   3.106   5.171  2.2936 -0.1305 -1.9915
 6239SOL    HW230177   2.304   3.044   5.041 -3.3341 -2.2218 -0.8383
 6240SOL     OW30178   2.530   2.575   5.168 -0.1177  0.3707  0.2250
 6240SOL    HW130179   2.523   2.551   5.076 -0.5649 -1.0493  0.6284
 6240SOL    HW230180   2.604   2.635   5.161  0.5184 -0.2704  1.4686
 6241SOL     OW30181   4.143   4.667  15.773 -0.3903 -0.0245  0.1358
 6241SOL    HW130182   4.209   4.615  15.727  1.7387  1.9733  0.9341
 6241SOL    HW230183   4.175   4.661  15.864  0.7777  1.6217 -0.1805
 6242SOL     OW30184   1.862   2.429   4.989  0.7724  0.1039 -0.1476
 6242SOL    HW130185   1.800   2.360   5.010  0.3144  0.3682 -0.6329
 6242SOL    HW230186   1.934   2.370   4.964 -1.6129 -2.2189 -1.4883
 6243SOL     OW30187   1.198   1.002  11.357  0.5007 -0.0940  0.0148
 6243SOL    HW130188   1.284   0.965  11.374  0.7587  1.0835  1.1955
 6243SOL    HW230189   1.163   1.014  11.445 -0.5967 -1.8291 -0.1826
 6244SOL     OW30190   2.761   2.709   6.990  0.1503 -1.0196  0.6543
 6244SOL    HW130191   2.793   2.621   6.968  1.7856  0.3795 -2.4784
 6244SOL    HW230192   2.809   2.752   6.920 -0.3393 -0.8320  0.4292
 6245SOL     OW30193   0.664   1.326   4.831 -0.0857 -0.1523  0.2151
 6245SOL    HW130194   0.700   1.323   4.742 -2.1636  0.1891 -0.6292
 6245SOL    HW230195   0.730   1.378   4.876  0.8430 -1.4872  0.3964
 6246SOL     OW30196   2.463   0.724   1.874  0.0403  0.3696  0.0893
 6246SOL    HW130197   2.514   0.785   1.929  0.7001 -1.3248  1.3500
 6246SOL    HW230198   2.473   0.643   1.924  2.5864  0.8780  0.4117
 6247SOL     OW30199   1.629   2.097   3.225 -0.4462  0.3507 -0.5380
 6247SOL    HW130200   1.691   2.025   3.238 -0.5282  0.2205 -0.8595
 6247SOL    HW230201   1.666   2.146   3.151 -5.1811  1.3641 -2.2040
 6248SOL     OW30202   0.914   1.156   3.616  0.1628 -0.5845 -0.0423
 6248SOL    HW130203   0.975   1.117   3.678 -0.7284  0.4366  1.4723
 6248SOL    HW230204   0.972   1.225   3.584 -0.5967 -0.8324 -1.9810
 6249SOL     OW30205   0.725   2.391   4.327  0.3851 -0.3920  0.8239
 6249SOL    HW130206   0.779   2.319   4.358  0.2597 -0.7672  0.1620
 6249SOL    HW230207   0.725   2.388   4.231 -0.6553  1.3440  0.7682
 6250SOL     OW30208   3.447   4.593  12.655 -0.5251 -0.2238  0.0833
 6250SOL    HW130209   3.458   4.648  12.733  2.1910  0.7982 -1.0099
 6250SOL    HW230210   3.482   4.655  12.591 -0.7398  1.3590  1.4791
 6251SOL     OW30211   2.019   2.465  17.259 -0.0376  0.3996  0.4877
 6251SOL    HW130212   2.036   2.533  17.324  1.4713 -0.2679  0.7885
 6251SOL    HW230213   2.089   2.486  17.197 -0.6780  1.2175  0.0444
 6252SOL     OW30214   2.421   1.864   8.292  0.0723 -1.1451  0.3111
 6252SOL    HW130215   2.378   1.835   8.373  0.8094 -0.9754  0.7657
 6252SOL    HW230216   2.344   1.878   8.237  0.3842 -0.3778  0.0697
 6253SOL     OW30217   3.803   3.245   6.264  0.5941  0.9734  0.0586
 6253SOL    HW130218   3.839   3.156   6.259 -2.1675 -0.0952 -0.9385
 6253SOL    HW230219   3.739   3.239   6.193  0.9236 -0.4798 -0.1169
 6254SOL     OW30220   0.906   3.745  10.970 -0.3841 -0.3845 -0.1780
 6254SOL    HW130221   0.970   3.708  11.030 -1.7204  0.1167  1.5537
 6254SOL    HW230222   0.945   3.829  10.944 -1.8125 -0.4855 -2.6102
 6255SOL     OW30223   3.477   4.332   2.638 -0.1302  0.3720  0.2236
 6255SOL    HW130224   3.486   4.360   2.729  0.8151  0.9888 -0.0575
 6255SOL    HW230225   3.393   4.375   2.621 -0.5483 -0.0428  1.2583
 6256SOL     OW30226   2.701   1.514   0.234 -1.0132  0.3777 -0.2073
 6256SOL    HW130227   2.634   1.481   0.294  1.7043 -0.2446  2.4375
 6256SOL    HW230228   2.663   1.486   0.150 -0.5008 -1.2076  0.0951
 6257SOL     OW30229   1.065   2.407   3.520  0.2164  0.3699 -0.4825
 6257SOL    HW130230   1.028   2.489   3.550 -0.3617  0.1815 -0.6824
 6257SOL    HW230231   1.065   2.401   3.424  0.6395  1.7486 -0.5584
 6258SOL     OW30232   1.072   0.140   7.312 -0.5527 -0.2660  0.3778
 6258SOL    HW130233   1.014   0.215   7.299  0.0806  0.3533  1.0673
 6258SOL    HW230234   1.089   0.115   7.222 -1.0477 -0.9743  0.4794
 6259SOL     OW30235   4.351   3.690   1.415 -0.5788 -0.0069 -0.2290
 6259SOL    HW130236   4.308   3.729   1.491  0.8581  1.4657 -0.1508
 6259SOL    HW230237   4.432   3.731   1.443 -1.5173  1.6147  0.1125
 6260SOL     OW30238   4.467   0.050  13.996  0.0925 -0.4221 -0.1977
 6260SOL    HW130239   4.446   0.023  13.906 -1.0496  1.2524 -0.4343
 6260SOL    HW230240   4.393   0.022  14.049 -0.9965 -2.6793 -2.8648
 6261SOL     OW30241   0.529   0.841   5.602 -0.2659  0.0176  0.1539
 6261SOL    HW130242   0.527   0.754   5.641 -1.8445 -0.5786 -1.2306
 6261SOL    HW230243   0.564   0.892   5.675 -0.7798 -1.1737  1.2341
 6262SOL     OW30244   1.081   4.252   8.463 -0.0889  0.6864  0.2085
 6262SOL    HW130245   1.158   4.291   8.504  1.0894 -2.2541  0.8078
 6262SOL    HW230246   1.015   4.277   8.528  0.4518  2.1900  0.1869
 6263SOL     OW30247   4.694   0.155   0.451  0.3861  0.7579  0.4169
 6263SOL    HW130248   4.624   0.220   0.462 -1.3623 -1.3141  1.4339
 6263SOL    HW230249   4.682   0.101   0.529  0.0210  0.1251 -0.0874
 6264SOL     OW30250   4.201   2.129   2.946  0.5049 -0.5263  0.0468
 6264SOL    HW130251   4.130   2.176   2.901 -0.1524  0.0246  1.6597
 6264SOL    HW230252   4.257   2.095   2.876 -1.0970  0.3368 -1.6898
 6265SOL     OW30253   4.669   2.347   8.850  0.0268 -0.3713 -0.1992
 6265SOL    HW130254   0.029   2.310   8.880  0.2914  1.4110  1.2501
 6265SOL    HW230255   4.707   2.422   8.803  1.9040 -0.3055  1.4682
 6266SOL     OW30256   4.052   3.064  13.164 -0.3323 -0.0831 -0.2285
 6266SOL    HW130257   4.053   2.984  13.216 -1.3462  0.6507  0.9209
 6266SOL    HW230258   3.984   3.045  13.100  0.2539 -0.2374 -0.8131
 6267SOL     OW30259   1.714   0.962  14.575 -0.1266 -0.1375 -0.8244
 6267SOL    HW130260   1.759   0.948  14.492  1.6471  2.1904 -0.2793
 6267SOL    HW230261   1.624   0.967  14.545 -1.1893  0.1545  2.3847
 6268SOL     OW30262   2.105   0.836   9.786 -0.3741  0.2724  0.1582
 6268SOL    HW130263   2.188   0.873   9.816  0.3761 -0.8758 -0.4954
 6268SOL    HW230264   2.045   0.910   9.790  1.0069  1.2937  2.2548
 6269SOL     OW30265   2.135   0.755  10.226 -0.4773  0.0540 -0.2096
 6269SOL    HW130266   2.040   0.760  10.210 -0.7562  2.2597  2.0481
 6269SOL    HW230267   2.124   0.679  10.284  2.6150  2.5261  3.5615
 6270SOL     OW30268   1.977   0.487   4.738  0.1997 -0.1665 -0.5659
 6270SOL    HW130269   1.907   0.511   4.799 -1.0189 -0.5399 -1.8303
 6270SOL    HW230270   1.943   0.518   4.654  1.1566 -0.2122 -0.9707
 6271SOL     OW30271   2.409   0.931  13.221 -1.0808  0.1220 -0.1765
 6271SOL    HW130272   2.354   0.942  13.144 -0.3485  0.7019 -0.6263
 6271SOL    HW230273   2.411   0.836  13.230  0.6952  0.2423  0.7691
 6272SOL     OW30274   0.813   2.897   2.565  0.5092  0.0205 -0.3071
 6272SOL    HW130275   0.839   2.806   2.551  1.0137  0.2280 -0.7012
 6272SOL    HW230276   0.868   2.915   2.641  0.0070 -0.7872  0.2510
 6273SOL     OW30277   4.316   0.419   5.677 -0.3469  0.2647 -0.4237
 6273SOL    HW130278   4.355   0.361   5.743  0.3952  1.1441 -0.0864
 6273SOL    HW230279   4.243   0.361   5.658  0.8796 -1.1875 -0.6512
 6274SOL     OW30280   2.561   0.150  13.448 -0.4637  0.3083 -0.0263
 6274SOL    HW130281   2.646   0.107  13.457 -0.8665 -0.6068 -0.5384
 6274SOL    HW230282   2.528   0.105  13.370 -0.6104 -0.9035  0.7460
 6275SOL     OW30283   1.262   4.016   9.175  0.0699  0.1106  0.3634
 6275SOL    HW130284   1.273   4.062   9.259 -0.3790  0.5742  0.1697
 6275SOL    HW230285   1.218   4.088   9.131  0.0196  0.5204  1.0767
 6276SOL     OW30286   3.174   3.565   0.604 -0.2561 -0.2151  0.0961
 6276SOL    HW130287   3.110   3.630   0.632  2.0538  2.0807  0.0471
 6276SOL    HW230288   3.139   3.533   0.521 -1.4759  3.3845 -0.7913
 6277SOL     OW30289   2.448   2.470   6.064 -0.1054  0.0327  0.1377
 6277SOL    HW130290   2.517   2.512   6.115  0.0095 -0.2412  0.2115
 6277SOL    HW230291   2.484   2.381   6.056 -0.0571  0.0149  0.5747
 6278SOL     OW30292   1.427   2.625   4.542  0.4540 -0.1805 -0.2397
 6278SOL    HW130293   1.506   2.588   4.502  0.7086  0.1254 -0.0215
 6278SOL    HW230294   1.429   2.580   4.627  0.3808  0.8089  0.2809
 6279SOL     OW30295   3.935   2.251   6.687  0.1536  0.1587 -0.5242
 6279SOL    HW130296   4.008   2.301   6.724  0.3197  1.0717 -2.0800
 6279SOL    HW230297   3.871   2.322   6.693 -1.6147 -1.5196  0.5309
 6280SOL     OW30298   1.862   3.750   4.063  0.4274 -0.5573  0.2437
 6280SOL    HW130299   1.945   3.776   4.021 -0.1632 -0.2346 -0.7229
 6280SOL    HW230300   1.894   3.674   4.111  2.0101  0.6761  1.1616
 6281SOL     OW30301   3.339   3.535   7.245  0.1031  0.3507 -0.0121
 6281SOL    HW130302   3.333   3.619   7.199  4.4594 -0.4438 -2.0158
 6281SOL    HW230303   3.257   3.489   7.226 -1.3585  1.9787  2.3056
 6282SOL     OW30304   2.291   4.464   4.042  0.4997  0.2211 -0.1938
 6282SOL    HW130305   2.295   4.423   3.956  1.4649 -1.0347  0.4417
 6282SOL    HW230306   2.199   4.456   4.066  0.3935  0.1825 -0.6169
 6283SOL     OW30307   4.323   3.532  12.114  0.4509  0.0655  0.7385
 6283SOL    HW130308   4.294   3.443  12.133  0.9428 -0.5621 -1.5262
 6283SOL    HW230309   4.301   3.549  12.023  0.1194 -1.9225  0.4395
 6284SOL     OW30310   3.421   2.903   4.382 -0.2982  0.1631  0.2921
 6284SOL    HW130311   3.327   2.893   4.363  0.2039 -0.9288 -1.6157
 6284SOL    HW230312   3.458   2.823   4.343  1.0165  0.4952  0.8931
 6285SOL     OW30313   1.654   2.430   2.133 -0.4734  0.0105  0.0547
 6285SOL    HW130314   1.652   2.357   2.071 -0.5826 -0.8831  1.0905
 6285SOL    HW230315   1.726   2.478   2.092 -0.0889 -2.3279 -2.0557
 6286SOL     OW30316   3.641   1.803   8.979 -0.2946 -0.4203  0.0889
 6286SOL    HW130317   3.719   1.857   8.988 -1.0664  0.6760  0.3076
 6286SOL    HW230318   3.658   1.743   9.051  2.2330 -0.5816 -0.6639
 6287SOL     OW30319   2.036   3.790   1.586 -0.1481 -0.6077  0.3270
 6287SOL    HW130320   2.015   3.865   1.641  1.9503 -0.3711  0.8197
 6287SOL    HW230321   1.973   3.806   1.515 -1.3852  1.6105  1.9400
 6288SOL     OW30322   2.240   1.161  12.313 -0.5053 -0.2838 -0.0293
 6288SOL    HW130323   2.252   1.256  12.311 -2.1730 -0.1055 -0.9821
 6288SOL    HW230324   2.307   1.129  12.374 -1.5923  1.7719  2.2738
 6289SOL     OW30325   4.049   0.443   9.567 -0.7419 -0.1580  0.0073
 6289SOL    HW130326   4.052   0.537   9.587 -0.7354 -0.1587  0.0097
 6289SOL    HW230327   4.112   0.414   9.633 -0.1956  0.8497 -0.0735
 6290SOL     OW30328   1.613   2.861   1.738 -0.2989  0.6545  0.2220
 6290SOL    HW130329   1.573   2.865   1.825  1.3034  0.4360  0.9556
 6290SOL    HW230330   1.699   2.900   1.748  0.2040  0.1157 -2.0523
 6291SOL     OW30331   3.410   0.148   2.449  0.5565 -0.1088 -0.3835
 6291SOL    HW130332   3.436   0.070   2.499  2.5815  0.3673 -0.6885
 6291SOL    HW230333   3.450   0.210   2.511  0.6739  0.7287 -1.3082
 6292SOL     OW30334   3.075   1.839   7.105  0.1413  0.6761 -0.5172
 6292SOL    HW130335   3.170   1.834   7.095  0.0984 -2.5818  0.6511
 6292SOL    HW230336   3.066   1.893   7.183  0.6592  1.9577 -1.3362
 6293SOL     OW30337   2.929   0.223  12.107 -0.4217  0.3611 -0.0477
 6293SOL    HW130338   2.942   0.314  12.081 -0.9916  0.6981  0.8533
 6293SOL    HW230339   2.986   0.211  12.183  1.6347 -1.2824 -1.8412
 6294SOL     OW30340   0.044   2.832  11.735  0.0880 -0.5548  0.7387
 6294SOL    HW130341   0.037   2.754  11.680  0.4756  1.0912 -1.6137
 6294SOL    HW230342   0.035   2.894  11.663  1.7548  2.0729  2.8127
 6295SOL     OW30343   4.521   0.100   4.252  0.1110  0.8063 -0.2736
 6295SOL    HW130344   4.614   0.082   4.269 -0.2169 -1.3084 -0.7926
 6295SOL    HW230345   4.510   0.034   4.184  0.0522 -0.3860  0.8964
 6296SOL     OW30346   2.008   4.575   6.974 -0.0776 -0.1813 -1.0633
 6296SOL    HW130347   2.041   4.487   6.960 -0.3722 -0.6513  1.1739
 6296SOL    HW230348   2.086   4.617   7.012 -1.3498  0.2239  1.1397
 6297SOL     OW30349   2.241   2.338   3.587 -0.2069 -0.2696  0.1587
 6297SOL    HW130350   2.176   2.371   3.649 -0.9215  0.5402 -1.0287
 6297SOL    HW230351   2.237   2.393   3.509  1.2261  2.6531  2.1328
 6298SOL     OW30352   4.033   2.724  13.060  0.7031  0.6319 -0.2695
 6298SOL    HW130353   4.053   2.769  13.143 -0.4817 -0.4029  0.5709
 6298SOL    HW230354   4.004   2.805  13.018 -0.0922  0.4358 -0.0939
 6299SOL     OW30355   4.138   1.135  13.401 -0.1760  0.1002  0.2270
 6299SOL    HW130356   4.196   1.192  13.350  0.5509  1.9451  3.0427
 6299SOL    HW230357   4.106   1.203  13.461  2.2036  0.7529  0.7783
 6300SOL     OW30358   2.452   4.348  15.606 -0.4295 -0.0024 -0.4799
 6300SOL    HW130359   2.391   4.274  15.607 -0.3237 -0.0534  2.4110
 6300SOL    HW230360   2.488   4.328  15.519 -1.3458 -1.8159 -0.4425
 6301SOL     OW30361   1.291   3.418  13.610 -0.1595  0.1029  0.9618
 6301SOL    HW130362   1.354   3.458  13.550  0.4721 -1.5894  0.5049
 6301SOL    HW230363   1.222   3.484  13.602  1.9030  2.3919  2.3864
 6302SOL     OW30364   4.504   1.416   2.376 -0.3190 -0.1021 -0.4545
 6302SOL    HW130365   4.437   1.351   2.354 -2.3327  2.1151 -0.9240
 6302SOL    HW230366   4.526   1.452   2.291 -3.5032  0.8866 -0.8778
 6303SOL     OW30367   4.566   4.568   8.178  0.1866  0.5611  0.1986
 6303SOL    HW130368   4.651   4.529   8.160 -0.3383  1.2884 -3.9179
 6303SOL    HW230369   4.522   4.559   8.093  1.2224 -1.2342 -0.1526
 6304SOL     OW30370   1.094   3.518   6.147 -0.6314 -0.0391  0.0384
 6304SOL    HW130371   1.017   3.565   6.181 -0.9544 -0.0090 -0.7255
 6304SOL    HW230372   1.164   3.554   6.202 -0.7663  0.1029  0.1197
 6305SOL     OW30373   4.633   3.375   2.406 -0.2602 -0.1969 -0.1815
 6305SOL    HW130374   4.593   3.289   2.403 -0.1564 -0.2584  0.1499
 6305SOL    HW230375   4.666   3.375   2.496  1.7307  1.0105 -0.8793
 6306SOL     OW30376   1.990   0.592   3.255  0.1721  0.2541 -0.5453
 6306SOL    HW130377   2.039   0.516   3.286  0.4421  1.2512  1.4324
 6306SOL    HW230378   1.914   0.555   3.209 -0.7990  0.4003  0.9317
 6307SOL     OW30379   2.810   1.759   5.460  0.0877  0.0702  0.0267
 6307SOL    HW130380   2.730   1.741   5.409  0.5966 -2.2741  0.0642
 6307SOL    HW230381   2.799   1.697   5.532  1.7062 -0.1130  0.1046
 6308SOL     OW30382   4.558   1.218  11.911 -0.1672 -0.3069  0.2355
 6308SOL    HW130383   4.568   1.125  11.892  0.5493  0.0052 -0.8890
 6308SOL    HW230384   4.614   1.254  11.842  0.5810 -1.9365  0.0053
 6309SOL     OW30385   3.804   2.491   7.686  0.4960  0.4420 -0.0415
 6309SOL    HW130386   3.717   2.454   7.702 -0.2258  1.1099 -2.3768
 6309SOL    HW230387   3.866   2.420   7.701  1.8240  0.9725 -3.1123
 6310SOL     OW30388   3.353   2.128  12.109  0.1465  0.1137  0.6055
 6310SOL    HW130389   3.364   2.162  12.198 -0.0394  0.8243  0.3593
 6310SOL    HW230390   3.288   2.064  12.137  1.3370 -0.6800  1.5670
 6311SOL     OW30391   4.134   2.322   3.272 -0.4826 -0.4253 -0.2116
 6311SOL    HW130392   4.219   2.348   3.307 -0.3663 -2.9616  1.4536
 6311SOL    HW230393   4.081   2.401   3.283 -0.4247 -0.6704  2.0038
 6312SOL     OW30394   2.602   3.809   5.483 -0.1271 -0.0986  0.4501
 6312SOL    HW130395   2.535   3.740   5.489  0.7897 -1.1597 -1.8627
 6312SOL    HW230396   2.594   3.842   5.394 -1.0012 -1.8623 -0.1336
 6313SOL     OW30397   3.401   3.597   5.477 -0.8751  0.7246  0.7628
 6313SOL    HW130398   3.451   3.633   5.404 -0.2173  1.3998  1.5376
 6313SOL    HW230399   3.313   3.590   5.441 -0.8432 -0.8029  0.9730
 6314SOL     OW30400   2.398   0.920  11.881 -0.2571 -0.1801 -0.3634
 6314SOL    HW130401   2.427   0.889  11.795  1.5459 -0.2295  0.2721
 6314SOL    HW230402   2.309   0.885  11.873 -0.5424  1.0673 -2.6833
 6315SOL     OW30403   1.728   4.226   7.414 -0.2395 -0.3637 -0.4186
 6315SOL    HW130404   1.689   4.139   7.402 -0.5533 -0.3030  0.1451
 6315SOL    HW230405   1.707   4.267   7.330 -1.5385  1.3152  0.7127
 6316SOL     OW30406   3.082   1.404   9.497 -0.2765  0.0523 -0.4848
 6316SOL    HW130407   3.177   1.399   9.490 -0.0665  1.9452  0.7656
 6316SOL    HW230408   3.085   1.378   9.589 -1.9527  2.7594  0.3537
 6317SOL     OW30409   0.695   2.405   3.101  0.1281 -0.4266 -0.1801
 6317SOL    HW130410   0.674   2.497   3.116  1.2826  0.2373 -2.7413
 6317SOL    HW230411   0.605   2.374   3.086 -0.0521  0.7170 -1.4484
 6318SOL     OW30412   0.279   3.326   6.854 -0.5834 -0.2799 -0.5053
 6318SOL    HW130413   0.249   3.417   6.854  1.3244  0.3461  1.4728
 6318SOL    HW230414   0.373   3.339   6.870 -0.4278 -2.6547  0.5384
 6319SOL     OW30415   2.167   0.483  12.484  0.2510 -0.0506 -0.0037
 6319SOL    HW130416   2.172   0.424  12.409  0.3015  0.2434 -0.2345
 6319SOL    HW230417   2.254   0.522  12.482 -0.2741  1.1006 -0.2406
 6320SOL     OW30418   3.395   0.290   5.611  0.1464  0.2425 -0.1477
 6320SOL    HW130419   3.311   0.244   5.624  1.8090 -2.1298  2.2380
 6320SOL    HW230420   3.384   0.328   5.524  0.2202  1.6772  0.4773
 6321SOL     OW30421   2.484   1.005   5.037  0.2693 -0.1411  0.2686
 6321SOL    HW130422   2.455   0.946   4.967  1.7992 -2.6834  1.7361
 6321SOL    HW230423   2.448   1.089   5.010  0.9625  0.2458  0.5533
 6322SOL     OW30424   0.956   2.626   1.395 -1.0237 -0.5777 -0.2020
 6322SOL    HW130425   0.977   2.561   1.328  1.9267  0.5999 -0.3952
 6322SOL    HW230426   0.860   2.630   1.391 -0.9960 -1.3140 -2.0910
 6323SOL     OW30427   1.595   1.948   8.761  0.0966 -0.0305 -0.4930
 6323SOL    HW130428   1.515   1.927   8.713  0.4989 -2.3462 -0.1297
 6323SOL    HW230429   1.566   2.030   8.800 -2.6821 -1.4949  0.5079
 6324SOL     OW30430   1.984   0.150   6.383  0.1280  0.0925  0.3230
 6324SOL    HW130431   2.001   0.222   6.322 -1.5154  0.5274  0.3810
 6324SOL    HW230432   2.032   0.187   6.457 -0.7163 -0.0258  0.9323
 6325SOL     OW30433   3.583   1.512   4.156  0.0588  0.5880  0.5398
 6325SOL    HW130434   3.489   1.528   4.156  0.2966  1.9840 -0.8572
 6325SOL    HW230435   3.572   1.463   4.237 -0.1467  1.5789  1.1115
 6326SOL     OW30436   3.536   4.353   6.945  0.5559  0.1032 -0.2988
 6326SOL    HW130437   3.583   4.424   6.901  1.9728 -1.3644 -1.1638
 6326SOL    HW230438   3.613   4.301   6.968 -0.5323 -1.6244 -0.5950
 6327SOL     OW30439   2.234   2.878   2.747 -0.3708  0.0404 -0.0293
 6327SOL    HW130440   2.184   2.862   2.667 -0.1799  1.0741 -0.3462
 6327SOL    HW230441   2.300   2.937   2.713 -0.5366  0.1607 -0.1396
 6328SOL     OW30442   3.831   2.531   1.561 -0.1662  0.1033  0.1248
 6328SOL    HW130443   3.890   2.464   1.528 -1.7771  0.5755 -3.7404
 6328SOL    HW230444   3.876   2.612   1.538  0.7917 -0.4396  0.0760
 6329SOL     OW30445   2.785   3.837   7.552 -0.2904 -0.1406  0.2253
 6329SOL    HW130446   2.717   3.886   7.598  1.8820  2.4321  0.7429
 6329SOL    HW230447   2.726   3.784   7.500  0.5285  1.2836 -2.1480
 6330SOL     OW30448   0.948   1.232  11.750  0.2079  0.0757  0.2303
 6330SOL    HW130449   0.954   1.171  11.677 -0.9611  0.3325 -0.0832
 6330SOL    HW230450   0.951   1.314  11.701  0.0875  0.4632  0.8599
 6331SOL     OW30451   1.618   2.550   6.750 -0.3450  0.1230 -0.8583
 6331SOL    HW130452   1.565   2.607   6.804 -1.1433 -1.8086  0.4114
 6331SOL    HW230453   1.694   2.606   6.733  0.3245 -0.2210  1.0113
 6332SOL     OW30454   4.169   0.069   1.417  0.3750  0.4679 -0.0152
 6332SOL    HW130455   4.251   0.051   1.463  0.8301  1.0491 -0.6092
 6332SOL    HW230456   4.171   0.164   1.404 -0.6131  0.4409 -0.4105
 6333SOL     OW30457   2.723   3.942   8.307 -0.0111  0.4048  0.2554
 6333SOL    HW130458   2.660   4.006   8.274  1.6845  2.2524  0.6003
 6333SOL    HW230459   2.760   3.988   8.383 -1.1348 -0.8767  1.5870
 6334SOL     OW30460   0.708   3.783   6.765 -0.3131  0.3177  0.0998
 6334SOL    HW130461   0.616   3.761   6.751 -0.3658  0.8187 -0.3423
 6334SOL    HW230462   0.733   3.769   6.673  0.9157  1.3770  0.2685
 6335SOL     OW30463   0.189   2.428   5.219 -0.3819  0.3036  0.4592
 6335SOL    HW130464   0.274   2.384   5.213 -0.9846 -0.9654  1.0929
 6335SOL    HW230465   0.155   2.398   5.304 -2.9927  0.7263 -0.4108
 6336SOL     OW30466   1.211   0.747   9.938  0.0787  0.1565  0.3182
 6336SOL    HW130467   1.285   0.787   9.984 -0.4973  0.7187  0.7635
 6336SOL    HW230468   1.192   0.676  10.000  0.5123  1.4723  1.9479
 6337SOL     OW30469   0.093   1.970   2.884 -0.2279 -0.3651  0.0473
 6337SOL    HW130470   0.094   2.064   2.868 -1.3212 -0.2386  0.7140
 6337SOL    HW230471   0.083   1.973   2.979 -0.7825  0.6614 -0.0478
 6338SOL     OW30472   0.284   4.105   7.279  0.3685  0.2651 -0.2405
 6338SOL    HW130473   0.206   4.112   7.223 -1.6470 -1.3257  2.3541
 6338SOL    HW230474   0.362   4.125   7.227 -1.0957  0.1371 -2.5300
 6339SOL     OW30475   0.002   2.280   5.041  0.2803 -0.2573 -0.2317
 6339SOL    HW130476   0.039   2.328   5.114 -0.0444 -1.3761  0.6840
 6339SOL    HW230477   0.057   2.202   5.035  0.2170 -0.3332  0.1654
 6340SOL     OW30478   2.353   0.233  12.707 -0.4018 -0.2423 -0.1907
 6340SOL    HW130479   2.417   0.206  12.772 -1.4899  0.7320  1.2825
 6340SOL    HW230480   2.399   0.304  12.662 -0.5862 -1.0269 -1.6240
 6341SOL     OW30481   4.468   3.682   7.008  0.0181 -0.1043  0.6738
 6341SOL    HW130482   4.404   3.751   7.025  0.2233  0.4227 -0.7249
 6341SOL    HW230483   4.541   3.725   6.964 -0.1138  0.1045  0.6571
 6342SOL     OW30484   0.862   4.030  14.385  0.0946  0.3343 -0.3002
 6342SOL    HW130485   0.911   3.952  14.357  0.7788  0.1968  1.2254
 6342SOL    HW230486   0.823   4.060  14.304 -1.0228 -1.3613 -0.3879
 6343SOL     OW30487   3.182   3.185   4.921  0.1017  0.8011  0.6239
 6343SOL    HW130488   3.159   3.135   4.843 -1.6603  1.9906  0.3759
 6343SOL    HW230489   3.180   3.272   4.883 -1.6947  0.6584  0.3761
 6344SOL     OW30490   1.049   3.225   2.561  0.0495 -0.2420  0.4672
 6344SOL    HW130491   1.119   3.270   2.609  1.7294 -0.8935 -1.3897
 6344SOL    HW230492   0.976   3.208   2.620 -1.2521 -0.2443 -1.1612
 6345SOL     OW30493   1.654   1.168   4.253  0.1098 -0.1344 -0.6706
 6345SOL    HW130494   1.624   1.093   4.202 -3.2926  1.5499 -1.1687
 6345SOL    HW230495   1.573   1.183   4.302  0.7315  0.1509  0.2661
 6346SOL     OW30496   0.087   2.613  11.993  0.2462  0.6956  0.2284
 6346SOL    HW130497   0.098   2.571  12.077  3.3974  2.3836  0.6563
 6346SOL    HW230498   0.180   2.611  11.971 -0.1322 -0.7453 -1.2129
 6347SOL     OW30499   1.807   4.361  12.787  0.0524 -0.4391  0.3685
 6347SOL    HW130500   1.860   4.389  12.712  0.5468 -1.7489  0.2364
 6347SOL    HW230501   1.765   4.443  12.811 -0.4858 -1.2830  2.2428
 6348SOL     OW30502   1.483   1.854   4.940 -0.1685  0.1811  0.1786
 6348SOL    HW130503   1.435   1.933   4.963 -0.7122  0.7917 -3.0646
 6348SOL    HW230504   1.540   1.858   5.017  0.0328 -1.5289  0.1203
 6349SOL     OW30505   0.288   1.655  15.085  0.1711  0.0206 -0.0206
 6349SOL    HW130506   0.298   1.745  15.115  1.7073 -0.3421  0.5554
 6349SOL    HW230507   0.232   1.659  15.007  0.8835  0.9192 -0.4868
 6350SOL     OW30508   1.478   1.074   0.815  0.1870  0.0826 -0.1355
 6350SOL    HW130509   1.557   1.061   0.762 -0.5582 -1.3426 -0.9047
 6350SOL    HW230510   1.492   1.166   0.837  1.4748 -0.0846 -0.2864
 6351SOL     OW30511   2.638   4.679   5.565 -0.3601  0.2793  0.2241
 6351SOL    HW130512   2.649   4.584   5.576 -1.1970  0.2382  0.6774
 6351SOL    HW230513   2.602   4.719   5.644 -0.8514 -0.3302  0.3121
 6352SOL     OW30514   2.852   2.993  15.245 -0.1298 -0.2207  0.0489
 6352SOL    HW130515   2.776   2.970  15.298  0.4919  2.1024  1.9296
 6352SOL    HW230516   2.868   3.084  15.270 -2.4055  0.5667 -1.4169
 6353SOL     OW30517   2.623   0.323   5.308 -0.5746 -0.2403  0.2289
 6353SOL    HW130518   2.687   0.393   5.306 -0.1537 -0.7022 -2.3894
 6353SOL    HW230519   2.551   0.337   5.247 -1.1729  1.2419  1.2802
 6354SOL     OW30520   3.581   3.694   7.043  0.7932  0.0009  0.1143
 6354SOL    HW130521   3.543   3.692   6.956  0.5000  1.3395  0.2181
 6354SOL    HW230522   3.580   3.603   7.073 -2.3128 -0.1136 -0.3947
 6355SOL     OW30523   2.287   3.580  10.742  0.1774 -0.1161 -0.0502
 6355SOL    HW130524   2.378   3.574  10.771  0.7773 -1.7069 -2.2387
 6355SOL    HW230525   2.301   3.611  10.652  0.7987 -0.8853 -0.2246
 6356SOL     OW30526   1.645   2.660   9.090  0.3685  0.0428  0.1080
 6356SOL    HW130527   1.677   2.605   9.161  1.0365 -0.7520 -0.8109
 6356SOL    HW230528   1.694   2.742   9.103  0.3357 -0.0627  0.8608
 6357SOL     OW30529   1.551   2.110   8.230  0.3634  0.0865 -0.2863
 6357SOL    HW130530   1.469   2.122   8.278  0.4462 -2.0728  0.4199
 6357SOL    HW230531   1.594   2.045   8.287  0.7503 -0.4647 -1.2022
 6358SOL     OW30532   1.132   4.061   3.246  0.2095 -0.5644  0.0693
 6358SOL    HW130533   1.046   4.089   3.277  0.2132  0.4606 -0.8238
 6358SOL    HW230534   1.146   3.975   3.286 -1.2322 -2.0613 -2.7203
 6359SOL     OW30535   1.283   3.465   2.055 -0.3069 -0.3253 -0.4339
 6359SOL    HW130536   1.359   3.414   2.026  0.2381  0.0639  0.2898
 6359SOL    HW230537   1.219   3.394   2.057  0.6030 -1.1007  1.4344
 6360SOL     OW30538   0.254   0.382  14.508 -0.5152  0.3776  0.5720
 6360SOL    HW130539   0.304   0.300  14.504 -1.2926 -0.1606  2.1786
 6360SOL    HW230540   0.327   0.444  14.513 -0.2165  0.1744 -1.0760
 6361SOL     OW30541   0.459   2.860   7.057 -0.0681  0.4777 -0.7025
 6361SOL    HW130542   0.411   2.942   7.069 -3.4597 -1.0032 -4.1808
 6361SOL    HW230543   0.390   2.807   7.018  1.0323 -0.1389 -1.8056
 6362SOL     OW30544   3.760   0.366   3.367 -0.3185 -0.3529  0.5984
 6362SOL    HW130545   3.727   0.393   3.452 -0.5141 -0.1152  0.4474
 6362SOL    HW230546   3.699   0.408   3.306 -1.9348 -2.4274  0.7836
 6363SOL     OW30547   2.393   3.012   2.574  0.1648 -0.0228 -0.2303
 6363SOL    HW130548   2.397   3.107   2.562  0.2711  0.1782  1.3901
 6363SOL    HW230549   2.413   2.975   2.488 -0.0627 -0.7242  0.0227
 6364SOL     OW30550   1.652   2.442   4.658 -0.3362  0.4396  0.1241
 6364SOL    HW130551   1.701   2.494   4.721  0.2128  4.2763 -3.4533
 6364SOL    HW230552   1.733   2.418   4.612  0.0530 -0.2848  1.2065
 6365SOL     OW30553   2.336   1.191   2.412 -0.2991 -0.0381  0.2471
 6365SOL    HW130554   2.370   1.157   2.329 -1.9181 -1.2234  0.0843
 6365SOL    HW230555   2.295   1.117   2.456  1.8997 -1.5042 -0.1419
 6366SOL     OW30556   3.038   4.652   6.120  0.1453 -0.0341 -0.2988
 6366SOL    HW130557   3.111   4.629   6.062  1.4634  0.5081  1.1564
 6366SOL    HW230558   3.070   4.631   6.208  1.9778 -0.9209 -1.1772
 6367SOL     OW30559   1.847   4.185   2.460 -0.0859 -0.3422  0.2058
 6367SOL    HW130560   1.824   4.135   2.381 -1.7485  0.0132  0.4661
 6367SOL    HW230561   1.906   4.251   2.425  0.3862 -0.1847  1.2961
 6368SOL     OW30562   0.845   2.966  12.231  0.4607  0.3168 -0.1794
 6368SOL    HW130563   0.854   2.875  12.259  3.3591  0.6919  0.1193
 6368SOL    HW230564   0.777   2.998  12.290 -0.9172 -1.5718 -0.7530
 6369SOL     OW30565   4.363   2.417  13.720  0.0341  0.6213 -0.5764
 6369SOL    HW130566   4.298   2.388  13.655  0.3022 -2.4034  0.4890
 6369SOL    HW230567   4.417   2.477  13.669 -0.9738  1.9411 -0.0864
 6370SOL     OW30568   0.551   0.053   8.618  0.4113 -0.2179 -0.6266
 6370SOL    HW130569   0.485   0.122   8.612  1.3762  0.5338 -2.4410
 6370SOL    HW230570   0.564   0.034   8.711 -0.0069  0.4751 -0.4248
 6371SOL     OW30571   3.263   3.385   4.266  0.0651  0.0238  0.2925
 6371SOL    HW130572   3.320   3.409   4.339 -0.2655  1.1578  0.1887
 6371SOL    HW230573   3.312   3.420   4.192 -1.6849  2.2974  0.2002
 6372SOL     OW30574   1.980   1.693   9.300 -0.2893  0.0818 -0.1610
 6372SOL    HW130575   1.927   1.644   9.237 -1.2720  1.9026 -0.7517
 6372SOL    HW230576   1.951   1.784   9.303  0.1607  0.2720 -1.5790
 6373SOL     OW30577   0.401   2.090   3.519 -0.1578 -0.1751 -0.3915
 6373SOL    HW130578   0.362   2.008   3.490 -1.3786  0.5500 -0.8142
 6373SOL    HW230579   0.323   2.143   3.531  1.0831  1.3849  0.8620
 6374SOL     OW30580   3.037   0.966   3.250 -0.0918  0.2389  0.1069
 6374SOL    HW130581   3.096   1.038   3.274  4.4167 -2.8594 -1.7927
 6374SOL    HW230582   2.959   1.012   3.283 -2.5698 -2.3908 -2.0634
 6375SOL     OW30583   0.782   3.757   7.340 -0.1236  0.6843 -0.0188
 6375SOL    HW130584   0.767   3.705   7.261  0.2296 -0.0342  0.3902
 6375SOL    HW230585   0.823   3.840   7.313 -0.0344  1.3673  2.2463
 6376SOL     OW30586   2.949   4.206   6.667  0.5027  0.3365 -0.0274
 6376SOL    HW130587   3.017   4.161   6.617  0.6556 -2.4680  2.7314
 6376SOL    HW230588   2.992   4.200   6.753  1.5744  1.8982 -0.4474
 6377SOL     OW30589   1.895   2.004   8.263 -0.0793 -0.3301 -0.1456
 6377SOL    HW130590   1.831   1.948   8.306  0.5920 -2.2785 -1.6986
 6377SOL    HW230591   1.842   2.034   8.189 -1.2547  0.4176  0.9965
 6378SOL     OW30592   3.971   4.251  13.592  0.9291 -0.4305 -0.7834
 6378SOL    HW130593   3.958   4.315  13.522  0.1459  0.4056  0.1233
 6378SOL    HW230594   3.886   4.241  13.634  2.5528 -0.7701  2.4082
 6379SOL     OW30595   2.840   0.777   3.059 -0.3906  0.4941 -0.6612
 6379SOL    HW130596   2.787   0.729   2.996 -0.1077  0.6756 -1.0370
 6379SOL    HW230597   2.780   0.849   3.078 -0.2126  0.2535  0.8371
 6380SOL     OW30598   2.407   1.407  12.831 -0.2664  0.0553 -0.4201
 6380SOL    HW130599   2.462   1.426  12.908 -0.1568 -2.2199  0.0480
 6380SOL    HW230600   2.446   1.468  12.769 -2.2572 -0.1759 -1.8733
 6381SOL     OW30601   1.057   0.128  11.043  0.2958  0.6434 -0.3154
 6381SOL    HW130602   1.130   0.076  11.008 -0.1473  0.7495 -1.3977
 6381SOL    HW230603   1.015   0.161  10.964  1.7504  1.4759 -0.7370
 6382SOL     OW30604   4.627   4.270   4.621 -0.5793 -0.8501 -0.3996
 6382SOL    HW130605   4.533   4.274   4.639 -0.5628 -0.0161 -0.4576
 6382SOL    HW230606   4.652   4.351   4.576  2.1513 -0.6846  1.4056
 6383SOL     OW30607   2.947   4.122   6.270  0.5168 -0.5045  0.4860
 6383SOL    HW130608   3.038   4.098   6.287 -0.2868 -3.0651  1.1547
 6383SOL    HW230609   2.934   4.089   6.181  0.0748  3.8709 -1.0840
 6384SOL     OW30610   0.970   4.091   9.471 -0.5076  0.3528  0.2676
 6384SOL    HW130611   0.956   4.076   9.565  2.1585  1.5772  0.8647
 6384SOL    HW230612   0.970   4.001   9.438 -0.0238 -0.3902  2.2611
 6385SOL     OW30613   1.654   1.664   7.889  0.1542 -0.0383  0.1895
 6385SOL    HW130614   1.704   1.620   7.820 -0.0417 -0.0179  0.0334
 6385SOL    HW230615   1.608   1.592   7.932  0.0431  0.3556  0.7313
 6386SOL     OW30616   3.339   2.443   0.695  0.4967 -0.1360 -0.1016
 6386SOL    HW130617   3.330   2.489   0.779  1.0276  0.2139 -0.2383
 6386SOL    HW230618   3.434   2.433   0.695  0.4420 -0.5527 -1.6383
 6387SOL     OW30619   3.541   1.748   4.691 -0.2361 -1.1272 -0.2147
 6387SOL    HW130620   3.538   1.829   4.741  2.8301 -0.8478 -0.4638
 6387SOL    HW230621   3.592   1.770   4.613  0.1461  1.0122  0.6386
 6388SOL     OW30622   0.589   0.124  11.664  0.1579  0.1746 -0.2697
 6388SOL    HW130623   0.585   0.195  11.728 -0.6790 -1.0601  1.0423
 6388SOL    HW230624   0.636   0.063  11.721  1.9100  1.7351 -0.0531
 6389SOL     OW30625   2.520   0.462   3.424 -0.1422  0.2177  0.3347
 6389SOL    HW130626   2.600   0.415   3.401 -0.5468 -0.0931 -0.4483
 6389SOL    HW230627   2.474   0.404   3.484  0.5485  0.1091  0.7603
 6390SOL     OW30628   3.560   4.535   1.469 -0.1616  0.3783 -0.2199
 6390SOL    HW130629   3.636   4.506   1.520  0.8833 -1.1264 -2.5756
 6390SOL    HW230630   3.502   4.549   1.543  1.6364 -0.3160  1.3312
 6391SOL     OW30631   0.015   3.778  15.579 -0.1099 -0.2295  0.0939
 6391SOL    HW130632   4.691   3.703  15.543 -1.3255 -0.5529  2.3622
 6391SOL    HW230633   0.023   3.828  15.497  0.1605  0.7567  0.7193
 6392SOL     OW30634   2.052   4.380   7.747  0.1637 -0.8492 -0.3897
 6392SOL    HW130635   2.022   4.357   7.834 -1.7066 -0.8193 -1.0375
 6392SOL    HW230636   1.992   4.331   7.692  1.2750  0.0526 -2.4343
 6393SOL     OW30637   2.505   3.260   1.638 -0.0501  0.4395 -0.2212
 6393SOL    HW130638   2.532   3.351   1.635 -0.9509  0.7386  0.8493
 6393SOL    HW230639   2.568   3.226   1.574  1.8607  1.5215  1.0964
 6394SOL     OW30640   0.814   2.282  15.798  0.0125  0.4214  0.1933
 6394SOL    HW130641   0.875   2.211  15.777 -0.6786 -0.4761  1.2371
 6394SOL    HW230642   0.727   2.258  15.768 -0.1625  1.1324  0.1401
 6395SOL     OW30643   1.936   3.691   6.522 -0.1860 -0.2804 -0.3493
 6395SOL    HW130644   2.030   3.707   6.519  0.1049 -2.2763 -2.7369
 6395SOL    HW230645   1.923   3.661   6.612 -0.7011  0.7944 -0.0767
 6396SOL     OW30646   1.818   0.049   3.358 -0.1782 -0.1892 -0.1074
 6396SOL    HW130647   1.726   0.025   3.347 -0.2332  0.1328 -0.3264
 6396SOL    HW230648   1.869   4.704   3.315 -1.1737 -2.2070  1.8437
 6397SOL     OW30649   3.981   1.877  14.565 -0.5817 -0.2197 -0.0967
 6397SOL    HW130650   4.070   1.912  14.575 -0.8115  0.2159  0.3878
 6397SOL    HW230651   3.994   1.810  14.497  3.8644 -0.0382  0.5341
 6398SOL     OW30652   3.519   3.742   3.432  0.3619  0.2376 -0.1598
 6398SOL    HW130653   3.535   3.835   3.447  1.2969 -0.1114  0.9907
 6398SOL    HW230654   3.485   3.728   3.520  1.2368  0.1691  0.1670
 6399SOL     OW30655   3.076   0.131  16.503 -0.0112  0.1602 -0.0462
 6399SOL    HW130656   3.064   0.146  16.597 -1.0195 -0.7121 -0.0405
 6399SOL    HW230657   3.006   0.187  16.469 -0.8563 -0.5518  0.5364
 6400SOL     OW30658   0.674   3.884   6.168 -0.4113 -0.7769 -0.2673
 6400SOL    HW130659   0.696   3.793   6.152 -0.3896 -1.2676  2.6003
 6400SOL    HW230660   0.656   3.913   6.078 -0.0015  0.0223 -0.0925
 6401SOL     OW30661   1.617   2.364   1.159 -0.4302  0.0411 -0.2816
 6401SOL    HW130662   1.707   2.331   1.151 -1.2316 -2.1348 -0.1712
 6401SOL    HW230663   1.633   2.458   1.160 -0.7035  0.0734  2.0464
 6402SOL     OW30664   2.870   3.740   4.616  0.0010  0.3112  0.2100
 6402SOL    HW130665   2.847   3.662   4.665 -0.1664 -1.0584 -2.0568
 6402SOL    HW230666   2.925   3.785   4.680  0.3413  0.1127  0.0548
 6403SOL     OW30667   3.252   2.227   9.208 -0.0644  0.5636  0.0467
 6403SOL    HW130668   3.263   2.209   9.301  2.0092 -0.9824 -0.5152
 6403SOL    HW230669   3.177   2.170   9.193  0.0121  0.4304  0.1738
 6404SOL     OW30670   0.684   3.479  14.545 -0.6906  0.1204  0.5952
 6404SOL    HW130671   0.624   3.553  14.547  0.3047  0.9653 -0.7398
 6404SOL    HW230672   0.760   3.511  14.495 -1.1466  0.2483 -0.0214
 6405SOL     OW30673   1.174   0.896   5.952  0.3388  0.1854 -0.0591
 6405SOL    HW130674   1.178   0.804   5.928 -1.3857  0.4340 -1.3413
 6405SOL    HW230675   1.078   0.904   5.947  0.2962 -0.3067  0.0004
 6406SOL     OW30676   3.675   2.553  15.240 -0.5983 -0.3470  0.0506
 6406SOL    HW130677   3.751   2.502  15.268 -0.1143 -1.1841 -2.8134
 6406SOL    HW230678   3.644   2.480  15.188 -1.3607 -1.0272  1.4705
 6407SOL     OW30679   2.085   2.257   4.964 -0.3164  0.8469  0.0981
 6407SOL    HW130680   2.120   2.179   5.007 -0.5901 -0.1164 -1.4063
 6407SOL    HW230681   2.125   2.321   5.023  2.2726  0.3882 -1.1728
 6408SOL     OW30682   1.469   3.227   2.524 -0.3273 -0.8101  0.0620
 6408SOL    HW130683   1.456   3.275   2.606 -3.7576 -0.4182 -0.6822
 6408SOL    HW230684   1.387   3.178   2.533 -0.9416  0.1278 -0.4466
 6409SOL     OW30685   3.142   1.116   0.385 -0.0176  0.7994  0.6079
 6409SOL    HW130686   3.058   1.118   0.340 -0.4388  1.2825  1.4005
 6409SOL    HW230687   3.178   1.033   0.355 -2.7427  0.4458 -1.5993
 6410SOL     OW30688   1.815   3.324   6.150  0.0369 -0.2633  0.3286
 6410SOL    HW130689   1.855   3.411   6.144 -0.3602 -0.0123  1.2958
 6410SOL    HW230690   1.897   3.276   6.134 -0.2456 -1.0533  1.2684
 6411SOL     OW30691   1.460   2.992   6.546  0.2152 -0.3502 -0.2248
 6411SOL    HW130692   1.549   2.972   6.517  1.6154 -0.0506  3.7758
 6411SOL    HW230693   1.479   3.058   6.613 -1.2611  0.1482 -0.2997
 6412SOL     OW30694   3.493   3.476   5.718 -0.4657  0.1082 -0.2740
 6412SOL    HW130695   3.452   3.518   5.642 -2.2093  1.0340  1.1709
 6412SOL    HW230696   3.510   3.391   5.678  1.4661  0.4291 -0.1370
 6413SOL     OW30697   2.738   3.906   6.042 -0.9082  0.2949 -0.3329
 6413SOL    HW130698   2.707   3.869   5.960 -0.2197  1.1197 -0.9652
 6413SOL    HW230699   2.766   3.995   6.021  0.8647 -0.4633 -1.2033
 6414SOL     OW30700   2.693   2.018   4.248 -0.1370 -1.1169  0.1578
 6414SOL    HW130701   2.727   2.066   4.324  1.3519  0.4266 -1.4865
 6414SOL    HW230702   2.713   1.930   4.280  2.2565 -0.0105  1.6982
 6415SOL     OW30703   4.693   1.213   7.949  0.1533  0.1320 -0.2390
 6415SOL    HW130704   4.670   1.302   7.921 -1.8037  0.0596  1.0926
 6415SOL    HW230705   4.700   1.165   7.866 -0.1503 -1.0040  0.3918
 6416SOL     OW30706   0.124   1.697  17.213  0.3337 -0.3234  0.2804
 6416SOL    HW130707   0.037   1.658  17.209  0.8039 -1.5920  2.3136
 6416SOL    HW230708   0.166   1.664  17.133  0.4759 -0.3828  0.3790
 6417SOL     OW30709   3.198   1.051   0.701 -0.1272  0.5254  0.6070
 6417SOL    HW130710   3.217   0.963   0.736 -1.8413  0.6322  1.8431
 6417SOL    HW230711   3.228   1.045   0.611 -0.0388 -0.9542  0.7281
 6418SOL     OW30712   2.929   1.727   0.189 -0.4135  0.0952 -0.1607
 6418SOL    HW130713   2.998   1.713   0.254 -0.3043  0.9395 -0.0925
 6418SOL    HW230714   2.861   1.662   0.206 -0.6413  0.6468  1.0490
 6419SOL     OW30715   3.342   4.239  10.913  0.5184 -0.0250 -0.1823
 6419SOL    HW130716   3.341   4.149  10.948  0.4986 -0.3992 -1.1464
 6419SOL    HW230717   3.313   4.291  10.988 -0.8207  0.0053 -0.7210
 6420SOL     OW30718   0.531   3.837   8.582 -0.0615 -0.3035 -0.3761
 6420SOL    HW130719   0.487   3.911   8.539  1.0626  0.4756 -0.2007
 6420SOL    HW230720   0.564   3.886   8.657 -0.7141  0.0375 -0.3086
 6421SOL     OW30721   3.792   3.310   2.774 -0.4528 -0.0930 -0.9978
 6421SOL    HW130722   3.821   3.268   2.693  0.6570  0.7929 -1.0566
 6421SOL    HW230723   3.766   3.230   2.821 -3.3002  0.7017 -1.2068
 6422SOL     OW30724   2.182   2.220  16.496  0.2567 -0.3588  0.8532
 6422SOL    HW130725   2.115   2.257  16.439  1.7488  1.1066  0.0709
 6422SOL    HW230726   2.216   2.300  16.537  2.7270 -0.0693 -1.7736
 6423SOL     OW30727   0.726   3.742   4.563  0.0271  0.0616 -0.2202
 6423SOL    HW130728   0.633   3.753   4.584  0.2258  1.2753  0.0502
 6423SOL    HW230729   0.721   3.647   4.553 -2.4429  0.3941 -2.3512
 6424SOL     OW30730   4.416   0.138   4.955  0.0523  0.0295  0.3546
 6424SOL    HW130731   4.486   0.201   4.939  0.5925 -0.7256 -0.2930
 6424SOL    HW230732   4.422   0.052   4.913 -0.8466 -0.3137  0.9364
 6425SOL     OW30733   1.447   3.635   3.365 -0.0458  0.3197  0.4505
 6425SOL    HW130734   1.496   3.716   3.352  0.2756  0.1177  0.4153
 6425SOL    HW230735   1.383   3.653   3.296  0.2561 -1.6185 -0.3418
 6426SOL     OW30736   3.029   2.072   8.371  0.6705 -0.0589 -0.1587
 6426SOL    HW130737   3.118   2.105   8.384  0.5033  1.2447 -2.1872
 6426SOL    HW230738   2.985   2.157   8.367  1.0191  0.1866  1.2988
 6427SOL     OW30739   2.725   0.320   0.481 -0.7175 -0.1936 -0.0909
 6427SOL    HW130740   2.666   0.252   0.513 -1.5866  0.5935 -0.0393
 6427SOL    HW230741   2.805   0.289   0.523 -0.5318 -1.7281 -1.5875
 6428SOL     OW30742   2.589   1.300   1.004  0.1555 -0.1555  0.3976
 6428SOL    HW130743   2.601   1.391   1.029 -1.3489 -0.2114  1.3361
 6428SOL    HW230744   2.622   1.250   1.079 -1.9499 -2.2501 -0.0445
 6429SOL     OW30745   1.394   0.831   1.895 -0.4794 -0.2912 -0.0405
 6429SOL    HW130746   1.345   0.762   1.851 -2.0307  0.5975  0.2979
 6429SOL    HW230747   1.485   0.803   1.892 -0.3771  0.2776 -2.1976
 6430SOL     OW30748   2.733   4.700   1.773 -0.2749  0.3397 -0.4085
 6430SOL    HW130749   2.667   0.013   1.832 -0.9782 -1.4200 -0.1241
 6430SOL    HW230750   2.783   0.057   1.758 -1.8493  1.1271 -1.4870
 6431SOL     OW30751   0.975   3.710  10.655 -0.2231 -0.1373 -0.1632
 6431SOL    HW130752   0.918   3.725  10.730 -1.6894 -0.9426 -1.0996
 6431SOL    HW230753   0.915   3.747  10.590  0.3507  0.4805 -0.3318
 6432SOL     OW30754   2.735   1.228  10.995  0.0433 -0.1193  0.0851
 6432SOL    HW130755   2.730   1.323  10.986 -0.7470 -0.0646  1.0552
 6432SOL    HW230756   2.802   1.232  11.063  0.7428  0.1525 -0.6307
 6433SOL     OW30757   3.939   3.580  10.051 -0.1041  0.2025  0.8224
 6433SOL    HW130758   3.913   3.672  10.041  1.4622  0.5214 -0.2182
 6433SOL    HW230759   3.919   3.557  10.142  1.7070 -1.1370  0.8726
 6434SOL     OW30760   3.247   2.298   2.314  0.3082 -0.0177  0.0043
 6434SOL    HW130761   3.254   2.349   2.233 -0.2023 -2.0342 -1.3032
 6434SOL    HW230762   3.306   2.227   2.288  1.2929  0.1557  1.7256
 6435SOL     OW30763   0.862   2.810  11.411  0.2924  0.0808 -0.0289
 6435SOL    HW130764   0.923   2.742  11.441  0.6401  0.6636  0.5697
 6435SOL    HW230765   0.818   2.756  11.345  0.6772 -0.0365 -0.1915
 6436SOL     OW30766   0.548   2.329   1.587  0.3977  0.0700 -0.5997
 6436SOL    HW130767   0.529   2.239   1.613 -0.4421  0.1620 -0.8918
 6436SOL    HW230768   0.461   2.369   1.584 -0.5928 -2.0258  0.5255
 6437SOL     OW30769   3.168   2.576   4.633  0.0985 -0.1366  0.1836
 6437SOL    HW130770   3.138   2.645   4.693  1.2464  1.8121 -1.4705
 6437SOL    HW230771   3.246   2.621   4.599  2.1032 -1.6022  2.8177
 6438SOL     OW30772   3.060   3.904   7.664  0.0187 -0.4604 -0.0336
 6438SOL    HW130773   2.967   3.913   7.643 -0.2877 -2.9617  0.3025
 6438SOL    HW230774   3.053   3.874   7.755 -1.8490 -1.7701 -0.6101
 6439SOL     OW30775   4.629   1.875   8.739 -0.1904 -0.3106  0.2486
 6439SOL    HW130776   4.674   1.901   8.658  0.5445 -1.3578  0.3262
 6439SOL    HW230777   4.665   1.789   8.755 -0.3456 -0.4825 -0.3039
 6440SOL     OW30778   2.737   0.525  16.190  0.5973  0.5155  0.1674
 6440SOL    HW130779   2.698   0.543  16.104  0.5605 -0.2736  0.0202
 6440SOL    HW230780   2.829   0.526  16.167  0.7747  0.0943  0.8609
 6441SOL     OW30781   0.418   2.536  14.350 -0.1661  0.4201  0.3809
 6441SOL    HW130782   0.403   2.523  14.443 -1.3458  2.3933  0.4728
 6441SOL    HW230783   0.512   2.521  14.359  0.0676  0.7193 -1.5361
 6442SOL     OW30784   1.682   2.301   0.246  0.2561  0.6374  0.2256
 6442SOL    HW130785   1.734   2.321   0.324  1.6886  0.1268 -0.5912
 6442SOL    HW230786   1.654   2.392   0.237 -0.8117  0.3659  0.8661
 6443SOL     OW30787   3.822   3.854   8.503 -0.4835  0.4696 -0.7501
 6443SOL    HW130788   3.876   3.931   8.520  0.5681 -0.6545  1.0107
 6443SOL    HW230789   3.783   3.836   8.589  1.7011 -0.7699 -0.0157
 6444SOL     OW30790   4.404   0.927   6.103  0.0356 -0.0626 -0.0117
 6444SOL    HW130791   4.492   0.889   6.096 -0.2749 -0.5101 -1.5015
 6444SOL    HW230792   4.349   0.848   6.105  0.5896 -0.4293  0.9658
 6445SOL     OW30793   3.348   4.631  13.776  0.0507  0.1278 -0.4978
 6445SOL    HW130794   3.403   4.566  13.731  2.3668  1.7903 -0.0771
 6445SOL    HW230795   3.302   4.666  13.699  0.5410  0.1821 -0.7646
 6446SOL     OW30796   1.782   2.247   5.686 -0.1983 -0.8304 -0.2460
 6446SOL    HW130797   1.780   2.293   5.770  1.9718  1.9606 -1.7215
 6446SOL    HW230798   1.737   2.318   5.641 -0.0623  0.0928  1.0577
 6447SOL     OW30799   3.013   2.274   1.533  0.1526 -0.2263  0.9310
 6447SOL    HW130800   3.017   2.197   1.476 -1.5349  0.0734  0.3878
 6447SOL    HW230801   3.032   2.231   1.617  0.1814 -1.9838  0.0255
 6448SOL     OW30802   4.136   3.708   1.240  0.2288 -0.0170  0.0984
 6448SOL    HW130803   4.196   3.682   1.310  0.0636  1.0131  0.6130
 6448SOL    HW230804   4.160   3.799   1.225 -1.5896  0.8086  2.2015
 6449SOL     OW30805   0.553   0.436   4.825  0.2135  0.3019  0.2248
 6449SOL    HW130806   0.638   0.473   4.802 -0.1841 -0.1073 -1.9202
 6449SOL    HW230807   0.494   0.474   4.760  1.0284  2.1337  0.5702
 6450SOL     OW30808   4.201   3.214   4.307  0.8279 -0.2952 -0.0724
 6450SOL    HW130809   4.286   3.216   4.352  0.5573 -1.9588  0.5092
 6450SOL    HW230810   4.209   3.289   4.249 -2.4682 -0.5790 -0.8644
 6451SOL     OW30811   2.577   2.816  11.780 -0.1721  0.1808  0.1722
 6451SOL    HW130812   2.529   2.844  11.702 -0.5084 -3.2128 -0.8197
 6451SOL    HW230813   2.650   2.768  11.742  0.8855  2.2277 -0.4004
 6452SOL     OW30814   1.229   1.991  12.178  0.1559 -0.0035 -0.9266
 6452SOL    HW130815   1.198   2.016  12.091  0.0053  1.9550 -0.3150
 6452SOL    HW230816   1.300   2.053  12.193 -0.0268 -0.0205  0.0370
 6453SOL     OW30817   2.072   0.760   5.635 -0.0514 -0.6336 -0.1796
 6453SOL    HW130818   2.036   0.747   5.547 -0.7042 -2.2581  0.3262
 6453SOL    HW230819   2.164   0.762   5.607  0.0815  1.3307  0.4254
 6454SOL     OW30820   3.324   0.997   8.142  0.1849 -0.4078  0.5628
 6454SOL    HW130821   3.310   1.005   8.236  0.0679 -1.9590  0.6644
 6454SOL    HW230822   3.326   0.903   8.129 -0.4491 -0.7488  2.8669
 6455SOL     OW30823   1.972   1.276   7.188  0.8369 -0.2694  0.0389
 6455SOL    HW130824   1.952   1.370   7.195 -0.5679 -0.8343  3.4438
 6455SOL    HW230825   1.949   1.249   7.277 -0.4617 -1.2531 -0.5970
 6456SOL     OW30826   1.869   2.588   1.987 -0.2339  0.2172 -0.1660
 6456SOL    HW130827   1.885   2.682   1.996  0.6213  0.1264 -0.7818
 6456SOL    HW230828   1.913   2.561   1.906  0.8501  1.8454 -0.1119
 6457SOL     OW30829   0.947   3.827  15.873 -0.3729 -0.2182  0.4578
 6457SOL    HW130830   0.855   3.839  15.847 -0.1886  2.0254  0.8919
 6457SOL    HW230831   0.961   3.907  15.923  0.4538 -0.3036  0.3525
 6458SOL     OW30832   4.265   4.087   2.772 -0.7056  0.3227  0.3366
 6458SOL    HW130833   4.239   4.100   2.681  0.1537  0.5702  0.1332
 6458SOL    HW230834   4.209   4.016   2.804 -2.4488 -0.4899 -4.4956
 6459SOL     OW30835   0.850   3.868   7.590  0.1114  0.1323  0.4366
 6459SOL    HW130836   0.824   3.833   7.504 -1.0636  1.7176  0.1398
 6459SOL    HW230837   0.942   3.868   7.565  0.3213 -2.8079  1.1962
 6460SOL     OW30838   1.600   1.857   7.061  0.3254  0.2680  0.1391
 6460SOL    HW130839   1.529   1.792   7.060  1.7345 -1.2693 -0.8460
 6460SOL    HW230840   1.635   1.828   7.145  1.7411  2.2986  0.2241
 6461SOL     OW30841   2.913   4.145  17.126 -0.0698 -0.3015  0.3296
 6461SOL    HW130842   2.948   4.215  17.071 -0.8552  0.6316  1.0206
 6461SOL    HW230843   2.977   4.146  17.198 -0.7351  2.3152  0.8992
 6462SOL     OW30844   4.373   3.010  12.803 -0.5130 -0.8329 -0.4028
 6462SOL    HW130845   4.362   3.027  12.897 -1.3973  0.4619 -0.7358
 6462SOL    HW230846   4.386   2.916  12.814  2.9438 -0.3673 -0.6375
 6463SOL     OW30847   1.236   1.068   8.739  0.1269  0.2914  0.1376
 6463SOL    HW130848   1.190   0.995   8.697 -2.7221  0.0432  3.6978
 6463SOL    HW230849   1.246   1.135   8.671 -1.9431  0.7746  0.2848
 6464SOL     OW30850   1.029   3.228  13.242  0.3898  0.8655 -0.5054
 6464SOL    HW130851   1.081   3.148  13.249  0.7732  1.0683 -1.0961
 6464SOL    HW230852   0.944   3.184  13.245  0.7762  0.1995  0.7399
 6465SOL     OW30853   3.431   0.256   9.149 -0.1781  0.0833  0.3223
 6465SOL    HW130854   3.511   0.307   9.138  0.5104 -1.3611 -1.4244
 6465SOL    HW230855   3.446   0.211   9.232 -1.0607 -0.5034  0.1643
 6466SOL     OW30856   3.943   2.053   2.255  0.0859 -0.2810  0.1649
 6466SOL    HW130857   3.924   2.050   2.161  1.8490  0.5010 -0.2140
 6466SOL    HW230858   3.892   1.979   2.287 -1.8146  1.1208  0.4404
 6467SOL     OW30859   3.738   4.636  15.516 -0.3357  0.3221 -0.2423
 6467SOL    HW130860   3.696   4.715  15.550 -1.8659  0.2100 -1.8390
 6467SOL    HW230861   3.825   4.671  15.535 -0.6598  1.5722 -1.0170
 6468SOL     OW30862   0.695   2.155   6.196  0.3364 -0.0890  0.1174
 6468SOL    HW130863   0.713   2.178   6.105  0.2396  1.9251  0.6102
 6468SOL    HW230864   0.600   2.158   6.187  0.6099 -0.3802 -3.0361
 6469SOL     OW30865   3.514   1.195   4.603  0.2523  0.1877 -0.1272
 6469SOL    HW130866   3.486   1.214   4.692 -0.7829 -1.0625 -0.1842
 6469SOL    HW230867   3.542   1.103   4.604 -0.6617 -0.0734  0.9096
 6470SOL     OW30868   0.356   4.246   6.476 -0.7347  0.4912 -0.1028
 6470SOL    HW130869   0.269   4.259   6.514 -1.2338  0.2528 -1.1562
 6470SOL    HW230870   0.380   4.164   6.517  0.0939  1.2562  0.9398
 6471SOL     OW30871   3.826   1.576   1.698  0.7284 -0.9130  0.1879
 6471SOL    HW130872   3.767   1.644   1.666 -0.2708 -1.4466  0.8820
 6471SOL    HW230873   3.762   1.520   1.744 -1.9697 -0.3507 -2.8537
 6472SOL     OW30874   3.356   4.115  11.211  0.6121  0.3883  0.0271
 6472SOL    HW130875   3.348   4.020  11.227  1.8661  0.3908  0.6815
 6472SOL    HW230876   3.279   4.146  11.259 -1.3485 -1.9688 -1.5490
 6473SOL     OW30877   2.283   2.205  10.159 -0.3178  0.0667 -0.1683
 6473SOL    HW130878   2.196   2.175  10.187  0.1403 -0.0612  1.1240
 6473SOL    HW230879   2.335   2.125  10.166 -1.0851 -0.4119  0.0634
 6474SOL     OW30880   4.420   4.024  15.561 -0.3955 -0.4408  0.5030
 6474SOL    HW130881   4.443   4.076  15.484 -1.6086  0.2452  0.6049
 6474SOL    HW230882   4.344   3.975  15.529 -0.9113  1.3822 -1.0722
 6475SOL     OW30883   3.383   4.596   4.860  0.6419 -0.4956 -0.4170
 6475SOL    HW130884   3.297   4.592   4.902  0.0057  1.4899 -1.5574
 6475SOL    HW230885   3.428   4.572   4.941 -0.2451  0.8001  0.4606
 6476SOL     OW30886   1.353   0.349   5.016  0.5611 -0.1750 -0.6041
 6476SOL    HW130887   1.331   0.257   5.033  1.0267 -0.2585 -0.4273
 6476SOL    HW230888   1.288   0.366   4.949 -2.6664  1.5651  2.9621
 6477SOL     OW30889   1.468   1.464  11.929 -0.4802  0.1334  0.4186
 6477SOL    HW130890   1.470   1.557  11.906  2.3292 -0.5112 -1.9382
 6477SOL    HW230891   1.374   1.450  11.927 -0.4945  0.0066  1.8064
 6478SOL     OW30892   3.128   3.656  10.069 -0.9126 -0.6170 -0.0196
 6478SOL    HW130893   3.138   3.600  10.146  1.7555 -2.0307 -1.3644
 6478SOL    HW230894   3.106   3.591  10.002 -0.1194  0.9254 -1.7863
 6479SOL     OW30895   4.072   0.188   8.083 -0.5935 -0.2468  0.0545
 6479SOL    HW130896   4.083   0.277   8.049 -1.1745 -0.3960 -0.5155
 6479SOL    HW230897   4.002   0.155   8.027  0.0750  0.1750 -1.0122
 6480SOL     OW30898   1.870   3.481   1.201  0.0159  0.0300 -0.1061
 6480SOL    HW130899   1.819   3.545   1.250  0.2436  1.3067 -1.5548
 6480SOL    HW230900   1.895   3.529   1.123 -0.0583  0.9363  0.4299
 6481SOL     OW30901   4.571   2.218  13.813  0.1793 -1.1220  0.5131
 6481SOL    HW130902   4.493   2.252  13.769  2.0804  2.8991  0.2525
 6481SOL    HW230903   4.538   2.179  13.893  0.1810 -0.9723  0.5866
 6482SOL     OW30904   3.607   1.442   1.813 -0.0969  0.0810  0.2037
 6482SOL    HW130905   3.607   1.355   1.854  0.2869 -0.0582 -0.0881
 6482SOL    HW230906   3.597   1.494   1.893  0.7797  1.0276 -0.2971
 6483SOL     OW30907   2.016   2.387   8.321  0.4908 -0.0249  0.1182
 6483SOL    HW130908   1.993   2.312   8.375  1.7540 -1.0397 -0.7516
 6483SOL    HW230909   1.925   2.417   8.314  0.2014 -0.9303  0.0529
 6484SOL     OW30910   1.729   1.511   5.345 -0.0243  0.0985  0.0384
 6484SOL    HW130911   1.767   1.485   5.261 -3.9963 -3.1582 -0.7537
 6484SOL    HW230912   1.751   1.604   5.345 -0.1992  0.1275 -1.9407
 6485SOL     OW30913   0.218   4.513  14.592 -0.2899 -0.0568  0.0442
 6485SOL    HW130914   0.309   4.505  14.619 -0.0303  1.5347 -0.3456
 6485SOL    HW230915   0.176   4.512  14.679 -0.1769  0.1223  0.1018
 6486SOL     OW30916   4.365   2.703   9.338 -0.4462  0.0228 -0.5241
 6486SOL    HW130917   4.312   2.782   9.344  1.9462  1.6409 -0.6540
 6486SOL    HW230918   4.451   2.738   9.316 -1.1641  1.4779 -1.0109
 6487SOL     OW30919   1.658   1.957   0.748  0.0632 -1.0035  0.4596
 6487SOL    HW130920   1.672   1.863   0.764  1.6574 -0.6182  1.2763
 6487SOL    HW230921   1.597   1.975   0.819 -0.3005  1.0617 -0.3671
 6488SOL     OW30922   1.815   1.552  15.759 -0.2021  0.0648 -0.0564
 6488SOL    HW130923   1.721   1.560  15.741  0.2429  2.8030 -1.1991
 6488SOL    HW230924   1.856   1.591  15.682 -0.4330 -0.1421 -0.2849
 6489SOL     OW30925   1.112   4.513  16.623 -0.0065 -0.0049 -0.1120
 6489SOL    HW130926   1.155   4.590  16.587 -0.1677  0.9428  1.7020
 6489SOL    HW230927   1.033   4.551  16.660 -0.8394 -1.0006 -0.8832
 6490SOL     OW30928   0.716   3.437   8.198 -0.1329 -0.1096 -0.3080
 6490SOL    HW130929   0.664   3.359   8.217  0.2125  0.7867  4.2974
 6490SOL    HW230930   0.716   3.472   8.287 -0.0427 -1.2662  0.1402
 6491SOL     OW30931   1.430   3.220   7.051  0.1956 -0.0070  0.3720
 6491SOL    HW130932   1.394   3.189   6.968  1.2357 -0.3813  0.0606
 6491SOL    HW230933   1.347   3.228   7.097  1.4461  0.9032  2.4649
 6492SOL     OW30934   0.002   0.558   9.441 -0.5335 -0.4030  0.2139
 6492SOL    HW130935   0.087   0.538   9.478 -0.7619 -0.8776  0.4852
 6492SOL    HW230936   4.680   0.586   9.521 -0.1135 -2.6428  1.2125
 6493SOL     OW30937   2.071   4.064   5.462  1.1315 -0.4360 -0.4165
 6493SOL    HW130938   1.984   4.074   5.423  1.5103  0.6356 -0.9918
 6493SOL    HW230939   2.105   4.148   5.431  1.4666 -1.3336 -2.5115
 6494SOL     OW30940   2.655   1.136   7.544 -0.4454  0.2691 -0.3894
 6494SOL    HW130941   2.694   1.120   7.630 -0.7973  0.2113 -0.2377
 6494SOL    HW230942   2.588   1.203   7.561  0.4384  0.9617  0.3335
 6495SOL     OW30943   2.589   2.691   5.464  0.6191 -0.8693 -0.0945
 6495SOL    HW130944   2.661   2.724   5.411 -1.0389  0.3680 -1.5782
 6495SOL    HW230945   2.640   2.648   5.533 -0.8617  1.5294  2.5044
 6496SOL     OW30946   3.929   0.942   4.060  0.3817 -0.2220  0.1881
 6496SOL    HW130947   3.916   0.902   3.974  0.6245  1.4445 -0.6214
 6496SOL    HW230948   3.901   1.031   4.037  2.3655  0.4827  0.5343
 6497SOL     OW30949   1.287   2.193   4.598 -0.6619  0.2442  0.1003
 6497SOL    HW130950   1.245   2.277   4.615  0.1645  0.3701  1.4993
 6497SOL    HW230951   1.371   2.211   4.641 -0.1927  0.0585 -0.7145
 6498SOL     OW30952   4.581   0.624  10.915  0.1306  0.4016  0.3517
 6498SOL    HW130953   4.567   0.588  10.828  0.7470  0.0201  0.4154
 6498SOL    HW230954   4.648   0.567  10.953  0.0198  1.0982  1.5934
 6499SOL     OW30955   1.102   4.347   9.324 -0.0276  0.4188 -0.0474
 6499SOL    HW130956   1.045   4.303   9.388  0.2017  0.0607 -0.0917
 6499SOL    HW230957   1.093   4.287   9.250  0.1284 -1.8109  1.7321
 6500SOL     OW30958   1.369   4.256   1.035  0.6675 -0.1850  0.2426
 6500SOL    HW130959   1.382   4.286   0.945  1.8445 -0.0032  0.4775
 6500SOL    HW230960   1.301   4.316   1.065 -0.9884 -1.1730 -1.5028
 6501SOL     OW30961   1.371   4.187   7.500 -0.3557  0.3127 -0.0077
 6501SOL    HW130962   1.338   4.272   7.472 -1.2571 -0.2571 -0.7016
 6501SOL    HW230963   1.424   4.221   7.572 -0.3972 -2.1759  1.1854
 6502SOL     OW30964   2.936   1.881  10.757 -0.0429  0.4656  0.1595
 6502SOL    HW130965   2.938   1.863  10.663 -0.3977 -0.2462  0.2872
 6502SOL    HW230966   2.904   1.796  10.787  2.2124 -0.5266 -0.2190
 6503SOL     OW30967   0.741   3.981   2.178  0.0906  0.2153  0.5848
 6503SOL    HW130968   0.776   4.036   2.248  0.4642 -0.6948  1.1201
 6503SOL    HW230969   0.772   3.895   2.207  1.2561 -0.2064 -1.9188
 6504SOL     OW30970   1.887   1.596  15.520  0.2052  0.5953  0.1842
 6504SOL    HW130971   1.973   1.605  15.477  0.5888 -0.8528  0.6676
 6504SOL    HW230972   1.858   1.509  15.496 -0.1993  1.2219 -1.6417
 6505SOL     OW30973   1.650   1.982   5.707  0.2281 -1.0322  0.1007
 6505SOL    HW130974   1.670   1.977   5.801 -1.8841  0.0578  0.6044
 6505SOL    HW230975   1.702   2.061   5.694 -1.0855  0.1267  1.7577
 6506SOL     OW30976   2.326   4.080   6.502 -0.1004 -1.4030  0.6567
 6506SOL    HW130977   2.320   4.166   6.543 -0.0710 -1.1338  0.0833
 6506SOL    HW230978   2.355   4.021   6.572 -0.2432 -0.9616  1.0899
 6507SOL     OW30979   3.619   3.943   9.125 -0.3425 -0.0430  0.2518
 6507SOL    HW130980   3.524   3.936   9.119 -0.6033  2.4019  1.8665
 6507SOL    HW230981   3.642   3.853   9.148 -1.4844 -0.2031  0.7625
 6508SOL     OW30982   0.193   1.066   6.121 -0.1030 -0.3539  0.5129
 6508SOL    HW130983   0.124   1.090   6.183 -2.9911 -0.7517 -2.5400
 6508SOL    HW230984   0.239   1.149   6.110  0.3635 -0.8497 -1.2266
 6509SOL     OW30985   1.278   3.137   3.484 -0.3251  0.5605 -0.2651
 6509SOL    HW130986   1.324   3.065   3.441  1.5316  2.7495 -1.9631
 6509SOL    HW230987   1.315   3.214   3.440 -0.1417 -0.2153 -1.4724
 6510SOL     OW30988   3.658   0.234   5.203 -0.4627  0.1541 -0.0462
 6510SOL    HW130989   3.715   0.250   5.128  0.5914  1.5183  1.0582
 6510SOL    HW230990   3.723   0.276   5.259  1.2682 -0.4320 -1.6395
 6511SOL     OW30991   4.166   2.942   9.218  0.2203 -0.0714 -0.4065
 6511SOL    HW130992   4.194   2.879   9.151  0.0543 -0.3602 -0.2030
 6511SOL    HW230993   4.232   3.012   9.221  0.1765 -0.0361 -0.2693
 6512SOL     OW30994   4.551   2.158   2.694 -0.5923 -0.1989  0.1042
 6512SOL    HW130995   4.625   2.194   2.645  0.0818 -0.8069  0.6739
 6512SOL    HW230996   4.580   2.066   2.693  2.2956  0.7537 -2.2113
 6513SOL     OW30997   2.402   4.606   2.551  0.3244 -0.4373 -0.6946
 6513SOL    HW130998   2.340   4.676   2.533  3.7052  3.2758  1.9792
 6513SOL    HW230999   2.356   4.526   2.526  2.3320 -1.4945 -1.0246
 6514SOL     OW31000   1.384   0.518   4.676  0.2854  0.0267 -0.5562
 6514SOL    HW131001   1.331   0.597   4.662 -1.3875 -1.1112 -0.7131
 6514SOL    HW231002   1.425   0.532   4.761 -3.0828  0.0779  1.0603
 6515SOL     OW31003   2.858   0.776  16.726 -0.7069 -0.4366  0.3873
 6515SOL    HW131004   2.946   0.791  16.692 -0.4187  0.8195  1.6766
 6515SOL    HW231005   2.836   0.713  16.657 -1.9383  0.3692  0.0335
 6516SOL     OW31006   0.363   3.399   5.228  0.0971 -0.2135 -0.5002
 6516SOL    HW131007   0.398   3.469   5.283 -1.6098  1.6098 -1.7427
 6516SOL    HW231008   0.414   3.406   5.148 -0.3270 -3.2586 -1.0337
 6517SOL     OW31009   1.019   3.998   4.131  0.1511  0.3762 -0.4345
 6517SOL    HW131010   1.003   4.084   4.091  2.5793  1.1920  0.3446
 6517SOL    HW231011   0.990   3.939   4.062  3.0024 -1.1794 -0.3144
 6518SOL     OW31012   0.747   0.639   2.292 -0.1983  0.1035 -0.0648
 6518SOL    HW131013   0.682   0.666   2.357 -0.0499  1.2767 -0.4217
 6518SOL    HW231014   0.698   0.654   2.211  1.5916  0.4739 -1.0857
 6519SOL     OW31015   4.223   0.749  11.258  0.1166  0.0873 -0.0558
 6519SOL    HW131016   4.201   0.776  11.168  1.1834  2.0795  0.2806
 6519SOL    HW231017   4.205   0.830  11.305  0.1992 -0.0299  0.1744
 6520SOL     OW31018   1.401   4.585   8.548 -0.2859 -0.2975  0.7465
 6520SOL    HW131019   1.337   4.631   8.495  3.4566  2.4438 -1.4113
 6520SOL    HW231020   1.437   4.520   8.488  1.6271  2.5292 -1.1835
 6521SOL     OW31021   1.033   1.135   3.910  0.4339 -0.7682  0.8004
 6521SOL    HW131022   1.022   1.045   3.878 -2.6568 -0.2197  0.3137
 6521SOL    HW231023   1.128   1.134   3.898  0.0614  0.0224 -2.2244
 6522SOL     OW31024   0.954   1.488  12.191 -0.2879 -0.7503  0.6826
 6522SOL    HW131025   1.033   1.542  12.198 -0.6681 -0.2394  0.9523
 6522SOL    HW231026   0.987   1.398  12.197  0.0253 -0.6138  1.0367
 6523SOL     OW31027   3.713   3.723   4.356 -0.3297 -0.3812  0.2756
 6523SOL    HW131028   3.807   3.729   4.339  0.2236 -1.5333  2.9877
 6523SOL    HW231029   3.722   3.683   4.442 -0.1359  1.0164  0.8992
 6524SOL     OW31030   1.953   1.740   7.718 -0.0542 -0.4034  0.1715
 6524SOL    HW131031   1.909   1.655   7.713  1.3193 -1.0594 -0.6334
 6524SOL    HW231032   2.046   1.721   7.711  0.0141  0.6364 -1.6852
 6525SOL     OW31033   1.643   1.076   8.056 -0.0413  0.6022 -0.1172
 6525SOL    HW131034   1.729   1.109   8.083 -0.4382  2.2421 -0.8658
 6525SOL    HW231035   1.654   0.993   8.102 -1.6273  1.1542  1.2568
 6526SOL     OW31036   2.967   1.143   8.497 -0.6453  0.3649  0.3033
 6526SOL    HW131037   2.887   1.093   8.517 -1.4837  1.7547  0.4312
 6526SOL    HW231038   3.008   1.157   8.583 -1.8034  0.5001  0.8325
 6527SOL     OW31039   3.505   2.871   2.300 -0.2621  0.3014 -0.1953
 6527SOL    HW131040   3.473   2.783   2.323  1.6650 -0.4293 -0.3009
 6527SOL    HW231041   3.562   2.861   2.223 -0.1635  3.9862 -0.6059
 6528SOL     OW31042   0.971   0.238   3.132 -0.5717  0.0057 -0.4493
 6528SOL    HW131043   0.993   0.229   3.224  0.8251 -2.5508 -1.0417
 6528SOL    HW231044   0.882   0.207   3.147 -0.8943  0.8241 -0.6309
 6529SOL     OW31045   0.717   0.814   5.358 -0.3718  0.3581  0.5334
 6529SOL    HW131046   0.796   0.869   5.354 -0.4878  0.4698 -0.2625
 6529SOL    HW231047   0.664   0.854   5.427 -1.1740  0.4105 -0.1177
 6530SOL     OW31048   0.031   2.113   4.401 -0.4609  0.0675  0.1755
 6530SOL    HW131049   0.075   2.084   4.482  0.1458  1.5146  0.3562
 6530SOL    HW231050   4.703   2.033   4.387 -1.0886  0.0734  2.3756
 6531SOL     OW31051   3.550   0.676  15.949 -0.5598 -0.1836 -0.5302
 6531SOL    HW131052   3.580   0.726  15.873 -1.1279 -1.1627 -1.4064
 6531SOL    HW231053   3.584   0.595  15.910  1.1105 -0.0205  0.5922
 6532SOL     OW31054   0.467   2.723  16.978 -0.0391 -0.3736  0.4719
 6532SOL    HW131055   0.420   2.640  16.987  0.8009 -0.6546  2.2453
 6532SOL    HW231056   0.402   2.784  17.013  0.1825 -0.7507  1.5238
 6533SOL     OW31057   0.108   1.310   2.178 -0.2447  0.2352 -0.2148
 6533SOL    HW131058   0.179   1.269   2.128  0.8445  1.3367  0.4432
 6533SOL    HW231059   0.042   1.243   2.161  1.9125 -1.7730 -0.7208
 6534SOL     OW31060   2.761   0.222  16.782  0.0723  0.4682 -0.1317
 6534SOL    HW131061   2.716   0.286  16.837  0.9800 -0.6375  1.9093
 6534SOL    HW231062   2.780   0.163  16.855  0.6775 -0.0789 -0.7355
 6535SOL     OW31063   2.758   0.777   8.121 -0.1605 -0.3872  0.1053
 6535SOL    HW131064   2.717   0.711   8.177  1.6155 -3.0866 -1.7252
 6535SOL    HW231065   2.850   0.759   8.143  0.9369  2.6927 -1.9352
 6536SOL     OW31066   1.222   1.817   1.228 -0.1515  0.3064 -0.7513
 6536SOL    HW131067   1.184   1.802   1.315 -1.1317  3.4413 -0.6637
 6536SOL    HW231068   1.308   1.777   1.244 -0.9880 -1.1962  0.0141
 6537SOL     OW31069   3.446   3.568   4.552 -0.8236 -0.6670 -0.1859
 6537SOL    HW131070   3.477   3.649   4.594  3.2920 -2.0234 -0.6491
 6537SOL    HW231071   3.354   3.584   4.532 -1.1602 -2.1697  0.1682
 6538SOL     OW31072   0.294   3.147   2.099 -0.4544  0.3289 -0.1376
 6538SOL    HW131073   0.269   3.173   2.188 -1.4121 -0.5862 -0.1343
 6538SOL    HW231074   0.231   3.084   2.065 -0.6394 -0.2445  1.2731
 6539SOL     OW31075   4.625   1.322  11.390 -0.1489  0.2530  0.3815
 6539SOL    HW131076   4.577   1.356  11.314  1.5424  1.8235  0.0144
 6539SOL    HW231077   4.711   1.313  11.349  0.6704  1.3931  1.8519
 6540SOL     OW31078   1.585   3.573   4.024 -0.0760  0.7439 -0.2392
 6540SOL    HW131079   1.548   3.488   3.998  0.5543 -0.1310  1.6745
 6540SOL    HW231080   1.505   3.616   4.053  0.3841  0.7285  1.0767
 6541SOL     OW31081   0.380   2.034  15.981 -0.1995  0.1029  0.2574
 6541SOL    HW131082   0.383   2.075  15.894  2.0501  0.2595  0.4096
 6541SOL    HW231083   0.303   1.978  15.973 -0.3139  0.4539 -1.1713
 6542SOL     OW31084   3.296   2.393   2.068  0.1436 -0.5264  0.5192
 6542SOL    HW131085   3.308   2.486   2.052 -0.5819 -0.6095 -0.5350
 6542SOL    HW231086   3.370   2.367   2.013  1.0646 -0.9458  1.9645
 6543SOL     OW31087   0.084   0.199   5.419  0.1638 -0.1471 -0.0219
 6543SOL    HW131088   0.147   0.134   5.388 -1.7321 -0.1205 -3.9482
 6543SOL    HW231089   0.075   0.179   5.512  0.2823 -0.2075 -0.0230
 6544SOL     OW31090   1.133   1.857   3.147  0.9089  0.3773  0.2529
 6544SOL    HW131091   1.151   1.942   3.107  1.1227 -0.6049 -1.7153
 6544SOL    HW231092   1.079   1.870   3.225  1.0338  1.9690  0.0756
 6545SOL     OW31093   3.514   3.486  13.538  0.3967  0.3324 -0.3386
 6545SOL    HW131094   3.440   3.431  13.513 -0.6003  0.9208  1.3586
 6545SOL    HW231095   3.546   3.436  13.613 -1.3641  1.2433  1.0063
 6546SOL     OW31096   1.347   3.541   8.032 -0.5911  0.0437  0.3449
 6546SOL    HW131097   1.298   3.533   8.114  1.7270 -0.3916  1.6770
 6546SOL    HW231098   1.396   3.459   8.021  0.5158  0.9683 -1.5827
 6547SOL     OW31099   4.433   4.095   4.988 -0.4245  0.3193  0.1214
 6547SOL    HW131100   4.387   4.112   4.905 -0.6988  0.6435  0.3399
 6547SOL    HW231101   4.506   4.047   4.950 -0.1678  0.8694 -0.0920
 6548SOL     OW31102   3.182   4.185  10.101  0.2494  0.5887 -0.1285
 6548SOL    HW131103   3.268   4.227  10.095  1.5018 -1.9010  0.5811
 6548SOL    HW231104   3.121   4.242  10.054 -1.8473 -2.4988 -1.1868
 6549SOL     OW31105   0.473   3.871  16.716 -0.0400  0.0486 -0.7053
 6549SOL    HW131106   0.421   3.925  16.777  0.0312  2.0715 -2.4264
 6549SOL    HW231107   0.449   3.780  16.734 -0.2816  0.3825  0.6398
 6550SOL     OW31108   3.146   2.715   5.391 -0.2574  0.0644 -0.0403
 6550SOL    HW131109   3.217   2.731   5.454  0.1381 -0.3976 -0.3704
 6550SOL    HW231110   3.184   2.745   5.308  2.9184 -1.3650  0.8727
 6551SOL     OW31111   0.820   2.152   2.710 -0.4045  0.5268  0.0676
 6551SOL    HW131112   0.856   2.233   2.675 -1.5188  1.2147  0.5232
 6551SOL    HW231113   0.896   2.094   2.710 -0.0576  0.9819 -0.2103
 6552SOL     OW31114   0.191   4.269   7.462  0.1049  0.5827 -0.2628
 6552SOL    HW131115   0.214   4.236   7.375 -0.0485 -1.3248  0.4403
 6552SOL    HW231116   0.129   4.202   7.487  1.4403 -0.2856  0.6924
 6553SOL     OW31117   4.581   4.503   9.177  0.7261  0.4521 -0.1689
 6553SOL    HW131118   4.608   4.575   9.233  1.4786  1.1983 -1.4827
 6553SOL    HW231119   4.643   4.439   9.212  3.0150  1.4579 -2.3905
 6554SOL     OW31120   4.137   4.089   7.726  0.5183 -0.5163  0.0518
 6554SOL    HW131121   4.045   4.077   7.748 -0.1275 -0.0609 -2.4226
 6554SOL    HW231122   4.180   4.006   7.707  2.3763  0.5496 -0.4817
 6555SOL     OW31123   4.704   1.608   3.062 -0.4122  0.0526 -0.5185
 6555SOL    HW131124   0.060   1.659   3.083 -0.9356  0.5132  0.3190
 6555SOL    HW231125   4.632   1.666   3.087 -0.4311  0.3696 -1.3158
 6556SOL     OW31126   4.358   4.075   8.804 -0.6811 -0.4343 -0.1437
 6556SOL    HW131127   4.343   4.005   8.741 -0.7054  0.6364 -1.3491
 6556SOL    HW231128   4.438   4.040   8.844 -0.5784 -1.5898 -1.3426
 6557SOL     OW31129   3.063   0.373   2.111 -0.1786  0.4179  0.1335
 6557SOL    HW131130   3.036   0.456   2.150 -1.3935  0.8687 -1.6727
 6557SOL    HW231131   3.047   0.387   2.018 -1.2901 -0.7448  0.1425
 6558SOL     OW31132   1.365   2.389   0.787  0.4809  0.0105  0.1928
 6558SOL    HW131133   1.406   2.455   0.843  0.6352 -2.8033  3.3526
 6558SOL    HW231134   1.436   2.363   0.728  0.6084  2.1220 -0.6132
 6559SOL     OW31135   1.753   4.476  17.679 -0.0719 -0.4403  0.5841
 6559SOL    HW131136   1.844   4.449  17.683  0.9954  2.2934 -4.1223
 6559SOL    HW231137   1.747   4.482  17.583 -0.0861  0.1797  0.6251
 6560SOL     OW31138   0.418   3.170   3.148  0.4906  0.0533  0.1619
 6560SOL    HW131139   0.332   3.173   3.189  0.4044 -0.2965  0.0024
 6560SOL    HW231140   0.400   3.149   3.057  0.1136  0.7787  0.0679
 6561SOL     OW31141   1.850   4.093   8.972 -0.1860 -0.2552 -0.0747
 6561SOL    HW131142   1.824   4.100   9.064  0.0349 -1.1760  0.0597
 6561SOL    HW231143   1.941   4.122   8.970  0.3920 -2.2149 -2.3816
 6562SOL     OW31144   2.780   4.690   1.150  0.1839  0.2839  0.1339
 6562SOL    HW131145   2.767   0.046   1.097 -0.1277 -0.4901 -0.9388
 6562SOL    HW231146   2.854   4.713   1.205  0.5276  1.9569 -1.0485
 6563SOL     OW31147   0.477   0.590   5.712 -0.2498  0.1360  0.5846
 6563SOL    HW131148   0.407   0.615   5.772 -0.3430  2.6223 -0.5715
 6563SOL    HW231149   0.423   0.534   5.656 -0.8080 -1.3157  2.5784
 6564SOL     OW31150   1.582   1.566  15.025  0.1140 -0.0530 -0.0051
 6564SOL    HW131151   1.556   1.542  14.937 -1.0470 -0.9558  0.5982
 6564SOL    HW231152   1.599   1.479  15.060 -2.9390 -0.0557  1.4296
 6565SOL     OW31153   1.383   4.362   9.200 -0.6146 -0.3534  0.4353
 6565SOL    HW131154   1.342   4.340   9.117 -0.9961 -0.0420  0.5417
 6565SOL    HW231155   1.322   4.413   9.253  0.3086  0.0240  1.1458
 6566SOL     OW31156   3.105   1.693   4.406  0.2140 -0.4055  0.0373
 6566SOL    HW131157   3.163   1.677   4.331  0.4670 -0.9310  0.3445
 6566SOL    HW231158   3.095   1.603   4.437  0.0714 -0.0120  1.1328
 6567SOL     OW31159   3.641   0.973   4.572  0.0967 -0.5945  0.6557
 6567SOL    HW131160   3.730   1.005   4.562  0.1188 -0.6851  0.5674
 6567SOL    HW231161   3.651   0.895   4.627 -0.3402  0.4646  2.2623
 6568SOL     OW31162   1.388   3.504  15.997  0.2216  0.5787  0.2657
 6568SOL    HW131163   1.306   3.543  15.967 -0.7600 -1.4835  0.2761
 6568SOL    HW231164   1.355   3.414  16.007 -1.5912  1.4505  1.9850
 6569SOL     OW31165   0.201   1.464   5.582  0.0485 -0.6042 -0.0265
 6569SOL    HW131166   0.259   1.492   5.510 -0.1816  1.1178  0.4457
 6569SOL    HW231167   0.264   1.434   5.647 -0.5371 -3.6000 -0.8818
 6570SOL     OW31168   0.556   4.550  11.564 -0.2463 -1.0149  0.2136
 6570SOL    HW131169   0.559   4.454  11.571 -1.1917 -0.9648  1.3441
 6570SOL    HW231170   0.596   4.582  11.645  0.7862  0.9178 -1.0693
 6571SOL     OW31171   3.894   2.397  14.999  0.4843  0.0193 -0.0037
 6571SOL    HW131172   3.939   2.422  14.918  2.7396  0.4779  1.4069
 6571SOL    HW231173   3.946   2.433  15.070  2.2179 -0.3121 -1.0904
 6572SOL     OW31174   1.221   3.563   4.969  0.2021 -0.5035  0.3014
 6572SOL    HW131175   1.149   3.544   5.029 -0.2776 -1.0711 -0.4460
 6572SOL    HW231176   1.279   3.495   5.003 -1.7129 -1.2125  2.1618
 6573SOL     OW31177   2.802   0.244  14.535  0.3945 -0.2222 -0.8646
 6573SOL    HW131178   2.740   0.180  14.569  0.9000 -0.1118  0.2828
 6573SOL    HW231179   2.804   0.212  14.445 -1.1320 -0.3455 -0.8438
 6574SOL     OW31180   0.749   1.141  13.049  0.2860  0.1775  0.4292
 6574SOL    HW131181   0.832   1.098  13.071  0.0607 -0.1533  0.6388
 6574SOL    HW231182   0.750   1.227  13.092 -1.5642  0.5129 -0.2315
 6575SOL     OW31183   1.381   4.413   3.758 -0.3161  0.2717  0.6223
 6575SOL    HW131184   1.429   4.434   3.839  1.5869  1.2034 -0.7470
 6575SOL    HW231185   1.293   4.424   3.793  0.0532  0.8086  1.4006
 6576SOL     OW31186   1.923   1.193   4.104  0.7419  0.3223 -0.3512
 6576SOL    HW131187   1.849   1.220   4.159  0.3598 -0.3865 -0.5114
 6576SOL    HW231188   1.888   1.105   4.089 -0.7283  0.6630  1.0636
 6577SOL     OW31189   2.311   2.917   2.329 -0.4957 -0.3509 -0.3940
 6577SOL    HW131190   2.281   2.826   2.332 -0.8174 -0.1636  1.6305
 6577SOL    HW231191   2.376   2.919   2.258 -0.3503 -1.3230 -0.2792
 6578SOL     OW31192   4.179   3.783   5.243  0.1518 -0.1608  0.4354
 6578SOL    HW131193   4.124   3.751   5.171  1.9057 -0.2002 -0.8893
 6578SOL    HW231194   4.185   3.876   5.224 -0.9941  0.0403  1.0537
 6579SOL     OW31195   2.895   1.691   4.132  0.4381 -0.0521  0.8099
 6579SOL    HW131196   2.955   1.709   4.060 -2.5860  1.6359 -1.2700
 6579SOL    HW231197   2.913   1.764   4.191  0.0012  0.8701 -0.1940
 6580SOL     OW31198   0.106   1.829   3.895 -0.1970  0.0379  0.5686
 6580SOL    HW131199   0.056   1.815   3.815  0.5777  1.6934 -0.2068
 6580SOL    HW231200   0.178   1.889   3.873 -0.1687  0.3944  1.6463
 6581SOL     OW31201   1.861   0.929  12.858 -0.5333  0.0940 -0.5107
 6581SOL    HW131202   1.822   0.868  12.795  2.8193 -1.8950 -0.7258
 6581SOL    HW231203   1.921   0.953  12.787  2.2693  0.3659  1.9265
 6582SOL     OW31204   4.089   2.520   9.053 -0.0540 -1.0018 -0.2815
 6582SOL    HW131205   4.138   2.441   9.028 -0.0638 -1.0318 -0.2079
 6582SOL    HW231206   4.016   2.478   9.099  0.5539 -0.7865  0.8768
 6583SOL     OW31207   1.044   2.365   2.859 -0.3618  0.2227  0.0323
 6583SOL    HW131208   1.088   2.447   2.835 -2.0939  1.2800  0.4179
 6583SOL    HW231209   0.952   2.390   2.855 -1.0869 -2.3755  0.9738
 6584SOL     OW31210   3.858   4.553   3.815  0.1181  0.5904  0.4297
 6584SOL    HW131211   3.866   4.572   3.722 -0.4427 -1.0097  0.0656
 6584SOL    HW231212   3.784   4.492   3.819  0.3364  0.2236 -1.4120
 6585SOL     OW31213   4.144   0.502   6.581  0.4301  0.1492  0.1176
 6585SOL    HW131214   4.108   0.438   6.642 -2.4101 -0.3031 -2.0029
 6585SOL    HW231215   4.064   0.523   6.532  1.8250  2.1423 -1.3039
 6586SOL     OW31216   3.345   1.923   6.802  0.1346  0.7498  0.7584
 6586SOL    HW131217   3.420   1.955   6.751 -0.6270  2.1870  0.5440
 6586SOL    HW231218   3.267   1.961   6.762  0.1332 -2.5475 -2.5037
 6587SOL     OW31219   0.947   1.374   1.993  0.3479  1.0641  0.2328
 6587SOL    HW131220   1.030   1.340   1.958 -0.3924 -3.0163  2.4268
 6587SOL    HW231221   0.879   1.337   1.937  1.8298 -0.8791 -0.3119
 6588SOL     OW31222   2.430   1.701   2.489  0.5008  0.2628  0.0722
 6588SOL    HW131223   2.442   1.650   2.569  0.8416 -0.2442 -0.3006
 6588SOL    HW231224   2.366   1.768   2.513  0.0148 -0.5533  1.0209
 6589SOL     OW31225   4.191   1.045   1.855  0.3751  0.0180  0.1032
 6589SOL    HW131226   4.279   1.040   1.817  0.4600 -2.3564  0.6273
 6589SOL    HW231227   4.132   1.022   1.784  1.4652 -0.7092 -0.5704
 6590SOL     OW31228   0.133   3.409   8.608 -0.0804  0.0569  0.1152
 6590SOL    HW131229   0.075   3.483   8.627  1.0571  1.2150 -0.9032
 6590SOL    HW231230   0.197   3.416   8.678 -0.5212 -0.4235  0.5606
 6591SOL     OW31231   4.384   4.552  17.088 -0.3774 -0.3268 -0.2504
 6591SOL    HW131232   4.375   4.537  17.182  3.6039  1.9229  0.4776
 6591SOL    HW231233   4.338   4.475  17.054 -0.1010 -0.1805 -0.9473
 6592SOL     OW31234   1.678   2.615   4.369 -0.1856 -0.1600  0.0539
 6592SOL    HW131235   1.709   2.559   4.297  0.4415  1.5181 -0.9885
 6592SOL    HW231236   1.754   2.631   4.423 -1.5806 -1.1030  2.2705
 6593SOL     OW31237   4.244   3.241   8.298 -1.1817 -0.1745 -0.2224
 6593SOL    HW131238   4.158   3.283   8.290 -1.0513  0.0010 -0.7135
 6593SOL    HW231239   4.228   3.197   8.381 -0.7006  0.8575  0.4161
 6594SOL     OW31240   0.022   3.747   5.592 -0.3890  0.1145 -0.6571
 6594SOL    HW131241   0.041   3.660   5.556 -0.8623 -0.4818  0.5196
 6594SOL    HW231242   0.082   3.803   5.544 -0.3446  1.4154  0.9150
 6595SOL     OW31243   1.495   1.407   5.421  0.2076  0.3148 -0.7414
 6595SOL    HW131244   1.578   1.437   5.385 -0.0823  1.5161 -0.3978
 6595SOL    HW231245   1.503   1.312   5.420  2.8416  0.5440 -0.7997
 6596SOL     OW31246   1.773   2.790   1.459 -0.0597  0.0730  0.0771
 6596SOL    HW131247   1.681   2.766   1.469 -0.6684  1.0520 -3.4932
 6596SOL    HW231248   1.810   2.701   1.463  1.0107  0.5515  0.6106
 6597SOL     OW31249   2.639   2.092   6.239 -0.7051 -0.3247 -0.9872
 6597SOL    HW131250   2.570   2.025   6.234 -1.8775  0.8070  0.3817
 6597SOL    HW231251   2.716   2.034   6.240 -0.3162  0.2414  0.9734
 6598SOL     OW31252   0.954   1.379   8.731 -0.5532 -0.3526 -0.2800
 6598SOL    HW131253   0.949   1.473   8.713  0.6182 -0.2279  0.1040
 6598SOL    HW231254   1.018   1.384   8.802  0.2785  0.3704 -1.0910
 6599SOL     OW31255   3.144   3.334   7.143  0.5312 -0.1910 -0.0008
 6599SOL    HW131256   3.128   3.300   7.231  0.1894  2.5139  0.9944
 6599SOL    HW231257   3.232   3.300   7.130  0.9681  2.0928 -2.7865
 6600SOL     OW31258   0.484   1.163  17.570 -0.0244  0.2158  0.0135
 6600SOL    HW131259   0.578   1.180  17.571 -0.0110  0.0735  0.8448
 6600SOL    HW231260   0.472   1.142  17.662 -0.1597 -0.6091 -0.1928
 6601SOL     OW31261   1.827   1.627   1.511 -0.1297 -0.2139  0.1650
 6601SOL    HW131262   1.781   1.543   1.516 -1.6354  0.7510  2.6924
 6601SOL    HW231263   1.842   1.640   1.418 -0.5943  0.4985  0.1858
 6602SOL     OW31264   0.712   4.096   5.396  0.5568  0.4032  0.0815
 6602SOL    HW131265   0.636   4.153   5.397 -0.6442 -1.2032 -0.4033
 6602SOL    HW231266   0.774   4.146   5.342 -1.4122  1.7824 -0.8638
 6603SOL     OW31267   2.057   1.089  16.999  0.4428 -0.0525  0.3829
 6603SOL    HW131268   2.130   1.026  17.000 -0.0732 -0.6481  0.0500
 6603SOL    HW231269   2.056   1.114  17.092 -0.3326  1.9400 -0.1630
 6604SOL     OW31270   1.647   1.806  12.583 -0.5363  0.0077 -0.3314
 6604SOL    HW131271   1.651   1.725  12.634  0.5389  1.3522  1.7553
 6604SOL    HW231272   1.553   1.807  12.600 -0.1360 -1.4871  2.0253
 6605SOL     OW31273   4.686   4.310   2.250  0.8432 -0.2388 -0.1370
 6605SOL    HW131274   4.635   4.291   2.171  0.7385 -0.0313 -0.1192
 6605SOL    HW231275   4.690   4.219   2.280  0.7104 -0.2396 -0.1235
 6606SOL     OW31276   1.081   0.251   6.859 -0.6230 -0.4945  0.3381
 6606SOL    HW131277   1.166   0.257   6.815  0.9860 -4.2509  2.8969
 6606SOL    HW231278   1.053   0.342   6.858 -0.5594 -0.4835 -0.0846
 6607SOL     OW31279   0.101   3.205   7.590  0.4172  0.0021 -0.4090
 6607SOL    HW131280   0.021   3.153   7.591  0.4148  0.0117 -0.1369
 6607SOL    HW231281   0.070   3.296   7.587  0.6378  0.0708 -0.6654
 6608SOL     OW31282   2.978   1.611   3.432 -0.3749  0.1522 -0.5610
 6608SOL    HW131283   3.069   1.612   3.461 -0.3084 -2.0813 -0.6860
 6608SOL    HW231284   2.931   1.598   3.514 -0.7487  0.3143 -0.7512
 6609SOL     OW31285   4.709   1.530  13.059  0.7341  0.0788 -0.4477
 6609SOL    HW131286   0.050   1.482  13.006  0.9995  0.2335 -0.2740
 6609SOL    HW231287   4.679   1.599  13.000  2.6556 -0.3714 -1.9680
 6610SOL     OW31288   3.074   2.363   7.053 -0.2217  0.3753 -1.0155
 6610SOL    HW131289   3.050   2.313   6.975  0.6219 -1.0546 -0.3631
 6610SOL    HW231290   3.169   2.376   7.050 -0.1308 -0.4541 -1.4930
 6611SOL     OW31291   4.004   0.725   9.373  0.8257  0.9263 -0.1210
 6611SOL    HW131292   3.961   0.656   9.322  1.3602 -0.2825  1.0755
 6611SOL    HW231293   4.094   0.696   9.361  1.0562  1.7347 -0.3832
 6612SOL     OW31294   1.575   0.827   7.823  0.3108  0.2333  0.3034
 6612SOL    HW131295   1.554   0.898   7.885  1.0593  0.7901 -0.0832
 6612SOL    HW231296   1.539   0.866   7.744  0.1848 -0.3215  0.0909
 6613SOL     OW31297   1.466   4.577  13.535 -0.0934 -0.4279 -1.0622
 6613SOL    HW131298   1.380   4.560  13.573  0.2187 -0.9040 -0.5785
 6613SOL    HW231299   1.514   4.495  13.548  1.6024  0.9534  1.2955
 6614SOL     OW31300   0.448   3.237   4.960 -1.2164 -0.1941  0.3318
 6614SOL    HW131301   0.386   3.164   4.955 -2.5324  1.0271 -1.1219
 6614SOL    HW231302   0.526   3.193   4.995 -1.3255 -0.5132  0.1783
 6615SOL     OW31303   0.537   1.880   5.585  0.1449 -0.7146  0.3099
 6615SOL    HW131304   0.551   1.828   5.506 -0.4959  0.1672 -0.3814
 6615SOL    HW231305   0.457   1.840   5.618  0.2217 -1.1543 -0.0282
 6616SOL     OW31306   4.539   1.768   8.095 -0.8068  0.1989 -0.5856
 6616SOL    HW131307   4.507   1.696   8.150 -1.0535  1.0759  0.4398
 6616SOL    HW231308   4.600   1.808   8.157 -2.9247  0.7268  1.1604
 6617SOL     OW31309   0.106   2.578   2.489  0.1014 -0.4879 -0.2107
 6617SOL    HW131310   0.152   2.595   2.407  2.3413 -2.1044  0.7133
 6617SOL    HW231311   0.042   2.649   2.494 -1.2714 -1.8036  0.8527
 6618SOL     OW31312   2.239   3.722   7.070 -0.0307 -0.1287  0.4424
 6618SOL    HW131313   2.152   3.722   7.111 -1.2695  2.5692 -2.1620
 6618SOL    HW231314   2.292   3.672   7.131 -0.8265  1.2867  2.3126
 6619SOL     OW31315   1.711   2.476   4.009 -0.2988  0.4571 -0.0569
 6619SOL    HW131316   1.698   2.388   3.976 -0.4893 -0.6382  2.9188
 6619SOL    HW231317   1.657   2.528   3.949 -1.4131 -1.0046 -0.3161
 6620SOL     OW31318   2.982   3.766   4.061  0.0658 -0.6459 -0.5558
 6620SOL    HW131319   3.071   3.779   4.093 -0.0049 -0.4118 -0.4563
 6620SOL    HW231320   3.006   3.729   3.975 -1.9510  0.6244 -1.6538
 6621SOL     OW31321   2.402   1.519  16.863  0.7020 -0.3358  0.2624
 6621SOL    HW131322   2.394   1.535  16.958 -2.4560 -0.0231 -0.0359
 6621SOL    HW231323   2.394   1.608  16.829 -1.7046 -0.9238 -0.7598
 6622SOL     OW31324   4.253   2.743   9.040 -0.4337  0.0736  0.0526
 6622SOL    HW131325   4.234   2.663   9.088 -1.0644  0.6256  0.7358
 6622SOL    HW231326   4.312   2.700   8.979 -1.6629  1.2136 -1.9520
 6623SOL     OW31327   3.278   1.470  12.394  0.2140 -0.1590 -0.0027
 6623SOL    HW131328   3.327   1.523  12.331  0.4506  0.6997  0.9068
 6623SOL    HW231329   3.345   1.410  12.427  0.5976  1.1157  1.5498
 6624SOL     OW31330   1.688   4.418   1.573  0.5639 -0.6241  0.4760
 6624SOL    HW131331   1.760   4.395   1.514  0.8850  0.4070  0.4572
 6624SOL    HW231332   1.625   4.461   1.514  1.6842 -0.6274 -0.7199
 6625SOL     OW31333   3.258   1.587   7.004  0.2664 -0.5130  0.2204
 6625SOL    HW131334   3.252   1.554   7.093  0.7826 -0.7037  0.1857
 6625SOL    HW231335   3.338   1.640   7.010  0.5761 -0.9124 -0.3959
 6626SOL     OW31336   0.092   3.700   9.390  0.3731  0.1007  0.1767
 6626SOL    HW131337   0.130   3.780   9.426 -0.9256 -0.0858  1.9645
 6626SOL    HW231338   0.166   3.663   9.341 -0.0664  0.2271 -0.5795
 6627SOL     OW31339   1.137   0.776   8.864  0.5548 -0.1152 -0.2644
 6627SOL    HW131340   1.075   0.703   8.860  0.5610 -0.1271 -0.1102
 6627SOL    HW231341   1.121   0.827   8.784 -0.2307 -1.2047 -0.8049
 6628SOL     OW31342   1.137   1.652   0.963 -0.8273  0.8795 -0.7126
 6628SOL    HW131343   1.140   1.739   1.004 -3.7781 -1.1349  3.8375
 6628SOL    HW231344   1.058   1.651   0.909 -0.8383  3.7858 -0.7730
 6629SOL     OW31345   3.779   0.993   3.153 -0.6397 -0.5683 -0.1842
 6629SOL    HW131346   3.835   0.929   3.198  2.3584  0.1865 -2.8413
 6629SOL    HW231347   3.851   1.053   3.130 -1.9886  0.2494 -2.2128
 6630SOL     OW31348   0.920   1.598   8.983 -0.0145 -0.3808  0.2299
 6630SOL    HW131349   0.981   1.653   9.032  0.3211  0.7588 -1.4568
 6630SOL    HW231350   0.923   1.508   9.015 -1.4621 -0.8550 -0.9833
 6631SOL     OW31351   4.294   1.791  14.911 -0.1565 -0.5504 -0.5675
 6631SOL    HW131352   4.324   1.722  14.852  3.6737  0.8993 -0.3682
 6631SOL    HW231353   4.349   1.867  14.892  0.1236 -0.0702  2.0391
 6632SOL     OW31354   4.593   1.329   9.602  0.1766  0.4921 -0.2844
 6632SOL    HW131355   4.663   1.269   9.575 -2.5002 -2.0114 -1.7076
 6632SOL    HW231356   4.623   1.401   9.547  2.7155 -0.8847 -0.7158
 6633SOL     OW31357   3.433   1.110   4.999 -0.4139 -0.2515  0.0842
 6633SOL    HW131358   3.422   1.159   5.080  2.3627  0.5335 -0.0291
 6633SOL    HW231359   3.452   1.180   4.936  0.9396 -1.0102 -0.3628
 6634SOL     OW31360   4.477   3.485  13.259  0.4730  0.0788 -0.0517
 6634SOL    HW131361   4.562   3.505  13.296 -0.3213  1.4042  1.0207
 6634SOL    HW231362   4.422   3.469  13.336  0.3962  2.5472  0.3781
 6635SOL     OW31363   2.690   3.843   4.435  0.0236  0.9085 -0.5844
 6635SOL    HW131364   2.743   3.787   4.493 -0.3187  0.7968 -0.3790
 6635SOL    HW231365   2.747   3.878   4.367  0.8789  0.8586  0.0998
 6636SOL     OW31366   1.144   2.561   8.993 -0.0640  0.3999 -0.5792
 6636SOL    HW131367   1.178   2.650   8.985 -1.7530  0.9165 -1.7605
 6636SOL    HW231368   1.071   2.571   8.932 -0.8256 -0.7745  0.1396
 6637SOL     OW31369   0.446   1.956   0.827  0.0476 -0.2391 -0.1557
 6637SOL    HW131370   0.363   1.962   0.875  0.1718  0.7679 -0.0550
 6637SOL    HW231371   0.447   2.029   0.765 -1.7146 -2.0118 -2.2971
 6638SOL     OW31372   2.253   1.480   1.259  0.1253  0.3953 -0.3669
 6638SOL    HW131373   2.332   1.502   1.210  1.1819 -3.6389 -0.4967
 6638SOL    HW231374   2.186   1.522   1.205  0.2574 -0.7547 -1.4145
 6639SOL     OW31375   4.364   2.576   5.122 -0.1698  0.3602  0.1768
 6639SOL    HW131376   4.429   2.578   5.052 -0.1611 -3.5991  0.0853
 6639SOL    HW231377   4.416   2.607   5.197  0.2934 -1.5488  0.6577
 6640SOL     OW31378   3.675   2.274   8.534  0.5886  0.1906  0.2024
 6640SOL    HW131379   3.594   2.295   8.581  0.2893 -1.8266  0.6018
 6640SOL    HW231380   3.651   2.233   8.452  1.2403  0.8517 -0.3169
 6641SOL     OW31381   3.141   1.010  14.045  0.1025 -0.1803 -0.0855
 6641SOL    HW131382   3.128   0.995  13.952 -0.8803  0.9303 -0.1254
 6641SOL    HW231383   3.150   1.104  14.055  0.5354 -0.2889  0.5334
 6642SOL     OW31384   0.642   0.686   3.509 -0.4154  0.5074 -0.0603
 6642SOL    HW131385   0.546   0.683   3.508 -0.3742 -1.0642  0.6480
 6642SOL    HW231386   0.648   0.774   3.473  0.3953  0.0850 -0.9708
 6643SOL     OW31387   0.231   4.499   0.617  0.1514 -0.1324 -0.4713
 6643SOL    HW131388   0.210   4.407   0.628 -2.5737  0.5344 -0.0643
 6643SOL    HW231389   0.242   4.522   0.709 -0.6880  1.8261 -0.8541
 6644SOL     OW31390   2.677   0.607   3.947 -0.4611  0.1144 -0.3276
 6644SOL    HW131391   2.678   0.697   3.977  0.1404 -0.0373  0.0936
 6644SOL    HW231392   2.707   0.613   3.856  1.0023 -0.7062  0.1011
 6645SOL     OW31393   3.123   4.340  11.933  0.6664 -0.3264 -0.8668
 6645SOL    HW131394   3.073   4.266  11.899  0.5204 -0.9888  0.7981
 6645SOL    HW231395   3.081   4.415  11.890  1.4344 -0.0041 -1.0472
 6646SOL     OW31396   4.492   2.332   4.851  0.0071  0.2714  0.4358
 6646SOL    HW131397   4.490   2.408   4.910  0.1909  1.6992 -1.3941
 6646SOL    HW231398   4.507   2.259   4.911 -0.4292  0.6072  0.9557
 6647SOL     OW31399   1.237   4.650   6.619 -0.7062  0.5922 -0.0085
 6647SOL    HW131400   1.294   4.707   6.568  0.9034 -0.7858  0.2640
 6647SOL    HW231401   1.279   4.650   6.705 -0.6388 -0.0175 -0.0421
 6648SOL     OW31402   4.562   2.903   9.344  0.4361 -0.2104 -0.0982
 6648SOL    HW131403   4.540   2.935   9.256 -0.1471  0.7918  0.4090
 6648SOL    HW231404   4.561   2.983   9.397 -0.8088 -0.8268  0.7942
 6649SOL     OW31405   2.104   3.254   5.586  0.1199  0.1976 -0.0111
 6649SOL    HW131406   2.154   3.177   5.561  2.8889  2.7010 -2.2130
 6649SOL    HW231407   2.090   3.241   5.680  2.1445 -1.2715  0.0776
 6650SOL     OW31408   1.466   3.565   3.636 -0.3463  0.7838  0.3776
 6650SOL    HW131409   1.397   3.501   3.655  1.0053 -0.9941 -0.7719
 6650SOL    HW231410   1.449   3.573   3.543 -0.3720 -2.5047  0.1167
 6651SOL     OW31411   3.020   3.488   4.335  0.2347 -0.4590  0.1159
 6651SOL    HW131412   2.939   3.442   4.312  0.3568  0.1600 -1.5555
 6651SOL    HW231413   3.085   3.450   4.277 -1.4581  0.1641 -2.1869
 6652SOL     OW31414   0.983   0.955   4.934 -0.0125  0.3204  0.0475
 6652SOL    HW131415   1.004   1.038   4.978  1.4263 -0.2749  0.4995
 6652SOL    HW231416   1.021   0.959   4.846 -1.8481 -0.1364 -0.7629
 6653SOL     OW31417   2.325   3.973   7.022 -0.1124 -0.2747  0.7438
 6653SOL    HW131418   2.279   3.900   7.063  1.1824 -0.2744  2.2226
 6653SOL    HW231419   2.251   4.032   7.015 -0.0785 -0.2666  0.4620
 6654SOL     OW31420   2.919   2.893   2.858  0.4203 -0.2876  0.0475
 6654SOL    HW131421   2.899   2.905   2.766 -1.2476  2.1320  0.7519
 6654SOL    HW231422   2.843   2.843   2.887  0.6204 -0.8488 -0.3816
 6655SOL     OW31423   3.135   3.666   5.347  0.2460  0.2746  0.5276
 6655SOL    HW131424   3.085   3.700   5.421  0.7104  0.1350  0.9023
 6655SOL    HW231425   3.102   3.716   5.273  2.8422  0.9944 -0.1457
 6656SOL     OW31426   3.054   4.378   9.022 -0.0226  0.1543  0.3125
 6656SOL    HW131427   2.960   4.389   9.038  0.6491  1.6202  3.1781
 6656SOL    HW231428   3.061   4.381   8.927  0.7972 -2.6746  0.3082
 6657SOL     OW31429   4.175   3.719   6.527 -0.4513  0.7847  1.0519
 6657SOL    HW131430   4.235   3.793   6.538 -0.4290  1.0244 -0.5677
 6657SOL    HW231431   4.098   3.761   6.565 -1.9468 -0.4607 -0.6096
 6658SOL     OW31432   4.551   4.175   8.434 -0.1138  0.2342 -0.0166
 6658SOL    HW131433   4.487   4.104   8.435  1.3404 -1.0348  4.3710
 6658SOL    HW231434   4.506   4.235   8.375  0.5366  2.5565  1.8509
 6659SOL     OW31435   2.542   2.693   2.348  0.5064 -0.2412 -0.2720
 6659SOL    HW131436   2.452   2.700   2.319  0.4570  1.4048  0.2412
 6659SOL    HW231437   2.528   2.661   2.437 -1.8278  1.2319 -0.1014
 6660SOL     OW31438   0.019   1.966  15.059 -0.3879 -0.2015  0.5543
 6660SOL    HW131439   0.022   1.914  15.140  1.9813 -3.1603 -1.4261
 6660SOL    HW231440   4.707   1.906  14.993 -1.2745  0.0937  0.7523
 6661SOL     OW31441   0.860   0.017  14.624 -0.0163  0.1100  0.2989
 6661SOL    HW131442   0.886   4.649  14.608 -0.6957  0.4857 -2.9017
 6661SOL    HW231443   0.766   0.009  14.636  0.1692 -1.1495  0.8143
 6662SOL     OW31444   1.786   4.221   1.946 -0.1042  0.2249  0.3623
 6662SOL    HW131445   1.747   4.204   1.861  0.1258  0.0479  0.2901
 6662SOL    HW231446   1.841   4.298   1.930  0.0913  0.3280  1.5198
 6663SOL     OW31447   2.295   4.294   6.263 -0.2924  0.5351 -0.2641
 6663SOL    HW131448   2.372   4.260   6.218  0.0124 -1.7770  2.0155
 6663SOL    HW231449   2.340   4.362   6.314  1.8534 -1.7218  0.8400
 6664SOL     OW31450   0.456   2.342  13.168  0.1421 -0.3997  0.2659
 6664SOL    HW131451   0.445   2.390  13.250  1.7996 -0.6156  0.6017
 6664SOL    HW231452   0.427   2.260  13.210  0.5625 -0.3637  0.6177
 6665SOL     OW31453   1.424   0.485   4.012  0.3422 -0.3281 -0.1523
 6665SOL    HW131454   1.432   0.404   4.062 -0.6793 -0.6748 -0.5488
 6665SOL    HW231455   1.513   0.500   3.979 -0.0123  3.0742  0.3882
 6666SOL     OW31456   1.836   3.190   0.599  0.1262 -0.1537  0.1989
 6666SOL    HW131457   1.796   3.178   0.685  2.3489 -3.8568  0.7469
 6666SOL    HW231458   1.793   3.264   0.556 -1.3113 -1.6250 -0.9144
 6667SOL     OW31459   2.312   1.598   7.422 -0.2763  0.5109 -0.7360
 6667SOL    HW131460   2.387   1.549   7.456 -0.6516 -0.5988 -1.5054
 6667SOL    HW231461   2.337   1.597   7.330  0.9238 -2.9228 -0.4070
 6668SOL     OW31462   4.630   4.028   2.260 -0.0104  0.1405  0.3836
 6668SOL    HW131463   4.551   4.069   2.224 -0.8358 -1.4286  0.3855
 6668SOL    HW231464   4.597   3.939   2.250 -1.6978  0.7746  0.2051
 6669SOL     OW31465   2.691   4.101  12.751  0.6343 -0.3074 -0.4751
 6669SOL    HW131466   2.684   4.040  12.825 -1.4322  0.2882 -0.1815
 6669SOL    HW231467   2.656   4.053  12.676  2.7886 -2.4232 -0.1233
 6670SOL     OW31468   4.684   4.021  13.823 -0.0213  0.0773 -0.0012
 6670SOL    HW131469   0.021   3.946  13.823 -0.9552 -0.6701 -3.6869
 6670SOL    HW231470   4.712   4.085  13.757  1.0906 -0.9616 -0.5462
 6671SOL     OW31471   4.467   3.582   1.865 -0.0589  0.0088 -0.2672
 6671SOL    HW131472   4.433   3.651   1.808  1.1092 -2.0793 -3.4316
 6671SOL    HW231473   4.559   3.580   1.842  0.1006 -3.1782  0.6609
 6672SOL     OW31474   1.028   1.994  13.078 -0.2819  0.2207 -0.0810
 6672SOL    HW131475   1.123   1.988  13.064 -0.1487  2.0863  0.1204
 6672SOL    HW231476   1.003   2.072  13.029  0.7533  0.5667 -0.0578
 6673SOL     OW31477   4.710   0.678   5.796 -0.2787  0.2017  0.2075
 6673SOL    HW131478   4.669   0.614   5.853 -0.2860 -0.9044 -1.0318
 6673SOL    HW231479   4.713   0.633   5.711 -0.5073  0.0913  0.2585
 6674SOL     OW31480   0.505   3.513   3.909  0.2630  0.2982 -0.1091
 6674SOL    HW131481   0.484   3.467   3.991  1.5431  1.3350  0.8049
 6674SOL    HW231482   0.516   3.439   3.850 -0.0409  1.2269 -1.3143
 6675SOL     OW31483   2.191   2.043   0.011 -0.4009 -0.2068  0.0572
 6675SOL    HW131484   2.154   2.032  17.616 -0.3182  1.6642 -0.2179
 6675SOL    HW231485   2.124   2.060   0.077 -2.7920  0.1545 -2.4478
 6676SOL     OW31486   0.048   1.867   2.456  0.3181 -0.2528  0.2682
 6676SOL    HW131487   0.052   1.818   2.374  0.7109 -1.8739  1.2573
 6676SOL    HW231488   0.057   1.958   2.428 -1.4266 -0.3021 -0.4741
 6677SOL     OW31489   2.320   4.719   9.524 -0.1327  0.5081  0.6475
 6677SOL    HW131490   2.281   4.642   9.564  1.8901 -0.2488  1.1175
 6677SOL    HW231491   2.279   4.711   9.438 -0.7475 -0.0599  0.9900
 6678SOL     OW31492   3.022   2.361  13.417  0.1715 -0.8066  0.1864
 6678SOL    HW131493   2.961   2.391  13.484 -0.9009  0.4181 -1.3324
 6678SOL    HW231494   3.096   2.408  13.455 -0.6593 -0.8800  1.8975
 6679SOL     OW31495   0.248   2.083   5.524 -0.1121  0.0914  0.3635
 6679SOL    HW131496   0.224   2.016   5.588  1.2666 -1.8404 -1.1329
 6679SOL    HW231497   0.270   2.017   5.458  3.9264  1.4608  0.3070
 6680SOL     OW31498   0.650   4.389  17.156 -0.0829  0.1784  0.1403
 6680SOL    HW131499   0.676   4.455  17.091 -0.1520  1.4767  1.4213
 6680SOL    HW231500   0.609   4.323  17.100 -4.1676  0.1499  3.1758
 6681SOL     OW31501   3.568   0.909   7.255  0.2681  0.1017  0.1698
 6681SOL    HW131502   3.583   0.869   7.170  1.4793 -1.6693  1.2249
 6681SOL    HW231503   3.475   0.889   7.272  1.0237 -1.9292  1.9600
 6682SOL     OW31504   1.474   0.962  11.440 -0.7020  0.2489 -0.1696
 6682SOL    HW131505   1.493   0.870  11.420 -2.1955 -0.2663  0.7778
 6682SOL    HW231506   1.538   1.001  11.381  1.1758 -1.1250  0.9533
 6683SOL     OW31507   1.892   3.227  16.606  0.3398  0.2200 -0.1922
 6683SOL    HW131508   1.972   3.212  16.555  0.6037 -2.7323  1.1327
 6683SOL    HW231509   1.838   3.272  16.541 -0.5982  0.2909  0.6364
 6684SOL     OW31510   1.285   1.729   5.653  0.4024 -0.0249 -0.4045
 6684SOL    HW131511   1.372   1.763   5.631 -0.1739  3.1077  2.0832
 6684SOL    HW231512   1.235   1.776   5.587 -0.3561  0.7853  0.7437
 6685SOL     OW31513   1.967   2.350  16.390 -0.7303 -0.0886  0.3297
 6685SOL    HW131514   1.945   2.439  16.418  0.1910 -0.5609  2.5754
 6685SOL    HW231515   1.878   2.314  16.393 -0.6619 -0.1059  2.2447
 6686SOL     OW31516   0.882   3.894  12.211  0.3383 -0.4951 -0.4208
 6686SOL    HW131517   0.819   3.937  12.270 -1.1175 -3.6522  0.3689
 6686SOL    HW231518   0.817   3.831  12.178 -0.3211  0.1051 -0.2732
 6687SOL     OW31519   2.586   4.633   8.152 -0.1838  0.5568 -0.2175
 6687SOL    HW131520   2.606   4.539   8.154  1.0140  0.8321  0.6607
 6687SOL    HW231521   2.555   4.647   8.062  0.7969  0.5913 -0.5454
 6688SOL     OW31522   3.645   2.392  14.238 -0.4407  0.1488 -0.1578
 6688SOL    HW131523   3.730   2.383  14.195 -0.1154  0.0685  0.5066
 6688SOL    HW231524   3.602   2.326  14.183  0.9142  0.8881 -2.1043
 6689SOL     OW31525   0.306   0.385   6.376  0.0260 -0.3728 -0.0550
 6689SOL    HW131526   0.299   0.400   6.282  0.5654 -0.8662 -0.1775
 6689SOL    HW231527   0.330   0.292   6.377  0.7006 -0.2009 -0.0093
 6690SOL     OW31528   3.195   1.495  15.345 -0.4056 -0.1870  0.1250
 6690SOL    HW131529   3.126   1.480  15.409  1.0488  0.9509  1.9755
 6690SOL    HW231530   3.157   1.482  15.259 -0.1938  1.9037 -0.2929
 6691SOL     OW31531   4.025   2.911   6.539  0.0221 -0.0097 -0.7442
 6691SOL    HW131532   3.935   2.905   6.573 -0.0548 -0.3556 -1.0026
 6691SOL    HW231533   4.072   2.952   6.611  1.3282  0.3098 -1.7881
 6692SOL     OW31534   2.911   4.673   9.775 -0.2684  0.5900 -0.1444
 6692SOL    HW131535   2.880   0.028   9.822  1.1104  0.7450  0.4839
 6692SOL    HW231536   2.837   4.615   9.797 -1.4550  2.0127 -0.3618
 6693SOL     OW31537   2.893   2.494   2.146  0.0785 -0.0099  0.3082
 6693SOL    HW131538   2.922   2.423   2.089  0.1458 -0.4450  0.8964
 6693SOL    HW231539   2.816   2.456   2.188 -0.2555  0.8709  0.5026
 6694SOL     OW31540   0.529   4.644   3.779  0.1102 -0.1741 -0.2476
 6694SOL    HW131541   0.449   4.595   3.797 -0.5053  1.0281  0.3146
 6694SOL    HW231542   0.593   4.581   3.812 -1.9637 -2.7000 -1.1199
 6695SOL     OW31543   3.909   3.507   2.076  0.2146 -0.0106 -0.6882
 6695SOL    HW131544   3.992   3.462   2.091 -1.1931 -2.2602  0.2994
 6695SOL    HW231545   3.882   3.453   2.002 -2.6315  0.5074 -0.0469
 6696SOL     OW31546   3.228   1.555   0.158  0.1136  0.0611 -0.4655
 6696SOL    HW131547   3.219   1.607   0.078  1.5726 -0.7255 -1.1371
 6696SOL    HW231548   3.251   1.615   0.229 -1.3284  0.7628 -0.5815
 6697SOL     OW31549   4.132   1.619   9.607  0.4279  0.5845  0.2215
 6697SOL    HW131550   4.117   1.713   9.603  0.5783  0.6377  0.9728
 6697SOL    HW231551   4.226   1.614   9.628  0.6474  0.9413 -0.6858
 6698SOL     OW31552   0.875   1.910   4.049 -0.0910 -0.2267  0.5404
 6698SOL    HW131553   0.879   2.005   4.056  0.7705 -0.2760  0.6863
 6698SOL    HW231554   0.897   1.908   3.955 -0.1688 -1.3949  0.5451
 6699SOL     OW31555   1.421   2.062   2.918  0.0366  0.4410 -0.8612
 6699SOL    HW131556   1.368   2.108   2.853 -1.6408  0.1994  0.3302
 6699SOL    HW231557   1.464   2.137   2.958 -2.1202  0.3340  1.6546
 6700SOL     OW31558   0.797   2.279  14.985  0.1590 -0.0565 -0.6127
 6700SOL    HW131559   0.867   2.295  14.922 -1.1521  0.0240 -2.0302
 6700SOL    HW231560   0.829   2.307  15.071  4.2028  0.6528 -2.3715
 6701SOL     OW31561   1.432   1.439  15.350  0.0588  0.1152  0.0160
 6701SOL    HW131562   1.348   1.483  15.336  0.2200  0.9186  1.4998
 6701SOL    HW231563   1.457   1.417  15.261  0.6860 -0.8313  0.4257
 6702SOL     OW31564   3.899   2.814   3.732 -0.3011 -0.5955  0.4880
 6702SOL    HW131565   3.961   2.742   3.736  0.2457 -0.1356  0.2267
 6702SOL    HW231566   3.946   2.877   3.678  0.1772  0.0444  1.6417
 6703SOL     OW31567   0.945   0.965   3.070 -0.4833 -0.0224  0.5945
 6703SOL    HW131568   1.005   1.008   3.010  1.1252  0.2704  2.4073
 6703SOL    HW231569   0.932   0.876   3.037  0.4261 -0.0680  0.3745
 6704SOL     OW31570   2.541   2.456   8.056 -0.4325 -0.9456 -0.0079
 6704SOL    HW131571   2.539   2.367   8.021 -2.2554  0.0174 -2.3203
 6704SOL    HW231572   2.461   2.455   8.109 -0.0023 -1.0845  0.6359
 6705SOL     OW31573   3.065   1.451   5.381 -0.0404 -0.1361  0.1335
 6705SOL    HW131574   3.149   1.471   5.422  1.8398 -0.2402 -3.7000
 6705SOL    HW231575   3.085   1.440   5.288 -1.0485  2.1635 -0.3657
 6706SOL     OW31576   1.903   0.879  17.225  0.9085 -0.0139 -0.4088
 6706SOL    HW131577   1.954   0.819  17.170 -0.2359 -0.1860 -1.2722
 6706SOL    HW231578   1.964   0.952  17.217  1.3686 -0.3231  0.2032
 6707SOL     OW31579   0.339   1.350   0.792  0.3929 -0.5311 -0.1299
 6707SOL    HW131580   0.380   1.294   0.858 -0.3155 -1.8289 -0.7955
 6707SOL    HW231581   0.387   1.431   0.807  0.5889 -0.8254  0.8379
 6708SOL     OW31582   2.479   0.782   2.460 -0.3604 -0.5295 -0.2617
 6708SOL    HW131583   2.524   0.784   2.545 -2.1148  1.8006  0.6372
 6708SOL    HW231584   2.398   0.825   2.491 -0.7577 -0.8639 -0.8484
 6709SOL     OW31585   2.928   4.005  15.126  0.0595 -0.5814  0.7574
 6709SOL    HW131586   3.010   3.955  15.127  0.1321 -0.5820 -3.0666
 6709SOL    HW231587   2.960   4.087  15.088  0.6445 -1.0832  0.1623
 6710SOL     OW31588   0.400   3.733   9.534 -0.0047 -0.6370  0.2433
 6710SOL    HW131589   0.446   3.749   9.617  1.0118  0.9361 -0.6070
 6710SOL    HW231590   0.350   3.662   9.572 -0.0590 -1.8106 -1.9986
 6711SOL     OW31591   2.748   0.023   6.629 -0.0722 -0.0276  0.4866
 6711SOL    HW131592   2.806   0.064   6.693 -0.7901  1.6993  0.0337
 6711SOL    HW231593   2.752   0.082   6.554 -3.3975 -0.3235  0.0897
 6712SOL     OW31594   2.214   1.929   4.279  0.0972 -0.2821 -0.4279
 6712SOL    HW131595   2.273   1.960   4.210 -1.1675  1.5534 -0.6965
 6712SOL    HW231596   2.194   2.012   4.323 -0.1397  0.7383 -2.4606
 6713SOL     OW31597   3.895   4.333   2.645  0.8291 -0.3913 -0.4442
 6713SOL    HW131598   3.874   4.290   2.562  1.9143 -0.8170 -0.4987
 6713SOL    HW231599   3.859   4.422   2.641 -0.2946 -0.8351 -0.2129
 6714SOL     OW31600   1.929   1.782   8.661 -0.1607  0.6593  0.1256
 6714SOL    HW131601   2.021   1.757   8.670 -0.5838 -1.1631 -0.5402
 6714SOL    HW231602   1.933   1.875   8.683 -0.0634  0.6303  0.2273
 6715SOL     OW31603   3.881   3.664   3.495 -0.6299 -0.4473 -0.5216
 6715SOL    HW131604   3.877   3.643   3.402  0.1237  0.4326 -0.7462
 6715SOL    HW231605   3.809   3.614   3.534 -1.6315  2.1783  1.0116
 6716SOL     OW31606   1.916   0.487   6.701  0.5777 -0.2373  0.2735
 6716SOL    HW131607   1.882   0.542   6.772 -1.5124 -0.3355 -0.6536
 6716SOL    HW231608   1.964   0.545   6.642  2.7413 -1.4996  0.8345
 6717SOL     OW31609   3.533   4.196   8.163  0.4994  0.5815  0.1645
 6717SOL    HW131610   3.510   4.198   8.255 -2.9000  1.2266 -0.7004
 6717SOL    HW231611   3.590   4.119   8.159 -0.1542  0.1882 -1.4667
 6718SOL     OW31612   4.668   2.752  13.961 -0.3974 -0.3712  0.2179
 6718SOL    HW131613   4.586   2.779  13.920  0.4471  3.4595  1.1033
 6718SOL    HW231614   4.671   2.658  13.943  0.8349 -0.8016  2.6869
 6719SOL     OW31615   1.704   3.604   3.782 -0.6472  0.3780 -0.3091
 6719SOL    HW131616   1.683   3.593   3.875 -0.3187  2.0927 -0.0170
 6719SOL    HW231617   1.618   3.602   3.740 -0.2989  1.7062 -1.0991
 6720SOL     OW31618   1.408   0.451   7.194 -0.2493 -0.1119  0.2541
 6720SOL    HW131619   1.397   0.511   7.120  2.6970 -1.0903 -1.0246
 6720SOL    HW231620   1.466   0.504   7.249  0.7034 -0.7252 -0.1562
 6721SOL     OW31621   2.261   0.167   9.724  0.3569  0.6948  0.0229
 6721SOL    HW131622   2.188   0.114   9.758  1.7890 -0.1343  1.8083
 6721SOL    HW231623   2.284   0.110   9.650 -2.0466  0.2768 -0.4108
 6722SOL     OW31624   4.006   4.075   6.999  0.1122  0.5465  0.7314
 6722SOL    HW131625   3.976   4.166   7.003  0.4255  0.6941 -0.3916
 6722SOL    HW231626   3.920   4.038   7.022  0.3726 -0.4916  0.0303
 6723SOL     OW31627   1.682   1.601   5.659  0.4994 -0.4164  0.4703
 6723SOL    HW131628   1.664   1.508   5.643 -1.4077  0.3274 -1.7874
 6723SOL    HW231629   1.777   1.599   5.652  0.3929 -2.0582 -0.7588
 6724SOL     OW31630   2.349   0.141   8.021 -0.5943  0.0779  0.2002
 6724SOL    HW131631   2.325   0.049   8.035  1.4566 -0.5612 -0.4577
 6724SOL    HW231632   2.275   0.170   8.074  1.0375 -0.9223  3.0825
 6725SOL     OW31633   4.366   0.236   5.905 -0.1980 -0.0377 -0.6648
 6725SOL    HW131634   4.427   0.191   5.846  2.8409  0.0485  2.4075
 6725SOL    HW231635   4.329   0.169   5.962  0.1964  0.5099  0.2411
 6726SOL     OW31636   4.505   1.501   8.961  0.0548  0.1212  0.4378
 6726SOL    HW131637   4.411   1.484   8.973 -0.4141  1.7818 -0.8143
 6726SOL    HW231638   4.541   1.430   9.013 -0.3164 -0.4624 -0.0995
 6727SOL     OW31639   1.939   3.926   3.432  0.4512  0.1347 -0.2305
 6727SOL    HW131640   1.890   3.964   3.360 -1.1803  1.5222  1.5986
 6727SOL    HW231641   1.901   3.975   3.505  0.7244  1.2717 -0.8506
 6728SOL     OW31642   4.045   4.558   7.103 -0.0527 -0.5274  0.6786
 6728SOL    HW131643   4.140   4.576   7.104 -0.5379  2.0550  0.9838
 6728SOL    HW231644   4.006   4.646   7.107  1.7839  0.2226  1.9738
 6729SOL     OW31645   3.308   0.813   8.926 -0.3668 -0.2517  0.0245
 6729SOL    HW131646   3.331   0.727   8.960  0.0374 -0.5013 -0.8918
 6729SOL    HW231647   3.213   0.810   8.937 -0.3350 -1.8029 -0.2009
 6730SOL     OW31648   4.670   2.082   6.132  0.3351 -0.0990  0.5063
 6730SOL    HW131649   4.691   2.036   6.214  0.7982 -0.9900 -0.1085
 6730SOL    HW231650   4.588   2.123   6.159  0.8680  1.3439 -0.0958
 6731SOL     OW31651   0.461   0.059   5.291  0.0212 -0.1419  0.4493
 6731SOL    HW131652   0.385   0.024   5.338  0.4580  0.4997  1.6515
 6731SOL    HW231653   0.451   0.150   5.321 -0.3287  0.1931 -0.7112
 6732SOL     OW31654   3.866   0.242  17.640 -0.1399  0.4036  0.3703
 6732SOL    HW131655   3.908   0.301   0.009  0.2447 -0.6738  1.1294
 6732SOL    HW231656   3.921   0.166  17.659  3.0199  3.3312  2.9434
 6733SOL     OW31657   2.869   0.579   2.143  0.1255  0.0633 -0.7178
 6733SOL    HW131658   2.821   0.651   2.184  0.0835  0.4816 -1.5168
 6733SOL    HW231659   2.917   0.628   2.076  0.4900  0.7901  0.0658
 6734SOL     OW31660   1.986   4.629  14.770  0.4979 -0.6918 -0.5485
 6734SOL    HW131661   1.897   4.642  14.737 -0.2007 -0.1893  1.4878
 6734SOL    HW231662   2.040   4.641  14.692 -1.9523 -1.1064 -2.2791
 6735SOL     OW31663   4.289   1.643   4.489  0.2645 -0.0726  0.3145
 6735SOL    HW131664   4.357   1.609   4.430 -0.5530 -1.9772  0.4593
 6735SOL    HW231665   4.221   1.653   4.422 -0.6131 -4.5576  0.4730
 6736SOL     OW31666   0.126   2.594   3.162  0.2649  0.3774 -0.3858
 6736SOL    HW131667   0.070   2.608   3.239 -0.9573  1.0240 -1.3854
 6736SOL    HW231668   0.182   2.671   3.173 -0.5394  0.5574  2.5360
 6737SOL     OW31669   2.918   2.361  16.245 -0.7340 -0.6150  0.2907
 6737SOL    HW131670   2.988   2.382  16.184  0.0882  0.3222  1.5529
 6737SOL    HW231671   2.877   2.446  16.264  0.2438 -0.1581  0.3316
 6738SOL     OW31672   0.032   4.270   9.205  0.1302  0.6335  0.9547
 6738SOL    HW131673   0.127   4.285   9.206  0.2094  0.1878 -0.1547
 6738SOL    HW231674   0.035   4.176   9.223  1.4530  0.2999 -1.0182
 6739SOL     OW31675   3.981   0.984   2.527 -0.4144  0.0712  0.1264
 6739SOL    HW131676   4.070   0.989   2.562 -0.3387 -0.9774  0.0891
 6739SOL    HW231677   4.003   0.930   2.451  0.0072 -0.5350  0.6769
 6740SOL     OW31678   0.968   3.799   2.461  0.0399 -0.1836  0.0819
 6740SOL    HW131679   1.047   3.826   2.510 -0.7808  0.2303  1.1909
 6740SOL    HW231680   0.961   3.704   2.467 -1.0302 -0.0051  1.8929
 6741SOL     OW31681   3.021   2.901   2.213 -0.7037 -0.0580  0.3642
 6741SOL    HW131682   2.927   2.884   2.208 -0.8996  0.9024  0.7996
 6741SOL    HW231683   3.021   2.922   2.306  2.3770  1.8044 -0.0619
 6742SOL     OW31684   2.689   1.688   9.567  0.5789  0.4092  0.1354
 6742SOL    HW131685   2.676   1.633   9.490 -1.2372 -0.8520  1.3464
 6742SOL    HW231686   2.598   1.716   9.569  0.8306  1.1803  0.7877
 6743SOL     OW31687   1.541   0.832   7.247  0.2475 -0.3637 -0.5164
 6743SOL    HW131688   1.453   0.802   7.270 -0.7330  2.7065 -0.3101
 6743SOL    HW231689   1.524   0.874   7.162  1.2625  1.5429  0.2202
 6744SOL     OW31690   1.219   1.143   5.121  0.6133  0.6588  0.3930
 6744SOL    HW131691   1.126   1.162   5.122  0.7234  1.1304  1.1414
 6744SOL    HW231692   1.246   1.223   5.166  1.7884  0.9119 -0.7588
 6745SOL     OW31693   0.032   0.722  17.266  0.1414 -0.4151 -0.3176
 6745SOL    HW131694   0.090   0.697  17.338  0.9230  2.9228  0.2328
 6745SOL    HW231695   0.062   0.810  17.242 -0.9068 -0.3057 -1.2302
 6746SOL     OW31696   0.731   3.919   4.160 -0.1175 -0.0714 -0.7503
 6746SOL    HW131697   0.788   3.855   4.202  0.3253  1.1528  0.5124
 6746SOL    HW231698   0.782   3.997   4.136  0.1203  0.0238  0.0635
 6747SOL     OW31699   0.466   2.010   7.923  0.2515 -0.7234  0.1142
 6747SOL    HW131700   0.454   1.952   7.848  0.3096  1.8665 -1.9008
 6747SOL    HW231701   0.510   2.081   7.877 -1.2674  0.4419  0.4633
 6748SOL     OW31702   2.308   4.047   5.630 -0.1331  0.1418  0.0581
 6748SOL    HW131703   2.309   4.142   5.635 -0.5563  0.1752 -0.5363
 6748SOL    HW231704   2.322   4.022   5.538  0.5110  2.5293 -0.4770
 6749SOL     OW31705   2.500   4.553   2.803 -0.2628  0.1620  0.1268
 6749SOL    HW131706   2.470   4.548   2.713 -0.4857  1.8381  0.1213
 6749SOL    HW231707   2.422   4.562   2.858  2.2207  2.7682  3.2246
 6750SOL     OW31708   3.140   1.174   7.224  0.4088 -0.7505  0.0860
 6750SOL    HW131709   3.075   1.236   7.259  0.1261 -0.0810 -1.5888
 6750SOL    HW231710   3.105   1.091   7.255  2.1797 -0.6431  2.3859
 6751SOL     OW31711   2.269   2.636   2.410 -0.5754  0.0397 -0.3174
 6751SOL    HW131712   2.260   2.686   2.491  0.3761 -2.6235  1.4237
 6751SOL    HW231713   2.190   2.583   2.412 -1.2187  1.0382  0.5084
 6752SOL     OW31714   1.213   4.131   2.983 -0.0851 -0.1383 -0.4805
 6752SOL    HW131715   1.182   4.084   3.060  1.0279  0.3968  0.2981
 6752SOL    HW231716   1.171   4.091   2.907 -0.8225  2.0561 -1.2502
 6753SOL     OW31717   3.743   3.642   1.512  0.6462 -0.4352  0.0900
 6753SOL    HW131718   3.781   3.648   1.425 -1.0234  1.3257 -0.5309
 6753SOL    HW231719   3.712   3.553   1.498 -1.7338  0.3332  0.3970
 6754SOL     OW31720   4.510   3.274   3.610 -0.0287 -0.0924  0.3057
 6754SOL    HW131721   4.582   3.329   3.580  0.3531 -1.0159 -0.4845
 6754SOL    HW231722   4.494   3.325   3.689 -0.1997  0.0231  0.1953
 6755SOL     OW31723   0.512   2.622   6.348 -0.6401  0.1194 -0.1183
 6755SOL    HW131724   0.562   2.698   6.317  0.6185 -0.0323  1.5125
 6755SOL    HW231725   0.518   2.561   6.275 -1.4597  1.3693 -1.2160
 6756SOL     OW31726   0.541   4.359   0.511  0.0343 -0.4210  0.4074
 6756SOL    HW131727   0.484   4.283   0.517  0.3032 -0.6469  0.0966
 6756SOL    HW231728   0.530   4.385   0.419 -0.8006 -1.4552  0.2196
 6757SOL     OW31729   3.233   3.549   6.359 -0.0035 -0.8993 -0.0178
 6757SOL    HW131730   3.198   3.480   6.303  0.2484 -0.8224 -0.2695
 6757SOL    HW231731   3.188   3.535   6.442  0.5894  1.4870  0.7140
 6758SOL     OW31732   0.505   3.869   7.916 -0.0358  0.1526 -0.2579
 6758SOL    HW131733   0.580   3.812   7.935 -1.0715 -1.6850 -1.6340
 6758SOL    HW231734   0.483   3.840   7.827  0.3493 -0.2339 -0.2307
 6759SOL     OW31735   4.146   1.991   2.443 -0.3099 -0.1390 -0.1639
 6759SOL    HW131736   4.179   1.930   2.377  0.3961  0.2623 -0.1769
 6759SOL    HW231737   4.091   2.040   2.382 -2.1671 -1.6118  0.3047
 6760SOL     OW31738   2.800   0.280   1.738 -0.7092  0.3206 -0.5364
 6760SOL    HW131739   2.708   0.304   1.728 -0.2391  2.7764  1.2239
 6760SOL    HW231740   2.799   0.284   1.833 -0.3964  2.2172 -0.6148
 6761SOL     OW31741   4.456   0.622   7.850 -0.1020 -0.1063  0.3042
 6761SOL    HW131742   4.531   0.672   7.883  0.3614 -1.1188  0.7730
 6761SOL    HW231743   4.442   0.671   7.770  0.7124  0.0101  0.2281
 6762SOL     OW31744   2.217   3.040   4.198 -0.0584  0.4541 -0.4657
 6762SOL    HW131745   2.247   3.043   4.289  1.2921 -0.6618 -0.8705
 6762SOL    HW231746   2.196   2.947   4.189 -0.2914  0.4086  0.5512
 6763SOL     OW31747   2.114   3.253  11.867 -0.3734 -0.8475  0.4946
 6763SOL    HW131748   2.174   3.232  11.938  0.7167  1.1125  0.1627
 6763SOL    HW231749   2.090   3.344  11.887  1.8885 -0.3985  1.1031
 6764SOL     OW31750   0.360   0.943   7.596 -0.2489  0.3339  0.1288
 6764SOL    HW131751   0.378   1.024   7.644 -1.0720  0.6064 -0.0185
 6764SOL    HW231752   0.433   0.939   7.535  1.5128 -0.0017  2.2309
 6765SOL     OW31753   2.310   2.312   8.215 -0.2167  0.2403 -0.4118
 6765SOL    HW131754   2.303   2.261   8.134  1.8284  0.6748 -0.8557
 6765SOL    HW231755   2.379   2.269   8.265  0.8529  2.2038 -0.2100
 6766SOL     OW31756   1.998   1.071   6.570  0.5693  0.4837 -1.0344
 6766SOL    HW131757   2.038   1.094   6.486 -0.8696 -0.3450 -1.9400
 6766SOL    HW231758   1.924   1.130   6.558 -0.8750 -0.8521  1.1800
 6767SOL     OW31759   2.518   1.488   6.106 -0.3308 -0.2961  0.6125
 6767SOL    HW131760   2.533   1.485   6.200  3.3122 -0.4105  0.0406
 6767SOL    HW231761   2.483   1.577   6.100 -0.4144 -0.2557  1.6581
 6768SOL     OW31762   4.192   1.217   5.606  0.1932  0.5062  0.2729
 6768SOL    HW131763   4.201   1.124   5.625  1.5248  0.7380  0.8407
 6768SOL    HW231764   4.199   1.252   5.695  0.0948 -1.6380  1.1140
 6769SOL     OW31765   2.493   2.812   4.619  0.8384  0.6551  0.2389
 6769SOL    HW131766   2.454   2.887   4.575  0.0495  0.0940 -0.0061
 6769SOL    HW231767   2.466   2.735   4.569 -1.0887  1.4436  0.1058
 6770SOL     OW31768   2.384   1.906  13.191  0.6735 -0.0665  0.3304
 6770SOL    HW131769   2.327   1.921  13.116  1.7213 -0.3480 -0.5164
 6770SOL    HW231770   2.461   1.870  13.147  1.1849  1.3707  0.0638
 6771SOL     OW31771   2.594   2.082   3.441  0.4425  0.1024 -0.0339
 6771SOL    HW131772   2.523   2.085   3.506  0.7871 -0.0204  0.3482
 6771SOL    HW231773   2.599   2.169   3.401 -0.1078  0.0577 -0.2032
 6772SOL     OW31774   1.382   1.118   1.138 -0.4017 -0.6051  0.2489
 6772SOL    HW131775   1.410   1.141   1.049 -2.1159 -0.0927 -0.1610
 6772SOL    HW231776   1.330   1.194   1.163  1.7973  0.7935  0.5748
 6773SOL     OW31777   0.341   3.724   2.617 -0.1593 -0.4779  0.0517
 6773SOL    HW131778   0.396   3.766   2.550  0.9555 -4.0842 -1.2819
 6773SOL    HW231779   0.258   3.719   2.569 -1.6713  1.5696  2.4656
 6774SOL     OW31780   1.892   0.512  16.125  0.1144 -0.0337 -0.0368
 6774SOL    HW131781   1.909   0.606  16.118  0.1065 -0.0687 -0.5611
 6774SOL    HW231782   1.944   0.486  16.200 -0.9639 -3.7825 -0.6058
 6775SOL     OW31783   2.179   0.733  13.570 -0.0968 -0.2169  0.3436
 6775SOL    HW131784   2.152   0.679  13.496  0.8168 -0.6144  0.2965
 6775SOL    HW231785   2.189   0.657  13.627 -0.0897  0.7855  1.6710
 6776SOL     OW31786   2.802   3.607   7.320  0.4268 -0.0712  0.0286
 6776SOL    HW131787   2.880   3.590   7.372  0.3699  0.5861  0.3276
 6776SOL    HW231788   2.819   3.552   7.243  0.4919  1.2229 -0.8800
 6777SOL     OW31789   1.655   0.032  17.216 -1.0018  0.3082 -0.5470
 6777SOL    HW131790   1.749   0.017  17.206 -0.6363  1.7165  0.6375
 6777SOL    HW231791   1.608   4.694  17.159  0.6971 -1.0780 -0.4620
 6778SOL     OW31792   2.533   2.908  14.316 -0.3846 -0.6206  0.2565
 6778SOL    HW131793   2.616   2.941  14.282 -0.6640 -1.3897 -1.1683
 6778SOL    HW231794   2.470   2.978  14.303  1.6930  1.1910 -0.1582
 6779SOL     OW31795   1.869   4.065   0.950  0.1187 -0.3412  0.3448
 6779SOL    HW131796   1.954   4.105   0.967  0.7703  0.1681 -4.1419
 6779SOL    HW231797   1.823   4.065   1.034 -1.2036 -1.8147 -0.3738
 6780SOL     OW31798   0.260   3.061   2.962  0.4209  0.6006 -0.4052
 6780SOL    HW131799   0.234   3.076   2.871  2.7062  0.4572 -1.0744
 6780SOL    HW231800   0.180   3.025   2.999  1.6840  0.5295  2.2880
 6781SOL     OW31801   0.341   1.952  15.120  0.0829  0.1300  0.6209
 6781SOL    HW131802   0.415   2.010  15.138  0.7376  0.1028 -1.9714
 6781SOL    HW231803   0.295   2.003  15.053  0.3359 -0.8402 -0.2937
 6782SOL     OW31804   0.471   3.214   2.496 -0.4458 -0.6276  0.0829
 6782SOL    HW131805   0.534   3.198   2.425  0.9053  1.1009  0.8876
 6782SOL    HW231806   0.491   3.298   2.538 -1.9718  0.5533 -1.5207
 6783SOL     OW31807   3.862   0.275   4.004  0.2312 -0.0107 -0.0976
 6783SOL    HW131808   3.877   0.362   4.041  1.8402 -0.4297  0.2687
 6783SOL    HW231809   3.769   0.262   4.021  0.0917  1.2992  0.1238
 6784SOL     OW31810   1.730   2.932   4.772 -0.1683  0.5610  0.0786
 6784SOL    HW131811   1.773   3.012   4.802  2.1850 -1.2131  1.4721
 6784SOL    HW231812   1.684   2.893   4.847 -0.0101  3.0823  1.5133
 6785SOL     OW31813   0.692   4.284   8.339  0.1285  0.0928  0.5420
 6785SOL    HW131814   0.606   4.270   8.298  1.5623  0.5783 -2.6757
 6785SOL    HW231815   0.745   4.318   8.266 -0.5882 -0.3494 -0.1808
 6786SOL     OW31816   2.807   1.460  16.969 -0.1137  0.2688 -0.3446
 6786SOL    HW131817   2.764   1.541  16.997 -0.2664  0.6344 -1.6200
 6786SOL    HW231818   2.730   1.414  16.933  0.4619 -0.0493 -1.1627
 6787SOL     OW31819   2.854   2.958  14.963  0.3481  0.0655 -0.5660
 6787SOL    HW131820   2.872   2.952  15.057 -1.4055  0.3221 -0.2274
 6787SOL    HW231821   2.922   3.019  14.934 -0.4102  1.2275  0.0815
 6788SOL     OW31822   2.217   4.349   3.808 -0.3301  0.1504 -0.0415
 6788SOL    HW131823   2.206   4.258   3.781 -0.9656 -0.1660  1.2688
 6788SOL    HW231824   2.157   4.397   3.752 -2.6820 -2.9937 -0.1945
 6789SOL     OW31825   1.261   4.466   6.988  0.2766 -0.3154 -0.3627
 6789SOL    HW131826   1.242   4.391   6.930  2.1476  0.2941 -1.7560
 6789SOL    HW231827   1.310   4.426   7.060 -0.2356 -0.3598 -0.0414
 6790SOL     OW31828   4.573   2.643  11.863 -0.6390  0.3868 -0.3118
 6790SOL    HW131829   4.657   2.650  11.909 -0.6919  2.6000 -0.5969
 6790SOL    HW231830   4.600   2.666  11.775 -1.1705  0.1470 -0.5393
 6791SOL     OW31831   1.533   2.636   2.487  0.0211 -0.0575  0.1904
 6791SOL    HW131832   1.550   2.620   2.579 -0.5520  0.7002  0.4238
 6791SOL    HW231833   1.530   2.550   2.445  0.4304  0.3033 -0.5796
 6792SOL     OW31834   0.269   3.454   4.901 -0.2415 -0.1793 -0.0755
 6792SOL    HW131835   0.354   3.413   4.918 -1.1841 -1.7009  1.0153
 6792SOL    HW231836   0.220   3.413   4.973 -0.3531 -0.9889 -0.6190
 6793SOL     OW31837   2.960   3.556  13.634 -0.2423 -0.0858  0.5897
 6793SOL    HW131838   2.959   3.536  13.540 -1.4790  0.8474  0.4022
 6793SOL    HW231839   2.913   3.639  13.635 -0.8012 -0.3631 -2.1833
 6794SOL     OW31840   0.770   2.338   1.448 -0.4830  0.8334  0.0554
 6794SOL    HW131841   0.687   2.329   1.495 -0.6147 -1.5232 -0.6348
 6794SOL    HW231842   0.767   2.429   1.418 -0.1599  1.5487  2.1956
 6795SOL     OW31843   0.186   4.071  16.195  0.3436  0.3987 -0.4038
 6795SOL    HW131844   0.118   4.100  16.135  1.9953 -0.2023 -2.5424
 6795SOL    HW231845   0.263   4.088  16.141 -0.0812  0.5415 -0.9645
 6796SOL     OW31846   2.478   1.208   8.501  0.3219 -0.3590 -0.3913
 6796SOL    HW131847   2.480   1.121   8.460  1.1577 -0.3422 -0.3867
 6796SOL    HW231848   2.571   1.215   8.525  0.5998 -0.5040 -1.3921
 6797SOL     OW31849   0.711   4.045   3.605  0.1535  0.6536 -0.5381
 6797SOL    HW131850   0.644   4.100   3.646 -1.4571 -1.5851 -0.2225
 6797SOL    HW231851   0.653   3.987   3.557  1.2632 -0.0098 -1.0864
 6798SOL     OW31852   1.214   0.842   3.151  0.0041 -0.1862 -0.1261
 6798SOL    HW131853   1.144   0.901   3.123 -0.8027 -0.4749  1.2807
 6798SOL    HW231854   1.278   0.848   3.079 -2.6472 -0.2388 -2.4860
 6799SOL     OW31855   2.543   0.007  10.196  0.0472 -0.2579  0.1240
 6799SOL    HW131856   2.548   0.103  10.195 -0.6037 -0.2404 -0.6489
 6799SOL    HW231857   2.552   4.712  10.290 -0.5899  0.0334  0.2412
 6800SOL     OW31858   2.786   2.686  11.639  0.1023 -0.2709 -0.0371
 6800SOL    HW131859   2.790   2.617  11.572  0.1507 -0.0338 -0.2751
 6800SOL    HW231860   2.880   2.701  11.651  0.1812 -1.2839  0.6716
 6801SOL     OW31861   1.653   1.997   5.115  0.2982  0.1194 -0.2427
 6801SOL    HW131862   1.629   2.066   5.053  2.1577 -1.5271 -2.8229
 6801SOL    HW231863   1.697   2.046   5.183  0.0358 -1.4044  1.0349
 6802SOL     OW31864   2.962   0.769   3.451  0.1156  0.2981 -0.2880
 6802SOL    HW131865   2.990   0.781   3.542  0.0433  1.3738 -0.4036
 6802SOL    HW231866   3.027   0.828   3.414 -1.5290  1.6149 -1.1323
 6803SOL     OW31867   2.752   0.480  17.243  0.7034  0.0554 -0.1043
 6803SOL    HW131868   2.784   0.504  17.330  0.2311  1.3043 -0.2746
 6803SOL    HW231869   2.827   0.476  17.183 -0.7443 -0.7090 -1.8712
 6804SOL     OW31870   1.133   2.297   3.263 -0.3361  0.4972 -0.2461
 6804SOL    HW131871   1.225   2.275   3.277 -1.3099 -1.9405  2.3208
 6804SOL    HW231872   1.100   2.209   3.284  0.7747 -0.4105 -2.2106
 6805SOL     OW31873   1.948   0.280   9.202  0.2760  0.1482 -0.1497
 6805SOL    HW131874   1.929   0.188   9.220  0.5962 -0.0385 -0.7546
 6805SOL    HW231875   2.031   0.272   9.153 -0.2208  0.1611 -0.9980
 6806SOL     OW31876   0.635   3.008   4.097 -0.0832  0.0402 -0.7500
 6806SOL    HW131877   0.687   3.039   4.172  0.5342 -0.6596 -0.8909
 6806SOL    HW231878   0.619   2.920   4.131  1.0039  1.3782  3.3050
 6807SOL     OW31879   3.381   1.994   1.218 -0.1611 -0.2700  0.4657
 6807SOL    HW131880   3.347   2.040   1.141 -0.7994  0.0874  0.9671
 6807SOL    HW231881   3.308   1.945   1.256 -0.0398 -0.7712  0.0605
 6808SOL     OW31882   2.838   1.703   5.107 -0.1756  0.5932  0.3240
 6808SOL    HW131883   2.889   1.780   5.081  2.2635 -1.1614 -0.1517
 6808SOL    HW231884   2.794   1.684   5.024  1.2526 -0.2569 -0.2456
 6809SOL     OW31885   3.598   3.064   7.773  0.5986  0.4742  0.3053
 6809SOL    HW131886   3.505   3.066   7.752  0.5429  1.0115  0.6181
 6809SOL    HW231887   3.626   3.098   7.687 -0.0691 -0.8775 -0.4500
 6810SOL     OW31888   1.661   4.339   0.918  0.3003  0.0514  0.1596
 6810SOL    HW131889   1.754   4.359   0.906  0.0550  0.8042 -0.4609
 6810SOL    HW231890   1.643   4.364   1.008 -0.7011 -0.5331  0.1230
 6811SOL     OW31891   4.596   1.760   6.610  0.2697 -0.4955 -0.2361
 6811SOL    HW131892   4.641   1.719   6.536 -0.1354 -0.7640 -0.3343
 6811SOL    HW231893   4.594   1.682   6.666  1.7711 -0.7228 -0.5005
 6812SOL     OW31894   1.092   1.610   5.865 -0.3228  0.1189  0.5316
 6812SOL    HW131895   1.079   1.635   5.773 -2.5705  0.0658  0.8437
 6812SOL    HW231896   1.133   1.524   5.856  0.1582  0.3258  0.7694
 6813SOL     OW31897   3.648   2.129  16.864 -0.0123 -0.1716 -0.6019
 6813SOL    HW131898   3.668   2.208  16.814 -0.5784 -0.6467 -1.5672
 6813SOL    HW231899   3.729   2.130  16.915  1.1709  0.4377 -2.4991
 6814SOL     OW31900   0.750   3.070   2.983 -0.3036  0.3030  0.2821
 6814SOL    HW131901   0.722   2.979   2.972 -0.7596  0.7363 -2.1006
 6814SOL    HW231902   0.837   3.058   3.021 -1.1158  0.8738  2.3224
 6815SOL     OW31903   0.654   0.484   5.184 -0.6388 -0.2811  0.2193
 6815SOL    HW131904   0.669   0.443   5.269 -1.6388 -1.0803  0.0120
 6815SOL    HW231905   0.564   0.457   5.165 -0.5867  0.5586 -1.1840
 6816SOL     OW31906   4.599   4.346   7.620 -0.3208 -0.0927 -0.0287
 6816SOL    HW131907   4.577   4.337   7.713  2.2745  2.2272  0.8269
 6816SOL    HW231908   4.619   4.256   7.595 -1.3859 -0.5688  0.8517
 6817SOL     OW31909   1.887   2.639   3.164 -0.0888  0.2364  0.3449
 6817SOL    HW131910   1.808   2.597   3.131  1.8482 -1.7453 -1.7649
 6817SOL    HW231911   1.952   2.619   3.097  1.2397 -0.4916  1.8567
 6818SOL     OW31912   2.351   3.111   3.066 -0.2550 -0.3275 -0.5636
 6818SOL    HW131913   2.369   3.107   3.160 -0.2032  0.6447 -0.5312
 6818SOL    HW231914   2.436   3.119   3.022  0.2692 -0.6854  0.3946
 6819SOL     OW31915   3.844   3.470   7.481 -0.5011 -0.5479 -0.3319
 6819SOL    HW131916   3.813   3.557   7.456 -0.3338 -0.2735  0.4197
 6819SOL    HW231917   3.898   3.493   7.557 -1.3620  1.1276 -0.2252
 6820SOL     OW31918   3.067   2.674   0.723 -0.1278  0.5655 -0.0036
 6820SOL    HW131919   3.041   2.602   0.780 -0.2138  0.8924  0.3733
 6820SOL    HW231920   3.033   2.645   0.638 -0.6352  0.5493  0.2007
 6821SOL     OW31921   3.920   3.102  16.132 -0.4785 -0.1374  0.1527
 6821SOL    HW131922   3.864   3.173  16.100 -0.5108  0.2119  0.9823
 6821SOL    HW231923   3.875   3.031  16.087 -0.7405  0.1698 -0.0759
 6822SOL     OW31924   0.859   1.952   2.157 -0.3019 -0.0501  0.2074
 6822SOL    HW131925   0.907   1.906   2.089 -2.2020  1.1552 -1.9308
 6822SOL    HW231926   0.849   2.030   2.104 -1.9315  0.0585  0.6657
 6823SOL     OW31927   3.228   2.642  14.326  0.1097 -0.6287  0.0318
 6823SOL    HW131928   3.311   2.644  14.279  0.2433 -1.2020  0.2460
 6823SOL    HW231929   3.196   2.732  14.317  0.8273 -0.4110 -0.3231
 6824SOL     OW31930   2.360   4.258   3.110  0.0067 -0.3991  0.6202
 6824SOL    HW131931   2.273   4.232   3.080  0.1345 -1.5140  1.2092
 6824SOL    HW231932   2.336   4.312   3.185  2.1957  2.5939 -0.8154
 6825SOL     OW31933   4.034   2.839   2.587  0.5818 -0.4161  0.4010
 6825SOL    HW131934   3.992   2.898   2.525  0.9314  1.7620  2.2346
 6825SOL    HW231935   3.966   2.841   2.655 -1.4811  2.5604 -1.7463
 6826SOL     OW31936   0.658   0.244   5.640 -0.2613 -0.4147  0.2770
 6826SOL    HW131937   0.714   0.292   5.700  1.4765 -1.8867 -0.1563
 6826SOL    HW231938   0.673   0.295   5.560  1.7242  0.1554  1.0355
 6827SOL     OW31939   0.116   0.735   3.575  0.5728 -0.6012 -0.3493
 6827SOL    HW131940   0.123   0.830   3.567  1.2427 -0.6801 -0.7225
 6827SOL    HW231941   0.049   0.721   3.642 -0.3600  1.4359 -0.8451
 6828SOL     OW31942   0.456   1.660   2.797  0.7400  0.7658  0.2909
 6828SOL    HW131943   0.459   1.631   2.888  0.1347  0.2686  0.1473
 6828SOL    HW231944   0.377   1.712   2.786 -0.2352 -0.6395  0.7768
 6829SOL     OW31945   1.465   2.090   6.989 -0.6091 -0.3404 -0.2883
 6829SOL    HW131946   1.385   2.085   7.042  0.8168 -1.5313  1.7066
 6829SOL    HW231947   1.520   2.017   7.015 -2.6801 -0.4995  3.6171
 6830SOL     OW31948   0.346   4.152   4.590  0.2984 -0.7582  0.2103
 6830SOL    HW131949   0.389   4.133   4.673  3.1223 -2.3278 -1.6411
 6830SOL    HW231950   0.412   4.186   4.529 -0.3349  1.6577  0.8545
 6831SOL     OW31951   0.209   0.882   8.814  0.2401 -0.0293  0.0168
 6831SOL    HW131952   0.148   0.814   8.787  0.2033  0.1962 -0.4727
 6831SOL    HW231953   0.267   0.827   8.867  0.8093  1.4046  0.8758
 6832SOL     OW31954   4.437   3.664   8.798 -0.4452 -0.3904  0.2678
 6832SOL    HW131955   4.375   3.710   8.742  0.0006  0.8735  0.8212
 6832SOL    HW231956   4.383   3.660   8.877 -0.6409  2.9771  0.2898
 6833SOL     OW31957   4.245   4.654   6.903 -0.1794 -0.3169  0.6649
 6833SOL    HW131958   4.262   4.648   6.809  0.9585  1.2828  0.7671
 6833SOL    HW231959   4.326   4.692   6.937  0.3219 -0.3973 -0.4756
 6834SOL     OW31960   1.890   4.027   4.945 -0.3788 -0.2898 -0.0486
 6834SOL    HW131961   1.971   4.034   4.895  0.2926 -1.6746  0.8274
 6834SOL    HW231962   1.923   3.989   5.026  0.2852  1.1297  0.3546
 6835SOL     OW31963   4.505   0.604   7.441  0.8318  0.2064  0.1311
 6835SOL    HW131964   4.525   0.546   7.368  0.3361  1.4869 -1.0218
 6835SOL    HW231965   4.572   0.582   7.506 -0.4877 -1.6116  0.8457
 6836SOL     OW31966   1.734   4.519  17.414 -1.3024 -0.0241  0.2821
 6836SOL    HW131967   1.673   4.588  17.387 -2.4658 -1.0616  0.2554
 6836SOL    HW231968   1.708   4.439  17.369  2.3110 -1.1098  0.1130
 6837SOL     OW31969   3.507   4.582   0.439  0.1855 -0.4551 -0.3717
 6837SOL    HW131970   3.430   4.534   0.412 -1.0441  2.0415 -1.3383
 6837SOL    HW231971   3.539   4.612   0.354 -0.4033  0.2108 -0.3633
 6838SOL     OW31972   1.885   2.415   0.424  0.3556 -0.5014  0.3068
 6838SOL    HW131973   1.939   2.342   0.455  1.8619  0.5168  0.0717
 6838SOL    HW231974   1.946   2.474   0.380  0.1270  0.6818  1.6003
 6839SOL     OW31975   2.841   1.899   6.183 -0.3890  0.1423  0.2813
 6839SOL    HW131976   2.886   1.924   6.102 -0.4418 -0.3234  0.1114
 6839SOL    HW231977   2.904   1.940   6.243 -1.5887  1.8859  0.3496
 6840SOL     OW31978   0.007   3.558  14.685  0.1041 -0.7391  0.4649
 6840SOL    HW131979   4.681   3.635  14.715 -1.0904 -2.0806  1.9835
 6840SOL    HW231980   4.664   3.493  14.662  0.2425 -0.0853 -1.8102
 6841SOL     OW31981   3.017   2.783  12.320 -0.1963 -0.4156  0.7356
 6841SOL    HW131982   2.992   2.693  12.297  0.3996 -0.7320  1.3324
 6841SOL    HW231983   2.928   2.813  12.303  0.1899  0.8027  0.9075
 6842SOL     OW31984   1.987   1.869  11.538  0.5837  0.2493  0.2786
 6842SOL    HW131985   2.073   1.868  11.580 -0.3366  0.1029  2.1736
 6842SOL    HW231986   2.011   1.846  11.449  3.3487  1.3150  0.7696
 6843SOL     OW31987   4.014   3.372  14.461 -0.4336 -0.1680  0.2577
 6843SOL    HW131988   3.950   3.442  14.456 -0.7671 -0.4226  0.9667
 6843SOL    HW231989   3.968   3.308  14.406 -0.2704  0.7278 -0.9108
 6844SOL     OW31990   2.980   1.270  10.171 -0.2890 -0.6798  0.7745
 6844SOL    HW131991   2.988   1.330  10.097  0.2513  0.6534  1.9284
 6844SOL    HW231992   2.887   1.280  10.194 -0.3862 -3.0625  1.4299
 6845SOL     OW31993   1.641   3.610  10.974  0.0892 -0.5823 -0.0340
 6845SOL    HW131994   1.731   3.592  10.944  0.0369  1.0305 -1.1917
 6845SOL    HW231995   1.669   3.624  11.064 -3.2872  0.2771  0.8730
 6846SOL     OW31996   1.983   2.767   7.902  0.2310 -0.1399  0.3723
 6846SOL    HW131997   1.946   2.699   7.958 -1.3540  0.8822  0.5616
 6846SOL    HW231998   2.049   2.800   7.962  0.4441  0.2059 -0.0541
 6847SOL     OW31999   3.599   2.203   6.645  0.0807 -0.4027  0.2069
 6847SOL    HW132000   3.507   2.201   6.615  0.3767 -2.6340 -0.5652
 6847SOL    HW232001   3.650   2.215   6.565  1.5194 -3.7375  0.6376
 6848SOL     OW32002   3.021   4.191   1.441  0.7927 -0.2917 -0.2416
 6848SOL    HW132003   2.946   4.206   1.384  0.3796  1.1410  0.6611
 6848SOL    HW232004   3.013   4.276   1.485  2.2803 -1.1019  1.5916
 6849SOL     OW32005   1.560   3.247   6.794 -0.0855  0.5486  0.2848
 6849SOL    HW132006   1.641   3.202   6.818  0.3389  0.3726 -1.4472
 6849SOL    HW232007   1.539   3.278   6.882  1.0733  1.0411  0.3938
 6850SOL     OW32008   4.405   3.323   9.581  0.0594  0.2067  0.2956
 6850SOL    HW132009   4.355   3.278   9.649 -0.8222 -0.1958 -0.6266
 6850SOL    HW232010   4.431   3.408   9.617  2.0658  0.2044 -1.1625
 6851SOL     OW32011   3.400   0.555   8.790 -0.4737  0.1446  0.0890
 6851SOL    HW132012   3.404   0.517   8.702  2.9648  0.5385  0.0604
 6851SOL    HW232013   3.410   0.478   8.845  0.4640 -0.7162 -1.2657
 6852SOL     OW32014   3.219   0.299  12.518 -0.3705  0.3192 -0.6557
 6852SOL    HW132015   3.207   0.204  12.511 -0.7748  0.3169  0.1129
 6852SOL    HW232016   3.275   0.299  12.596 -0.7449 -0.8756 -0.3940
 6853SOL     OW32017   3.433   2.302  16.594  0.1442 -0.5068  0.5162
 6853SOL    HW132018   3.363   2.237  16.597  1.1549 -1.6057  0.2221
 6853SOL    HW232019   3.461   2.292  16.503 -0.7273 -0.9026  0.2941
 6854SOL     OW32020   0.054   2.552  17.190 -0.1465 -0.8003 -0.1039
 6854SOL    HW132021   0.008   2.610  17.251 -0.3524  0.7316 -1.7119
 6854SOL    HW232022   0.116   2.616  17.158 -0.2733  1.2658  3.8208
 6855SOL     OW32023   3.975   1.780  15.147 -0.1042  0.1810  0.1475
 6855SOL    HW132024   3.981   1.781  15.051 -0.7214 -1.0945  0.1007
 6855SOL    HW232025   4.053   1.730  15.170  0.4069  1.3487  0.9376
 6856SOL     OW32026   1.590   1.497  17.275 -0.5721 -0.1592 -0.0905
 6856SOL    HW132027   1.562   1.409  17.301 -1.2692 -0.0950 -0.6282
 6856SOL    HW232028   1.685   1.489  17.282 -0.6030  0.7700  1.3004
 6857SOL     OW32029   1.221   0.587   9.452  0.2036  0.1174  0.2660
 6857SOL    HW132030   1.145   0.543   9.489 -0.4782  1.3373  0.2976
 6857SOL    HW232031   1.260   0.508   9.414  0.5735 -0.3899  1.6845
 6858SOL     OW32032   3.699   4.568   2.471 -0.0785  0.4513  0.3016
 6858SOL    HW132033   3.628   4.592   2.531  0.8630 -1.0898  2.0404
 6858SOL    HW232034   3.653   4.516   2.405  1.4451  1.1461 -1.2925
 6859SOL     OW32035   4.702   4.393   3.091  0.5098  0.3800 -0.2225
 6859SOL    HW132036   4.608   4.373   3.093  0.9175 -1.6002 -0.3203
 6859SOL    HW232037   4.706   4.443   3.173 -0.9191 -2.1740  1.4167
 6860SOL     OW32038   2.019   1.902   5.479  0.2699  0.1848 -0.3393
 6860SOL    HW132039   2.106   1.920   5.442  0.1218  0.6693 -0.4522
 6860SOL    HW232040   2.003   1.973   5.541 -1.2374 -0.8852  0.4851
 6861SOL     OW32041   0.001   2.522   7.120  0.1390  0.3258 -0.2643
 6861SOL    HW132042   4.684   2.585   7.060 -0.8872  0.4148  0.5116
 6861SOL    HW232043   4.647   2.472   7.145  1.0682 -0.6870  0.5836
 6862SOL     OW32044   4.153   0.295  10.077 -0.0024 -0.2135  0.4178
 6862SOL    HW132045   4.065   0.319  10.048 -0.6744  1.6405  3.9845
 6862SOL    HW232046   4.146   0.200  10.084 -0.7292 -0.2686 -0.9223
 6863SOL     OW32047   1.087   3.901   0.735 -0.0653 -0.1353 -0.3966
 6863SOL    HW132048   1.030   3.825   0.719 -0.1928 -0.6069  2.2767
 6863SOL    HW232049   1.021   3.954   0.780  1.8447  0.0613  2.1358
 6864SOL     OW32050   3.835   2.056  16.628  0.2964  0.5358 -0.0661
 6864SOL    HW132051   3.867   2.011  16.549 -0.2290  1.8755 -1.0523
 6864SOL    HW232052   3.755   2.022  16.666  2.0277 -0.2057  2.8597
 6865SOL     OW32053   4.581   3.802   6.325 -0.2571  0.1539 -0.1676
 6865SOL    HW132054   4.497   3.773   6.290 -1.2555  0.2298  2.1585
 6865SOL    HW232055   4.643   3.753   6.271 -2.0823 -0.1557 -2.0322
 6866SOL     OW32056   4.210   2.064  15.151  0.1836 -0.4857  0.5115
 6866SOL    HW132057   4.297   2.104  15.146  0.1934 -0.4125  1.1984
 6866SOL    HW232058   4.255   1.984  15.179  1.8404  1.0015  2.1514
 6867SOL     OW32059   0.294   3.475   4.607 -0.0744  0.4540 -0.1277
 6867SOL    HW132060   0.246   3.405   4.563  0.5066  0.0102 -0.0528
 6867SOL    HW232061   0.287   3.441   4.696 -0.9317 -2.5376 -1.3316
 6868SOL     OW32062   3.444   3.250  17.267  0.1377 -0.1879  0.1455
 6868SOL    HW132063   3.426   3.166  17.224  0.3046 -0.0180 -0.2620
 6868SOL    HW232064   3.476   3.304  17.195 -0.1961 -1.0478 -0.6533
 6869SOL     OW32065   4.621   1.377   1.724 -0.2070  0.1139 -0.6263
 6869SOL    HW132066   4.573   1.375   1.642  0.7983 -0.3767 -1.1932
 6869SOL    HW232067   4.690   1.312   1.713 -0.8612 -0.2929 -2.1720
 6870SOL     OW32068   4.682   4.156  11.061  0.2202 -0.0770 -0.2975
 6870SOL    HW132069   0.033   4.183  11.007  0.8800  0.7638  1.0248
 6870SOL    HW232070   4.685   4.060  11.054  1.7413 -0.0031 -0.4903
 6871SOL     OW32071   4.632   1.279   6.081  0.2749  0.2680 -0.0174
 6871SOL    HW132072   4.701   1.274   6.015  0.0118 -0.1793 -0.2631
 6871SOL    HW232073   4.680   1.243   6.156  2.1468  1.5465 -0.6081
 6872SOL     OW32074   2.826   2.008   7.229 -0.1419  0.0672 -0.3853
 6872SOL    HW132075   2.734   1.981   7.225  0.4476 -1.6310 -2.4245
 6872SOL    HW232076   2.829   1.984   7.321  1.1587 -1.7151 -0.8863
 6873SOL     OW32077   2.619   2.946  12.094  0.0717 -0.1864 -0.8383
 6873SOL    HW132078   2.564   3.003  12.040  0.5375  2.0370  1.0427
 6873SOL    HW232079   2.583   2.862  12.065 -0.9661  0.4989 -1.5500
 6874SOL     OW32080   2.361   1.729  12.926 -0.0528  0.3708  0.0367
 6874SOL    HW132081   2.317   1.810  12.901  1.8005  0.8955 -1.5570
 6874SOL    HW232082   2.291   1.672  12.956 -0.3063  0.1297 -1.0007
 6875SOL     OW32083   0.637   1.070   8.464  0.4794  0.9070 -0.2807
 6875SOL    HW132084   0.581   1.059   8.541  1.4280 -0.5928  0.1942
 6875SOL    HW232085   0.646   1.165   8.470 -1.9259  1.2795 -2.5128
 6876SOL     OW32086   0.622   3.137  14.151 -0.3022  0.4411  0.2035
 6876SOL    HW132087   0.661   3.050  14.145 -3.1002 -0.8509  0.5423
 6876SOL    HW232088   0.568   3.120  14.228 -0.0604  0.1921  0.3134
 6877SOL     OW32089   3.415   0.349   6.432  0.1964  0.0578 -0.1436
 6877SOL    HW132090   3.489   0.388   6.480  1.1547 -1.0522 -0.7286
 6877SOL    HW232091   3.405   0.432   6.385  0.7771  1.2323  1.7760
 6878SOL     OW32092   1.977   1.839  11.900 -0.0729  0.3862  0.1499
 6878SOL    HW132093   2.027   1.847  11.819 -3.5301 -0.0128 -2.0200
 6878SOL    HW232094   2.038   1.887  11.956  0.9797  0.8377 -1.3781
 6879SOL     OW32095   1.947   3.608   8.570  0.0087  0.0088  0.8670
 6879SOL    HW132096   2.009   3.602   8.497 -0.9894 -1.9545  0.1831
 6879SOL    HW232097   1.896   3.528   8.561 -0.6023  0.3180  1.5884
 6880SOL     OW32098   4.119   4.066   0.432  0.0435 -1.0481  0.2955
 6880SOL    HW132099   4.033   4.034   0.404  0.1622 -1.4880  0.4344
 6880SOL    HW232100   4.117   4.035   0.523  0.0580  1.4513  1.1516
 6881SOL     OW32101   2.107   2.586   0.364 -0.0170  0.0062  1.1161
 6881SOL    HW132102   2.148   2.612   0.281  0.1187  0.4986  1.3320
 6881SOL    HW232103   2.162   2.509   0.378  2.4393  1.5168 -0.0791
 6882SOL     OW32104   4.659   2.479  13.859  0.1663  0.4337 -0.2783
 6882SOL    HW132105   4.590   2.436  13.909  1.3249 -0.1934  0.7820
 6882SOL    HW232106   4.699   2.399  13.827  1.4131  0.7964  0.3640
 6883SOL     OW32107   0.973   2.932   8.943 -0.0382 -0.0208  0.2241
 6883SOL    HW132108   0.978   2.877   8.865  1.3619 -0.1980  0.4332
 6883SOL    HW232109   0.955   2.868   9.012 -2.6588 -1.4544 -1.7833
 6884SOL     OW32110   2.501   4.514   6.315 -0.2234  0.4687 -0.1057
 6884SOL    HW132111   2.595   4.501   6.305 -0.2514 -1.1002  1.5258
 6884SOL    HW232112   2.492   4.529   6.409 -0.1173  0.6627 -0.1267
 6885SOL     OW32113   4.276   4.235   9.030  0.4636  0.0408 -0.0222
 6885SOL    HW132114   4.338   4.194   9.090 -1.0612 -2.1469  0.0777
 6885SOL    HW232115   4.298   4.202   8.943  0.2097  2.3847 -0.9768
 6886SOL     OW32116   0.018   0.545   7.580 -0.0812 -0.1958 -0.3825
 6886SOL    HW132117   0.047   0.493   7.655 -2.2954  1.6761  1.7625
 6886SOL    HW232118   0.064   0.501   7.509  0.8048 -0.9534  0.6724
 6887SOL     OW32119   0.949   1.695   2.794  0.1602  0.7253 -0.3123
 6887SOL    HW132120   0.873   1.662   2.745 -0.0610  0.7847 -0.0073
 6887SOL    HW232121   0.916   1.714   2.882 -1.0076 -0.2624 -0.5439
 6888SOL     OW32122   1.540   3.509  16.253  0.1823 -0.0421 -0.0031
 6888SOL    HW132123   1.484   3.509  16.176 -0.5505  0.8692  0.5352
 6888SOL    HW232124   1.611   3.559  16.213  1.6559  0.2315  2.9554
 6889SOL     OW32125   3.762   1.496   3.386 -0.0427  0.4560 -0.4782
 6889SOL    HW132126   3.834   1.502   3.323  0.2342  0.7519 -0.1357
 6889SOL    HW232127   3.789   1.410   3.418  0.1838  0.8264  0.3278
 6890SOL     OW32128   2.106   1.628   5.918 -0.1906 -0.1936 -0.5005
 6890SOL    HW132129   2.071   1.714   5.896  1.7872  0.5633 -0.6477
 6890SOL    HW232130   2.028   1.572   5.919  0.0482 -0.5340 -2.7575
 6891SOL     OW32131   2.994   1.562   2.710 -0.6674  0.7889  0.6923
 6891SOL    HW132132   2.981   1.556   2.805  0.3905  1.5148  0.8824
 6891SOL    HW232133   2.959   1.475   2.689  1.6783  0.3516 -1.3563
 6892SOL     OW32134   1.961   1.929  13.649 -0.0354  0.1614  0.2765
 6892SOL    HW132135   2.034   1.991  13.657 -0.0406  0.6449 -3.3156
 6892SOL    HW232136   1.919   1.957  13.568  2.2869 -0.1658 -1.0427
 6893SOL     OW32137   1.170   1.252   2.962  0.0550 -0.4379  0.3838
 6893SOL    HW132138   1.264   1.251   2.979  0.0180  1.1387  0.6587
 6893SOL    HW232139   1.144   1.312   2.892 -2.8729  1.1825  2.8570
 6894SOL     OW32140   1.590   3.121   5.791  0.4818 -0.3370 -0.2574
 6894SOL    HW132141   1.640   3.119   5.873 -2.4459 -0.3440  1.5093
 6894SOL    HW232142   1.662   3.126   5.727  2.6298 -0.4403  2.1390
 6895SOL     OW32143   0.757   2.530   5.334 -0.4069 -0.1856  0.0019
 6895SOL    HW132144   0.824   2.489   5.388  0.4030  0.9085 -0.1841
 6895SOL    HW232145   0.797   2.522   5.247  1.2098  1.1951  0.6252
 6896SOL     OW32146   4.626   1.747   3.702 -0.1060 -0.0838 -0.1909
 6896SOL    HW132147   4.531   1.750   3.703 -0.0773  0.6989  0.5946
 6896SOL    HW232148   4.655   1.807   3.633  0.7435  0.5982  0.7443
 6897SOL     OW32149   0.341   2.992  17.388  0.2007  0.2162 -0.4864
 6897SOL    HW132150   0.366   2.906  17.421 -1.6908  0.4773  1.5688
 6897SOL    HW232151   0.254   2.993  17.428  0.3233  2.6684 -0.2568
 6898SOL     OW32152   2.955   1.317   5.585 -0.6637 -0.9389 -0.2976
 6898SOL    HW132153   2.999   1.345   5.505  2.5994 -0.2631  1.7304
 6898SOL    HW232154   3.029   1.331   5.645 -1.2240 -2.4922  0.7623
 6899SOL     OW32155   3.655   4.603   7.116 -0.3782 -0.0366  0.4364
 6899SOL    HW132156   3.656   4.657   7.037  1.1135  1.1331  1.2359
 6899SOL    HW232157   3.574   4.556   7.099 -0.1132 -0.1788 -0.4091
 6900SOL     OW32158   1.406   0.606   1.114 -0.6597 -0.2550 -0.1674
 6900SOL    HW132159   1.347   0.678   1.092 -0.4352 -0.4351 -1.3406
 6900SOL    HW232160   1.344   0.534   1.124 -1.8820  0.9634  1.2020
 6901SOL     OW32161   4.630   0.022  13.296 -0.1155  0.1363 -0.5070
 6901SOL    HW132162   4.657   4.713  13.382 -0.5315  4.0408  1.0785
 6901SOL    HW232163   4.559   0.082  13.320  0.5053 -0.2619  2.3913
 6902SOL     OW32164   2.469   1.591  13.278  0.5386  0.2046  0.4378
 6902SOL    HW132165   2.454   1.685  13.278  1.9813  0.4368  0.7610
 6902SOL    HW232166   2.527   1.566  13.350 -0.8857 -2.2980  0.7219
 6903SOL     OW32167   0.817   3.056   4.277 -0.2712 -0.3291  0.5448
 6903SOL    HW132168   0.902   3.099   4.274  0.6225 -2.1269 -0.0902
 6903SOL    HW232169   0.840   2.964   4.290  0.4781  0.0879  2.2175
 6904SOL     OW32170   3.356   4.608   9.632  0.1805  0.1158  0.6326
 6904SOL    HW132171   3.377   4.615   9.725 -0.5854 -0.8092  0.8711
 6904SOL    HW232172   3.330   4.516   9.638 -0.4439  0.1697 -1.3025
 6905SOL     OW32173   1.391   2.667   6.883 -0.5096  0.0929  1.0628
 6905SOL    HW132174   1.345   2.584   6.889 -0.5068 -0.0359 -0.8372
 6905SOL    HW232175   1.389   2.692   6.975  1.3391  0.0083  1.1209
 6906SOL     OW32176   1.864   1.968  12.649  0.2001  1.0373  0.2287
 6906SOL    HW132177   1.787   1.912  12.636 -0.6580  2.2884 -0.1266
 6906SOL    HW232178   1.876   1.996  12.559 -1.2171  1.5451  0.1902
 6907SOL     OW32179   1.090   2.132   3.019 -0.6829 -0.4193 -0.0087
 6907SOL    HW132180   0.996   2.145   3.026 -0.8334 -0.4241 -2.1410
 6907SOL    HW232181   1.106   2.220   2.987 -0.1723 -0.9709 -1.2897
 6908SOL     OW32182   3.010   1.527   7.376  0.0347  0.4652 -0.1032
 6908SOL    HW132183   3.103   1.551   7.379  0.7640 -2.3289 -1.0435
 6908SOL    HW232184   2.980   1.583   7.304  0.6047  0.2383 -0.5126
 6909SOL     OW32185   1.599   3.169  16.800  0.5356 -0.3365 -0.9023
 6909SOL    HW132186   1.675   3.177  16.742 -0.0208 -0.0503 -1.5929
 6909SOL    HW232187   1.552   3.252  16.788  0.5180 -0.6945 -3.2237
 6910SOL     OW32188   0.397   3.988   6.588 -0.1400  0.5293  0.4402
 6910SOL    HW132189   0.411   3.946   6.503 -0.2702  2.0740 -0.3409
 6910SOL    HW232190   0.353   3.920   6.639 -0.8922  0.8998  0.2835
 6911SOL     OW32191   2.047   1.899   3.041 -0.3226  0.0170 -0.5713
 6911SOL    HW132192   2.015   1.813   3.015 -3.0289  0.0676  2.6162
 6911SOL    HW232193   2.063   1.888   3.134 -1.7270  0.5850 -0.2571
 6912SOL     OW32194   3.262   4.213   3.876  0.0740 -0.0485  0.2622
 6912SOL    HW132195   3.350   4.174   3.882  1.2397  2.6182  0.6570
 6912SOL    HW232196   3.275   4.257   3.960  2.9528 -1.4246  0.5688
 6913SOL     OW32197   2.438   4.559   0.380 -0.4986  0.9614 -0.3674
 6913SOL    HW132198   2.488   4.526   0.455 -2.6772 -1.1233  0.1654
 6913SOL    HW232199   2.401   4.637   0.420  0.3927 -0.2467  2.8565
 6914SOL     OW32200   2.626   1.815   5.887  0.3755  0.3196  0.5603
 6914SOL    HW132201   2.562   1.879   5.919 -0.6157 -0.1380 -0.5109
 6914SOL    HW232202   2.708   1.857   5.916  0.7450 -1.7802  2.5530
 6915SOL     OW32203   2.333   4.174   2.798  0.2732 -0.1377 -0.2153
 6915SOL    HW132204   2.382   4.255   2.813 -2.6063  1.8647 -1.8161
 6915SOL    HW232205   2.400   4.109   2.820  1.3121  0.7524 -0.7275
 6916SOL     OW32206   2.724   4.115   2.726  0.2978  0.3392  0.5764
 6916SOL    HW132207   2.819   4.114   2.716  0.0930 -4.0246 -0.8371
 6916SOL    HW232208   2.719   4.209   2.745  1.7009  0.4752  0.2327
 6917SOL     OW32209   3.784   0.559   0.696 -0.0262  0.2447 -0.3343
 6917SOL    HW132210   3.771   0.645   0.734  1.6863  0.0756  0.6417
 6917SOL    HW232211   3.875   0.583   0.681  0.4941 -1.4099  0.1453
 6918SOL     OW32212   3.467   0.290  14.507 -0.0667 -0.5223  0.4921
 6918SOL    HW132213   3.375   0.306  14.486  0.0074  0.1517  0.6856
 6918SOL    HW232214   3.474   0.335  14.591 -0.5575 -2.0888  1.3777
 6919SOL     OW32215   3.447   1.025   1.011 -0.1882 -0.0301  0.0315
 6919SOL    HW132216   3.368   0.973   0.996  0.5797 -1.1440 -0.1515
 6919SOL    HW232217   3.510   0.953   1.006  2.1069  2.1141 -2.0639
 6920SOL     OW32218   1.356   3.703   6.251  0.4961  0.2853  0.1233
 6920SOL    HW132219   1.425   3.711   6.185  1.1443 -2.4388  0.5059
 6920SOL    HW232220   1.316   3.790   6.255  2.2430  1.1143 -0.4501
 6921SOL     OW32221   3.253   0.857   0.436  0.2778 -0.1892  0.1335
 6921SOL    HW132222   3.190   0.800   0.480 -0.1382 -0.1565 -0.4086
 6921SOL    HW232223   3.287   0.794   0.373 -2.4186 -1.0861 -0.4484
 6922SOL     OW32224   4.387   0.743  16.640 -0.1770  0.2327 -0.2991
 6922SOL    HW132225   4.381   0.669  16.579  0.9538  0.1669 -0.3352
 6922SOL    HW232226   4.431   0.703  16.715 -0.4067 -0.7707 -0.6899
 6923SOL     OW32227   1.448   1.950   6.628 -0.6190  0.0873  0.3715
 6923SOL    HW132228   1.386   2.010   6.669  0.4820  0.7632  1.0340
 6923SOL    HW232229   1.523   2.007   6.609 -0.4559 -0.0990  0.4588
 6924SOL     OW32230   4.292   0.775   2.666 -0.5315 -0.0069 -0.3190
 6924SOL    HW132231   4.253   0.863   2.668  1.6785  1.0179 -2.5136
 6924SOL    HW232232   4.285   0.754   2.573  0.6066  0.0604 -0.4160
 6925SOL     OW32233   2.233   3.495  16.544  0.1111 -0.1588 -0.5987
 6925SOL    HW132234   2.256   3.433  16.614 -0.0905  0.2915 -0.1301
 6925SOL    HW232235   2.320   3.513  16.510  1.0681  0.4036  2.0880
 6926SOL     OW32236   2.532   0.624  10.848 -0.0491  0.3393 -0.4728
 6926SOL    HW132237   2.449   0.637  10.800 -0.6680 -1.0716  0.2212
 6926SOL    HW232238   2.587   0.685  10.799  0.4685  0.5106  0.3339
 6927SOL     OW32239   3.421   0.964   5.412 -0.1670 -0.0412  0.3346
 6927SOL    HW132240   3.374   0.894   5.458  2.4256 -2.7705 -1.1183
 6927SOL    HW232241   3.397   1.044   5.459 -2.6338 -1.2529  1.1258
 6928SOL     OW32242   3.485   2.615  14.220 -0.5491  0.3111 -0.2260
 6928SOL    HW132243   3.525   2.530  14.240 -0.2068  0.6477  0.4979
 6928SOL    HW232244   3.559   2.666  14.254 -1.3745  1.6320 -0.4072
 6929SOL     OW32245   2.899   1.737   1.486 -0.2537  0.4259 -0.1924
 6929SOL    HW132246   2.811   1.771   1.469 -0.8204 -0.7129  0.4784
 6929SOL    HW232247   2.901   1.662   1.426  2.0834 -0.6354  1.1915
 6930SOL     OW32248   2.762   0.356   1.996 -0.1557 -0.3335  0.4312
 6930SOL    HW132249   2.827   0.415   2.034 -1.6086  0.9567  0.9279
 6930SOL    HW232250   2.751   0.303   2.075  0.0293  0.2594  0.8601
 6931SOL     OW32251   0.403   0.738  12.453 -0.0379 -0.1696 -0.1267
 6931SOL    HW132252   0.412   0.776  12.365 -0.3480 -3.1993 -1.4680
 6931SOL    HW232253   0.476   0.677  12.449 -0.0590 -0.2594  0.8493
 6932SOL     OW32254   4.499   2.886   4.555  0.1178  0.0466  0.1659
 6932SOL    HW132255   4.411   2.852   4.568  0.5110 -1.3291 -0.8649
 6932SOL    HW232256   4.532   2.824   4.490 -0.6430  0.4460 -0.6093
 6933SOL     OW32257   0.610   0.727   3.051  0.1958 -0.8634 -0.4470
 6933SOL    HW132258   0.681   0.663   3.044  0.6155 -0.0249 -3.9960
 6933SOL    HW232259   0.571   0.717   2.964  0.3583 -2.3184 -0.3601
 6934SOL     OW32260   0.847   0.078   1.359  0.2362 -0.5977 -0.1285
 6934SOL    HW132261   0.774   0.135   1.339  0.2392 -0.5584 -0.0266
 6934SOL    HW232262   0.802   4.719   1.337 -1.1311 -0.1868  1.1968
 6935SOL     OW32263   3.910   2.954  11.089 -0.3611 -0.3346  0.0320
 6935SOL    HW132264   3.967   2.921  11.159  0.3530 -3.2840 -1.9585
 6935SOL    HW232265   3.904   2.877  11.033  1.9814 -0.0014 -0.6495
 6936SOL     OW32266   3.968   0.064  10.667  0.2798 -0.7020  0.6741
 6936SOL    HW132267   3.912   4.713  10.688 -0.2396 -0.6903 -0.7255
 6936SOL    HW232268   3.956   0.119  10.745 -0.4957  0.8739 -0.5716
 6937SOL     OW32269   1.312   4.705   0.417  0.3982 -0.9544  0.0975
 6937SOL    HW132270   1.407   4.714   0.424  0.1273  0.6954  1.7867
 6937SOL    HW232271   1.300   4.621   0.373 -0.6860  0.3279 -2.0875
 6938SOL     OW32272   0.480   1.529   4.925 -0.3006  0.2684  0.3473
 6938SOL    HW132273   0.538   1.552   4.997  0.9442 -3.6432  0.5984
 6938SOL    HW232274   0.515   1.447   4.889  1.4589  0.7720  0.9203
 6939SOL     OW32275   3.164   4.682   8.226  0.2214 -0.6283 -0.2571
 6939SOL    HW132276   3.245   4.709   8.270 -1.0852  0.9942  1.1373
 6939SOL    HW232277   3.117   4.630   8.291 -0.1574  2.9975  2.3806
 6940SOL     OW32278   2.592   3.910  11.722  0.3829  0.2965 -0.0217
 6940SOL    HW132279   2.609   3.935  11.813  0.1748  1.9916 -0.4341
 6940SOL    HW232280   2.611   3.817  11.729 -0.6201  0.1016  0.1110
 6941SOL     OW32281   4.211   2.290   5.553  0.3144  0.1781 -0.3299
 6941SOL    HW132282   4.290   2.244   5.581  1.4291  1.3609 -1.5493
 6941SOL    HW232283   4.259   2.369   5.527  1.5435  0.4956  2.9922
 6942SOL     OW32284   3.140   2.834   9.953  0.3116  0.4449  0.6632
 6942SOL    HW132285   3.225   2.845   9.997 -0.0813  1.4738  1.1567
 6942SOL    HW232286   3.150   2.891   9.878 -1.1575 -0.9667 -0.5987
 6943SOL     OW32287   2.031   3.924   8.430  0.3371 -0.0326  0.1247
 6943SOL    HW132288   1.952   3.918   8.484  0.6061  0.2232  0.5494
 6943SOL    HW232289   2.046   3.832   8.410 -0.3321 -0.9321  3.6922
 6944SOL     OW32290   4.158   3.908   5.777 -0.5069  0.3782  0.3108
 6944SOL    HW132291   4.249   3.891   5.750  0.2824  2.8301  1.3924
 6944SOL    HW232292   4.162   4.001   5.801 -2.9330  0.5213  0.1450
 6945SOL     OW32293   2.866   1.266   7.398 -0.2290 -0.3889  0.4346
 6945SOL    HW132294   2.795   1.231   7.452 -1.6638  1.4852 -0.2597
 6945SOL    HW232295   2.882   1.352   7.436 -2.1896 -0.1342  0.6959
 6946SOL     OW32296   4.238   0.505  13.333 -0.4263 -0.2027  0.1284
 6946SOL    HW132297   4.327   0.494  13.301 -1.7039 -1.4248 -2.9326
 6946SOL    HW232298   4.193   0.536  13.255 -0.8642 -2.1825 -0.4154
 6947SOL     OW32299   2.726   4.095   9.294  0.2722 -0.1788 -0.3170
 6947SOL    HW132300   2.653   4.149   9.263 -0.2921  0.3323  1.9094
 6947SOL    HW232301   2.790   4.166   9.295 -2.2051  2.0803 -0.7003
 6948SOL     OW32302   0.307   2.551   7.823 -0.4067 -0.0494  0.2169
 6948SOL    HW132303   0.358   2.470   7.829 -0.6966 -0.3007 -0.6714
 6948SOL    HW232304   0.361   2.605   7.880 -0.0259  1.5992 -1.7341
 6949SOL     OW32305   3.474   1.787   8.778  0.3167  0.1224 -0.1781
 6949SOL    HW132306   3.538   1.749   8.718  0.5401  0.1545  0.0384
 6949SOL    HW232307   3.529   1.813   8.852 -0.4484 -1.5390  0.9728
 6950SOL     OW32308   2.850   0.284   7.864 -0.1219  0.0618 -0.3280
 6950SOL    HW132309   2.797   0.208   7.839  0.7962  0.6334 -3.9650
 6950SOL    HW232310   2.832   0.281   7.958 -1.3288 -2.0847 -0.6368
 6951SOL     OW32311   3.931   2.777   6.999 -0.6339  0.2335  0.0801
 6951SOL    HW132312   3.893   2.690   7.008 -1.5265  0.6177 -0.0503
 6951SOL    HW232313   4.024   2.754   6.995 -0.8213 -0.8220  2.0333
 6952SOL     OW32314   0.398   4.483   2.991 -0.8300 -0.5901 -0.2612
 6952SOL    HW132315   0.340   4.408   2.977  2.4042 -3.2053  0.3180
 6952SOL    HW232316   0.474   4.462   2.937 -0.5704  1.2128 -0.6105
 6953SOL     OW32317   0.604   2.188   2.007  0.0945  0.7325 -0.5703
 6953SOL    HW132318   0.689   2.165   1.969 -0.7760 -2.0580 -0.8763
 6953SOL    HW232319   0.565   2.103   2.027 -1.3707  1.2737 -1.1056
 6954SOL     OW32320   0.771   1.940  13.033  0.1956 -0.0528 -0.3658
 6954SOL    HW132321   0.761   2.033  13.012  1.4188 -0.1110 -1.1921
 6954SOL    HW232322   0.856   1.937  13.076 -0.6655 -0.0387  1.3454
 6955SOL     OW32323   0.815   4.508   3.638 -0.3454 -0.2300  0.1720
 6955SOL    HW132324   0.736   4.518   3.585  0.2149 -0.4781 -0.7065
 6955SOL    HW232325   0.778   4.485   3.723 -1.3318  0.6423 -0.0263
 6956SOL     OW32326   4.203   1.851   8.873  0.2243 -0.2387 -0.3739
 6956SOL    HW132327   4.208   1.770   8.823 -1.2430 -1.3538  1.2761
 6956SOL    HW232328   4.290   1.884   8.851  1.2583 -0.0148  3.9101
 6957SOL     OW32329   2.977   4.269   2.679  0.1229 -0.1732  0.2923
 6957SOL    HW132330   2.917   4.280   2.606 -0.6304 -0.0623  0.9306
 6957SOL    HW232331   2.974   4.359   2.711 -1.7181 -0.1231 -0.0157
 6958SOL     OW32332   2.047   0.975  12.617 -0.2106  1.0745 -0.2248
 6958SOL    HW132333   2.142   0.990  12.621  0.2393 -1.8705 -0.2123
 6958SOL    HW232334   2.036   0.999  12.525  1.9913  1.1749 -0.4807
 6959SOL     OW32335   1.857   3.339  17.461 -0.0245  0.3559 -0.0060
 6959SOL    HW132336   1.873   3.432  17.448 -1.1416  0.3556 -1.4010
 6959SOL    HW232337   1.918   3.327  17.534  0.5160  5.1483  0.3031
 6960SOL     OW32338   4.019   0.786  11.577 -0.1988 -0.5106 -0.0505
 6960SOL    HW132339   3.928   0.812  11.586 -0.4213 -0.6105 -1.9105
 6960SOL    HW232340   4.069   0.861  11.610 -3.5441  0.2530  3.1660
 6961SOL     OW32341   1.852   2.047   8.707 -0.7827 -0.1992  0.0333
 6961SOL    HW132342   1.762   2.028   8.682 -0.8630  1.4231 -0.8755
 6961SOL    HW232343   1.830   2.114   8.771 -0.6472 -1.1425  1.0772
 6962SOL     OW32344   3.990   0.603   8.443 -0.4427  0.2581 -0.6192
 6962SOL    HW132345   4.030   0.673   8.392  0.7295 -1.0593 -1.4772
 6962SOL    HW232346   4.005   0.523   8.393 -0.1399 -0.7472  1.0689
 6963SOL     OW32347   4.288   2.113   1.368 -0.3324 -0.0876  0.3046
 6963SOL    HW132348   4.269   2.206   1.359 -1.3371 -0.3319 -0.1281
 6963SOL    HW232349   4.205   2.080   1.335  0.5090 -2.5793  0.6888
 6964SOL     OW32350   0.851   3.275   5.383  0.5955  0.1552  0.0787
 6964SOL    HW132351   0.775   3.246   5.333 -0.2091  0.5086  1.0944
 6964SOL    HW232352   0.915   3.280   5.313  1.1454 -0.8388  0.4987
 6965SOL     OW32353   2.632   4.697   4.194 -0.0202 -0.1364  0.3315
 6965SOL    HW132354   2.654   0.067   4.191 -1.9992  0.3074  0.0237
 6965SOL    HW232355   2.576   4.690   4.117  0.3117 -1.1642  0.1777
 6966SOL     OW32356   4.701   1.607  16.965 -0.0842 -0.0271 -0.4671
 6966SOL    HW132357   4.640   1.630  17.035 -0.9885 -1.8517 -0.6295
 6966SOL    HW232358   4.717   1.696  16.934 -1.5753 -0.3835 -2.2879
 6967SOL     OW32359   1.317   2.372  10.207  0.2136 -0.2424  0.2193
 6967SOL    HW132360   1.327   2.360  10.113 -0.3116 -0.1643  0.1529
 6967SOL    HW232361   1.310   2.467  10.205  1.5973 -0.1197  1.1349
 6968SOL     OW32362   3.539   3.055   6.560  0.8264  0.3093 -0.3008
 6968SOL    HW132363   3.618   3.108   6.559  1.7305 -0.9864  1.4190
 6968SOL    HW232364   3.491   3.083   6.638  1.0510 -1.9892  0.6602
 6969SOL     OW32365   0.811   2.425   5.081 -0.1316  0.4796  0.0923
 6969SOL    HW132366   0.743   2.380   5.031  1.2329  0.1854 -1.5106
 6969SOL    HW232367   0.829   2.502   5.027 -0.5861 -0.0295 -0.7875
 6970SOL     OW32368   0.980   3.408   5.904 -0.9049  0.1191 -0.8303
 6970SOL    HW132369   1.000   3.490   5.950  1.2338 -0.8286 -0.1026
 6970SOL    HW232370   1.055   3.352   5.923 -0.2904  1.6674  1.3138
 6971SOL     OW32371   1.684   1.633   9.394 -0.1364  0.2492  0.2574
 6971SOL    HW132372   1.591   1.609   9.399 -0.0879 -0.4925 -2.1984
 6971SOL    HW232373   1.721   1.599   9.312  0.8957  1.6001  0.1781
 6972SOL     OW32374   1.702   4.490   7.515 -0.5024  0.2824 -0.7549
 6972SOL    HW132375   1.702   4.486   7.611  1.4456 -0.6689 -0.7765
 6972SOL    HW232376   1.740   4.404   7.496 -0.4553  0.1503 -0.0667
 6973SOL     OW32377   3.132   3.971   5.469  0.1810 -0.1542 -0.5830
 6973SOL    HW132378   3.185   3.898   5.501  0.0098 -0.0102  0.0310
 6973SOL    HW232379   3.104   3.934   5.385  0.4497 -0.7784 -0.3969
 6974SOL     OW32380   1.686   4.505   8.889 -0.3492 -0.1162  0.0978
 6974SOL    HW132381   1.600   4.498   8.930  2.0393 -0.4955  5.1553
 6974SOL    HW232382   1.677   4.584   8.835 -0.7958 -1.0485 -1.1830
 6975SOL     OW32383   1.044   0.012  14.873 -0.5035  0.5374 -0.5461
 6975SOL    HW132384   1.005   4.677  14.808 -1.0620  0.7204 -0.3807
 6975SOL    HW232385   0.971   0.024  14.934  0.0092  0.2946  0.1268
 6976SOL     OW32386   2.484   2.031   5.977 -0.0893 -0.7199 -0.7486
 6976SOL    HW132387   2.406   2.043   5.922 -0.5727 -0.7245 -0.0721
 6976SOL    HW232388   2.511   2.122   5.984  2.1906 -1.4279 -0.5542
 6977SOL     OW32389   3.357   2.756   1.544 -0.0613  0.0870  0.0503
 6977SOL    HW132390   3.310   2.715   1.471  0.1753 -0.6364  0.3086
 6977SOL    HW232391   3.410   2.687   1.582  1.4341  2.0268  1.4527
 6978SOL     OW32392   3.953   1.444   6.962  0.2829  0.1042  0.0952
 6978SOL    HW132393   4.017   1.483   6.902  1.0351  1.3201  1.6943
 6978SOL    HW232394   4.010   1.375   6.996 -2.8598 -1.0529  3.0804
 6979SOL     OW32395   0.898   4.645   7.410  0.1222 -0.9133 -0.3944
 6979SOL    HW132396   0.940   0.002   7.378 -0.4670 -1.1473 -1.7638
 6979SOL    HW232397   0.887   4.667   7.502  1.6881  3.4256 -1.2733
 6980SOL     OW32398   4.365   0.043   7.832 -0.4648 -0.2363 -0.1749
 6980SOL    HW132399   4.445   4.713   7.842 -0.8123 -0.8054 -0.4207
 6980SOL    HW232400   4.396   0.094   7.757  1.0280  2.2770  2.1589
 6981SOL     OW32401   0.469   0.395   4.307  0.5450  0.1696  0.2751
 6981SOL    HW132402   0.533   0.449   4.261 -1.3159  1.7631 -0.4358
 6981SOL    HW232403   0.522   0.374   4.384 -1.1268 -0.3079  1.3023
 6982SOL     OW32404   1.087   2.241   6.063  0.4378 -0.7197  0.1834
 6982SOL    HW132405   1.096   2.318   6.120 -1.8939 -2.2171  2.6044
 6982SOL    HW232406   1.101   2.277   5.975 -1.0646  0.6090  0.4772
 6983SOL     OW32407   3.357   1.339   1.925 -0.0538  0.2918 -0.0042
 6983SOL    HW132408   3.304   1.410   1.889 -1.2393  0.1759  1.4890
 6983SOL    HW232409   3.404   1.386   1.994 -0.5190 -0.9448  1.1498
 6984SOL     OW32410   1.776   2.883   9.391  0.1894 -0.0454 -0.0672
 6984SOL    HW132411   1.791   2.873   9.485 -0.7139  0.0452  0.0895
 6984SOL    HW232412   1.725   2.804   9.373  3.3580 -1.5904 -2.2503
 6985SOL     OW32413   3.255   3.186   2.731 -0.5339 -0.6285  0.8099
 6985SOL    HW132414   3.313   3.117   2.698 -0.8860  0.0992 -1.2924
 6985SOL    HW232415   3.320   3.256   2.730 -0.8528 -0.3430 -0.1343
 6986SOL     OW32416   3.792   1.620   6.695 -0.1578  0.5347 -0.5681
 6986SOL    HW132417   3.841   1.549   6.653  0.0693  0.6281 -0.4590
 6986SOL    HW232418   3.712   1.571   6.715  0.3582  0.1658  0.5753
 6987SOL     OW32419   1.476   1.880   1.027  0.9270  0.0432 -0.7926
 6987SOL    HW132420   1.526   1.961   1.019 -2.0207  1.7566 -1.6221
 6987SOL    HW232421   1.409   1.898   0.961 -0.4252  0.8968  0.8202
 6988SOL     OW32422   0.790   0.029   8.179 -0.6337  0.2680  0.0143
 6988SOL    HW132423   0.736   4.675   8.197 -1.4089  0.3918 -1.7841
 6988SOL    HW232424   0.878   0.006   8.208 -1.1203 -1.2111  0.3580
 6989SOL     OW32425   1.920   2.954  16.588  0.0626 -0.2233 -0.4319
 6989SOL    HW132426   1.840   2.902  16.593 -1.0563  1.6897  1.3262
 6989SOL    HW232427   1.889   3.043  16.606 -0.1613 -0.4064  0.0643
 6990SOL     OW32428   1.657   0.785   3.669 -0.0712  0.3173 -0.0764
 6990SOL    HW132429   1.678   0.879   3.670 -0.2500  0.3472  0.7822
 6990SOL    HW232430   1.738   0.753   3.707  0.7694  1.3863 -0.9760
 6991SOL     OW32431   3.711   1.734   5.993 -0.3091 -0.4243 -0.0498
 6991SOL    HW132432   3.785   1.794   5.984 -0.3494 -0.6084 -1.6100
 6991SOL    HW232433   3.719   1.673   5.919 -4.6336 -0.2113 -0.6947
 6992SOL     OW32434   3.816   3.737   5.509 -0.1978 -0.0015  0.5343
 6992SOL    HW132435   3.898   3.784   5.524  0.4261 -0.9059 -0.0411
 6992SOL    HW232436   3.804   3.687   5.589  1.1339 -0.9938  0.1232
 6993SOL     OW32437   4.517   2.587   6.873  0.4645  0.0223  0.3661
 6993SOL    HW132438   4.450   2.566   6.809  1.7829  0.1207 -1.0537
 6993SOL    HW232439   4.565   2.648   6.818 -2.2067  2.4871  0.7835
 6994SOL     OW32440   3.185   0.646   5.912 -0.2996 -0.3378  0.1556
 6994SOL    HW132441   3.267   0.631   5.865  0.7043  1.2141  1.3975
 6994SOL    HW232442   3.213   0.688   5.994 -0.2310 -0.6769  0.3034
 6995SOL     OW32443   1.597   1.289  16.790 -0.4536 -0.4350 -0.1632
 6995SOL    HW132444   1.564   1.329  16.870  4.5392  0.0597  1.5925
 6995SOL    HW232445   1.521   1.314  16.737  0.3670 -0.6483 -1.4310
 6996SOL     OW32446   0.677   2.438   5.624 -0.2981 -0.2045  0.3523
 6996SOL    HW132447   0.601   2.493   5.606  0.0121 -0.1475 -0.8413
 6996SOL    HW232448   0.642   2.359   5.581  0.8852 -1.0313  0.9201
 6997SOL     OW32449   2.741   3.195   4.638 -0.9622 -0.0067 -0.2511
 6997SOL    HW132450   2.726   3.195   4.732  1.4949 -1.9226  0.1472
 6997SOL    HW232451   2.694   3.273   4.608 -0.2358  1.0434  1.4023
 6998SOL     OW32452   0.327   1.553   3.269  0.0171 -0.3755 -0.7285
 6998SOL    HW132453   0.268   1.617   3.228  1.6617 -0.4300 -3.1521
 6998SOL    HW232454   0.403   1.610   3.282  0.1197 -0.6220 -0.2282
 6999SOL     OW32455   2.890   1.565   2.303 -0.1621 -0.2678 -0.1449
 6999SOL    HW132456   2.829   1.633   2.331  0.4280  1.6214 -3.4998
 6999SOL    HW232457   2.853   1.496   2.358 -0.6806  0.7600  0.7948
 7000SOL     OW32458   4.043   3.670  12.792 -0.3215  0.1256  0.7982
 7000SOL    HW132459   3.968   3.618  12.820 -0.3868  0.3290  0.9998
 7000SOL    HW232460   4.009   3.729  12.726 -1.0984  1.3009  2.2565
 7001SOL     OW32461   1.938   0.281   7.614 -0.7362 -0.4326 -0.4610
 7001SOL    HW132462   1.858   0.238   7.583 -1.2091 -0.8916  1.4393
 7001SOL    HW232463   1.913   0.291   7.706 -0.7967  0.0179 -0.5281
 7002SOL     OW32464   3.224   1.204  11.663  0.1139 -0.0117 -0.4066
 7002SOL    HW132465   3.202   1.131  11.605 -2.1981  0.0172  0.4215
 7002SOL    HW232466   3.303   1.238  11.622  2.1223 -1.5064  2.2206
 7003SOL     OW32467   3.738   3.713   4.654 -0.3703 -0.4401  0.0530
 7003SOL    HW132468   3.812   3.700   4.714  0.2809 -0.6159 -0.7857
 7003SOL    HW232469   3.662   3.729   4.710 -0.8602 -0.0843 -0.7150
 7004SOL     OW32470   1.455   2.815   5.552 -0.2716 -0.1102  0.1823
 7004SOL    HW132471   1.411   2.899   5.563  0.3069  0.1626  0.3999
 7004SOL    HW232472   1.457   2.810   5.457  0.2305 -0.8785  0.2330
 7005SOL     OW32473   0.226   3.426  12.990  0.0872 -0.4286 -0.2212
 7005SOL    HW132474   0.228   3.331  12.985  0.2461 -0.4183 -0.3443
 7005SOL    HW232475   0.151   3.453  13.043  1.3586  0.4300  1.1340
 7006SOL     OW32476   4.257   1.969   1.597  0.4864 -0.1786 -0.0897
 7006SOL    HW132477   4.287   1.893   1.548  0.9107 -0.0549 -0.0159
 7006SOL    HW232478   4.265   2.033   1.526  2.1311  0.6033  0.8208
 7007SOL     OW32479   2.966   4.660   5.368 -0.1618  0.3761  0.4243
 7007SOL    HW132480   2.927   4.720   5.432 -3.8892 -0.6985 -0.8410
 7007SOL    HW232481   3.003   4.598   5.431 -2.1266  0.4176  1.6154
 7008SOL     OW32482   1.407   2.733   8.907 -0.3441  0.4801 -0.4673
 7008SOL    HW132483   1.472   2.669   8.934 -1.0276 -0.4572 -1.0668
 7008SOL    HW232484   1.391   2.782   8.988  0.3710 -0.3692  0.1785
 7009SOL     OW32485   0.172   0.116   7.036 -0.5439  0.2004  0.2946
 7009SOL    HW132486   0.254   0.112   7.085 -0.4636 -0.9795  0.0827
 7009SOL    HW232487   0.121   0.173   7.093 -1.4545  0.3183 -0.6348
 7010SOL     OW32488   3.270   0.221   7.816 -0.8556 -0.2624  0.3325
 7010SOL    HW132489   3.319   0.194   7.893 -2.0310 -0.3139  1.0692
 7010SOL    HW232490   3.344   0.255   7.766 -0.5128 -1.4070  0.0667
 7011SOL     OW32491   0.728   0.761  10.269 -0.1032  0.3370 -0.6900
 7011SOL    HW132492   0.717   0.674  10.233 -1.2462  0.2034 -0.0189
 7011SOL    HW232493   0.818   0.783  10.244 -0.6120  1.4468 -1.5506
 7012SOL     OW32494   3.871   1.556   4.911 -0.1740 -0.1669 -0.6205
 7012SOL    HW132495   3.822   1.637   4.904 -0.7958 -0.4271  0.6703
 7012SOL    HW232496   3.947   1.597   4.954 -2.2306  2.4422  0.5228
 7013SOL     OW32497   2.387   1.505   8.892  0.1539  0.6809  0.0498
 7013SOL    HW132498   2.415   1.593   8.866  2.1963  0.4567  1.5384
 7013SOL    HW232499   2.311   1.492   8.834  1.1562 -1.2040 -0.8409
 7014SOL     OW32500   0.576   1.891   8.378 -0.6764  0.2247 -0.4864
 7014SOL    HW132501   0.622   1.917   8.458  0.5518  2.4195 -1.8968
 7014SOL    HW232502   0.651   1.888   8.318  1.3708 -0.4029  2.0946
 7015SOL     OW32503   0.975   0.590   8.784  0.4115  0.5009  0.1483
 7015SOL    HW132504   0.952   0.520   8.722 -0.4895  0.9329 -0.0005
 7015SOL    HW232505   0.892   0.604   8.830 -0.0473 -1.4268 -0.0909
 7016SOL     OW32506   4.609   0.177   9.385  0.1155 -0.0130 -0.3984
 7016SOL    HW132507   4.705   0.184   9.386  0.0684  0.1328  2.8854
 7016SOL    HW232508   4.612   0.134   9.300  1.2747  0.0196 -0.3770
 7017SOL     OW32509   3.402   4.024   9.891  0.4275  0.3333  0.4680
 7017SOL    HW132510   3.396   3.941   9.938  0.2593  0.3525  0.4801
 7017SOL    HW232511   3.391   4.090   9.959 -0.4934  1.5871 -0.8945
 7018SOL     OW32512   2.988   4.125   4.551  0.2857 -0.6344 -0.4144
 7018SOL    HW132513   3.012   4.218   4.557  0.8591 -0.7824 -0.3910
 7018SOL    HW232514   2.901   4.122   4.512 -0.2716  1.7293  0.6567
 7019SOL     OW32515   2.294   1.396   6.545 -0.8439 -0.4800 -0.1547
 7019SOL    HW132516   2.200   1.412   6.532 -0.3615  1.6901 -0.8108
 7019SOL    HW232517   2.290   1.300   6.541  3.1910 -0.6737  1.0963
 7020SOL     OW32518   4.708   0.091   1.849  0.2124 -0.0076  0.0480
 7020SOL    HW132519   0.023   0.046   1.925  0.3599 -2.9673 -1.8144
 7020SOL    HW232520   0.056   0.078   1.786 -0.8232 -5.0958 -0.0014
 7021SOL     OW32521   1.378   0.120   2.081  0.4260  0.5347  0.3684
 7021SOL    HW132522   1.441   0.159   2.020 -0.2108 -0.8912 -1.2231
 7021SOL    HW232523   1.408   0.035   2.114 -0.7675 -0.1555 -0.3399
 7022SOL     OW32524   0.450   0.337   5.344  0.2922  1.0204  0.2297
 7022SOL    HW132525   0.402   0.371   5.419  1.3969  1.2159  0.8519
 7022SOL    HW232526   0.410   0.381   5.269 -0.8200  1.0688  0.8645
 7023SOL     OW32527   3.502   4.232   5.835  0.4118  0.6357 -0.5925
 7023SOL    HW132528   3.442   4.190   5.775  0.6459 -0.2940 -0.1692
 7023SOL    HW232529   3.527   4.151   5.880 -0.9593  0.7589  0.4070
 7024SOL     OW32530   2.356   4.314  16.714 -0.4089 -0.2930 -0.3030
 7024SOL    HW132531   2.389   4.225  16.727  1.3981  0.1416 -2.0206
 7024SOL    HW232532   2.301   4.319  16.793  1.1510  0.7707  0.7063
 7025SOL     OW32533   2.019   0.487  16.677  0.1076 -0.7353  0.0924
 7025SOL    HW132534   2.065   0.558  16.632  0.2012 -0.5882  0.4224
 7025SOL    HW232535   1.992   0.544  16.749 -0.0093  0.0138 -0.5489
 7026SOL     OW32536   0.450   0.842   7.083  0.2060 -0.1125  0.3789
 7026SOL    HW132537   0.434   0.921   7.031 -2.1199  0.5426  2.0860
 7026SOL    HW232538   0.532   0.867   7.125  1.0726 -1.8034 -0.3013
 7027SOL     OW32539   1.217   0.074   4.501  0.1206  0.7695 -0.0152
 7027SOL    HW132540   1.224   0.109   4.590 -2.2191 -1.3233  1.0059
 7027SOL    HW232541   1.307   0.061   4.471  0.3253  2.5992 -0.2086
 7028SOL     OW32542   3.864   1.153   5.083  0.7923 -0.0889 -0.0957
 7028SOL    HW132543   3.909   1.220   5.032  3.0505 -0.7017  1.0781
 7028SOL    HW232544   3.898   1.166   5.171 -0.1525  2.4822 -0.1258
 7029SOL     OW32545   0.907   3.228  12.180 -0.1570 -0.1785  0.0486
 7029SOL    HW132546   0.878   3.141  12.151 -1.2038 -0.0791  0.8148
 7029SOL    HW232547   0.956   3.208  12.260  0.8705 -0.3166 -0.6155
 7030SOL     OW32548   2.583   0.553   9.745  0.0183  0.5758  0.6095
 7030SOL    HW132549   2.545   0.469   9.770  2.9876 -0.4878  1.5639
 7030SOL    HW232550   2.660   0.550   9.802  0.1751  0.0805  0.3817
 7031SOL     OW32551   3.242   1.582  16.433 -0.0137 -0.4569  0.2504
 7031SOL    HW132552   3.172   1.526  16.401  0.2773 -0.1134 -1.0021
 7031SOL    HW232553   3.279   1.518  16.493  0.3486 -0.6074 -0.1324
 7032SOL     OW32554   2.770   0.291   2.598 -0.1785  0.2502  0.1172
 7032SOL    HW132555   2.857   0.300   2.635 -0.6856 -0.9126  1.5639
 7032SOL    HW232556   2.740   0.377   2.569 -0.8222 -0.0858 -0.2160
 7033SOL     OW32557   0.213   4.116  13.509  0.0155 -0.0133  0.8775
 7033SOL    HW132558   0.161   4.121  13.429 -0.8951 -0.9339  1.4058
 7033SOL    HW232559   0.150   4.151  13.572 -0.4715 -0.4284  0.6169
 7034SOL     OW32560   1.446   4.316   7.765 -0.0434 -0.1171  0.3243
 7034SOL    HW132561   1.365   4.321   7.814  1.0307  2.1525  1.8585
 7034SOL    HW232562   1.505   4.387   7.790  1.7393 -0.9555 -1.4465
 7035SOL     OW32563   1.333   4.248   6.212 -0.1642 -0.0046  0.8031
 7035SOL    HW132564   1.359   4.332   6.173 -0.2706 -0.4184 -0.1687
 7035SOL    HW232565   1.409   4.232   6.268  0.3187 -0.6982 -0.0372
 7036SOL     OW32566   0.038   2.362   2.120  0.1420 -0.4005  0.0322
 7036SOL    HW132567   0.115   2.330   2.166  0.5690 -0.9915 -1.1014
 7036SOL    HW232568   4.694   2.350   2.187 -1.3218  1.8905 -1.0128
 7037SOL     OW32569   4.502   3.386   6.936 -0.3582  0.1524 -0.2067
 7037SOL    HW132570   4.451   3.464   6.956  0.8358  1.7242 -3.2616
 7037SOL    HW232571   4.555   3.375   7.015 -0.0334 -1.1276 -0.6043
 7038SOL     OW32572   0.625   3.188  14.456  0.3361 -0.0860  0.5432
 7038SOL    HW132573   0.650   3.161  14.544  0.9600 -0.7963  0.1519
 7038SOL    HW232574   0.664   3.275  14.447 -1.3654  0.7676  1.4779
 7039SOL     OW32575   0.029   1.132   2.771 -0.2236 -0.1826  0.1091
 7039SOL    HW132576   0.078   1.165   2.696 -1.7209  0.9037 -0.3782
 7039SOL    HW232577   4.689   1.200   2.793 -1.1868 -0.3694 -2.0488
 7040SOL     OW32578   3.046   2.660   5.694 -0.2065 -0.4465  0.2521
 7040SOL    HW132579   2.954   2.637   5.680 -0.4274  1.1931 -0.8733
 7040SOL    HW232580   3.065   2.733   5.636  4.0528 -0.9422  1.0012
 7041SOL     OW32581   3.409   3.271  15.018 -0.2765  0.0170 -0.0205
 7041SOL    HW132582   3.457   3.208  14.963 -0.8635  0.2088 -0.7612
 7041SOL    HW232583   3.322   3.266  14.979  1.5714 -0.6090 -4.1903
 7042SOL     OW32584   2.105   2.874  10.847 -0.4810  0.6655  0.1381
 7042SOL    HW132585   2.044   2.805  10.870  0.5353 -0.0233  0.7816
 7042SOL    HW232586   2.045   2.946  10.866  0.0641  1.0765  0.3021
 7043SOL     OW32587   3.034   1.097   8.244  0.0717  0.4976  0.2009
 7043SOL    HW132588   3.021   1.113   8.337 -0.5445 -1.3334  0.4267
 7043SOL    HW232589   3.094   1.022   8.239 -0.1277  0.4136 -0.9841
 7044SOL     OW32590   2.005   0.872   4.643 -0.0469 -0.1159 -0.4740
 7044SOL    HW132591   1.950   0.813   4.694  1.2532 -0.0215  1.0238
 7044SOL    HW232592   2.055   0.819   4.581 -0.1236  0.4599 -1.0339
 7045SOL     OW32593   3.551   0.091   3.193 -0.3210 -0.3857  0.0200
 7045SOL    HW132594   3.540   0.048   3.278 -0.9443  0.0090  0.1352
 7045SOL    HW232595   3.647   0.092   3.189 -0.2738 -0.4699  0.9808
 7046SOL     OW32596   0.816   0.895   4.107  0.6732  0.0402  0.0975
 7046SOL    HW132597   0.869   0.848   4.043 -1.1178 -0.1511 -1.2312
 7046SOL    HW232598   0.874   0.899   4.183 -0.6664 -1.3913  1.1976
 7047SOL     OW32599   4.211   1.861   8.483 -0.4030 -0.9392  0.5895
 7047SOL    HW132600   4.289   1.806   8.485  1.7627  2.0958 -0.1041
 7047SOL    HW232601   4.250   1.940   8.520  0.1281 -0.9384  0.0296
 7048SOL     OW32602   1.634   3.337   4.798 -0.3373 -0.1805  0.4386
 7048SOL    HW132603   1.655   3.429   4.778 -1.0490  0.0653  0.8310
 7048SOL    HW232604   1.657   3.293   4.716 -1.3443  0.0756  0.0148
 7049SOL     OW32605   3.122   3.397   2.423  0.4649  0.2282  0.2764
 7049SOL    HW132606   3.179   3.437   2.488  1.4056  1.1700 -1.1445
 7049SOL    HW232607   3.086   3.333   2.484  1.8917  0.3241  1.2090
 7050SOL     OW32608   0.293   1.160   4.910 -0.4739  0.2980 -0.0787
 7050SOL    HW132609   0.347   1.196   4.980 -0.0933  1.0077 -0.7397
 7050SOL    HW232610   0.356   1.105   4.864 -0.1307  0.2632  0.4414
 7051SOL     OW32611   1.486   0.249   9.085 -0.3246  0.6003 -0.0728
 7051SOL    HW132612   1.573   0.282   9.110  0.2756  0.0726 -1.4949
 7051SOL    HW232613   1.449   0.213   9.166 -0.3196  4.6517  1.7641
 7052SOL     OW32614   3.153   3.011   9.743  0.0375  0.1407  0.5564
 7052SOL    HW132615   3.157   3.092   9.694  0.0446  0.0681  0.4370
 7052SOL    HW232616   3.233   2.977   9.704 -0.4184 -1.4883  1.0196
 7053SOL     OW32617   0.149   3.836   6.730  0.1999 -0.6740 -0.4069
 7053SOL    HW132618   0.140   3.741   6.723 -3.5703 -0.2994 -0.9266
 7053SOL    HW232619   0.083   3.861   6.665 -0.2070 -3.3326 -1.0259
 7054SOL     OW32620   2.390   4.078   1.599 -0.2023 -0.9097  0.7365
 7054SOL    HW132621   2.347   4.160   1.624  1.8280  1.1723 -2.6939
 7054SOL    HW232622   2.401   4.035   1.684 -0.4742  1.3954  1.9437
 7055SOL     OW32623   2.910   0.478  15.874 -0.0639 -0.3897 -0.2291
 7055SOL    HW132624   2.921   0.393  15.831 -0.4506 -0.3519 -0.4042
 7055SOL    HW232625   2.994   0.523  15.869  1.1940 -2.6483  0.2142
 7056SOL     OW32626   3.358   2.383   0.284 -0.4142  0.2453 -0.3913
 7056SOL    HW132627   3.354   2.412   0.193 -0.4946 -2.4266 -1.2466
 7056SOL    HW232628   3.445   2.345   0.291 -0.3832  0.3688 -0.1151
 7057SOL     OW32629   3.210   4.587   5.918  0.1221  0.0601  0.2233
 7057SOL    HW132630   3.242   4.518   5.975 -2.5973 -0.4795  1.1095
 7057SOL    HW232631   3.233   4.554   5.831 -2.0780  0.9784 -0.7041
 7058SOL     OW32632   3.909   0.323   2.890  0.6028 -0.1376  0.3285
 7058SOL    HW132633   3.910   0.303   2.984 -0.4602  0.4600  0.4719
 7058SOL    HW232634   4.002   0.328   2.868  0.0295  1.1724 -1.8155
 7059SOL     OW32635   4.155   3.551   3.293  0.6037  0.1055 -0.1827
 7059SOL    HW132636   4.064   3.524   3.279  0.3480 -0.4113  2.4066
 7059SOL    HW232637   4.162   3.633   3.245  0.0079 -0.0818 -0.5911
 7060SOL     OW32638   1.093   4.225   4.391 -0.2858 -0.0885 -0.5200
 7060SOL    HW132639   1.083   4.203   4.483  1.2330 -0.8663 -0.5314
 7060SOL    HW232640   1.188   4.234   4.390 -0.2352 -0.6052 -0.7670
 7061SOL     OW32641   0.688   4.425   7.602  0.3246  0.3826 -0.1410
 7061SOL    HW132642   0.605   4.376   7.601  0.9601 -0.7046  0.7677
 7061SOL    HW232643   0.738   4.393   7.527 -1.0882  1.3092 -1.4859
 7062SOL     OW32644   2.878   4.525   5.879  0.6345 -0.2866  0.0676
 7062SOL    HW132645   2.936   4.472   5.934 -0.9111 -1.5923  0.4183
 7062SOL    HW232646   2.913   4.610   5.906 -1.0505  0.2653  0.4922
 7063SOL     OW32647   2.664   0.739  14.074 -0.4489  0.4090  0.3110
 7063SOL    HW132648   2.652   0.792  13.994  0.3260 -0.2740 -0.2571
 7063SOL    HW232649   2.576   0.738  14.111  0.3386 -0.8519  2.1055
 7064SOL     OW32650   0.165   4.314   0.831 -0.2578  0.2670  0.4397
 7064SOL    HW132651   0.183   4.408   0.840  2.9223 -0.3602  0.6383
 7064SOL    HW232652   0.231   4.279   0.891 -0.5551  1.0811  1.2502
 7065SOL     OW32653   2.125   3.330   5.078  0.0967  0.0069  0.1271
 7065SOL    HW132654   2.076   3.326   5.160  1.4974  0.0120  0.9715
 7065SOL    HW232655   2.168   3.244   5.074  0.9092  0.4943 -1.6642
 7066SOL     OW32656   4.440   1.173   9.220 -0.1139 -0.3089  0.3150
 7066SOL    HW132657   4.447   1.113   9.145  1.9721 -1.2914  1.3004
 7066SOL    HW232658   4.482   1.120   9.288 -0.9604  0.0107  1.0823
 7067SOL     OW32659   0.989   2.823   3.415 -0.0315 -0.2612 -0.6376
 7067SOL    HW132660   0.918   2.767   3.385 -1.2564  1.0656 -0.1777
 7067SOL    HW232661   0.990   2.803   3.509 -1.8058 -0.8658 -0.7537
 7068SOL     OW32662   0.128   4.582   5.720 -0.0899  0.0200  0.1867
 7068SOL    HW132663   0.068   4.551   5.787 -2.0987  0.2012 -1.5310
 7068SOL    HW232664   0.074   4.614   5.647 -0.6214  1.2430  1.1293
 7069SOL     OW32665   3.028   0.778   8.902 -0.2907  0.2005 -0.0443
 7069SOL    HW132666   2.960   0.763   8.968  0.3235  1.4830  0.8760
 7069SOL    HW232667   2.989   0.848   8.851 -0.4411 -0.0484 -0.2733
 7070SOL     OW32668   1.176   0.882  11.778 -0.9734  0.0169 -0.5211
 7070SOL    HW132669   1.245   0.818  11.794 -2.1185 -1.3630 -1.1391
 7070SOL    HW232670   1.210   0.958  11.731  0.5749 -0.3576 -0.0294
 7071SOL     OW32671   1.124   1.366   3.582  0.2925  0.4840 -0.1970
 7071SOL    HW132672   1.208   1.320   3.592  0.0653 -0.0551 -0.7294
 7071SOL    HW232673   1.145   1.408   3.499 -1.0933  1.5035 -0.0265
 7072SOL     OW32674   0.721   0.498   8.890  0.0785 -0.6287  0.0346
 7072SOL    HW132675   0.647   0.492   8.830 -0.1940 -0.5511  0.3625
 7072SOL    HW232676   0.722   0.414   8.935 -0.7574  0.0388  1.3153
 7073SOL     OW32677   1.824   3.020   8.069 -0.6884  0.1854 -0.3047
 7073SOL    HW132678   1.841   2.959   7.997 -1.1702 -1.2936  0.8248
 7073SOL    HW232679   1.866   2.975   8.143 -1.9321  0.1956  0.4116
 7074SOL     OW32680   1.127   0.067   1.274  0.2589 -0.1282  0.7112
 7074SOL    HW132681   1.052   0.116   1.238  0.3418 -0.4227  0.1477
 7074SOL    HW232682   1.161   0.024   1.196 -2.1079  2.8556 -1.9840
 7075SOL     OW32683   2.267   1.335  15.279 -0.3086  0.0963  0.4198
 7075SOL    HW132684   2.346   1.368  15.323 -1.0004 -0.0611  1.7709
 7075SOL    HW232685   2.294   1.244  15.291 -2.4950 -0.6351 -0.3261
 7076SOL     OW32686   0.007   3.107   7.900 -0.1807  0.4698  0.3444
 7076SOL    HW132687   0.012   3.041   7.830  1.8915  0.3180  0.6297
 7076SOL    HW232688   4.637   3.086   7.913 -0.0390  0.7151  1.7136
 7077SOL     OW32689   2.504   1.032  11.573  0.0765  0.0180 -0.4529
 7077SOL    HW132690   2.590   1.030  11.614 -0.1295  0.0641 -0.0167
 7077SOL    HW232691   2.475   0.941  11.582 -1.3858  0.4415 -0.9215
 7078SOL     OW32692   2.852   0.224  11.293 -0.3229 -0.4438  0.8285
 7078SOL    HW132693   2.793   0.240  11.367 -0.9351  0.8032  0.0670
 7078SOL    HW232694   2.813   0.139  11.271  2.5751 -0.4324 -4.5241
 7079SOL     OW32695   2.447   0.062   9.899  0.2509 -0.1603 -0.3867
 7079SOL    HW132696   2.392   0.103   9.832  0.0747 -3.4318 -2.2364
 7079SOL    HW232697   2.385   0.005   9.945 -0.3405  1.6368  1.0546
 7080SOL     OW32698   3.209   0.345  14.375  0.2256 -0.2280  0.2266
 7080SOL    HW132699   3.271   0.416  14.356 -2.9785  2.5406 -0.0132
 7080SOL    HW232700   3.131   0.385  14.336  1.1674 -1.9562 -3.3609
 7081SOL     OW32701   0.634   0.183   7.696  1.2955  0.2828 -0.3637
 7081SOL    HW132702   0.591   0.202   7.613  1.5941 -3.2413 -1.3104
 7081SOL    HW232703   0.604   0.092   7.707 -0.9544  0.9665 -0.7665
 7082SOL     OW32704   3.428   0.390  11.135  0.1506 -0.0114  0.4928
 7082SOL    HW132705   3.460   0.386  11.224  0.5359 -2.5476  0.2344
 7082SOL    HW232706   3.334   0.379  11.152  0.0567  1.4031  0.8360
 7083SOL     OW32707   1.101   0.718   2.740 -0.6287  0.3186 -0.4411
 7083SOL    HW132708   1.127   0.800   2.697 -0.7506  1.1338  1.0035
 7083SOL    HW232709   1.030   0.747   2.797 -0.9252 -1.8500  0.3008
 7084SOL     OW32710   1.091   4.703   5.749 -0.5496 -0.7876 -0.1717
 7084SOL    HW132711   1.168   0.031   5.776 -1.0373 -0.7701  1.2072
 7084SOL    HW232712   1.094   4.712   5.654 -0.7664 -0.8084 -0.1811
 7085SOL     OW32713   4.378   4.329   5.719  0.4890 -0.1269  0.3664
 7085SOL    HW132714   4.471   4.342   5.701  0.5942  1.5614  2.0523
 7085SOL    HW232715   4.337   4.390   5.657  1.0277 -2.2236 -2.0689
 7086SOL     OW32716   4.066   1.146  15.329  0.4586 -0.0968 -0.5019
 7086SOL    HW132717   3.972   1.151  15.313  0.5639  1.2948 -0.7113
 7086SOL    HW232718   4.087   1.099  15.248 -0.5690 -0.6742 -0.4289
 7087SOL     OW32719   3.714   3.439   3.614 -0.4467  0.1636  0.2201
 7087SOL    HW132720   3.722   3.346   3.592 -2.4139  0.2231 -0.7439
 7087SOL    HW232721   3.783   3.453   3.680  0.1516 -1.5234 -0.0605
 7088SOL     OW32722   3.877   1.184  16.738  0.0071  1.0275  0.1355
 7088SOL    HW132723   3.966   1.198  16.707 -0.3487 -1.2754 -1.9713
 7088SOL    HW232724   3.861   1.264  16.787  0.7957  0.9955  0.4490
 7089SOL     OW32725   2.136   3.237   7.326 -0.6040 -0.2116  0.4480
 7089SOL    HW132726   2.161   3.174   7.394 -2.1877  1.8062  2.8876
 7089SOL    HW232727   2.052   3.262   7.364 -2.1732 -1.2526 -2.2950
 7090SOL     OW32728   1.226   2.379   7.066 -0.1899 -0.1679 -0.3581
 7090SOL    HW132729   1.165   2.430   7.119 -1.8040 -1.2685 -1.1904
 7090SOL    HW232730   1.299   2.387   7.129 -1.6309  0.4647  1.2311
 7091SOL     OW32731   0.243   3.071  13.240 -0.3082 -0.0131 -0.2213
 7091SOL    HW132732   0.338   3.076  13.226 -0.2990 -1.4060 -0.7062
 7091SOL    HW232733   0.242   2.979  13.269  0.1921  0.1252  0.2249
 7092SOL     OW32734   2.924   0.085   3.615 -0.2897  0.0154 -0.4173
 7092SOL    HW132735   2.984   0.031   3.667 -3.9503 -1.4788  2.1840
 7092SOL    HW232736   2.933   0.170   3.658  1.3190 -1.2254  1.7169
 7093SOL     OW32737   1.477   3.771   8.149 -0.5509  0.8251  0.2012
 7093SOL    HW132738   1.555   3.780   8.093  1.2173  0.1927  2.5625
 7093SOL    HW232739   1.449   3.681   8.134  1.9440  0.1707 -0.4851
 7094SOL     OW32740   2.848   0.155   5.475 -0.3651 -0.6592  0.3597
 7094SOL    HW132741   2.852   0.187   5.565 -1.8978 -1.5318  0.7399
 7094SOL    HW232742   2.766   0.196   5.446  0.1635  0.2481  0.1314
 7095SOL     OW32743   0.212   4.052  11.191 -0.4567  0.1540 -0.0410
 7095SOL    HW132744   0.212   4.059  11.095  0.3315  2.5996  0.1444
 7095SOL    HW232745   0.152   4.120  11.220 -0.7076 -0.0679 -0.0410
 7096SOL     OW32746   4.161   2.933   8.274  0.3641  0.6831 -0.2911
 7096SOL    HW132747   4.107   2.927   8.353  2.7923  3.5816  1.6073
 7096SOL    HW232748   4.106   2.988   8.218 -0.8623 -1.5397 -1.2285
 7097SOL     OW32749   2.948   4.431   2.225 -0.4456 -0.1037  0.1324
 7097SOL    HW132750   3.025   4.408   2.173 -1.0803  0.0406 -0.8610
 7097SOL    HW232751   2.991   4.499   2.277  0.3244 -1.3520  1.1460
 7098SOL     OW32752   0.597   4.641   7.728  0.2003 -0.7344 -0.0702
 7098SOL    HW132753   0.530   4.580   7.757  0.1175 -0.2942  0.6814
 7098SOL    HW232754   0.647   4.587   7.668 -1.9192 -2.6788 -0.0693
 7099SOL     OW32755   2.633   3.505  10.574  0.0825 -0.4069 -0.4338
 7099SOL    HW132756   2.625   3.412  10.594 -1.8877 -0.2125 -0.3784
 7099SOL    HW232757   2.568   3.501  10.504  0.1138  1.8093 -0.5730
 7100SOL     OW32758   2.102   4.075  15.965  0.0462  0.0168  0.4972
 7100SOL    HW132759   2.034   4.009  15.984  0.9684 -1.4162 -1.2412
 7100SOL    HW232760   2.183   4.026  15.978  0.0847  0.3178  1.4073
 7101SOL     OW32761   3.371   1.089  17.040 -0.3956  0.0854  0.0448
 7101SOL    HW132762   3.395   1.065  17.130  1.2339 -1.1923 -0.7194
 7101SOL    HW232763   3.357   1.182  17.057  0.6648  0.6769 -2.3208
 7102SOL     OW32764   2.758   3.049   5.556 -0.0473 -0.3321  0.1918
 7102SOL    HW132765   2.818   3.118   5.584 -0.6248  0.0550  0.4838
 7102SOL    HW232766   2.681   3.072   5.609 -0.1527  1.1331 -0.5923
 7103SOL     OW32767   1.847   3.811   2.549  0.2632 -0.3277  0.9767
 7103SOL    HW132768   1.828   3.853   2.633 -0.7141  3.1605 -0.9872
 7103SOL    HW232769   1.767   3.839   2.505 -1.0461 -2.6982  1.8148
 7104SOL     OW32770   1.310   1.102   5.725 -0.0017 -0.7684 -0.2377
 7104SOL    HW132771   1.330   1.108   5.632  0.5766 -1.1384 -0.1399
 7104SOL    HW232772   1.277   1.012   5.724  0.1741 -0.8336 -0.2387
 7105SOL     OW32773   0.206   1.888  11.902 -0.0483  0.3442  0.0619
 7105SOL    HW132774   0.258   1.930  11.970  0.8412 -0.3467 -0.1865
 7105SOL    HW232775   0.115   1.903  11.928 -0.1751  0.1484 -0.2720
 7106SOL     OW32776   0.574   4.169   7.888  0.0462 -0.1978 -0.0116
 7106SOL    HW132777   0.613   4.131   7.809  0.2207  1.2708 -0.6288
 7106SOL    HW232778   0.541   4.087   7.925 -0.3276  0.2601  0.6772
 7107SOL     OW32779   0.206   2.658   3.674  0.9057  0.1210  0.0011
 7107SOL    HW132780   0.274   2.592   3.689  1.0299  0.4013  0.6817
 7107SOL    HW232781   0.149   2.647   3.751  2.0169  0.6782  0.8905
 7108SOL     OW32782   1.149   0.755   9.123 -0.1605 -0.1250  0.4112
 7108SOL    HW132783   1.152   0.794   9.036 -1.2837 -1.2231 -0.1105
 7108SOL    HW232784   1.113   0.667   9.112 -0.5677  0.0202  0.6072
 7109SOL     OW32785   2.955   3.319   1.675 -0.1318  0.0578  0.5519
 7109SOL    HW132786   2.995   3.251   1.620  0.0171 -1.3199  2.3733
 7109SOL    HW232787   2.874   3.294   1.720 -1.4976  1.0005 -1.3994
 7110SOL     OW32788   3.007   4.002  12.981  0.5426  0.5659  0.5245
 7110SOL    HW132789   3.049   4.016  13.066 -1.1735 -0.1638  1.4788
 7110SOL    HW232790   2.917   3.999  13.013  0.4176  1.8856  0.3195
 7111SOL     OW32791   4.316   3.736   7.478  0.0090  0.2163  0.4168
 7111SOL    HW132792   4.314   3.822   7.435  1.1735 -0.6265 -1.3085
 7111SOL    HW232793   4.276   3.765   7.560 -0.3248 -0.4471  0.4855
 7112SOL     OW32794   3.728   4.451   0.535 -0.2760  0.3037  0.0173
 7112SOL    HW132795   3.668   4.521   0.509 -1.6906 -0.3223  1.6109
 7112SOL    HW232796   3.751   4.489   0.619 -1.3894 -3.7592  2.1676
 7113SOL     OW32797   4.691   4.680  10.685  0.1502  0.2757  0.3235
 7113SOL    HW132798   4.715   0.047  10.663  4.0904 -0.9501 -0.3763
 7113SOL    HW232799   4.656   4.649  10.602  1.3946  2.2515 -0.9402
 7114SOL     OW32800   3.722   0.281  12.249  0.2411 -0.4923 -0.0515
 7114SOL    HW132801   3.749   0.232  12.327  0.7418 -0.8522 -0.4561
 7114SOL    HW232802   3.809   0.291  12.212  0.6979  2.5251  1.8177
 7115SOL     OW32803   2.936   0.411   3.505  0.1513  0.6166  0.2003
 7115SOL    HW132804   2.983   0.331   3.481  0.6412  0.7290  0.8111
 7115SOL    HW232805   2.987   0.479   3.462 -1.8268  1.4572 -0.8469
 7116SOL     OW32806   3.018   1.579   6.855 -0.0383  0.1473 -0.2225
 7116SOL    HW132807   3.110   1.590   6.879  0.5335 -0.9546 -1.9413
 7116SOL    HW232808   2.999   1.668   6.826  0.0164  0.1725 -0.1822
 7117SOL     OW32809   4.633   1.991   6.756  0.4415 -0.2197  0.2833
 7117SOL    HW132810   4.634   1.903   6.719  0.6151  0.4228 -1.2609
 7117SOL    HW232811   4.558   2.035   6.715  0.0665 -0.6666  0.4930
 7118SOL     OW32812   3.823   1.539   9.522 -0.2825  0.0089 -0.1133
 7118SOL    HW132813   3.898   1.555   9.464  1.6887 -0.6143  2.2556
 7118SOL    HW232814   3.848   1.598   9.593  0.8923 -0.6861  0.0539
 7119SOL     OW32815   3.182   0.573  15.902 -0.0908  0.1796 -0.2772
 7119SOL    HW132816   3.218   0.633  15.968  3.1056 -3.4344  1.2459
 7119SOL    HW232817   3.148   0.630  15.833  0.5740  1.6777  0.6247
 7120SOL     OW32818   2.662   1.251   6.384 -0.3917 -0.5378 -0.0560
 7120SOL    HW132819   2.689   1.196   6.310 -0.5845 -1.2828  0.4232
 7120SOL    HW232820   2.747   1.252   6.428  0.6272  1.0601 -2.0551
 7121SOL     OW32821   0.735   4.722   5.556 -0.4492  0.2383 -0.3434
 7121SOL    HW132822   0.655   4.676   5.578 -1.0562  2.0598  1.2350
 7121SOL    HW232823   0.714   0.084   5.596 -1.5147 -0.1177 -0.1587
 7122SOL     OW32824   3.245   1.911   2.991 -0.3580  0.5126  1.0333
 7122SOL    HW132825   3.254   1.922   2.896 -1.8011  1.4593  1.0188
 7122SOL    HW232826   3.152   1.925   3.009 -0.5744 -2.5849  2.3969
 7123SOL     OW32827   3.844   0.136  10.224 -0.2408  0.5896  0.0355
 7123SOL    HW132828   3.814   0.154  10.135 -0.7821  0.7056  0.2385
 7123SOL    HW232829   3.785   0.066  10.254  0.4605  0.1850  0.4589
 7124SOL     OW32830   4.534   1.455   7.656  0.1226 -0.3197 -0.6656
 7124SOL    HW132831   4.441   1.471   7.638 -0.2420 -2.7102 -0.9403
 7124SOL    HW232832   4.566   1.504   7.580 -1.2942 -0.6556 -1.4725
 7125SOL     OW32833   2.647   0.289  15.938 -0.5449  0.5471 -0.1018
 7125SOL    HW132834   2.721   0.284  15.878  0.4363  0.8783  1.0852
 7125SOL    HW232835   2.601   0.206  15.929 -0.7379  0.8150 -1.6732
 7126SOL     OW32836   3.745   4.518   8.172  0.5541 -0.0518  0.3817
 7126SOL    HW132837   3.825   4.554   8.209  0.3358  0.3940  0.4241
 7126SOL    HW232838   3.778   4.453   8.111  0.1035  1.3215 -1.3182
 7127SOL     OW32839   2.273   3.911   4.758 -0.2082 -0.5842  0.4787
 7127SOL    HW132840   2.286   3.961   4.677 -0.0484 -0.9693  0.2609
 7127SOL    HW232841   2.332   3.959   4.815 -1.3464  0.2160  0.9712
 7128SOL     OW32842   0.389   3.917   6.061 -0.2698 -0.1108 -0.0153
 7128SOL    HW132843   0.478   3.945   6.039 -0.4252 -0.2636 -0.8195
 7128SOL    HW232844   0.349   3.926   5.975 -1.1592 -0.5310  0.3563
 7129SOL     OW32845   0.098   2.369   6.090 -0.0688  0.5599 -0.2206
 7129SOL    HW132846   0.088   2.285   6.045 -2.0651  0.7425 -0.1171
 7129SOL    HW232847   0.118   2.335   6.177 -1.9612  4.0673  1.5759
 7130SOL     OW32848   4.672   1.615   8.776 -0.5015  0.0272 -0.2967
 7130SOL    HW132849   0.014   1.573   8.832 -0.3813  2.4681  1.3926
 7130SOL    HW232850   4.592   1.597   8.824  0.4112 -3.8378 -0.2271
 7131SOL     OW32851   0.176   0.534   6.882  1.1534  0.1923  0.6298
 7131SOL    HW132852   0.242   0.517   6.815 -2.8404  2.2617 -3.8688
 7131SOL    HW232853   0.113   0.599   6.849  0.9177 -0.4193 -0.1184
 7132SOL     OW32854   3.939   2.990   6.270  0.1146  0.4192  0.3459
 7132SOL    HW132855   4.024   3.022   6.241  0.8674 -1.9900 -0.0804
 7132SOL    HW232856   3.972   2.961   6.356 -2.2459 -2.3020  0.3245
 7133SOL     OW32857   2.676   0.983   6.942 -0.3386  0.1143 -0.3146
 7133SOL    HW132858   2.602   0.927   6.919 -0.4517  0.9711 -2.0636
 7133SOL    HW232859   2.632   1.067   6.956 -0.5813 -0.2433  1.0575
 7134SOL     OW32860   2.761   3.839  10.035  0.2268 -0.8893  0.1319
 7134SOL    HW132861   2.838   3.877  10.077  1.0430 -0.1461 -2.0498
 7134SOL    HW232862   2.801   3.761   9.997  1.7005 -0.3025  0.4927
 7135SOL     OW32863   2.836   4.348  12.064  0.2471 -0.3125 -0.4398
 7135SOL    HW132864   2.923   4.311  12.073 -0.7405 -2.5440 -0.0175
 7135SOL    HW232865   2.800   4.283  12.004  0.4745 -1.5636  0.7683
 7136SOL     OW32866   4.661   0.638   6.320 -0.1488  0.2865  0.1909
 7136SOL    HW132867   4.581   0.598   6.285 -0.8242  2.3506 -0.5937
 7136SOL    HW232868   4.632   0.664   6.407 -1.5703 -1.1895  0.1673
 7137SOL     OW32869   4.387   4.386   3.045  0.1736 -0.1873  0.3220
 7137SOL    HW132870   4.424   4.398   2.958  2.2577  0.7735  1.3407
 7137SOL    HW232871   4.331   4.309   3.034  1.8661 -1.4731  0.7317
 7138SOL     OW32872   2.865   1.616  10.737 -0.3715 -0.2192 -0.3125
 7138SOL    HW132873   2.827   1.536  10.774 -3.5248  0.5403 -1.8969
 7138SOL    HW232874   2.833   1.606  10.647  2.8150 -1.2745 -1.3058
 7139SOL     OW32875   0.215   3.945   9.476 -0.2295 -0.2395  0.1416
 7139SOL    HW132876   0.173   3.966   9.560  0.9105  2.2925  0.0827
 7139SOL    HW232877   0.298   3.903   9.498 -1.2594 -2.3746 -0.1046
 7140SOL     OW32878   3.044   3.079   1.559 -0.1032 -0.1221 -0.0678
 7140SOL    HW132879   3.025   3.085   1.466  0.8764  2.6555 -0.0963
 7140SOL    HW232880   3.140   3.074   1.567  0.1794  0.6330 -2.9162
 7141SOL     OW32881   2.393   1.302   5.537 -0.5365 -0.2960  0.2689
 7141SOL    HW132882   2.473   1.255   5.512  0.4898  2.0163 -0.8158
 7141SOL    HW232883   2.429   1.352   5.611  1.6991 -0.6655 -0.5611
 7142SOL     OW32884   2.854   3.853   6.402 -0.0971  0.3990  0.2068
 7142SOL    HW132885   2.889   3.932   6.444 -0.1543  0.9673 -0.7809
 7142SOL    HW232886   2.889   3.793   6.467 -0.8148 -0.9496 -0.6686
 7143SOL     OW32887   4.018   2.808  14.088 -0.5113 -0.4410  0.0777
 7143SOL    HW132888   4.051   2.824  14.000  1.6900  1.9032  1.3051
 7143SOL    HW232889   4.008   2.897  14.124  1.3460  0.4027 -1.4792
 7144SOL     OW32890   2.155   0.109   1.364  0.3945  0.3030 -0.0098
 7144SOL    HW132891   2.159   0.084   1.457  1.8914  1.1174  0.1531
 7144SOL    HW232892   2.233   0.074   1.322 -0.5642 -0.7413 -0.9004
 7145SOL     OW32893   1.102   2.977   4.667  0.3307  0.1184 -0.1378
 7145SOL    HW132894   1.173   2.970   4.604  0.4545  0.6842 -0.0586
 7145SOL    HW232895   1.145   2.926   4.736  0.0759 -0.9962 -0.8045
 7146SOL     OW32896   3.570   2.332   3.443 -0.3879 -0.1809 -0.5228
 7146SOL    HW132897   3.633   2.278   3.395  0.1691  0.0946 -0.0991
 7146SOL    HW232898   3.495   2.348   3.385  0.9488  0.6250 -2.0233
 7147SOL     OW32899   2.057   3.519   2.585  0.5177 -0.6649 -0.1289
 7147SOL    HW132900   2.101   3.604   2.579  0.3538 -0.6812 -1.6579
 7147SOL    HW232901   2.134   3.469   2.557  0.9658 -0.0556  0.0035
 7148SOL     OW32902   3.492   3.434   6.696  0.0040 -0.0938  0.0747
 7148SOL    HW132903   3.554   3.438   6.769 -0.1305  1.5370  0.1063
 7148SOL    HW232904   3.547   3.429   6.618 -0.5031  0.9377 -0.3406
 7149SOL     OW32905   2.200   1.232   4.776 -0.6561  0.3108 -0.5037
 7149SOL    HW132906   2.172   1.244   4.867 -0.4370  0.7746 -0.4979
 7149SOL    HW232907   2.280   1.181   4.777 -0.0775  1.2245  0.0286
 7150SOL     OW32908   1.235   1.757  16.415 -0.0303  0.4815 -0.1066
 7150SOL    HW132909   1.288   1.834  16.436 -0.7727  1.3323 -1.2851
 7150SOL    HW232910   1.277   1.732  16.333 -1.3316 -0.9140 -0.3557
 7151SOL     OW32911   3.814   1.709  16.915  0.3179  0.2907 -0.0883
 7151SOL    HW132912   3.776   1.727  17.001 -1.5002 -2.2198 -0.3727
 7151SOL    HW232913   3.884   1.775  16.910  1.2297 -0.7387 -0.9020
 7152SOL     OW32914   2.085   2.901   1.685  0.5110 -0.0263 -0.6550
 7152SOL    HW132915   2.168   2.932   1.649  0.4155  1.9575  0.8752
 7152SOL    HW232916   2.028   2.972   1.657  0.4978  0.2386  0.0536
 7153SOL     OW32917   0.256   2.685   6.157  0.2143  0.0984 -0.4602
 7153SOL    HW132918   0.237   2.654   6.245  1.5652 -0.3965 -0.3385
 7153SOL    HW232919   0.217   2.772   6.157  0.7463  0.3441 -2.0666
 7154SOL     OW32920   2.076   0.117   6.045 -0.3395 -0.4817 -0.2030
 7154SOL    HW132921   2.041   0.205   6.034  0.1900 -0.3146 -0.5354
 7154SOL    HW232922   2.112   0.118   6.134  1.1533 -3.4433 -0.7489
 7155SOL     OW32923   2.575   2.402   1.977 -0.3142  0.1652  0.5243
 7155SOL    HW132924   2.555   2.313   1.948 -0.0768  0.0586  0.6913
 7155SOL    HW232925   2.488   2.442   1.991 -0.6469 -0.4535  0.2188
 7156SOL     OW32926   0.132   2.809  15.040  0.4595 -0.1133 -0.8930
 7156SOL    HW132927   0.071   2.875  15.007 -0.2737 -0.5404 -0.3874
 7156SOL    HW232928   0.142   2.836  15.132 -1.6011  0.1556 -0.7416
 7157SOL     OW32929   3.412   2.209   1.411  0.4422  0.3378 -0.6272
 7157SOL    HW132930   3.477   2.252   1.355  0.3471  0.0234 -0.9754
 7157SOL    HW232931   3.403   2.128   1.362  0.4992  1.0860 -1.8855
 7158SOL     OW32932   2.860   4.156   9.738 -0.4450  0.4183  0.6027
 7158SOL    HW132933   2.935   4.198   9.697 -1.6847 -0.3618 -2.4693
 7158SOL    HW232934   2.875   4.065   9.713 -0.1553  0.7588 -0.4536
 7159SOL     OW32935   0.165   0.211   9.383  0.4070  0.4450  0.1809
 7159SOL    HW132936   0.182   0.295   9.341 -0.6001  1.3209  1.5205
 7159SOL    HW232937   0.256   0.193   9.406  0.0562 -1.5501  0.0644
 7160SOL     OW32938   0.603   0.158   6.177 -0.3239  0.4286  0.2345
 7160SOL    HW132939   0.559   0.081   6.142 -0.4423  1.3812 -1.7353
 7160SOL    HW232940   0.522   0.208   6.178 -0.0185  0.8549  3.3689
 7161SOL     OW32941   4.567   2.553  13.562 -0.3889 -0.6537 -0.0915
 7161SOL    HW132942   4.554   2.577  13.470 -0.2101 -0.5559 -0.0918
 7161SOL    HW232943   4.612   2.469  13.565  1.2721  0.2485  0.2963
 7162SOL     OW32944   4.419   0.345   6.845  0.1288 -0.1988  0.1588
 7162SOL    HW132945   4.491   0.325   6.904 -0.6342  0.9507  1.4667
 7162SOL    HW232946   4.462   0.323   6.762 -3.1598 -3.2660 -0.7505
 7163SOL     OW32947   1.769   0.683   4.608 -0.5393 -0.4053 -0.4884
 7163SOL    HW132948   1.682   0.655   4.582 -0.6704 -1.1287  0.7550
 7163SOL    HW232949   1.778   0.638   4.692 -0.2573 -1.5489 -1.1305
 7164SOL     OW32950   0.941   2.220  13.442 -0.0183 -0.4444  0.2746
 7164SOL    HW132951   0.958   2.131  13.410 -0.5822  0.4287 -2.3859
 7164SOL    HW232952   0.914   2.273  13.367  2.1077  1.1944  0.6703
 7165SOL     OW32953   2.087   4.108   6.355 -0.1589 -0.7815  0.4194
 7165SOL    HW132954   2.164   4.075   6.403 -0.2312  1.8248  2.3359
 7165SOL    HW232955   2.113   4.194   6.323 -1.0187 -0.9567 -0.7501
 7166SOL     OW32956   1.372   4.258   4.379  0.1802 -0.6112 -0.5827
 7166SOL    HW132957   1.399   4.228   4.292  0.0617  0.5514 -1.0316
 7166SOL    HW232958   1.356   4.350   4.357 -0.4879 -0.3745  0.8776
 7167SOL     OW32959   2.624   4.287   0.552  0.6804  0.0347  0.0719
 7167SOL    HW132960   2.596   4.361   0.605 -0.3556  0.0578 -0.5206
 7167SOL    HW232961   2.558   4.220   0.566 -0.3223  1.2957  1.3865
 7168SOL     OW32962   0.975   4.155   5.616  0.2736  0.5543 -0.0746
 7168SOL    HW132963   0.980   4.245   5.648 -1.0613 -0.1614  2.1731
 7168SOL    HW232964   1.057   4.122   5.652 -0.8786 -0.7404  1.3492
 7169SOL     OW32965   1.476   0.742   9.386 -0.2181 -0.1105 -0.2483
 7169SOL    HW132966   1.518   0.656   9.384 -0.3538 -0.1748 -0.3497
 7169SOL    HW232967   1.385   0.716   9.403  0.1211 -2.4743 -2.0821
 7170SOL     OW32968   0.532   4.721   1.360 -0.1647 -0.3796  0.1507
 7170SOL    HW132969   0.608   0.034   1.407  0.0985  0.8122 -1.1941
 7170SOL    HW232970   0.554   4.628   1.360  2.0541  0.1453 -0.4764
 7171SOL     OW32971   2.361   0.846   9.238 -0.7642  0.4770 -0.7301
 7171SOL    HW132972   2.296   0.846   9.168 -2.5024  0.2340  0.8796
 7171SOL    HW232973   2.346   0.766   9.288 -0.8426  0.9575  0.0276
 7172SOL     OW32974   2.095   1.687   4.303 -0.8392 -0.8729 -0.0120
 7172SOL    HW132975   2.120   1.778   4.287 -0.4369 -0.3216  3.7364
 7172SOL    HW232976   2.180   1.654   4.274 -0.2796  1.0971 -0.5874
 7173SOL     OW32977   3.481   0.702   2.052 -0.6065 -0.6260  0.0934
 7173SOL    HW132978   3.535   0.624   2.056  0.5517  0.1776  0.0808
 7173SOL    HW232979   3.469   0.729   2.144  1.6019 -0.2783  0.2797
 7174SOL     OW32980   1.214   2.134   4.178  0.4803  0.5496  0.1215
 7174SOL    HW132981   1.206   2.064   4.243  1.9788  0.8589  0.6373
 7174SOL    HW232982   1.269   2.192   4.230 -0.0243  0.3341  0.8891
 7175SOL     OW32983   2.844   4.127  11.915  0.1194  0.2973 -0.8003
 7175SOL    HW132984   2.859   4.135  11.821 -0.8676  0.9612 -0.9050
 7175SOL    HW232985   2.921   4.079  11.946  0.8382  2.7434  1.1659
 7176SOL     OW32986   3.660   1.896   5.684  0.0432  0.5771  0.2089
 7176SOL    HW132987   3.692   1.806   5.682  0.1487  0.5728  2.4214
 7176SOL    HW232988   3.649   1.902   5.589 -1.3743 -1.2478  0.2750
 7177SOL     OW32989   3.742   2.892   6.125  0.1615  0.0395 -0.5739
 7177SOL    HW132990   3.826   2.901   6.171 -0.0251 -1.2919  0.0087
 7177SOL    HW232991   3.676   2.901   6.194 -1.6904  0.4645 -2.4039
 7178SOL     OW32992   4.311   3.362   3.382 -0.5750 -0.5557 -0.5198
 7178SOL    HW132993   4.237   3.418   3.360 -0.1618  0.1907 -0.0148
 7178SOL    HW232994   4.353   3.414   3.451  1.0407 -2.3377 -0.1622
 7179SOL     OW32995   3.129   1.731   3.945 -0.2544 -0.0086  0.0710
 7179SOL    HW132996   3.135   1.818   3.906 -4.0333  0.1899 -0.0866
 7179SOL    HW232997   3.213   1.736   3.991  0.3385 -2.0617 -0.7582
 7180SOL     OW32998   4.397   4.332  10.211 -0.3451 -0.2563  0.1653
 7180SOL    HW132999   4.421   4.353  10.302 -1.0225  3.0347 -0.4016
 7180SOL    HW233000   4.321   4.390  10.218  0.3010  0.5444  0.5285
 7181SOL     OW33001   1.097   0.080   5.493 -0.6839  0.5435 -0.7253
 7181SOL    HW133002   1.089   0.174   5.479  0.0069  0.8131  0.6540
 7181SOL    HW233003   1.048   0.047   5.418  0.0323 -1.0408 -0.5069
 7182SOL     OW33004   3.026   0.555  16.827 -0.5592  0.1017  0.0987
 7182SOL    HW133005   2.965   0.603  16.771  1.3344  0.9173 -1.2338
 7182SOL    HW233006   3.064   0.491  16.768 -1.7822 -0.8019  0.2691
 7183SOL     OW33007   4.479   1.873   9.375 -0.0422 -0.0623 -0.2555
 7183SOL    HW133008   4.500   1.949   9.429 -2.1688 -0.1235  0.6499
 7183SOL    HW233009   4.474   1.912   9.287 -1.7869  0.0403 -0.1055
 7184SOL     OW33010   3.741   2.813  15.343 -0.6978 -0.0443 -0.1057
 7184SOL    HW133011   3.832   2.795  15.321 -0.3973  0.1081  1.0276
 7184SOL    HW233012   3.709   2.724  15.331 -0.0238 -0.0848 -1.6844
 7185SOL     OW33013   3.598   3.693   5.305 -0.6556 -0.1924  0.1790
 7185SOL    HW133014   3.673   3.731   5.350  0.4449 -1.5145 -0.5437
 7185SOL    HW233015   3.605   3.747   5.227 -2.5279 -0.5035 -0.1978
 7186SOL     OW33016   3.288   1.173   1.246 -0.0126 -0.0628 -0.1630
 7186SOL    HW133017   3.350   1.237   1.212 -0.2407  0.8716  1.1816
 7186SOL    HW233018   3.335   1.095   1.219  0.2548 -0.7599  2.2866
 7187SOL     OW33019   2.083   4.589   7.356 -0.4721  0.0542 -0.7416
 7187SOL    HW133020   2.166   4.557   7.393 -0.6745  2.0159  1.3792
 7187SOL    HW233021   2.115   4.664   7.305  2.8444  0.8303  2.4695
 7188SOL     OW33022   2.903   2.588   5.383  0.4845 -0.8524  0.3173
 7188SOL    HW133023   2.929   2.553   5.298 -0.8409  1.6966 -1.1581
 7188SOL    HW233024   2.978   2.646   5.400 -0.0326 -0.0533 -0.1016
 7189SOL     OW33025   0.151   0.580   6.122 -0.4644  0.0245 -0.0907
 7189SOL    HW133026   0.082   0.587   6.188  1.2220  0.7031  1.5870
 7189SOL    HW233027   0.220   0.637   6.155  1.4647 -2.4507  0.1829
 7190SOL     OW33028   4.301   1.184   5.111 -0.4592  0.2365 -0.1904
 7190SOL    HW133029   4.355   1.253   5.151  0.9021 -1.4221  0.8769
 7190SOL    HW233030   4.293   1.226   5.026 -5.3626 -0.6500 -0.1849
 7191SOL     OW33031   3.429   1.619  15.588  0.6553  0.4604 -0.1379
 7191SOL    HW133032   3.479   1.562  15.530 -0.6815  0.4441 -1.2632
 7191SOL    HW233033   3.356   1.561  15.605  1.0014 -0.3155 -1.3395
 7192SOL     OW33034   3.331   3.819   5.017 -0.7309  0.0594 -0.4192
 7192SOL    HW133035   3.376   3.744   5.058  0.9060  0.2438 -1.8980
 7192SOL    HW233036   3.326   3.877   5.093  0.2425 -1.3510  0.7207
 7193SOL     OW33037   1.701   0.627  12.186 -0.0082 -0.2700 -0.1776
 7193SOL    HW133038   1.628   0.579  12.146  2.0934 -2.4026 -1.4519
 7193SOL    HW233039   1.750   0.665  12.112 -0.9696 -1.8253 -1.6181
 7194SOL     OW33040   3.061   4.195   7.849  0.7838  0.6492 -0.3094
 7194SOL    HW133041   2.978   4.198   7.801  0.2609  0.9620  0.6305
 7194SOL    HW233042   3.064   4.280   7.891  0.4849 -0.5283  2.0933
 7195SOL     OW33043   4.029   4.603   6.047 -0.5016  0.2369  0.4114
 7195SOL    HW133044   4.117   4.593   6.009  0.0264  0.8856  1.4544
 7195SOL    HW233045   4.044   4.663   6.120  0.6127  1.2851 -0.6988
 7196SOL     OW33046   2.456   0.032   4.893  0.1891 -0.0566 -0.1517
 7196SOL    HW133047   2.528   0.079   4.935 -1.1143  1.4482  0.3757
 7196SOL    HW233048   2.460   4.668   4.934  1.5049 -0.5075 -1.2294
 7197SOL     OW33049   4.712   1.985   7.465 -0.3974  0.0032 -0.0287
 7197SOL    HW133050   0.025   1.907   7.507  0.1906 -0.2202 -0.9369
 7197SOL    HW233051   4.622   1.965   7.488  0.3914 -2.5167  0.9224
 7198SOL     OW33052   1.107   0.782  12.039 -0.2266 -0.2126 -0.2923
 7198SOL    HW133053   1.075   0.815  11.955 -0.6940 -1.0950 -0.4595
 7198SOL    HW233054   1.200   0.772  12.018 -0.1277 -1.2233  0.6392
 7199SOL     OW33055   0.101   4.268   7.106 -0.3920  0.1922 -0.2341
 7199SOL    HW133056   0.117   4.217   7.027  0.1757 -0.3040  0.1986
 7199SOL    HW233057   0.132   4.355   7.084  1.1428 -0.3075 -0.0240
 7200SOL     OW33058   4.231   2.343   3.679 -0.4279  0.1765  0.4330
 7200SOL    HW133059   4.138   2.341   3.654 -0.5584  0.1111  0.9395
 7200SOL    HW233060   4.251   2.250   3.666  2.6678  0.9946 -0.6079
 7201SOL     OW33061   3.482   1.109   4.010  0.3541  0.4590  0.2334
 7201SOL    HW133062   3.542   1.046   3.970 -2.1059 -1.4698 -0.4279
 7201SOL    HW233063   3.451   1.055   4.083  0.2676  0.3895  0.1460
 7202SOL     OW33064   3.552   1.938  17.665 -0.0111 -0.0165 -0.0996
 7202SOL    HW133065   3.513   1.892  17.591  1.9291 -0.6578 -0.7336
 7202SOL    HW233066   3.555   1.875   0.043  2.1425  0.1559 -0.0296
 7203SOL     OW33067   2.622   4.552   0.176 -0.4321 -0.1262 -0.1408
 7203SOL    HW133068   2.542   4.545   0.228 -2.1349  5.3573 -2.0817
 7203SOL    HW233069   2.624   4.646   0.156  0.8166  0.1591  1.2240
 7204SOL     OW33070   0.501   4.694   7.985  0.4981  0.2229 -0.4985
 7204SOL    HW133071   0.544   4.672   7.903  0.0231  0.4637 -0.8132
 7204SOL    HW233072   0.419   0.012   7.956 -0.0272  0.0007  0.6960
 7205SOL     OW33073   3.601   1.427   7.585  0.0050 -0.1609  0.0368
 7205SOL    HW133074   3.552   1.345   7.580  0.2811 -0.1698 -2.7026
 7205SOL    HW233075   3.645   1.419   7.670  1.8539 -2.8044 -1.1712
 7206SOL     OW33076   2.548   3.409   4.568 -0.0014 -0.8385 -0.0148
 7206SOL    HW133077   2.537   3.476   4.636 -0.8362 -0.0110 -0.9565
 7206SOL    HW233078   2.516   3.452   4.488 -3.8356 -1.3478  1.2591
 7207SOL     OW33079   2.765   0.677   4.934 -0.1976  0.3718  0.0503
 7207SOL    HW133080   2.713   0.652   5.009  0.4347 -1.8842 -0.2634
 7207SOL    HW233081   2.833   0.610   4.938  0.9472  1.5462  0.4489
 7208SOL     OW33082   1.805   0.889   9.967 -0.2858 -0.9554 -0.2058
 7208SOL    HW133083   1.873   0.933   9.916 -0.7196 -0.4857 -0.3786
 7208SOL    HW233084   1.851   0.850  10.042  3.1903  0.7903 -1.3949
 7209SOL     OW33085   3.819   4.420   0.967  0.3740  0.0018 -0.0760
 7209SOL    HW133086   3.749   4.355   0.968  0.9963 -0.6461  0.6680
 7209SOL    HW233087   3.821   4.458   1.055 -0.1094 -1.0285  0.3807
 7210SOL     OW33088   4.257   0.362   4.940 -0.0474 -0.4498 -0.1883
 7210SOL    HW133089   4.288   0.274   4.918  0.2263  0.0828 -1.9748
 7210SOL    HW233090   4.336   0.398   4.978  0.2972 -1.7719  0.3274
 7211SOL     OW33091   4.218   0.318  13.539 -0.9188  0.0986 -0.3966
 7211SOL    HW133092   4.207   0.393  13.481 -0.8905 -0.2215 -0.8206
 7211SOL    HW233093   4.286   0.360  13.591 -0.8964 -1.9243  1.2354
 7212SOL     OW33094   2.644   3.017   3.487  0.2023 -0.5795 -0.2643
 7212SOL    HW133095   2.679   2.929   3.500 -1.1609 -1.0552  0.2359
 7212SOL    HW233096   2.719   3.076   3.482  1.4426 -2.1726 -0.4570
 7213SOL     OW33097   1.424   3.752  13.006 -0.1510  0.2132 -0.2127
 7213SOL    HW133098   1.417   3.666  12.966 -1.1098  2.1744 -4.3068
 7213SOL    HW233099   1.495   3.789  12.954  0.5248  0.5794  0.9803
 7214SOL     OW33100   1.511   0.957   4.137 -0.5276 -0.1360  0.2590
 7214SOL    HW133101   1.512   0.944   4.042  1.7961  2.3009 -0.0267
 7214SOL    HW233102   1.495   0.874   4.183  1.3917  0.0241  1.1876
 7215SOL     OW33103   1.514   4.416   8.370  0.0927  0.5020  0.1345
 7215SOL    HW133104   1.477   4.342   8.323  0.0630 -0.2969  1.4257
 7215SOL    HW233105   1.567   4.445   8.296 -0.7074 -2.1884 -1.4998
 7216SOL     OW33106   0.475   4.425   7.846 -0.1021  0.0990 -0.9013
 7216SOL    HW133107   0.387   4.402   7.877 -0.1494 -0.6326 -1.5970
 7216SOL    HW233108   0.520   4.341   7.848  1.0923  0.7659  0.2338
 7217SOL     OW33109   3.695   4.017   4.860 -0.0775  0.2365  0.2290
 7217SOL    HW133110   3.755   4.088   4.883  1.4057 -1.5066  1.7433
 7217SOL    HW233111   3.647   4.047   4.783 -1.3936 -1.9844  0.2150
 7218SOL     OW33112   1.332   1.391  15.089  0.1952 -0.3506  0.2318
 7218SOL    HW133113   1.354   1.459  15.026 -0.8107  1.1470  1.4674
 7218SOL    HW233114   1.245   1.357  15.066 -0.4398 -0.0429  2.1522
 7219SOL     OW33115   2.546   2.285   3.016  0.2942  0.6157 -0.0099
 7219SOL    HW133116   2.565   2.211   2.957 -3.1443 -1.1848  1.1021
 7219SOL    HW233117   2.479   2.333   2.967  0.1813 -0.4596 -0.9103
 7220SOL     OW33118   3.451   3.605   5.115 -0.3870 -0.2297  0.8865
 7220SOL    HW133119   3.493   3.520   5.103 -2.5649 -1.0622 -0.8662
 7220SOL    HW233120   3.468   3.630   5.205  0.4137  2.5664 -0.0505
 7221SOL     OW33121   2.102   0.702  17.117  0.1265  0.3765 -0.1966
 7221SOL    HW133122   2.190   0.731  17.096  0.3080 -0.3032 -0.3726
 7221SOL    HW233123   2.113   0.639  17.189 -0.2317 -0.3915 -0.8036
 7222SOL     OW33124   0.490   1.197   9.875  0.5636  0.0650  0.6721
 7222SOL    HW133125   0.432   1.196   9.799  2.6269 -0.5503 -0.9093
 7222SOL    HW233126   0.428   1.187   9.947 -0.9106  0.5798 -0.5400
 7223SOL     OW33127   4.483   0.998   2.641 -0.3324  0.1947 -0.2969
 7223SOL    HW133128   4.506   0.973   2.730  1.3877 -2.5690 -1.5082
 7223SOL    HW233129   4.566   1.031   2.605  0.3439 -1.0405  0.1019
 7224SOL     OW33130   1.136   2.074  15.314 -0.0335  0.4840 -0.1444
 7224SOL    HW133131   1.120   2.164  15.343 -1.4141  0.4729 -0.8655
 7224SOL    HW233132   1.214   2.056  15.366  0.2406 -1.4884 -1.2238
 7225SOL     OW33133   2.408   0.385   7.945  0.0043 -0.1979 -0.0460
 7225SOL    HW133134   2.382   0.293   7.952 -2.2132  0.3802 -0.8791
 7225SOL    HW233135   2.420   0.396   8.039 -4.2816  1.2655  0.2757
 7226SOL     OW33136   4.425   3.788   3.688  0.0944  0.2371  0.5632
 7226SOL    HW133137   4.520   3.798   3.693  0.0781  0.4799  0.4156
 7226SOL    HW233138   4.395   3.829   3.607 -1.3364  0.5239  1.2360
 7227SOL     OW33139   0.493   4.703  11.080  0.1265 -0.1703 -0.5091
 7227SOL    HW133140   0.490   0.075  11.093  0.0525 -0.4535  1.6375
 7227SOL    HW233141   0.552   4.677  11.151 -0.1097  1.6017  0.3277
 7228SOL     OW33142   0.624   1.593   3.781  0.2730 -0.0132  0.4078
 7228SOL    HW133143   0.622   1.656   3.853 -0.5004  0.1537  0.2405
 7228SOL    HW233144   0.714   1.612   3.753  0.3874  1.3969  1.7499
 7229SOL     OW33145   2.041   0.129   2.919  0.2845 -0.5251  0.4084
 7229SOL    HW133146   1.990   0.151   2.841  0.8618 -0.1002  0.1528
 7229SOL    HW233147   2.011   0.193   2.983 -1.4621 -1.7209  0.8133
 7230SOL     OW33148   1.511   1.367   3.887  0.0473  0.6720  0.1892
 7230SOL    HW133149   1.552   1.389   3.971  1.3294  1.7061 -0.7017
 7230SOL    HW233150   1.581   1.372   3.822 -0.4519  1.6751 -0.2765
 7231SOL     OW33151   2.853   4.709  12.693 -0.7723  0.1198 -0.0116
 7231SOL    HW133152   2.857   0.074  12.731  1.4811 -0.1105  0.2445
 7231SOL    HW233153   2.944   4.685  12.708 -0.7607 -0.4846 -1.0216
 7232SOL     OW33154   3.683   1.437   9.731 -0.3229 -0.2173  0.0392
 7232SOL    HW133155   3.604   1.491   9.725  0.3478  0.6739 -0.8385
 7232SOL    HW233156   3.717   1.449   9.642  0.1185  0.1862  0.2609
 7233SOL     OW33157   1.519   1.817   2.849 -0.1848  0.0603 -0.3844
 7233SOL    HW133158   1.475   1.901   2.864 -1.5475 -0.7549  0.2345
 7233SOL    HW233159   1.479   1.772   2.924  0.0463  0.1197 -0.2251
 7234SOL     OW33160   2.187   4.105   0.882 -0.0276  0.3283  0.2032
 7234SOL    HW133161   2.149   4.116   0.796  0.7246  1.1364 -0.0232
 7234SOL    HW233162   2.223   4.016   0.877 -1.9368 -0.6888  4.2723
 7235SOL     OW33163   0.113   1.903   7.717  0.3564  0.6434 -0.6095
 7235SOL    HW133164   0.037   1.851   7.743  0.3656 -0.2050 -2.2974
 7235SOL    HW233165   0.137   1.951   7.796 -3.2353 -1.5857  1.8288
 7236SOL     OW33166   0.566   4.111  17.613 -0.5461  0.5595  0.0671
 7236SOL    HW133167   0.502   4.129  17.545  0.4336 -1.4100 -1.3733
 7236SOL    HW233168   0.625   4.057  17.560  0.5013  2.8134 -1.0619
 7237SOL     OW33169   0.731   4.136   9.052  0.4603  0.2404 -0.8150
 7237SOL    HW133170   0.826   4.144   9.058  0.3132 -0.3298  2.0546
 7237SOL    HW233171   0.704   4.122   9.142 -2.9950 -0.0710 -1.8980
 7238SOL     OW33172   1.286   1.864   7.249 -0.0095 -0.0483  0.1007
 7238SOL    HW133173   1.281   1.957   7.227  0.8704  0.0522  0.3453
 7238SOL    HW233174   1.359   1.863   7.311  0.2473  1.3773 -0.1724
 7239SOL     OW33175   4.208   3.712   2.247  0.0074 -0.2806  0.4176
 7239SOL    HW133176   4.197   3.653   2.173 -1.6197  1.4406 -0.6681
 7239SOL    HW233177   4.275   3.668   2.300  0.0890 -2.1478 -1.2417
 7240SOL     OW33178   2.952   3.181  13.809 -0.0659  0.3380 -0.3622
 7240SOL    HW133179   2.985   3.271  13.807 -2.2867  1.2199  2.5256
 7240SOL    HW233180   2.999   3.148  13.732 -2.9459  0.7092 -2.2978
 7241SOL     OW33181   3.766   4.517   1.654 -0.4363 -0.4588 -0.4201
 7241SOL    HW133182   3.771   4.574   1.730  0.0142 -2.3651  0.9768
 7241SOL    HW233183   3.855   4.541   1.628 -0.7370  0.1912 -0.8512
 7242SOL     OW33184   1.414   2.878   2.558  0.2326 -0.0110  0.2567
 7242SOL    HW133185   1.448   2.801   2.512 -1.1219 -1.7612  2.1526
 7242SOL    HW233186   1.498   2.915   2.586 -0.8572  1.3409  1.7264
 7243SOL     OW33187   2.641   3.139   0.035 -0.3153  0.1448  0.3160
 7243SOL    HW133188   2.553   3.167   0.063  0.7351  1.1055  2.7036
 7243SOL    HW233189   2.647   3.163  17.636 -1.1642 -1.2839 -0.1122
 7244SOL     OW33190   0.426   1.223   7.652  0.3195  0.0131 -0.3145
 7244SOL    HW133191   0.363   1.214   7.723  0.1625  2.1683 -0.1765
 7244SOL    HW233192   0.500   1.263   7.699 -0.0322  1.5340 -1.0537
 7245SOL     OW33193   3.504   0.033   5.287 -0.5124  0.1131  0.7156
 7245SOL    HW133194   3.538   0.010   5.373  2.3544 -1.0940 -0.7400
 7245SOL    HW233195   3.556   0.107   5.257  1.2744 -1.6039 -0.4099
 7246SOL     OW33196   2.299   2.289   6.893  0.0254 -0.2372  0.0646
 7246SOL    HW133197   2.382   2.322   6.860  0.6769  0.6152  2.5755
 7246SOL    HW233198   2.311   2.304   6.987 -0.7840 -0.0516  0.1418
 7247SOL     OW33199   3.931   2.673  11.544  0.0812  0.2027  0.1513
 7247SOL    HW133200   3.925   2.769  11.536 -1.5861 -0.1231 -2.6882
 7247SOL    HW233201   3.893   2.654  11.629  2.3372 -1.1498  0.8405
 7248SOL     OW33202   0.385   1.959   3.869 -0.0558 -0.2601  0.4634
 7248SOL    HW133203   0.446   1.945   3.796  1.6905  0.6479  1.7487
 7248SOL    HW233204   0.394   1.879   3.921  2.6405  0.2927  0.8715
 7249SOL     OW33205   1.437   1.193   4.407 -0.0915 -0.8852 -0.4421
 7249SOL    HW133206   1.460   1.248   4.482  1.4640 -0.9673 -0.8447
 7249SOL    HW233207   1.411   1.115   4.457  1.4385 -1.8649 -1.1806
 7250SOL     OW33208   3.213   4.176   7.260  0.0317  0.5865 -0.1112
 7250SOL    HW133209   3.128   4.133   7.256 -0.2817  1.3474 -1.8768
 7250SOL    HW233210   3.200   4.249   7.321 -1.1102  0.2030  0.1037
 7251SOL     OW33211   4.464   2.014  14.906 -0.4444 -0.1743  0.5263
 7251SOL    HW133212   4.547   1.973  14.882 -0.6287 -1.5270  2.1778
 7251SOL    HW233213   4.468   2.098  14.860 -0.1439  0.0244  0.9050
 7252SOL     OW33214   0.141   1.529   6.908  0.1478  0.2848 -0.5467
 7252SOL    HW133215   0.173   1.469   6.976  1.3285  0.4170 -1.0005
 7252SOL    HW233216   0.206   1.536   6.838  0.1133  0.2881 -0.5785
 7253SOL     OW33217   0.592   1.586   3.092 -0.5396  0.2851  0.2579
 7253SOL    HW133218   0.590   1.537   3.173  1.7936  0.1339  0.2349
 7253SOL    HW233219   0.595   1.679   3.115 -0.3740 -0.0028  1.4028
 7254SOL     OW33220   3.874   0.514   4.130  0.1322  0.1173 -0.4256
 7254SOL    HW133221   3.950   0.561   4.162 -0.1594  0.6765 -0.5578
 7254SOL    HW233222   3.863   0.439   4.189 -5.2412 -1.1137 -2.9432
 7255SOL     OW33223   0.266   0.995   2.483 -0.4694 -0.3651  0.0059
 7255SOL    HW133224   0.212   1.062   2.524 -2.3548 -0.3598 -2.4885
 7255SOL    HW233225   0.206   0.939   2.433 -1.1082 -1.0888  1.5636
 7256SOL     OW33226   1.388   4.469   2.137 -0.1861  0.3320 -0.4308
 7256SOL    HW133227   1.452   4.525   2.092 -1.1816  1.7379 -0.0947
 7256SOL    HW233228   1.445   4.403   2.177  0.2049  2.2430  2.1535
 7257SOL     OW33229   4.504   0.582  12.043  0.0068 -0.4197 -0.0058
 7257SOL    HW133230   4.592   0.548  12.027  0.8768  1.1779  1.3861
 7257SOL    HW233231   4.519   0.617  12.131 -1.1841 -1.0437  0.4416
 7258SOL     OW33232   0.810   3.502   8.912 -0.0531 -0.6693 -0.3678
 7258SOL    HW133233   0.747   3.496   8.985  1.7526  3.5375  1.5369
 7258SOL    HW233234   0.830   3.595   8.918 -0.7735 -0.5105 -0.3602
 7259SOL     OW33235   0.973   3.247   5.632  0.0947  0.3658  0.3603
 7259SOL    HW133236   0.931   3.239   5.546  0.7127 -1.6496  0.2494
 7259SOL    HW233237   1.046   3.302   5.603  0.2267  1.7292  3.3272
 7260SOL     OW33238   1.210   1.403  14.185 -0.2876 -0.6817 -0.2402
 7260SOL    HW133239   1.115   1.408  14.182 -0.2237  0.8296 -0.0041
 7260SOL    HW233240   1.226   1.425  14.093  1.3831  0.5354  0.3400
 7261SOL     OW33241   0.347   3.029  12.540 -0.0396  0.2510  0.2708
 7261SOL    HW133242   0.389   3.033  12.454 -1.6813 -0.3003 -0.5461
 7261SOL    HW233243   0.415   3.073  12.591 -0.3478  0.1698  0.7551
 7262SOL     OW33244   2.002   3.979   9.668  0.0853  0.4961  0.0249
 7262SOL    HW133245   1.950   3.952   9.744 -4.5059 -0.4338 -3.3712
 7262SOL    HW233246   2.023   4.070   9.686 -1.0546  1.5818 -4.0417
 7263SOL     OW33247   2.318   2.248   5.171 -0.4471  0.3506 -0.0312
 7263SOL    HW133248   2.402   2.238   5.125  0.3739  1.2282  1.2624
 7263SOL    HW233249   2.322   2.338   5.203  2.2477  0.0637  0.4702
 7264SOL     OW33250   2.665   0.646   7.329  0.3195 -0.9557  0.5613
 7264SOL    HW133251   2.696   0.684   7.411  0.5799 -1.6888  0.7996
 7264SOL    HW233252   2.572   0.633   7.348 -0.1567  1.7815  0.0057
 7265SOL     OW33253   0.557   2.104   5.005 -0.0349  0.7387 -0.0419
 7265SOL    HW133254   0.585   2.120   5.095 -1.8444 -0.1012  0.6822
 7265SOL    HW233255   0.601   2.020   4.992 -1.7283 -0.5562  2.4204
 7266SOL     OW33256   0.264   2.207   6.751  0.0349  0.1597  0.0847
 7266SOL    HW133257   0.200   2.167   6.693  1.2518 -0.9295 -0.5052
 7266SOL    HW233258   0.335   2.143   6.746 -1.1072 -0.8707 -2.7420
 7267SOL     OW33259   4.532   0.740   8.992 -0.3796 -0.4639 -0.5254
 7267SOL    HW133260   4.596   0.733   8.921  0.5697  0.0995  0.2710
 7267SOL    HW233261   4.588   0.756   9.068  0.3337 -0.4669 -1.0531
 7268SOL     OW33262   4.169   2.218   5.254  0.0328  0.0657 -0.0574
 7268SOL    HW133263   4.235   2.150   5.265 -0.0518 -0.2266 -1.3457
 7268SOL    HW233264   4.166   2.255   5.343  1.4970 -2.3530  1.0061
 7269SOL     OW33265   2.527   0.269   1.227 -0.1101 -0.5939 -0.6003
 7269SOL    HW133266   2.622   0.270   1.222  0.0508  1.8601  3.1844
 7269SOL    HW233267   2.518   0.327   1.303 -0.4947 -2.0498  0.4500
 7270SOL     OW33268   0.325   2.880   3.597  0.3853 -0.2868  0.6514
 7270SOL    HW133269   0.246   2.934   3.606  1.5502  1.1699  2.1617
 7270SOL    HW233270   0.300   2.796   3.635 -0.8480 -0.5422 -0.7224
 7271SOL     OW33271   3.547   4.434   5.645  0.6916  0.4196  0.1106
 7271SOL    HW133272   3.557   4.360   5.704  2.1542  1.3618  1.0279
 7271SOL    HW233273   3.585   4.508   5.693  2.5656 -0.8737  0.6003
 7272SOL     OW33274   4.370   3.520   6.638 -0.3763  0.2571 -0.5349
 7272SOL    HW133275   4.302   3.454   6.627  0.8719 -1.4903  2.0632
 7272SOL    HW233276   4.316   3.594   6.614  0.6647  1.7010  1.5445
 7273SOL     OW33277   3.790   0.821   2.391 -0.2523  0.1678 -0.2700
 7273SOL    HW133278   3.735   0.870   2.452  1.3958  1.1171  0.4521
 7273SOL    HW233279   3.819   0.756   2.454  1.3841  4.5466  3.4628
 7274SOL     OW33280   3.457   4.615   2.886 -0.4097  0.2842  0.4492
 7274SOL    HW133281   3.502   4.542   2.928  0.2481  1.0335  1.0491
 7274SOL    HW233282   3.393   4.645   2.950  0.0739 -0.9341  1.4961
 7275SOL     OW33283   1.113   0.943   9.751 -0.4984  0.4493 -0.2017
 7275SOL    HW133284   1.150   0.869   9.799 -0.3270 -0.1178 -1.2131
 7275SOL    HW233285   1.193   0.992   9.730  0.8588 -2.0799 -0.8861
 7276SOL     OW33286   2.246   0.115   8.642  1.1762 -0.0382  0.2926
 7276SOL    HW133287   2.169   0.059   8.629 -0.5682  2.5987 -0.6862
 7276SOL    HW233288   2.294   0.105   8.559  0.0462  0.1964 -0.3888
 7277SOL     OW33289   0.150   0.841   7.421 -0.3518 -0.5172  0.2762
 7277SOL    HW133290   0.205   0.877   7.491  0.2068  0.1381 -0.4903
 7277SOL    HW233291   0.112   0.917   7.377  0.9567  0.4579  0.8169
 7278SOL     OW33292   3.290   0.446   1.613  0.2535 -0.0667 -0.0352
 7278SOL    HW133293   3.371   0.475   1.572  1.3293 -0.4777  1.7743
 7278SOL    HW233294   3.312   0.353   1.614 -0.2259 -0.1726  1.7929
 7279SOL     OW33295   4.109   2.177   8.051  0.0077 -0.3914  0.1427
 7279SOL    HW133296   4.124   2.174   8.146  2.2334 -0.1391 -0.1833
 7279SOL    HW233297   4.019   2.209   8.049 -0.1919 -0.8187  1.8028
 7280SOL     OW33298   1.114   1.759  14.959  0.5302  0.3183  0.1285
 7280SOL    HW133299   1.107   1.853  14.946  3.5175  0.5847  0.6066
 7280SOL    HW233300   1.203   1.750  14.924  1.3003  2.6392  1.5105
 7281SOL     OW33301   3.285   3.874   6.378 -0.4413  0.2265 -0.0908
 7281SOL    HW133302   3.264   3.853   6.469 -1.2422 -0.7357 -0.4977
 7281SOL    HW233303   3.208   3.837   6.336  0.6321  0.2065 -2.0072
 7282SOL     OW33304   4.074   0.283   5.630 -0.4043 -0.1509 -0.4064
 7282SOL    HW133305   4.079   0.221   5.557  0.2021 -0.1939 -0.3256
 7282SOL    HW233306   3.978   0.281   5.631 -0.4010 -0.7651 -1.4881
 7283SOL     OW33307   3.137   2.661   2.060  0.1926  0.4056 -0.1607
 7283SOL    HW133308   3.151   2.702   2.145  0.1227  3.3066 -1.5466
 7283SOL    HW233309   3.048   2.624   2.061 -0.0666  1.0652  0.8600
 7284SOL     OW33310   2.797   2.182   8.949 -0.2375  0.3126  0.0525
 7284SOL    HW133311   2.888   2.160   8.966 -0.3972  2.5275  3.8315
 7284SOL    HW233312   2.793   2.275   8.972  0.4580  0.4496 -0.4044
 7285SOL     OW33313   3.028   0.736   6.978  0.0844 -0.1389  0.3958
 7285SOL    HW133314   2.960   0.776   7.032  0.6044 -1.8501  2.3372
 7285SOL    HW233315   3.047   0.661   7.034  0.4459 -0.0578  0.3813
 7286SOL     OW33316   2.557   4.376  16.046 -0.6622  0.1879 -0.0773
 7286SOL    HW133317   2.496   4.386  16.120 -1.3323 -1.2559 -0.4291
 7286SOL    HW233318   2.502   4.315  15.997 -0.4367  1.6896 -2.2041
 7287SOL     OW33319   3.753   4.031   5.417  0.0647  0.1194 -0.3543
 7287SOL    HW133320   3.721   3.957   5.469  2.4716 -1.4998 -1.1631
 7287SOL    HW233321   3.846   4.008   5.418 -0.0299 -0.1307  2.0845
 7288SOL     OW33322   3.249   0.230   3.771  0.5276 -0.0735 -0.0033
 7288SOL    HW133323   3.261   0.289   3.697 -0.5649 -0.1982 -0.2785
 7288SOL    HW233324   3.332   0.240   3.817  1.3888 -0.1103 -1.5515
 7289SOL     OW33325   3.198   1.635   0.884 -0.0670 -0.6280  0.2002
 7289SOL    HW133326   3.289   1.658   0.867 -0.8839  0.4204 -2.8234
 7289SOL    HW233327   3.147   1.698   0.833 -0.4634 -0.5109  0.7561
 7290SOL     OW33328   1.397   4.473  17.690  0.0511  0.0295 -0.0090
 7290SOL    HW133329   1.426   4.540  17.628  1.4943 -1.3224 -0.7780
 7290SOL    HW233330   1.406   4.395  17.637  2.1861  0.3472 -0.0924
 7291SOL     OW33331   2.335   2.786   8.447 -0.0896  0.4648 -0.6111
 7291SOL    HW133332   2.368   2.874   8.428  1.2263  0.5581  1.9980
 7291SOL    HW233333   2.413   2.737   8.473  2.0376  3.2381 -1.7707
 7292SOL     OW33334   1.938   0.992   2.626  0.0497  0.6440  0.3328
 7292SOL    HW133335   1.984   0.935   2.688 -0.3977  1.1646  1.1536
 7292SOL    HW233336   2.012   1.024   2.574 -1.0610 -1.0517 -2.2454
 7293SOL     OW33337   1.338   2.157   3.339  0.0435  0.7419  0.5152
 7293SOL    HW133338   1.415   2.138   3.285 -0.2261  2.1641 -0.3646
 7293SOL    HW233339   1.297   2.070   3.332  1.4904  0.1410 -0.4855
 7294SOL     OW33340   3.269   0.725   2.904  0.4585  0.0055  0.1030
 7294SOL    HW133341   3.345   0.769   2.942  2.7378 -1.2999 -2.9415
 7294SOL    HW233342   3.196   0.778   2.938  1.2221 -0.6110  2.7033
 7295SOL     OW33343   3.921   0.697  13.335 -0.2621  0.5587 -0.3975
 7295SOL    HW133344   3.926   0.610  13.373  2.8413  0.3061 -1.4006
 7295SOL    HW233345   4.008   0.735  13.341  1.4568 -3.2112 -1.7114
 7296SOL     OW33346   0.901   3.426   2.760  0.2948  0.0478 -0.1244
 7296SOL    HW133347   0.888   3.434   2.854  1.7883  0.1351  0.0769
 7296SOL    HW233348   0.859   3.347   2.726  2.7037 -1.1056 -0.3781
 7297SOL     OW33349   2.319   4.625   6.770 -0.1634 -0.4051 -0.3176
 7297SOL    HW133350   2.398   4.622   6.717  0.7406 -0.0952  1.0100
 7297SOL    HW233351   2.257   4.657   6.705 -3.1943 -0.1029  2.6891
 7298SOL     OW33352   3.643   0.309   6.255  0.1846 -0.3253  0.1929
 7298SOL    HW133353   3.587   0.254   6.199 -0.7414 -2.3755  3.1422
 7298SOL    HW233354   3.585   0.380   6.281 -2.3433 -1.0125 -3.5951
 7299SOL     OW33355   2.662   3.963  12.008 -0.6462  0.0719  0.3923
 7299SOL    HW133356   2.731   4.019  11.972 -1.5386  0.7157 -0.3121
 7299SOL    HW233357   2.652   3.999  12.096 -1.3334 -0.3302  0.4755
 7300SOL     OW33358   4.007   0.931   5.409 -0.3232  0.2036 -1.0159
 7300SOL    HW133359   3.950   0.868   5.366  0.3805 -1.3518  0.3299
 7300SOL    HW233360   3.950   0.953   5.482  0.7924 -1.8257  0.4608
 7301SOL     OW33361   3.116   2.947  15.331  0.0857 -0.2122 -0.0738
 7301SOL    HW133362   3.027   2.959  15.298 -0.8038 -0.5107  2.2373
 7301SOL    HW233363   3.165   3.000  15.268 -0.2531 -0.9590 -0.9634
 7302SOL     OW33364   0.882   0.629   2.993  0.5395 -0.7046 -0.2331
 7302SOL    HW133365   0.944   0.562   3.021  0.5068 -0.0164  1.4293
 7302SOL    HW233366   0.856   0.582   2.913  1.9289 -2.6729  0.4625
 7303SOL     OW33367   3.689   3.440   5.395 -0.1173 -0.6289  0.2528
 7303SOL    HW133368   3.758   3.457   5.459 -0.5641 -0.9089  0.8127
 7303SOL    HW233369   3.648   3.524   5.371  1.5634  0.8713  2.5997
 7304SOL     OW33370   0.558   1.288   8.207  0.6119  0.4228 -0.0748
 7304SOL    HW133371   0.582   1.280   8.299  0.2041 -1.7089 -0.1555
 7304SOL    HW233372   0.566   1.202   8.167  1.7445 -0.7661  2.7193
 7305SOL     OW33373   2.715   2.380  14.912 -0.1064 -0.3702 -0.2799
 7305SOL    HW133374   2.635   2.331  14.928 -0.8210  0.6719 -0.6646
 7305SOL    HW233375   2.687   2.469  14.891  0.0565 -0.6000 -1.4633
 7306SOL     OW33376   2.539   3.102  12.571 -0.0599  0.4535  0.3312
 7306SOL    HW133377   2.498   3.073  12.652 -1.9126  1.0364 -0.3868
 7306SOL    HW233378   2.561   3.017  12.533  1.2824  0.6392  0.7137
 7307SOL     OW33379   3.722   2.282   1.731 -0.2099  0.3296 -0.3675
 7307SOL    HW133380   3.746   2.280   1.638 -2.4145  1.1381 -0.9746
 7307SOL    HW233381   3.809   2.294   1.769 -0.4385  0.9151 -0.0355
 7308SOL     OW33382   1.721   0.043   4.643 -0.1267  0.0741  0.2397
 7308SOL    HW133383   1.802   0.033   4.694  0.8150 -0.0128 -1.2949
 7308SOL    HW233384   1.705   4.672   4.630  0.4885  0.4831 -3.3598
 7309SOL     OW33385   3.965   1.931   4.711 -0.7724 -0.6946 -0.0027
 7309SOL    HW133386   4.009   1.996   4.656  1.4160 -2.1489  0.0278
 7309SOL    HW233387   3.992   1.847   4.673  0.5563  0.8364 -2.4009
 7310SOL     OW33388   2.948   4.712   8.697  0.1911  0.0566 -0.0841
 7310SOL    HW133389   2.858   0.020   8.694 -0.5475 -2.0248  0.1962
 7310SOL    HW233390   2.993   0.042   8.762  1.8737 -0.9587 -0.4227
 7311SOL     OW33391   0.128   4.114   6.214  0.2133  0.3740 -0.1347
 7311SOL    HW133392   0.064   4.127   6.145  1.0485 -0.4897 -1.0890
 7311SOL    HW233393   0.207   4.089   6.165 -1.0897 -1.6126 -1.2375
 7312SOL     OW33394   2.527   3.710  12.357  0.2621  0.3044 -0.0214
 7312SOL    HW133395   2.485   3.631  12.389  1.3081  0.0121  0.6212
 7312SOL    HW233396   2.450   3.766  12.351  0.1165  0.0429 -0.6565
 7313SOL     OW33397   0.061   0.031  16.969  0.8447 -0.3799 -0.0393
 7313SOL    HW133398   0.139   0.084  16.988 -0.8421  0.9448  3.2120
 7313SOL    HW233399   0.030   0.067  16.886 -1.6340 -2.6709 -0.0946
 7314SOL     OW33400   4.126   3.443   1.827  0.5250 -0.4757 -0.4206
 7314SOL    HW133401   4.085   3.491   1.756 -1.9972 -0.6042  0.9267
 7314SOL    HW233402   4.167   3.371   1.778  0.1082 -1.9942  1.4299
 7315SOL     OW33403   2.575   1.020   3.549 -0.0391  0.5178 -0.4222
 7315SOL    HW133404   2.637   0.948   3.538 -1.8027 -1.0367 -0.3289
 7315SOL    HW233405   2.512   0.983   3.611 -0.5209  2.4211  0.2068
 7316SOL     OW33406   1.738   3.193  12.091 -0.7478  0.4615 -0.3735
 7316SOL    HW133407   1.670   3.251  12.126 -0.5863 -0.3676  1.3020
 7316SOL    HW233408   1.811   3.208  12.152 -0.1851  1.9930 -1.4124
 7317SOL     OW33409   0.977   3.479   9.290  0.4669  0.2619  0.1182
 7317SOL    HW133410   1.046   3.433   9.242 -0.5091 -0.0478 -0.9830
 7317SOL    HW233411   1.018   3.485   9.377  0.0092  1.0310  0.2753
 7318SOL     OW33412   2.714   0.642   6.052 -0.0963 -0.1363 -0.2368
 7318SOL    HW133413   2.701   0.653   5.957 -0.8113 -1.6287 -0.2987
 7318SOL    HW233414   2.641   0.694   6.085  1.7791  2.1043  0.3924
 7319SOL     OW33415   1.496   1.507   1.178 -0.2293  0.2058  0.3741
 7319SOL    HW133416   1.477   1.573   1.245  1.2399 -1.4569  2.4267
 7319SOL    HW233417   1.545   1.558   1.114 -1.2112 -0.4433 -0.9021
 7320SOL     OW33418   0.097   1.393  14.661 -0.0143 -0.3717  0.6458
 7320SOL    HW133419   0.108   1.332  14.588 -1.4531 -0.0666  0.1643
 7320SOL    HW233420   0.165   1.354  14.715  1.3439 -0.2452 -0.9694
 7321SOL     OW33421   3.018   2.141   4.344  0.3185 -0.3177  0.3195
 7321SOL    HW133422   2.952   2.197   4.303  1.0835  1.3257  1.3307
 7321SOL    HW233423   2.995   2.057   4.304  0.9403  0.2142 -1.1542
 7322SOL     OW33424   4.092   4.433  13.772  0.5935 -0.2932  0.7071
 7322SOL    HW133425   4.150   4.368  13.812  0.8114  0.4816  1.6550
 7322SOL    HW233426   4.053   4.384  13.700  2.9137 -3.8870  1.9027
 7323SOL     OW33427   0.417   4.722   2.389 -0.0772  0.0185 -0.0624
 7323SOL    HW133428   0.351   4.653   2.390 -0.1456  0.0701 -0.7451
 7323SOL    HW233429   0.469   4.696   2.313 -0.4712 -2.4399  0.5051
 7324SOL     OW33430   2.329   1.749   2.891 -0.1258 -0.4054 -0.3849
 7324SOL    HW133431   2.237   1.720   2.892 -0.4819  0.7488  0.0813
 7324SOL    HW233432   2.328   1.791   2.805 -0.2604  1.3124  0.4664
 7325SOL     OW33433   0.211   3.949   2.101  0.4438  0.0418  0.2681
 7325SOL    HW133434   0.306   3.948   2.104  0.4196 -1.9823  0.1574
 7325SOL    HW233435   0.193   3.943   2.195 -0.5715  1.4587  0.1612
 7326SOL     OW33436   3.307   1.831   1.599 -0.0041 -0.5129 -0.3545
 7326SOL    HW133437   3.260   1.765   1.650 -1.8512  0.9224 -0.2186
 7326SOL    HW233438   3.319   1.894   1.670  3.3599 -1.4481 -0.0745
 7327SOL     OW33439   0.252   1.024   4.188 -0.0156  0.5011  0.1176
 7327SOL    HW133440   0.307   1.097   4.161 -0.2428  0.8441  0.5902
 7327SOL    HW233441   0.197   1.071   4.251 -0.1595  0.0732  0.3121
 7328SOL     OW33442   1.147   2.531   0.670  0.3386  0.5092 -0.2975
 7328SOL    HW133443   1.225   2.480   0.692 -1.2208 -1.4549  0.6967
 7328SOL    HW233444   1.152   2.519   0.575  0.5825  0.1966 -0.2455
 7329SOL     OW33445   0.487   4.657   5.646  0.3064 -0.2127 -0.2028
 7329SOL    HW133446   0.431   0.006   5.677 -0.4514 -0.8615 -0.0812
 7329SOL    HW233447   0.424   4.585   5.644 -0.5758  0.5512 -0.4190
 7330SOL     OW33448   0.379   2.238   3.920 -0.2090  0.3996 -0.4715
 7330SOL    HW133449   0.349   2.150   3.898  1.6736 -0.3728  0.1370
 7330SOL    HW233450   0.472   2.220   3.922  0.0305  1.8447  1.4939
 7331SOL     OW33451   0.575   3.535   2.914 -0.2784  0.0497  0.2521
 7331SOL    HW133452   0.572   3.448   2.874 -0.2004 -0.8941  2.2955
 7331SOL    HW233453   0.534   3.528   3.001 -2.2775  0.4688 -0.6572
 7332SOL     OW33454   1.301   2.227  11.600  0.2836 -0.2267 -0.0509
 7332SOL    HW133455   1.234   2.257  11.540 -0.1341  0.3026  0.6816
 7332SOL    HW233456   1.368   2.195  11.540 -0.7892 -1.0503 -0.7887
 7333SOL     OW33457   2.471   0.765  11.646  0.0090  0.0167  0.3539
 7333SOL    HW133458   2.545   0.722  11.602 -1.2777 -1.9636  0.1264
 7333SOL    HW233459   2.434   0.691  11.693  0.3018  0.8803  1.9659
 7334SOL     OW33460   0.804   4.060   6.338  0.1657  0.3470  0.0356
 7334SOL    HW133461   0.761   4.007   6.271 -1.7073 -0.6177  2.0025
 7334SOL    HW233462   0.842   3.991   6.393 -0.7788  0.7000  1.1174
 7335SOL     OW33463   1.678   0.776   5.537  0.6849 -0.4297  0.1058
 7335SOL    HW133464   1.754   0.834   5.532  0.2213 -0.1316 -3.4673
 7335SOL    HW233465   1.735   0.699   5.543  2.2494  0.7982  1.3037
 7336SOL     OW33466   4.051   2.133  14.951  0.3492 -0.3678 -0.6127
 7336SOL    HW133467   4.120   2.115  15.014  0.2382  0.3594 -0.2917
 7336SOL    HW233468   4.106   2.160  14.878  1.2218  1.6698  0.8243
 7337SOL     OW33469   0.011   2.661   3.464  0.2233  0.2001  0.3203
 7337SOL    HW133470   0.091   2.678   3.513 -0.4444 -1.2176  1.9295
 7337SOL    HW233471   4.707   2.749   3.439  0.3630 -0.3058 -1.6155
 7338SOL     OW33472   4.644   3.509   8.730 -0.1656  0.1441  0.1122
 7338SOL    HW133473   4.567   3.563   8.747 -1.0209 -1.0140 -0.1147
 7338SOL    HW233474   4.681   3.487   8.816 -2.7207  0.2961  1.2361
 7339SOL     OW33475   3.398   1.886  17.444 -0.0353 -0.0837 -0.3881
 7339SOL    HW133476   3.399   1.799  17.404 -1.4639 -0.3818  0.2252
 7339SOL    HW233477   3.309   1.923  17.439  0.5370  1.4006  0.1794
 7340SOL     OW33478   0.983   4.654   4.540  0.1681 -0.3352  1.2237
 7340SOL    HW133479   1.031   4.606   4.607 -0.2294  0.9938  2.4895
 7340SOL    HW233480   1.053   4.702   4.497  0.0261  0.2710  1.6600
 7341SOL     OW33481   0.933   2.890  12.648 -0.4183  0.6163  0.0868
 7341SOL    HW133482   1.002   2.826  12.663 -0.1492  0.6358 -1.1470
 7341SOL    HW233483   0.865   2.826  12.625 -0.5295  0.8816 -0.3165
 7342SOL     OW33484   3.384   0.550   2.728 -0.0319  0.3102  0.1458
 7342SOL    HW133485   3.343   0.614   2.785 -0.0420 -0.2286  0.7417
 7342SOL    HW233486   3.406   0.493   2.802  0.1468 -0.4212 -0.4720
 7343SOL     OW33487   0.037   3.433   6.301 -0.7203  0.2111 -0.9187
 7343SOL    HW133488   0.034   3.487   6.222  0.6186  0.4851 -0.7860
 7343SOL    HW233489   4.678   3.450   6.348  0.1810 -1.0841  1.1424
 7344SOL     OW33490   0.355   0.231   8.564 -0.7216 -0.1084 -0.0823
 7344SOL    HW133491   0.268   0.221   8.603 -0.8992  0.3067 -0.3685
 7344SOL    HW233492   0.343   0.243   8.470  0.8266 -1.4024 -0.4371
 7345SOL     OW33493   0.946   4.438   4.737 -0.7116 -0.1237  0.3269
 7345SOL    HW133494   0.897   4.444   4.819  0.4084 -1.2035  1.0864
 7345SOL    HW233495   1.039   4.427   4.757 -0.7552  1.3968  1.3050
 7346SOL     OW33496   3.500   2.522  10.582  0.0842 -0.1428 -0.3240
 7346SOL    HW133497   3.412   2.487  10.601  1.5165 -2.7559  1.6416
 7346SOL    HW233498   3.557   2.465  10.634  0.6057  2.3577  1.8384
 7347SOL     OW33499   2.952   3.314   0.791  0.4749  0.1770  0.0497
 7347SOL    HW133500   2.939   3.331   0.884 -5.1854 -2.0356 -0.3770
 7347SOL    HW233501   2.902   3.383   0.748 -0.8366  0.2517  1.7032
 7348SOL     OW33502   0.642   1.044   6.707 -0.9279  0.4739  0.0115
 7348SOL    HW133503   0.611   1.133   6.726  1.3454  0.7282  2.4065
 7348SOL    HW233504   0.650   1.010   6.796  0.7757 -1.8774 -1.0350
 7349SOL     OW33505   2.294   3.134   6.726  0.5652 -0.1629  0.0772
 7349SOL    HW133506   2.356   3.205   6.742 -0.3742  0.3104  1.6633
 7349SOL    HW233507   2.264   3.113   6.815 -0.3043  0.3020 -0.1032
 7350SOL     OW33508   1.506   0.807  12.836  0.1991 -0.0952  0.2213
 7350SOL    HW133509   1.541   0.857  12.910  2.3730 -2.0514  0.4939
 7350SOL    HW233510   1.419   0.848  12.840  0.7641  1.0352  1.3199
 7351SOL     OW33511   1.507   0.346  15.965 -0.0226  0.0562 -0.2350
 7351SOL    HW133512   1.444   0.382  15.903 -2.5945  1.9996  3.4765
 7351SOL    HW233513   1.588   0.397  15.957 -0.1521  0.5378  1.3640
 7352SOL     OW33514   1.147   1.177  15.085  0.0632 -0.5769 -0.0367
 7352SOL    HW133515   1.206   1.123  15.033  0.0228 -0.6530 -0.0028
 7352SOL    HW233516   1.062   1.150  15.050 -0.8378  1.4043  0.6311
 7353SOL     OW33517   3.311   0.719   8.087 -0.4092 -0.6622  0.2116
 7353SOL    HW133518   3.362   0.725   8.006  0.0407  0.8342  0.6123
 7353SOL    HW233519   3.376   0.692   8.151  0.4349 -0.0387 -0.3788
 7354SOL     OW33520   3.702   4.374   9.271  0.1151  0.1666 -0.5657
 7354SOL    HW133521   3.647   4.413   9.203 -0.7307 -1.5537 -0.8754
 7354SOL    HW233522   3.673   4.414   9.353  1.1856 -1.8448  0.8015
 7355SOL     OW33523   4.053   1.961   1.312 -0.5630 -0.0454 -0.2329
 7355SOL    HW133524   3.969   1.943   1.352  0.0472 -0.0793  1.0253
 7355SOL    HW233525   4.090   1.874   1.324 -1.9256 -0.6512 -0.4200
 7356SOL     OW33526   2.215   0.478   7.176 -0.0947  0.6132  0.2677
 7356SOL    HW133527   2.209   0.434   7.261  0.8550 -0.2535 -0.1103
 7356SOL    HW233528   2.294   0.431   7.148  0.1942  0.8541  0.6779
 7357SOL     OW33529   4.709   0.890   2.108  0.6550  0.5410  0.0476
 7357SOL    HW133530   0.041   0.961   2.074  2.1461 -1.2092 -1.2246
 7357SOL    HW233531   0.036   0.812   2.085 -0.9173 -0.7155  0.9284
 7358SOL     OW33532   0.024   2.969   3.094  0.7170 -0.1183  0.0056
 7358SOL    HW133533   0.023   2.958   3.190 -1.7033 -1.5828 -0.2089
 7358SOL    HW233534   4.700   2.891   3.065 -0.2079  0.3834  0.1791
 7359SOL     OW33535   1.843   0.798   0.161  0.1636 -0.0937 -0.0044
 7359SOL    HW133536   1.757   0.827   0.190  1.5961  2.7265  1.4298
 7359SOL    HW233537   1.839   0.781   0.067  0.4099 -0.4552  0.0518
 7360SOL     OW33538   1.134   0.066   7.066 -0.2618 -0.4199  0.4442
 7360SOL    HW133539   1.134   0.150   7.021  2.5973 -1.0351 -0.6928
 7360SOL    HW233540   1.064   0.018   7.022  0.8030 -3.5627  2.1765
 7361SOL     OW33541   0.019   3.243   6.571 -0.1369 -0.4450 -0.1290
 7361SOL    HW133542   4.688   3.320   6.589 -0.0117 -0.1676 -0.9416
 7361SOL    HW233543   0.099   3.269   6.615 -1.2749  1.8321  0.5998
 7362SOL     OW33544   2.622   4.466   1.686  0.3603  0.3007 -0.0621
 7362SOL    HW133545   2.673   4.385   1.687  1.8336  1.1854 -1.6816
 7362SOL    HW233546   2.691   4.532   1.687 -1.0236  1.7624  0.0149
 7363SOL     OW33547   2.584   1.066  11.304 -0.1070 -0.1311 -0.2663
 7363SOL    HW133548   2.608   1.122  11.377 -2.8330  0.3222  0.2761
 7363SOL    HW233549   2.488   1.067  11.307 -0.0562  0.4698  1.1195
 7364SOL     OW33550   1.354   2.527  11.619  0.2917 -0.4480  0.6073
 7364SOL    HW133551   1.439   2.486  11.601 -0.4783 -0.9326 -1.8743
 7364SOL    HW233552   1.323   2.549  11.531 -0.4792 -1.6057  0.5920
 7365SOL     OW33553   0.345   1.511  13.933  0.7097  0.2430  0.1347
 7365SOL    HW133554   0.301   1.507  14.018  2.3610  0.5110  1.0075
 7365SOL    HW233555   0.290   1.556  13.869  0.7353  1.1323  0.7297
 7366SOL     OW33556   1.509   1.837  14.997 -0.6904 -0.1638 -0.7935
 7366SOL    HW133557   1.431   1.843  14.943 -1.1432 -0.1690 -0.1416
 7366SOL    HW233558   1.512   1.744  15.022  1.5273  0.4261  1.1066
 7367SOL     OW33559   2.233   3.349   1.713 -0.5224 -0.5740 -0.1715
 7367SOL    HW133560   2.322   3.333   1.683 -0.8352 -1.7884 -0.4171
 7367SOL    HW233561   2.236   3.427   1.769  0.3366 -0.0705 -0.9202
 7368SOL     OW33562   4.284   0.400   8.692 -0.4412  0.1971  0.5053
 7368SOL    HW133563   4.320   0.322   8.734  1.8926  0.8289 -0.3152
 7368SOL    HW233564   4.357   0.461   8.681  0.5550 -0.7271  1.9264
 7369SOL     OW33565   0.694   1.591   2.699 -0.0418 -0.4765 -0.0597
 7369SOL    HW133566   0.603   1.618   2.711 -0.6608 -2.7299  0.4027
 7369SOL    HW233567   0.704   1.605   2.605  0.6669 -3.6051 -0.4532
 7370SOL     OW33568   0.550   0.244   7.451  0.4100  0.3627 -0.1922
 7370SOL    HW133569   0.594   0.277   7.372 -2.4462  0.9058 -1.5562
 7370SOL    HW233570   0.466   0.289   7.452 -1.1435 -2.5553  1.1102
 7371SOL     OW33571   0.115   4.604   9.760 -0.1039 -0.0872 -0.0096
 7371SOL    HW133572   0.091   4.589   9.852 -2.3199  0.6598 -0.4548
 7371SOL    HW233573   0.057   4.676   9.738 -0.1720 -0.3976 -0.8256
 7372SOL     OW33574   3.060   4.234  15.037  0.3971 -0.9067  0.0809
 7372SOL    HW133575   3.037   4.270  14.951  0.7916 -0.0844  0.3259
 7372SOL    HW233576   3.151   4.261  15.044  0.3290 -0.5624 -0.3957
 7373SOL     OW33577   2.118   3.319   5.868 -0.1043 -0.0032 -0.1637
 7373SOL    HW133578   2.139   3.259   5.939  0.8166  0.9749  0.3947
 7373SOL    HW233579   2.117   3.408   5.905 -1.1552 -0.7754  1.6553
 7374SOL     OW33580   0.530   0.200  12.999  0.1845  0.2032 -0.0268
 7374SOL    HW133581   0.471   0.264  12.959 -0.9601 -0.0892  1.1901
 7374SOL    HW233582   0.614   0.246  12.994  1.0450 -1.4616 -0.6886
 7375SOL     OW33583   0.819   1.392   6.179 -0.6156 -0.5528  0.1653
 7375SOL    HW133584   0.743   1.436   6.217  0.3184 -1.0938  2.6614
 7375SOL    HW233585   0.813   1.422   6.088  0.0255  1.5775  0.8323
 7376SOL     OW33586   3.545   1.721   4.364 -0.2359  0.0384 -0.1170
 7376SOL    HW133587   3.479   1.653   4.370  1.5244 -1.5847  0.5990
 7376SOL    HW233588   3.498   1.804   4.378 -1.1523 -0.0038 -2.8691
 7377SOL     OW33589   0.268   3.054  11.721 -0.3591 -0.1006  0.5336
 7377SOL    HW133590   0.238   3.050  11.812 -0.4357  4.9260  0.7110
 7377SOL    HW233591   0.320   3.134  11.718 -0.7795  0.1144 -0.8653
 7378SOL     OW33592   1.975   1.768   9.672  0.0933 -0.0498  0.3275
 7378SOL    HW133593   1.945   1.686   9.711 -3.1032  0.9752  0.0480
 7378SOL    HW233594   1.897   1.777   9.616 -0.5225 -1.5997  0.9261
 7379SOL     OW33595   3.482   2.660   8.751 -0.1540 -0.4470 -0.3207
 7379SOL    HW133596   3.421   2.732   8.767 -0.5018 -0.7582 -0.2466
 7379SOL    HW233597   3.423   2.592   8.717  0.7371 -1.5842  0.3875
 7380SOL     OW33598   1.172   3.503  17.520  0.3999  0.4986 -0.2826
 7380SOL    HW133599   1.214   3.433  17.471 -2.2407 -0.7410 -0.7538
 7380SOL    HW233600   1.114   3.553  17.462  0.1077 -1.1719 -1.4021
 7381SOL     OW33601   1.347   2.077   0.826 -0.2997  0.2255  0.3438
 7381SOL    HW133602   1.360   2.172   0.820 -1.3957  0.3899  0.5674
 7381SOL    HW233603   1.294   2.063   0.748  2.5193 -0.2514 -1.5029
 7382SOL     OW33604   3.087   2.777   4.800  0.1013 -0.1429 -0.1875
 7382SOL    HW133605   3.006   2.807   4.841 -0.8925 -2.2385 -0.6415
 7382SOL    HW233606   3.118   2.860   4.763 -1.4440  0.0773 -0.9950
 7383SOL     OW33607   1.945   0.813   1.946  0.6973  0.6071 -0.1167
 7383SOL    HW133608   2.034   0.788   1.919  0.3872  0.4248 -0.9680
 7383SOL    HW233609   1.910   0.848   1.864  2.2319 -0.3285 -1.1902
 7384SOL     OW33610   0.770   1.760  15.853 -0.0856 -0.7391 -0.2494
 7384SOL    HW133611   0.863   1.775  15.868 -0.7254  0.6707  2.3975
 7384SOL    HW233612   0.772   1.780  15.760 -0.7840 -2.1117 -0.5670
 7385SOL     OW33613   4.175   1.571   5.861 -0.6377  0.5649 -0.2045
 7385SOL    HW133614   4.218   1.486   5.848 -1.0611  0.4771 -1.0097
 7385SOL    HW233615   4.257   1.616   5.881 -0.4166  0.5121 -0.9789
 7386SOL     OW33616   1.893   0.287  12.185 -0.2837  0.0353  0.1571
 7386SOL    HW133617   1.808   0.285  12.140 -1.7871 -1.1910  3.0531
 7386SOL    HW233618   1.934   0.368  12.155 -2.0978  0.6404 -0.6841
 7387SOL     OW33619   3.027   2.727   1.653 -0.7371 -0.0174  0.2743
 7387SOL    HW133620   2.999   2.649   1.604 -0.5538  0.0133  0.1184
 7387SOL    HW233621   3.115   2.694   1.674 -0.8029 -2.1698 -2.7268
 7388SOL     OW33622   1.480   3.158   8.247 -0.5493  0.2029 -0.0853
 7388SOL    HW133623   1.474   3.218   8.173 -1.3955  0.3498  0.1001
 7388SOL    HW233624   1.434   3.201   8.319 -1.4077 -0.3734 -0.2794
 7389SOL     OW33625   1.657   3.114   6.048 -0.3115  0.0242 -0.0299
 7389SOL    HW133626   1.721   3.177   6.082  0.2431 -0.4543 -0.1872
 7389SOL    HW233627   1.576   3.129   6.097 -0.7849 -0.0388 -0.7919
 7390SOL     OW33628   2.179   1.044  15.291  0.3022 -0.7520  0.5691
 7390SOL    HW133629   2.260   0.997  15.311 -0.4695 -1.7135  1.4607
 7390SOL    HW233630   2.167   1.012  15.201 -1.7816 -0.5543  0.7691
 7391SOL     OW33631   1.874   0.298   0.827  0.8532 -0.4729  0.4393
 7391SOL    HW133632   1.911   0.211   0.811 -2.0384 -1.6810  0.3537
 7391SOL    HW233633   1.956   0.338   0.855  0.3146  1.2169 -0.4028
 7392SOL     OW33634   0.063   0.052   6.795  0.0095  0.3272 -0.5750
 7392SOL    HW133635   0.120   0.105   6.851  0.2665 -0.4246 -0.1347
 7392SOL    HW233636   0.117   0.035   6.718  0.5989  0.8685 -0.2835
 7393SOL     OW33637   3.636   4.360   5.382  0.0681 -0.0815 -0.0764
 7393SOL    HW133638   3.564   4.393   5.435 -0.1178  1.2204 -1.1318
 7393SOL    HW233639   3.710   4.378   5.440  1.8998  0.6358 -2.6297
 7394SOL     OW33640   2.855   4.376   1.921 -0.0900 -0.3950  0.0896
 7394SOL    HW133641   2.840   4.340   1.833 -0.7708 -1.3677  0.5983
 7394SOL    HW233642   2.803   4.314   1.973  1.2878 -0.0619  1.8329
 7395SOL     OW33643   2.839   3.363   2.009 -0.2393  0.0594  0.6578
 7395SOL    HW133644   2.758   3.402   2.044 -1.8634 -1.7873 -1.0781
 7395SOL    HW233645   2.816   3.296   1.945  0.0927 -0.4549  1.0825
 7396SOL     OW33646   0.663   1.236   3.513 -0.2972  0.1970  0.2465
 7396SOL    HW133647   0.630   1.205   3.597  0.3635  0.1128  0.4771
 7396SOL    HW233648   0.756   1.216   3.524 -0.4210 -0.3718  0.2138
 7397SOL     OW33649   2.911   0.169   1.503  0.0982  0.1564  0.3775
 7397SOL    HW133650   2.864   0.208   1.577 -0.7911  0.2822 -0.2629
 7397SOL    HW233651   2.996   0.151   1.543  0.5040 -2.3079 -1.5777
 7398SOL     OW33652   1.590   4.456   2.867  0.1720 -0.0940  0.6434
 7398SOL    HW133653   1.662   4.516   2.887 -0.5427  1.0234 -0.0964
 7398SOL    HW233654   1.528   4.450   2.940 -1.3604 -0.6145 -0.7097
 7399SOL     OW33655   4.552   3.626  12.260 -0.4821 -0.0691 -0.1427
 7399SOL    HW133656   4.471   3.599  12.216  0.6551 -0.8370 -1.7466
 7399SOL    HW233657   4.549   3.555  12.324  1.5504 -1.0708 -1.1506
 7400SOL     OW33658   1.357   2.757   4.159 -0.0946 -0.2397  0.3079
 7400SOL    HW133659   1.265   2.741   4.177 -0.6802  0.5753 -1.9199
 7400SOL    HW233660   1.360   2.837   4.105  1.4856 -1.0698 -0.8378
 7401SOL     OW33661   2.767   3.474   3.930 -0.1902 -0.1150 -0.4621
 7401SOL    HW133662   2.807   3.388   3.916 -0.9403 -0.3620 -1.0527
 7401SOL    HW233663   2.722   3.453   4.012  1.5729 -1.3211  0.2032
 7402SOL     OW33664   3.993   1.039  10.412  0.0045  0.1160  0.1161
 7402SOL    HW133665   3.907   1.004  10.390 -0.2559 -0.1903  1.6581
 7402SOL    HW233666   3.967   1.131  10.416 -1.6210 -0.3145 -0.5461
 7403SOL     OW33667   2.687   2.935   5.318 -0.0313  0.1787  0.3374
 7403SOL    HW133668   2.699   2.983   5.400 -1.4217  0.4117  0.4156
 7403SOL    HW233669   2.777   2.923   5.290  0.5260  2.1203  1.3191
 7404SOL     OW33670   0.892   2.788  13.795 -0.4407  0.6935 -0.0508
 7404SOL    HW133671   0.934   2.835  13.867 -1.4585  2.9750 -0.9405
 7404SOL    HW233672   0.946   2.710  13.803 -0.9077  0.1682 -1.8650
 7405SOL     OW33673   3.538   3.024  17.612  0.0057 -0.4386 -0.0729
 7405SOL    HW133674   3.566   3.006  17.522  0.1814 -0.0334 -0.0987
 7405SOL    HW233675   3.537   2.937  17.653 -1.6220 -0.6305 -0.5019
 7406SOL     OW33676   4.198   0.543   3.848  0.2331  0.6206 -0.6218
 7406SOL    HW133677   4.244   0.502   3.921 -0.9401 -1.7392 -1.2070
 7406SOL    HW233678   4.251   0.512   3.774 -0.9254 -1.4614 -0.5844
 7407SOL     OW33679   2.089   0.336  16.883 -0.1330 -0.6540  0.3304
 7407SOL    HW133680   2.033   0.391  16.938  0.5113  0.6938 -0.3779
 7407SOL    HW233681   2.081   0.375  16.796 -1.8294 -2.0706 -0.1642
 7408SOL     OW33682   1.287   2.517   3.916  0.3370  0.8412 -0.7367
 7408SOL    HW133683   1.322   2.606   3.920 -0.2213  0.9840  0.9704
 7408SOL    HW233684   1.347   2.487   3.848  0.0654  2.5328 -1.7227
 7409SOL     OW33685   3.458   2.288   4.584  0.2777  0.1747  1.4094
 7409SOL    HW133686   3.398   2.255   4.517 -0.6101 -0.8557  2.7241
 7409SOL    HW233687   3.423   2.245   4.662  0.7872  0.1520  1.6289
 7410SOL     OW33688   2.259   0.575   4.095 -0.0119 -0.2630 -0.7143
 7410SOL    HW133689   2.278   0.509   4.028  1.0086 -0.0258 -0.6607
 7410SOL    HW233690   2.216   0.524   4.163  2.7132 -1.5057  0.0577
 7411SOL     OW33691   3.043   0.730   6.261  0.4660  0.0702  1.1011
 7411SOL    HW133692   3.010   0.641   6.272 -2.8999  0.9525 -2.1660
 7411SOL    HW233693   2.967   0.784   6.241  1.2069  0.6973  0.0215
 7412SOL     OW33694   1.932   3.004   4.333 -0.1262  0.2037  0.4780
 7412SOL    HW133695   1.841   3.028   4.351 -0.1182  3.1809 -3.3422
 7412SOL    HW233696   1.979   3.046   4.406 -1.4671 -0.6805  1.8445
 7413SOL     OW33697   2.773   0.289  15.559  0.3767  0.1399  0.4184
 7413SOL    HW133698   2.788   0.288  15.654  1.4351 -0.5826  0.2393
 7413SOL    HW233699   2.800   0.203  15.527  1.7398  0.0546  1.7725
 7414SOL     OW33700   1.816   0.362   4.412 -0.2854  0.3694  0.1429
 7414SOL    HW133701   1.748   0.387   4.474 -1.9013 -1.3085 -0.9698
 7414SOL    HW233702   1.830   0.450   4.378  0.1657  0.9539  1.8726
 7415SOL     OW33703   0.043   3.473   9.489 -0.4624  0.2807  0.3755
 7415SOL    HW133704   4.690   3.482   9.546 -0.9786 -0.8661 -0.1131
 7415SOL    HW233705   0.050   3.565   9.465 -2.3691 -0.4034 -2.8442
 7416SOL     OW33706   1.858   3.099   3.152 -0.1328  0.5101  0.2499
 7416SOL    HW133707   1.776   3.147   3.149 -0.0195  0.8060  2.1909
 7416SOL    HW233708   1.900   3.133   3.072  0.5668 -0.6611  0.1061
 7417SOL     OW33709   0.128   3.679   4.728 -0.5762 -0.2763 -0.4640
 7417SOL    HW133710   0.205   3.734   4.739 -1.4084  0.2834  2.5458
 7417SOL    HW233711   0.164   3.595   4.700  0.4222  0.1568 -0.4749
 7418SOL     OW33712   1.339   1.167   7.240 -0.3288  0.2686 -0.4867
 7418SOL    HW133713   1.376   1.110   7.308  2.6917  2.0442 -0.6630
 7418SOL    HW233714   1.292   1.233   7.291  0.8485 -0.2886  1.3474
 7419SOL     OW33715   3.573   4.433  14.105 -0.2695  0.5265  0.1850
 7419SOL    HW133716   3.511   4.361  14.090 -0.1703  0.2299  1.2014
 7419SOL    HW233717   3.546   4.476  14.186 -0.5101 -1.0281  0.9401
 7420SOL     OW33718   0.406   1.248   5.160  0.0732 -0.0531 -0.5616
 7420SOL    HW133719   0.349   1.199   5.220  1.4171 -0.3522  0.4620
 7420SOL    HW233720   0.491   1.244   5.204 -0.3776  0.8977  0.3988
 7421SOL     OW33721   1.036   3.050   6.087 -0.2753 -0.0573  0.1569
 7421SOL    HW133722   0.984   3.021   6.012  0.1832  0.9638 -0.5546
 7421SOL    HW233723   1.101   2.980   6.086 -1.8327 -1.5623  2.0912
 7422SOL     OW33724   0.268   1.027   6.822  0.5541  0.2538 -0.4580
 7422SOL    HW133725   0.335   1.027   6.891 -0.3392  1.3103  0.4215
 7422SOL    HW233726   0.193   1.041   6.880 -1.3190  0.1415 -2.8531
 7423SOL     OW33727   4.137   1.986  13.081  0.0787 -0.1957 -0.1750
 7423SOL    HW133728   4.137   2.066  13.029 -2.1491 -0.4022 -0.5194
 7423SOL    HW233729   4.170   1.925  13.015  0.1302 -1.8629  1.3895
 7424SOL     OW33730   1.535   2.364   2.403 -0.7709 -0.6276 -0.2558
 7424SOL    HW133731   1.591   2.360   2.326 -0.1232  0.0605  0.1775
 7424SOL    HW233732   1.542   2.274   2.434  0.1639 -1.0450 -1.7024
 7425SOL     OW33733   0.890   4.252  10.265  0.0964 -0.1377 -0.5312
 7425SOL    HW133734   0.893   4.280  10.357  3.8202  0.3000 -0.7903
 7425SOL    HW233735   0.977   4.277  10.234  0.6156 -0.8436  0.3306
 7426SOL     OW33736   4.562   2.681   5.259  0.3301 -0.0887 -0.5109
 7426SOL    HW133737   4.649   2.654   5.230  0.3116 -1.0242  0.3225
 7426SOL    HW233738   4.594   2.709   5.345 -0.4790 -1.1241  0.1232
 7427SOL     OW33739   2.441   4.487  16.506 -0.1200  0.6427 -0.7416
 7427SOL    HW133740   2.398   4.428  16.568 -1.1468  0.5810 -1.5050
 7427SOL    HW233741   2.389   4.568  16.507  1.8759  1.9165 -0.2203
 7428SOL     OW33742   3.124   0.756  17.291  0.2746 -0.2452  0.8348
 7428SOL    HW133743   3.034   0.782  17.307  0.0738  0.1798 -1.0207
 7428SOL    HW233744   3.148   0.710  17.372 -1.3766 -3.0188 -0.2506
 7429SOL     OW33745   4.203   3.920   6.260  0.3890 -0.6742 -0.1591
 7429SOL    HW133746   4.280   3.976   6.261  0.4001 -0.7440  1.8097
 7429SOL    HW233747   4.243   3.833   6.259  0.9823 -0.4011 -0.5028
 7430SOL     OW33748   1.087   1.423   2.494  0.0527 -0.6231  0.5048
 7430SOL    HW133749   1.139   1.425   2.414  0.0330  0.7919  0.5367
 7430SOL    HW233750   1.120   1.348   2.544 -0.2422  0.2124  1.9498
 7431SOL     OW33751   2.999   4.133   4.951 -0.4557  0.4611  0.4741
 7431SOL    HW133752   2.960   4.215   4.982 -2.5086 -0.8719  1.4155
 7431SOL    HW233753   3.032   4.164   4.866 -2.1438  2.5269  0.5686
 7432SOL     OW33754   0.043   2.373   4.067  0.3144 -0.0807  0.0444
 7432SOL    HW133755   0.038   2.282   4.040 -4.4367 -0.0473  0.8587
 7432SOL    HW233756   4.712   2.378   4.146 -1.4901 -2.0382 -1.0672
 7433SOL     OW33757   1.207   4.096  11.111 -0.1070 -0.5234 -0.0569
 7433SOL    HW133758   1.208   4.160  11.182 -3.4009 -2.8185  2.0277
 7433SOL    HW233759   1.278   4.139  11.061 -1.2960  1.1850 -0.2834
 7434SOL     OW33760   1.339   0.804   4.971 -0.1100 -0.1799 -0.2485
 7434SOL    HW133761   1.253   0.771   4.942 -0.2363 -0.4018  0.3843
 7434SOL    HW233762   1.340   0.788   5.065  0.9729 -0.7034 -0.3472
 7435SOL     OW33763   4.505   4.653   4.811  0.5211 -0.2978  0.0950
 7435SOL    HW133764   4.550   4.682   4.732 -1.6329 -1.4766 -1.5825
 7435SOL    HW233765   4.420   4.626   4.776 -0.3677  1.5829  0.8144
 7436SOL     OW33766   2.733   0.875   5.130  0.0683  0.3829 -0.0279
 7436SOL    HW133767   2.640   0.894   5.139  0.0121 -0.0117  0.2356
 7436SOL    HW233768   2.769   0.955   5.092  1.0837  0.0427  0.2188
 7437SOL     OW33769   2.677   1.907   3.783 -0.0301  0.3142 -0.2180
 7437SOL    HW133770   2.584   1.927   3.786 -0.1615 -0.7418  2.6875
 7437SOL    HW233771   2.715   1.947   3.861 -1.4752 -1.9061  1.5944
 7438SOL     OW33772   0.588   3.389   0.688 -0.1046 -0.4444 -0.0678
 7438SOL    HW133773   0.510   3.382   0.742 -1.6927 -0.5217 -2.3964
 7438SOL    HW233774   0.591   3.306   0.641 -2.7037 -1.1606  1.0678
 7439SOL     OW33775   1.715   2.438   3.146  0.0165  0.0497 -0.0425
 7439SOL    HW133776   1.798   2.413   3.187  0.6144 -0.3638 -1.5111
 7439SOL    HW233777   1.706   2.373   3.076  1.7610 -0.4093  0.1751
 7440SOL     OW33778   0.848   3.305   7.731 -0.5504  0.4667 -0.2015
 7440SOL    HW133779   0.892   3.233   7.775 -0.7576  0.0647 -0.6548
 7440SOL    HW233780   0.778   3.325   7.793 -1.6419 -0.8092 -1.0191
 7441SOL     OW33781   3.003   1.274  17.228 -0.3116 -0.8411 -0.0235
 7441SOL    HW133782   3.028   1.284  17.320  0.4450 -1.1297 -0.1916
 7441SOL    HW233783   2.939   1.345  17.224  0.8963  0.2328 -0.5332
 7442SOL     OW33784   3.535   3.696   8.013 -0.0633  0.7385  0.1910
 7442SOL    HW133785   3.487   3.615   7.994  0.2019  0.1803  1.9475
 7442SOL    HW233786   3.504   3.766   7.957 -0.5624  0.9142  0.6933
 7443SOL     OW33787   2.817   3.648   0.467  0.0771  0.2978 -0.1275
 7443SOL    HW133788   2.902   3.669   0.428  0.0664 -0.7757 -0.7250
 7443SOL    HW233789   2.792   3.578   0.407 -2.4145  2.0279 -1.0861
 7444SOL     OW33790   3.603   0.806   4.358  0.7753  0.1184  0.2797
 7444SOL    HW133791   3.582   0.864   4.432  0.2881  0.5491 -0.1964
 7444SOL    HW233792   3.699   0.807   4.356  0.8032  0.8081  1.8359
 7445SOL     OW33793   1.847   1.091   8.257 -0.3808  0.4987 -0.2769
 7445SOL    HW133794   1.943   1.097   8.257 -0.2049 -2.3831  1.4275
 7445SOL    HW233795   1.835   1.004   8.219  0.8861  0.7645 -1.3110
 7446SOL     OW33796   3.918   1.828   6.931  0.0357 -0.6872 -0.2548
 7446SOL    HW133797   3.870   1.776   6.867 -1.6229  0.5201 -0.0067
 7446SOL    HW233798   3.861   1.903   6.950  0.0751 -0.4245 -1.1657
 7447SOL     OW33799   4.712   4.146  16.912 -0.5119  0.4820  0.7807
 7447SOL    HW133800   0.019   4.059  16.940 -1.4534 -0.4558 -1.0834
 7447SOL    HW233801   4.667   4.122  16.831 -2.6677  0.2617  2.0322
 7448SOL     OW33802   3.101   2.970   8.573  0.0971  0.6259 -0.1160
 7448SOL    HW133803   3.099   2.980   8.668 -0.7809 -3.6334  0.2897
 7448SOL    HW233804   3.186   2.927   8.560 -1.1619 -1.5436 -1.1962
 7449SOL     OW33805   2.744   3.397   8.890 -0.2775 -0.0943  0.5335
 7449SOL    HW133806   2.782   3.368   8.807  1.1251  2.5327  0.2660
 7449SOL    HW233807   2.829   3.404   8.934  0.3203  1.4313 -0.9051
 7450SOL     OW33808   0.806   0.337  14.854 -0.4504 -0.4132 -0.1101
 7450SOL    HW133809   0.726   0.294  14.826 -0.1495 -0.5630 -0.7450
 7450SOL    HW233810   0.876   0.288  14.811 -0.1158 -0.7903  0.8703
 7451SOL     OW33811   4.572   1.018   8.356  0.1274  0.2561 -0.4447
 7451SOL    HW133812   4.653   1.069   8.348 -0.3170  1.3638  2.2542
 7451SOL    HW233813   4.568   1.001   8.450  0.5869  2.0250 -0.0955
 7452SOL     OW33814   0.763   3.467   4.548  0.0645 -0.6363 -0.3714
 7452SOL    HW133815   0.832   3.408   4.576  1.1083  0.6991 -0.0980
 7452SOL    HW233816   0.697   3.408   4.513  1.0306 -0.7149 -2.0697
 7453SOL     OW33817   2.631   2.637   6.189 -0.3927 -0.2716 -0.1602
 7453SOL    HW133818   2.726   2.640   6.175 -0.4165  0.9702  0.0206
 7453SOL    HW233819   2.617   2.612   6.280  1.1249 -2.0607 -0.4159
 7454SOL     OW33820   3.795   0.645  16.202 -0.4774 -0.1351 -0.3225
 7454SOL    HW133821   3.815   0.587  16.276  1.7387 -1.4041 -1.9267
 7454SOL    HW233822   3.707   0.671  16.229 -0.9758 -0.3289 -1.8165
 7455SOL     OW33823   3.977   2.742   0.453 -0.1492  0.2770  0.1225
 7455SOL    HW133824   3.915   2.795   0.403  0.1248  0.6265  0.1535
 7455SOL    HW233825   3.942   2.653   0.450  0.1546  0.1081  1.5044
 7456SOL     OW33826   1.519   1.799   5.541 -0.2386 -0.3846  0.2800
 7456SOL    HW133827   1.562   1.864   5.596 -1.8788  1.3784 -0.5021
 7456SOL    HW233828   1.572   1.723   5.566  3.1358  1.7038 -0.5342
 7457SOL     OW33829   0.054   0.913   3.973  0.3039  0.2258  0.0876
 7457SOL    HW133830   4.702   0.947   3.923 -0.3428  0.9768  1.5759
 7457SOL    HW233831   0.033   0.958   4.055  1.7182 -0.8842  1.0422
 7458SOL     OW33832   0.947   1.642   5.633  0.3864  0.7104 -0.3501
 7458SOL    HW133833   0.884   1.573   5.613  1.5457 -0.4587  0.0255
 7458SOL    HW233834   0.893   1.694   5.693  1.5575  2.0929 -0.4909
 7459SOL     OW33835   1.653   2.742   7.470  0.5813  0.0102 -0.3779
 7459SOL    HW133836   1.748   2.756   7.473  0.1943  2.5584 -0.1894
 7459SOL    HW233837   1.624   2.786   7.390  0.1984 -0.8695 -0.7276
 7460SOL     OW33838   0.486   0.487  15.311  0.1796 -0.3117  0.5163
 7460SOL    HW133839   0.575   0.494  15.344 -0.4825  0.0493  2.2390
 7460SOL    HW233840   0.477   0.393  15.325 -1.1946 -0.0651  1.3073
 7461SOL     OW33841   3.142   1.084   1.461 -0.0269 -0.3054  0.3416
 7461SOL    HW133842   3.210   1.101   1.396 -1.2583 -0.6712 -1.0651
 7461SOL    HW233843   3.149   1.156   1.523 -0.6806  1.0378 -1.1482
 7462SOL     OW33844   2.809   1.780   0.863  0.4945 -0.8283 -0.2725
 7462SOL    HW133845   2.899   1.797   0.834  0.7010 -0.4757  0.5931
 7462SOL    HW233846   2.797   1.856   0.919  0.1824 -0.2288 -1.1503
 7463SOL     OW33847   1.003   0.336   5.229 -0.6890 -0.1795  0.2482
 7463SOL    HW133848   0.968   0.334   5.140  0.7886  0.4655 -0.3370
 7463SOL    HW233849   1.056   0.416   5.229 -1.6207  0.4376 -0.0512
 7464SOL     OW33850   0.061   3.966   8.219 -0.1497  0.3981  0.3315
 7464SOL    HW133851   4.722   3.913   8.269 -0.6186  1.8504  1.2922
 7464SOL    HW233852   0.098   3.896   8.166  0.9831  1.0502  0.2680
 7465SOL     OW33853   4.357   3.128   5.101  0.1593  0.0689  0.7887
 7465SOL    HW133854   4.276   3.085   5.072  0.6156 -0.0124 -0.3779
 7465SOL    HW233855   4.397   3.046   5.131  1.5969  0.0302 -1.2591
 7466SOL     OW33856   0.600   3.218   9.004  0.6430 -0.0927 -0.2686
 7466SOL    HW133857   0.627   3.167   9.080  1.2953 -0.8018 -0.9678
 7466SOL    HW233858   0.650   3.294   9.033  1.7192  0.3310 -3.2422
 7467SOL     OW33859   0.014   1.098   3.501  0.1458 -0.2916 -0.4821
 7467SOL    HW133860   0.081   1.154   3.541  0.3569 -0.9208  0.0483
 7467SOL    HW233861   0.046   1.097   3.411  0.0231  0.3733 -0.5353
 7468SOL     OW33862   2.944   0.884   4.674 -0.2842  0.2393 -0.2793
 7468SOL    HW133863   2.909   0.912   4.590 -2.1246  0.6227  0.6089
 7468SOL    HW233864   3.032   0.922   4.666  0.5880 -1.4737  1.1283
 7469SOL     OW33865   2.085   2.838   0.942 -0.1229 -0.7745 -0.2697
 7469SOL    HW133866   2.037   2.918   0.921  1.0931  0.0472  0.1212
 7469SOL    HW233867   2.174   2.872   0.950 -0.5041 -0.0327  0.6997
 7470SOL     OW33868   1.252   1.262   2.148  0.1082  0.4381  0.4305
 7470SOL    HW133869   1.211   1.273   2.062  0.7095  0.3377  0.1356
 7470SOL    HW233870   1.262   1.353   2.177  1.1883 -0.1895  2.0288
 7471SOL     OW33871   2.322   3.106  16.761  0.2848 -0.5358  0.0830
 7471SOL    HW133872   2.238   3.060  16.757 -0.8746  1.6399 -0.8324
 7471SOL    HW233873   2.288   3.196  16.762  0.1383 -0.5925  0.2026
 7472SOL     OW33874   2.921   0.719   5.244  0.1744 -0.0017 -0.6344
 7472SOL    HW133875   2.972   0.684   5.171  2.5954  2.1508  0.0446
 7472SOL    HW233876   2.856   0.767   5.194 -0.2474 -1.8858 -1.9071
 7473SOL     OW33877   1.740   1.359   0.017 -0.0448  0.6322  0.3676
 7473SOL    HW133878   1.731   1.266  17.690  1.1698 -0.0377  3.0094
 7473SOL    HW233879   1.692   1.357   0.099 -0.4602 -0.5640  0.0868
 7474SOL     OW33880   3.826   1.986   8.241 -0.1649 -0.7212 -0.3752
 7474SOL    HW133881   3.918   1.960   8.243  0.4224  1.5493  1.6577
 7474SOL    HW233882   3.834   2.078   8.215 -1.7061 -0.6410 -0.5830
 7475SOL     OW33883   4.432   0.332   9.530 -0.1780 -0.5239 -0.5262
 7475SOL    HW133884   4.504   0.273   9.511  2.2755  3.2871 -3.1976
 7475SOL    HW233885   4.358   0.280   9.499 -0.8277  0.1015 -0.0431
 7476SOL     OW33886   2.215   2.665   8.217 -0.6722 -0.0067 -0.3797
 7476SOL    HW133887   2.231   2.730   8.149 -0.1092  0.6904  0.4264
 7476SOL    HW233888   2.267   2.708   8.284  3.0531 -0.6766 -2.8741
 7477SOL     OW33889   2.251   4.518   9.681 -0.0762 -0.1017 -0.8315
 7477SOL    HW133890   2.227   4.552   9.767  0.8350  2.3398 -1.5198
 7477SOL    HW233891   2.300   4.438   9.698 -2.3509 -0.7154  2.8348
 7478SOL     OW33892   2.741   4.605   7.439 -0.9316 -0.1430 -0.6504
 7478SOL    HW133893   2.669   4.584   7.498 -0.5719  1.8636  0.5179
 7478SOL    HW233894   2.696   4.662   7.376  0.0280  0.7292 -0.5494
 7479SOL     OW33895   3.937   3.620  16.632 -0.8583  0.0932  0.3183
 7479SOL    HW133896   4.030   3.641  16.625 -1.1265  0.3727 -2.5207
 7479SOL    HW233897   3.904   3.695  16.682 -0.8696 -0.6498  1.4242
 7480SOL     OW33898   4.547   0.283   1.146 -0.3625 -0.1856 -0.0020
 7480SOL    HW133899   4.543   0.194   1.181  2.7109  0.3524  1.6956
 7480SOL    HW233900   4.560   0.339   1.222 -0.8170  0.0645 -0.1094
 7481SOL     OW33901   0.536   3.241   2.013  0.1403 -0.2384  0.3748
 7481SOL    HW133902   0.464   3.194   2.056 -1.3344  0.2032 -1.5853
 7481SOL    HW233903   0.578   3.174   1.958  0.1290  0.2360 -0.2139
 7482SOL     OW33904   2.172   0.715  12.901  0.9344  0.1187  0.0795
 7482SOL    HW133905   2.225   0.729  12.823 -0.8468  0.9865 -0.9552
 7482SOL    HW233906   2.199   0.789  12.955  1.4680 -1.3916  1.9005
 7483SOL     OW33907   0.308   0.099   6.316  0.3034  0.4853 -0.3986
 7483SOL    HW133908   0.346   0.011   6.317  0.4304  0.5309 -1.1671
 7483SOL    HW233909   0.219   0.073   6.292 -0.6773  2.8276  0.7163
 7484SOL     OW33910   0.638   4.713   9.543 -0.5733  0.1364  0.6550
 7484SOL    HW133911   0.709   4.649   9.545 -2.1132 -1.5759  0.8212
 7484SOL    HW233912   0.613   4.704   9.635  2.2335  2.2082  1.6243
 7485SOL     OW33913   1.896   2.505  13.517  0.4660 -0.4800  0.3984
 7485SOL    HW133914   1.897   2.413  13.546  1.7367 -0.4169  0.5404
 7485SOL    HW233915   1.863   2.552  13.593  0.3331  2.0530 -1.2174
 7486SOL     OW33916   2.771   4.326   4.934  0.2123  0.7800  0.7781
 7486SOL    HW133917   2.722   4.299   4.857  1.6084  2.2016 -0.6246
 7486SOL    HW233918   2.752   4.420   4.935  0.9385  0.9186  2.0039
 7487SOL     OW33919   0.373   0.925  16.386 -0.0837 -0.5563 -0.6594
 7487SOL    HW133920   0.463   0.920  16.356  0.5837  3.5009  0.6881
 7487SOL    HW233921   0.362   1.019  16.399 -1.5523 -0.6061 -1.5603
 7488SOL     OW33922   0.463   1.541   2.112  0.3222 -0.3175  0.3938
 7488SOL    HW133923   0.530   1.608   2.127  2.7312 -2.1698 -2.1805
 7488SOL    HW233924   0.503   1.462   2.147  0.4926 -0.4539 -0.1080
 7489SOL     OW33925   2.118   1.649   1.079 -0.5342  0.1625  0.2035
 7489SOL    HW133926   2.149   1.739   1.067 -2.7569  0.9168  0.2366
 7489SOL    HW233927   2.127   1.614   0.990  0.5452 -1.6257  1.0188
 7490SOL     OW33928   1.055   3.652   0.401 -1.3087  0.0039 -0.1987
 7490SOL    HW133929   1.123   3.618   0.460 -0.7115  0.2615 -0.7335
 7490SOL    HW233930   1.115   3.685   0.334 -0.4009 -0.3730  0.4306
 7491SOL     OW33931   2.057   1.548   2.484 -0.4593 -0.1814 -0.1602
 7491SOL    HW133932   2.141   1.512   2.455 -0.1042 -1.1084  2.0106
 7491SOL    HW233933   2.068   1.643   2.491 -1.5902  0.0796 -1.8314
 7492SOL     OW33934   2.075   3.247   7.783 -0.1300  0.0324 -0.3504
 7492SOL    HW133935   2.145   3.245   7.718  1.0603  0.7784  0.9066
 7492SOL    HW233936   2.022   3.172   7.758 -0.8472  0.0078  1.2627
 7493SOL     OW33937   4.021   0.720   7.986  0.3012 -0.6901 -0.3271
 7493SOL    HW133938   4.112   0.750   7.988 -0.6497  2.2707 -1.0335
 7493SOL    HW233939   3.978   0.798   7.951  2.2940  1.0464  1.1655
 7494SOL     OW33940   2.687   3.446  15.995  0.5970  0.1748 -0.1192
 7494SOL    HW133941   2.748   3.496  16.049 -0.5733 -0.7770  2.0828
 7494SOL    HW233942   2.743   3.424  15.921  2.1070 -0.4797  1.2056
 7495SOL     OW33943   1.723   3.071  13.332 -0.2456  0.2948 -0.4301
 7495SOL    HW133944   1.673   3.137  13.379  1.5185  1.5105 -0.2977
 7495SOL    HW233945   1.723   3.001  13.397  2.3242 -0.4884 -1.2946
 7496SOL     OW33946   3.238   1.055   5.807  0.1577 -0.2231 -0.2981
 7496SOL    HW133947   3.206   1.144   5.819 -1.9123 -0.6485 -2.5640
 7496SOL    HW233948   3.182   1.007   5.867 -2.6753  2.8028 -0.5615
 7497SOL     OW33949   1.634   4.230   5.188 -0.1715 -0.4860  0.3242
 7497SOL    HW133950   1.660   4.239   5.097 -1.0404 -1.9563 -0.0565
 7497SOL    HW233951   1.573   4.157   5.177  1.4372 -1.8683  0.6080
 7498SOL     OW33952   0.414   2.906   2.280  0.5076  0.0528  0.2176
 7498SOL    HW133953   0.483   2.972   2.280  0.6627 -0.1129  0.9940
 7498SOL    HW233954   0.467   2.829   2.262 -0.3643 -0.7785  1.1865
 7499SOL     OW33955   4.524   3.202   5.686  0.3004  0.6869  0.0243
 7499SOL    HW133956   4.498   3.266   5.752 -0.2088 -0.6414  1.1041
 7499SOL    HW233957   4.454   3.137   5.694  0.2112  0.8027  0.1721
 7500SOL     OW33958   0.978   1.797   1.955  0.8765  0.1149  0.1458
 7500SOL    HW133959   0.961   1.749   1.874 -1.0427 -0.3685  0.8374
 7500SOL    HW233960   0.973   1.727   2.020  0.2816 -0.2829 -0.3273
 7501SOL     OW33961   2.708   0.871   5.838  0.5463  0.2771  0.2359
 7501SOL    HW133962   2.681   0.784   5.808  0.4150  0.3282  0.2020
 7501SOL    HW233963   2.646   0.927   5.791 -1.3307 -2.0843 -0.0899
 7502SOL     OW33964   2.436   1.424   5.166  0.9653  0.1672 -0.6482
 7502SOL    HW133965   2.508   1.383   5.118 -0.4548 -1.4433 -1.4403
 7502SOL    HW233966   2.417   1.499   5.110 -0.3985  0.3388  0.0376
 7503SOL     OW33967   3.217   2.876   1.264  0.2021  0.1993  0.2434
 7503SOL    HW133968   3.209   2.787   1.297  0.7414  0.1243  0.1673
 7503SOL    HW233969   3.252   2.854   1.178 -0.5907 -2.0231  0.5124
 7504SOL     OW33970   2.751   4.108   4.056  0.0812 -0.8589  0.2604
 7504SOL    HW133971   2.788   4.145   3.976 -0.9043  1.0932  0.7073
 7504SOL    HW233972   2.705   4.028   4.034 -2.0504  1.1243 -2.4971
 7505SOL     OW33973   2.478   0.497   2.808 -0.0838 -0.1709 -0.3005
 7505SOL    HW133974   2.422   0.462   2.878  0.7130  0.9412  0.8836
 7505SOL    HW233975   2.485   0.589   2.831  0.3866 -0.4161  0.5265
 7506SOL     OW33976   3.094   3.829   2.223  0.2046 -0.1889 -0.2032
 7506SOL    HW133977   3.049   3.807   2.142  1.6310  0.3215 -1.1183
 7506SOL    HW233978   3.167   3.885   2.198  1.2896 -1.8372 -0.6930
 7507SOL     OW33979   2.300   2.146   8.541 -0.1425 -0.2053 -0.4889
 7507SOL    HW133980   2.322   2.159   8.448 -0.5308 -1.5527 -0.7704
 7507SOL    HW233981   2.226   2.085   8.536  0.6819 -1.4563  2.7126
 7508SOL     OW33982   3.705   2.477  16.980 -0.7511  0.1242  0.2336
 7508SOL    HW133983   3.675   2.425  16.906  1.3334 -1.1977  0.3067
 7508SOL    HW233984   3.785   2.427  16.994 -1.5616 -1.2457  0.0200
 7509SOL     OW33985   0.506   2.922  11.844  0.4966  0.4961 -0.2476
 7509SOL    HW133986   0.553   2.990  11.891  1.1492 -1.3316  1.7585
 7509SOL    HW233987   0.438   2.974  11.801  1.4822  0.2942 -2.0242
 7510SOL     OW33988   3.955   2.579   2.898 -0.5974  0.1430 -0.2579
 7510SOL    HW133989   4.045   2.600   2.874 -1.1898  1.8291 -1.0130
 7510SOL    HW233990   3.926   2.536   2.817 -0.1812  2.8330 -1.8337
 7511SOL     OW33991   2.304   3.445  17.685  0.5607  0.5249  0.0362
 7511SOL    HW133992   2.304   3.369   0.050 -2.1607  1.6395  1.4590
 7511SOL    HW233993   2.394   3.445  17.653  0.2076  0.6160 -0.9655
 7512SOL     OW33994   0.613   0.519   6.568 -0.2413 -0.1335 -0.0958
 7512SOL    HW133995   0.649   0.441   6.525 -0.3387  0.5780 -1.4719
 7512SOL    HW233996   0.680   0.546   6.630 -1.1485  0.1160  0.7701
 7513SOL     OW33997   4.225   3.439   6.288  0.9806 -0.6934  0.1009
 7513SOL    HW133998   4.149   3.429   6.231  1.3443 -1.1310 -0.3182
 7513SOL    HW233999   4.191   3.396   6.366 -0.8097  0.8904  0.1750
 7514SOL     OW34000   0.259   2.722   6.669 -0.0592 -0.6446 -0.0876
 7514SOL    HW134001   0.278   2.638   6.711  2.6045 -0.6225 -1.2659
 7514SOL    HW234002   0.347   2.758   6.670 -0.4963  0.5187 -3.2517
 7515SOL     OW34003   3.318   0.219  11.560 -0.1207  0.1074  0.0995
 7515SOL    HW134004   3.281   0.138  11.524 -0.0379  0.8258 -1.5827
 7515SOL    HW234005   3.341   0.200  11.651 -0.4075 -0.8870 -0.0347
 7516SOL     OW34006   1.998   1.658   1.763 -0.1296 -0.1623 -0.1974
 7516SOL    HW134007   1.979   1.663   1.669 -3.2614  0.6200  0.4823
 7516SOL    HW234008   1.941   1.587   1.792  1.7488 -1.6661 -0.1833
 7517SOL     OW34009   4.356   0.687  10.578  0.3373  0.0483 -1.1469
 7517SOL    HW134010   4.278   0.718  10.623  0.0557 -1.5156 -0.5613
 7517SOL    HW234011   4.383   0.771  10.541  2.2722  0.0849  0.3588
 7518SOL     OW34012   1.398   3.910   8.754  0.2606  0.2758  1.1289
 7518SOL    HW134013   1.358   3.826   8.776 -1.4491  0.8085  0.0759
 7518SOL    HW234014   1.424   3.934   8.843  0.5345 -1.7741  1.5848
 7519SOL     OW34015   1.776   0.407   1.483 -0.0427 -0.0428 -0.0245
 7519SOL    HW134016   1.735   0.480   1.531  0.7210 -0.7573  1.7179
 7519SOL    HW234017   1.852   0.450   1.445 -0.8421 -2.0936 -3.9069
 7520SOL     OW34018   1.214   0.496   3.821 -0.2650  0.2759  0.6149
 7520SOL    HW134019   1.280   0.519   3.887 -0.1949  1.3356  0.1689
 7520SOL    HW234020   1.251   0.413   3.790 -1.3990  0.5190 -1.3709
 7521SOL     OW34021   4.216   2.948   8.775 -0.4462 -0.2343  0.8271
 7521SOL    HW134022   4.259   2.862   8.787 -1.0465 -0.8849 -1.8424
 7521SOL    HW234023   4.132   2.931   8.818 -0.1266 -0.8013  1.2420
 7522SOL     OW34024   1.269   1.893   3.515 -0.2803  0.6166 -0.1164
 7522SOL    HW134025   1.361   1.919   3.514 -1.1003  3.5499 -0.2877
 7522SOL    HW234026   1.232   1.915   3.600 -0.3622 -0.8064  0.2050
 7523SOL     OW34027   4.091   4.196   4.381  0.2616  0.0342 -0.2242
 7523SOL    HW134028   4.072   4.271   4.325 -0.3181  0.3607  0.4132
 7523SOL    HW234029   4.182   4.181   4.355 -0.0962 -0.1979 -1.3226
 7524SOL     OW34030   2.594   3.489  10.976  0.6264  0.3373 -0.3795
 7524SOL    HW134031   2.535   3.414  10.964  1.4015 -0.3801  0.2696
 7524SOL    HW234032   2.532   3.561  10.960 -1.0560 -0.5044  2.2291
 7525SOL     OW34033   3.673   2.458  17.533 -0.6714  0.6055  0.4162
 7525SOL    HW134034   3.620   2.404  17.591 -0.7230 -0.1788 -0.3647
 7525SOL    HW234035   3.694   2.399  17.460 -0.3932  0.1845  0.8404
 7526SOL     OW34036   3.075   2.254   5.344  0.4216 -0.4970  0.1703
 7526SOL    HW134037   3.106   2.339   5.314 -1.6715  0.6867  1.3415
 7526SOL    HW234038   2.989   2.253   5.302  0.5490 -1.4883 -0.0667
 7527SOL     OW34039   1.943   3.236  12.240  0.4639  0.1635  0.5172
 7527SOL    HW134040   1.956   3.326  12.270  0.3834  0.3454  0.0006
 7527SOL    HW234041   2.005   3.180  12.286  0.1317  0.0616  0.8489
 7528SOL     OW34042   3.519   1.501   2.078  0.6195 -0.5055  0.0986
 7528SOL    HW134043   3.566   1.513   2.160 -0.0777 -0.2571  0.4554
 7528SOL    HW234044   3.475   1.585   2.066  0.9929 -0.1160  1.4796
 7529SOL     OW34045   0.976   0.335   8.545  0.3461 -0.9368 -0.4830
 7529SOL    HW134046   0.915   0.266   8.569 -1.9089  0.9531 -0.8480
 7529SOL    HW234047   0.993   0.317   8.452  0.4194 -0.3690 -0.5817
 7530SOL     OW34048   3.922   2.129   6.428 -0.1759 -0.7365  0.0532
 7530SOL    HW134049   3.832   2.153   6.409  0.6671  0.9678 -1.8203
 7530SOL    HW234050   3.925   2.149   6.521  0.6482  0.2151 -0.1829
 7531SOL     OW34051   1.634   4.174  15.741  0.0361  0.4602  0.0928
 7531SOL    HW134052   1.571   4.180  15.669 -1.1365 -1.9490  0.9486
 7531SOL    HW234053   1.638   4.081  15.763  1.3211  0.3458 -0.5968
 7532SOL     OW34054   0.116   0.686   1.984  0.3777  0.9762 -0.0548
 7532SOL    HW134055   0.112   0.607   1.931 -1.3674  0.1813  1.2510
 7532SOL    HW234056   0.205   0.714   1.962  0.8221  0.0033  0.5094
 7533SOL     OW34057   0.656   3.996   5.912 -0.4520 -0.2239  0.4579
 7533SOL    HW134058   0.669   4.079   5.866  2.1773 -1.1706 -0.5719
 7533SOL    HW234059   0.714   3.946   5.853  0.9946  2.0272 -0.0098
 7534SOL     OW34060   3.193   4.539   1.438 -0.4873 -0.2355  0.0672
 7534SOL    HW134061   3.254   4.559   1.510  1.1380 -2.3451 -0.7023
 7534SOL    HW234062   3.244   4.463   1.410 -0.0859  0.1084 -0.1397
 7535SOL     OW34063   3.673   3.757   1.171 -0.4245 -0.0672  0.3588
 7535SOL    HW134064   3.620   3.681   1.146  1.0798 -2.1600  3.5593
 7535SOL    HW234065   3.757   3.712   1.186  0.6007  1.7586  0.0258
 7536SOL     OW34066   0.738   1.615   8.296 -0.0615  0.5266 -0.3578
 7536SOL    HW134067   0.774   1.699   8.269  0.4565 -0.1688 -1.8067
 7536SOL    HW234068   0.740   1.624   8.391  0.0962  1.4481 -0.4526
 7537SOL     OW34069   2.090   2.932   6.132  0.1177 -0.1187 -0.4783
 7537SOL    HW134070   2.167   2.881   6.160 -0.0195 -0.3626 -0.5399
 7537SOL    HW234071   2.027   2.867   6.164  0.4502  0.5113  1.4143
 7538SOL     OW34072   1.823   4.511   8.399 -0.0825  0.0520 -0.1160
 7538SOL    HW134073   1.856   4.514   8.489 -3.1634 -1.5388  1.0607
 7538SOL    HW234074   1.798   4.420   8.380  1.9463 -0.4749 -0.2804
 7539SOL     OW34075   4.155   3.121   1.810  0.3310 -0.2123  0.3201
 7539SOL    HW134076   4.244   3.086   1.806  0.8089  1.4470 -3.6602
 7539SOL    HW234077   4.124   3.107   1.721 -1.9442 -0.3295  1.1524
 7540SOL     OW34078   4.368   2.403   1.393 -0.4014  0.4924 -0.1497
 7540SOL    HW134079   4.402   2.461   1.462 -0.7527  0.4868  0.0278
 7540SOL    HW234080   4.414   2.417   1.310  0.0531 -0.1029 -0.0011
 7541SOL     OW34081   3.416   1.199  12.370 -0.3521  0.5021  0.2247
 7541SOL    HW134082   3.477   1.178  12.440 -0.9807  1.0709  0.9441
 7541SOL    HW234083   3.479   1.186  12.299  0.4252 -0.0727  1.0211
 7542SOL     OW34084   1.285   1.071  11.605  0.1871  0.5416  0.2788
 7542SOL    HW134085   1.278   1.164  11.588  1.4293  0.5234 -0.3494
 7542SOL    HW234086   1.369   1.051  11.561  0.4039 -0.2526  1.0440
 7543SOL     OW34087   0.854   1.451   3.220 -0.0092  0.6981 -0.1891
 7543SOL    HW134088   0.922   1.501   3.174  0.7256 -0.4897 -0.4211
 7543SOL    HW234089   0.869   1.365   3.180 -1.1849  0.3224  0.1854
 7544SOL     OW34090   4.639   0.571   4.908  0.0923 -0.1665 -0.1127
 7544SOL    HW134091   4.718   0.615   4.936  0.5586 -0.4539 -0.9812
 7544SOL    HW234092   4.569   0.631   4.934 -0.7062 -1.1800  0.0875
 7545SOL     OW34093   4.161   3.687  15.101 -0.7151 -0.8203 -0.2773
 7545SOL    HW134094   4.237   3.693  15.044  0.6976 -0.1585  1.6920
 7545SOL    HW234095   4.148   3.773  15.142 -0.6711 -0.6322 -0.6630
 7546SOL     OW34096   1.721   1.978   7.318 -0.0840 -0.6874 -0.1226
 7546SOL    HW134097   1.766   2.060   7.339  0.7962 -1.2291  0.0873
 7546SOL    HW234098   1.630   2.007   7.329 -0.4439 -0.9602 -2.4980
 7547SOL     OW34099   0.710   0.393  11.751  0.2725 -0.2824  0.7808
 7547SOL    HW134100   0.653   0.441  11.691 -0.1989 -0.0188  1.4434
 7547SOL    HW234101   0.790   0.377  11.699 -1.1758 -0.9163 -1.2482
 7548SOL     OW34102   0.452   0.388   6.955 -0.4878 -0.3074  0.3433
 7548SOL    HW134103   0.524   0.345   6.911  0.2421  0.9868  0.2638
 7548SOL    HW234104   0.382   0.395   6.890  0.6729  2.4917 -0.5933
 7549SOL     OW34105   3.108   1.111   2.550 -0.5289  0.3678 -0.1444
 7549SOL    HW134106   3.055   1.142   2.623  0.1622  1.7391 -0.2261
 7549SOL    HW234107   3.190   1.160   2.561  0.9449 -2.4451  1.3735
 7550SOL     OW34108   1.129   1.044  17.558 -0.1133 -0.2773 -0.1331
 7550SOL    HW134109   1.210   1.091  17.536 -1.8653  2.9453  0.3068
 7550SOL    HW234110   1.163   0.984  17.624 -0.2954 -0.2762 -0.0376
 7551SOL     OW34111   2.404   1.877   4.454 -0.0577  0.5432  0.0527
 7551SOL    HW134112   2.346   1.850   4.383  0.7663  0.9156 -0.7509
 7551SOL    HW234113   2.391   1.806   4.517 -1.2351  1.9785  1.4594
 7552SOL     OW34114   1.986   2.771   4.934  1.0654  0.0365  0.1203
 7552SOL    HW134115   2.048   2.813   4.875  2.1250 -2.9667 -0.8825
 7552SOL    HW234116   1.962   2.853   4.978 -0.8166 -0.2879 -0.2815
 7553SOL     OW34117   3.354   1.766   4.116  0.0032  0.1366 -0.1820
 7553SOL    HW134118   3.440   1.775   4.074  1.0927 -1.0059  1.7992
 7553SOL    HW234119   3.366   1.837   4.180 -1.0672  0.0769  0.0729
 7554SOL     OW34120   3.504   4.548   6.453  0.2150 -0.6020 -0.1792
 7554SOL    HW134121   3.516   4.455   6.472 -0.4044 -0.1931  2.2383
 7554SOL    HW234122   3.410   4.551   6.436  0.3517  0.2217 -0.7486
 7555SOL     OW34123   3.904   1.283  10.434 -0.2572  0.4969  0.5126
 7555SOL    HW134124   3.864   1.340  10.499  0.2722 -0.4171  1.6551
 7555SOL    HW234125   3.832   1.282  10.371 -0.5355  0.7037  0.8342
 7556SOL     OW34126   4.442   3.409   3.839  0.0350  0.4474 -0.5426
 7556SOL    HW134127   4.419   3.488   3.888 -0.9386  0.1238 -0.4688
 7556SOL    HW234128   4.446   3.335   3.900  2.0087  0.6928 -0.3526
 7557SOL     OW34129   4.246   4.694  14.107  0.3328  0.0902  0.0229
 7557SOL    HW134130   4.154   4.673  14.092  0.0727  2.4173 -1.6584
 7557SOL    HW234131   4.230   0.035  14.176  2.3435 -0.0564  0.6379
 7558SOL     OW34132   1.094   3.800   3.809  0.2121 -0.1759 -0.1335
 7558SOL    HW134133   1.163   3.865   3.798 -0.3895  0.4646 -0.0986
 7558SOL    HW234134   1.018   3.849   3.777 -1.0819 -0.4974  2.4982
 7559SOL     OW34135   1.314   2.846   2.828  0.0056  0.3868  0.1205
 7559SOL    HW134136   1.295   2.753   2.845  0.6717  0.2478  0.0942
 7559SOL    HW234137   1.318   2.837   2.733 -2.1883 -0.3236  0.0924
 7560SOL     OW34138   2.783   0.725   9.951 -0.5558 -0.6624  0.4489
 7560SOL    HW134139   2.716   0.792   9.959  0.2807 -0.0262  2.0992
 7560SOL    HW234140   2.870   0.764   9.966 -0.3463 -1.9520  2.7030
 7561SOL     OW34141   2.004   4.192   7.493 -0.1093 -0.6933  0.3824
 7561SOL    HW134142   1.999   4.097   7.494 -1.0357 -0.6449  0.7465
 7561SOL    HW234143   1.920   4.208   7.449 -1.1906  0.8171  3.0463
 7562SOL     OW34144   4.530   2.916  12.111  0.1623 -0.4011 -0.0740
 7562SOL    HW134145   4.530   2.847  12.045  0.6093  0.9142 -1.4472
 7562SOL    HW234146   4.620   2.906  12.140 -0.3148  1.3996  2.0440
 7563SOL     OW34147   0.203   0.328   4.337 -0.0792  0.1395 -0.2732
 7563SOL    HW134148   0.197   0.318   4.432  0.1770  0.5691 -0.2098
 7563SOL    HW234149   0.298   0.331   4.322  0.3259  0.2224  2.2427
 7564SOL     OW34150   4.676   3.733   2.671  0.2349  0.0364 -0.7267
 7564SOL    HW134151   4.591   3.775   2.656 -0.0448 -0.3600 -0.2646
 7564SOL    HW234152   0.019   3.803   2.668  1.1343 -0.8206 -0.8604
 7565SOL     OW34153   2.837   1.790   7.946  0.3437  0.3686 -0.7422
 7565SOL    HW134154   2.855   1.857   8.012 -1.7835  1.7989 -1.6103
 7565SOL    HW234155   2.829   1.710   7.997 -0.1470  1.4498  0.8967
 7566SOL     OW34156   0.415   3.345  12.532  0.0750 -0.0404 -0.2752
 7566SOL    HW134157   0.434   3.339  12.626  0.0530 -1.2981 -0.3542
 7566SOL    HW234158   0.335   3.399  12.537 -1.0870 -1.5653 -2.4704
 7567SOL     OW34159   1.675   3.038   3.575  0.0978 -0.4630  0.5159
 7567SOL    HW134160   1.763   3.010   3.552 -0.2709  0.1079 -1.5879
 7567SOL    HW234161   1.654   3.087   3.495 -2.6801 -0.5631  1.1627
 7568SOL     OW34162   1.650   3.130  13.607 -0.7428 -0.6479  0.0040
 7568SOL    HW134163   1.587   3.085  13.662  0.1170 -1.9010 -0.0386
 7568SOL    HW234164   1.696   3.181  13.673  2.0875 -0.5007 -2.0508
 7569SOL     OW34165   0.473   1.725   4.034 -0.4111  0.4116  0.2342
 7569SOL    HW134166   0.443   1.673   4.109  2.7080 -0.3277  0.9699
 7569SOL    HW234167   0.561   1.737   4.070 -0.0040 -2.0678  0.0586
 7570SOL     OW34168   4.520   0.114   5.715 -0.2639 -0.6789  0.1520
 7570SOL    HW134169   4.611   0.103   5.690  0.4354 -0.1186  2.4492
 7570SOL    HW234170   4.479   0.091   5.631 -0.2199  1.1972 -0.3835
 7571SOL     OW34171   4.640   1.088  15.721  0.0763 -0.2017  0.4395
 7571SOL    HW134172   4.567   1.051  15.671 -0.3408  3.6138 -1.8039
 7571SOL    HW234173   4.718   1.050  15.680  2.3532  2.2826  2.5034
 7572SOL     OW34174   3.119   3.901   1.527 -0.1249 -0.3358 -0.3727
 7572SOL    HW134175   3.145   3.987   1.561  0.2128 -0.4835 -0.2616
 7572SOL    HW234176   3.203   3.857   1.538 -0.6557 -1.3129 -0.2809
 7573SOL     OW34177   2.721   1.152   8.152 -0.6030 -0.1504  0.1043
 7573SOL    HW134178   2.752   1.232   8.194  1.9315 -0.5880 -0.9390
 7573SOL    HW234179   2.806   1.109   8.141 -0.7472  0.0942 -2.0604
 7574SOL     OW34180   2.391   1.741  10.589  0.5288  0.4981 -0.6646
 7574SOL    HW134181   2.429   1.807  10.647 -1.9455 -0.3334  1.8993
 7574SOL    HW234182   2.365   1.800  10.519  2.0464  3.2276  1.0993
 7575SOL     OW34183   1.105   0.622   7.774 -0.7340 -0.5838 -0.3630
 7575SOL    HW134184   1.191   0.645   7.739 -0.9896  0.3894 -0.3515
 7575SOL    HW234185   1.072   0.710   7.794  0.7545  0.3385 -1.9946
 7576SOL     OW34186   2.282   1.437  13.170  0.0787  0.6411  0.1932
 7576SOL    HW134187   2.353   1.485  13.214  1.3012 -0.4872 -0.5402
 7576SOL    HW234188   2.324   1.353  13.153 -2.1184 -0.8277  2.0095
 7577SOL     OW34189   3.641   2.371  16.737 -0.0428  0.0210 -0.0163
 7577SOL    HW134190   3.647   2.461  16.704 -0.1484 -0.6755 -1.9102
 7577SOL    HW234191   3.564   2.337  16.693  0.8606 -0.9979 -0.8020
 7578SOL     OW34192   1.466   0.657   3.534 -0.4476 -0.2670  0.9087
 7578SOL    HW134193   1.532   0.702   3.586 -0.2016 -0.8746  1.1262
 7578SOL    HW234194   1.505   0.576   3.502 -1.0832 -0.6180  1.0183
 7579SOL     OW34195   4.092   1.759   1.045 -0.2940  0.1724  0.1952
 7579SOL    HW134196   4.136   1.842   1.024  1.5317 -0.4329  1.6968
 7579SOL    HW234197   4.133   1.700   0.982 -1.7235 -0.5356 -0.0759
 7580SOL     OW34198   3.897   4.547   3.444 -0.0046 -0.2007 -0.0808
 7580SOL    HW134199   3.860   4.529   3.357 -1.9359  0.6337  0.5644
 7580SOL    HW234200   3.985   4.576   3.418 -0.7898  1.4469 -0.9159
 7581SOL     OW34201   0.748   3.602   8.434  0.0042 -0.0619 -0.2890
 7581SOL    HW134202   0.709   3.573   8.516  0.2043  0.0030 -0.1717
 7581SOL    HW234203   0.702   3.685   8.424  0.7879  0.4723  0.5865
 7582SOL     OW34204   4.584   0.227   6.600  0.2273 -0.3236 -0.2763
 7582SOL    HW134205   4.671   0.197   6.627  0.0269 -1.0721 -0.4632
 7582SOL    HW234206   4.606   0.292   6.533 -0.4704 -0.0033 -0.1903
 7583SOL     OW34207   2.512   1.584   5.377 -0.4733 -0.2899 -0.3875
 7583SOL    HW134208   2.537   1.502   5.417 -0.5043  0.5022  1.2432
 7583SOL    HW234209   2.515   1.559   5.285 -1.4740  0.4347 -0.6310
 7584SOL     OW34210   3.498   2.892   3.269  0.6518  0.4366  0.0112
 7584SOL    HW134211   3.415   2.939   3.278 -0.1754 -0.7063 -1.6436
 7584SOL    HW234212   3.461   2.812   3.233 -0.0715  0.8516 -0.1565
 7585SOL     OW34213   2.670   0.861   6.354  0.0076  0.1119 -0.3015
 7585SOL    HW134214   2.764   0.879   6.350 -0.2823  1.5907 -0.5820
 7585SOL    HW234215   2.640   0.932   6.296 -0.2755  1.7388  1.8342
 7586SOL     OW34216   4.388   2.380   3.337 -0.3407 -0.1271 -0.0091
 7586SOL    HW134217   4.422   2.342   3.256 -2.5660  1.4501 -1.6895
 7586SOL    HW234218   4.465   2.371   3.392  0.0116  0.5918 -0.3889
 7587SOL     OW34219   3.856   1.302   4.306 -0.5943 -0.4373 -0.7011
 7587SOL    HW134220   3.761   1.317   4.302 -0.6025 -0.7769 -1.6892
 7587SOL    HW234221   3.885   1.393   4.299 -1.6055  0.1417  2.3331
 7588SOL     OW34222   3.493   1.669  17.312 -0.6985  0.1652  0.0465
 7588SOL    HW134223   3.427   1.613  17.270  0.4365  0.4302 -2.0948
 7588SOL    HW234224   3.525   1.717  17.235 -0.1863  0.2434  0.3070
 7589SOL     OW34225   1.176   0.715   4.578  0.1201 -0.1574 -0.8872
 7589SOL    HW134226   1.159   0.737   4.487 -0.8950 -1.0251 -0.9134
 7589SOL    HW234227   1.107   0.749   4.635  1.2488 -1.5567  1.3419
 7590SOL     OW34228   1.971   4.074   1.636  0.1832 -0.1515 -0.0438
 7590SOL    HW134229   2.013   4.093   1.552 -2.2218 -0.2418 -1.2706
 7590SOL    HW234230   1.880   4.102   1.645 -0.0725 -0.6610 -1.1077
 7591SOL     OW34231   4.284   3.652   5.978  0.8185 -0.1411  0.0015
 7591SOL    HW134232   4.278   3.691   5.890 -0.6564  1.6939  0.9201
 7591SOL    HW234233   4.273   3.558   5.962  1.7285 -0.3595  0.7092
 7592SOL     OW34234   3.723   3.269   2.023 -0.2075 -0.3847 -0.4787
 7592SOL    HW134235   3.759   3.272   1.935  0.2908  1.2391 -0.2220
 7592SOL    HW234236   3.777   3.203   2.066 -2.8529 -2.1559  0.1208
 7593SOL     OW34237   1.010   2.842   7.865 -0.2427  0.5329 -0.0186
 7593SOL    HW134238   0.932   2.856   7.811  0.0788  1.7244 -0.1644
 7593SOL    HW234239   1.010   2.930   7.900  1.1053  0.5261  0.0107
 7594SOL     OW34240   0.407   2.008   3.215 -0.4109  0.3269  0.2972
 7594SOL    HW134241   0.334   2.057   3.251 -1.0990 -1.1457  0.9319
 7594SOL    HW234242   0.448   2.068   3.153  0.5074  0.5084  1.0730
 7595SOL     OW34243   0.735   1.885   7.686  0.2114  0.5140  0.1253
 7595SOL    HW134244   0.745   1.803   7.636  1.9106  0.1548  1.0242
 7595SOL    HW234245   0.648   1.904   7.652 -1.2639 -2.7114  2.0754
 7596SOL     OW34246   0.152   3.554   7.349  0.1244 -0.4760  0.5037
 7596SOL    HW134247   0.093   3.626   7.371  1.5075  0.9380 -0.4741
 7596SOL    HW234248   0.080   3.502   7.314 -0.1854 -0.6797  1.4378
 7597SOL     OW34249   2.429   3.285   2.569 -0.1174 -0.3103  0.1467
 7597SOL    HW134250   2.430   3.331   2.652 -1.5479  0.5269 -0.2817
 7597SOL    HW234251   2.362   3.332   2.519 -0.0040  1.3479  1.5519
 7598SOL     OW34252   0.759   1.244   7.546  0.5725  0.8523 -0.3622
 7598SOL    HW134253   0.740   1.150   7.546  0.2935  0.9088 -0.2256
 7598SOL    HW234254   0.748   1.257   7.640 -0.7355  0.3119 -0.4506
 7599SOL     OW34255   1.454   2.923   7.056  0.3885 -0.4315 -0.1467
 7599SOL    HW134256   1.422   2.967   6.978 -0.0397  0.3729  0.4857
 7599SOL    HW234257   1.375   2.876   7.082 -0.6740  1.8557  0.6991
 7600SOL     OW34258   4.157   3.290   5.744 -0.1317  0.3225 -0.1767
 7600SOL    HW134259   4.231   3.341   5.777 -2.0645  1.5540  2.1903
 7600SOL    HW234260   4.085   3.349   5.761  0.1867  0.0007  2.2732
 7601SOL     OW34261   1.239   4.618   1.526 -0.4608  0.4391 -0.4982
 7601SOL    HW134262   1.281   4.654   1.448  2.0754 -1.4031  0.0361
 7601SOL    HW234263   1.285   4.535   1.527 -0.6499  0.3325 -0.5522
 7602SOL     OW34264   2.517   4.593   7.184  0.5857 -0.4668 -0.5391
 7602SOL    HW134265   2.558   4.509   7.207  1.1216  0.0742  0.5198
 7602SOL    HW234266   2.439   4.579   7.131  0.1876  0.4842 -0.2068
 7603SOL     OW34267   3.884   1.027   9.780  0.1398  0.1773 -0.7209
 7603SOL    HW134268   3.884   1.013   9.685  2.7971  0.4034 -0.7613
 7603SOL    HW234269   3.932   1.109   9.778 -0.2891  0.4557  0.6402
 7604SOL     OW34270   4.627   3.525   2.194  0.2911  0.3097 -0.3859
 7604SOL    HW134271   4.588   3.454   2.142  0.9606 -0.5271  0.2465
 7604SOL    HW234272   4.646   3.475   2.274  0.0296  2.6893  1.1468
 7605SOL     OW34273   3.114   1.328  10.982 -0.1561 -0.4517 -0.2120
 7605SOL    HW134274   3.144   1.349  10.893 -0.3597 -0.0786 -0.1953
 7605SOL    HW234275   3.026   1.367  10.979  0.9469  1.8405 -2.4189
 7606SOL     OW34276   3.509   2.529   5.381 -0.0335  0.5532 -0.7480
 7606SOL    HW134277   3.464   2.598   5.429 -1.2198  0.1735 -1.3360
 7606SOL    HW234278   3.527   2.464   5.450 -0.1352  1.6131  0.2883
 7607SOL     OW34279   3.659   2.182   6.382 -0.2457  0.2654  0.2513
 7607SOL    HW134280   3.693   2.196   6.293  0.9329 -0.7298  0.5524
 7607SOL    HW234281   3.602   2.107   6.363 -0.5236  0.2665  1.1087
 7608SOL     OW34282   2.856   4.545   7.684  0.0518  0.2864 -0.3610
 7608SOL    HW134283   2.892   4.618   7.735  1.5477 -0.3630 -0.4875
 7608SOL    HW234284   2.844   4.587   7.600 -0.9139  0.1483 -0.2875
 7609SOL     OW34285   1.983   2.571   3.981  0.2025 -0.2418 -0.1261
 7609SOL    HW134286   1.994   2.501   4.045  0.6297  0.5084  0.6370
 7609SOL    HW234287   1.912   2.609   4.033 -0.0683 -1.9339  0.7261
 7610SOL     OW34288   2.087   2.948  16.800 -0.4736 -0.2450 -0.2873
 7610SOL    HW134289   2.056   3.000  16.874  0.5356  0.0117 -0.0427
 7610SOL    HW234290   2.016   2.962  16.738 -0.4490  2.1452  0.2125
 7611SOL     OW34291   1.200   3.437   2.706 -0.3203 -0.4948 -0.4814
 7611SOL    HW134292   1.221   3.398   2.791  1.9509  1.6979 -0.0362
 7611SOL    HW234293   1.126   3.493   2.731 -1.1235 -2.9330  2.5992
 7612SOL     OW34294   2.206   0.337   7.406 -0.9560 -0.1837 -0.3265
 7612SOL    HW134295   2.206   0.310   7.498 -2.0917  2.7445  0.5163
 7612SOL    HW234296   2.288   0.295   7.378  0.0306  1.6011 -0.1229
 7613SOL     OW34297   3.626   2.717  11.112 -0.6888  0.5840  0.1071
 7613SOL    HW134298   3.717   2.713  11.082 -1.2305  0.0649 -1.4259
 7613SOL    HW234299   3.640   2.770  11.191  1.9922  0.8184 -0.5252
 7614SOL     OW34300   4.500   2.676   5.587  0.5287  0.0967  0.0996
 7614SOL    HW134301   4.585   2.663   5.545  0.2617 -0.6011 -0.2371
 7614SOL    HW234302   4.511   2.611   5.656 -3.6236  1.1640  1.8191
 7615SOL     OW34303   1.331   2.926  13.071  0.6538  0.0950 -0.4234
 7615SOL    HW134304   1.404   2.987  13.064 -1.1473  2.5520  2.6291
 7615SOL    HW234305   1.377   2.846  13.046 -1.2430 -1.1599  0.0794
 7616SOL     OW34306   2.299   1.316   4.539  0.5864  0.5756  0.7559
 7616SOL    HW134307   2.278   1.314   4.632 -1.7694  0.5923  0.2049
 7616SOL    HW234308   2.277   1.228   4.510  2.0746  0.5361 -0.2741
 7617SOL     OW34309   3.920   0.573   1.792 -0.7288 -0.0630 -0.0447
 7617SOL    HW134310   3.947   0.572   1.700  2.7571 -0.8814  1.0177
 7617SOL    HW234311   3.871   0.656   1.795  0.0684  0.5010 -2.0558
 7618SOL     OW34312   4.108   0.785   6.724  0.4004 -0.7031 -0.2019
 7618SOL    HW134313   4.021   0.748   6.740  0.4770 -0.2401  1.3441
 7618SOL    HW234314   4.169   0.711   6.732  1.4816 -0.0580 -2.7285
 7619SOL     OW34315   2.255   0.597   2.433 -0.0742 -0.3706 -0.5290
 7619SOL    HW134316   2.269   0.566   2.344 -1.1133  0.0022 -0.8167
 7619SOL    HW234317   2.344   0.611   2.466  0.3723 -2.0404 -1.0309
 7620SOL     OW34318   1.205   2.242   3.926 -0.1352 -0.5417  0.4093
 7620SOL    HW134319   1.249   2.327   3.917 -1.3374  0.1245  0.8686
 7620SOL    HW234320   1.214   2.221   4.018 -1.5541  0.3097  0.7478
 7621SOL     OW34321   4.405   1.986   7.481  0.4523  0.0940  0.2351
 7621SOL    HW134322   4.372   1.908   7.526 -1.7224  1.6220  1.2661
 7621SOL    HW234323   4.332   2.004   7.422  2.4653  0.8215 -2.0400
 7622SOL     OW34324   4.468   4.561  11.120 -0.0291 -0.0216 -0.3377
 7622SOL    HW134325   4.398   4.500  11.142 -0.1331 -0.3470 -1.6055
 7622SOL    HW234326   4.438   4.637  11.171 -1.3734 -1.2250  0.6346
 7623SOL     OW34327   4.619   3.478   5.991  0.3177  0.1554 -0.5958
 7623SOL    HW134328   4.607   3.556   6.046  0.9609  0.5281 -0.9877
 7623SOL    HW234329   4.705   3.506   5.959  0.5717 -1.7141 -1.5623
 7624SOL     OW34330   2.636   3.807  10.426 -0.5650  0.1166  0.2701
 7624SOL    HW134331   2.614   3.715  10.416  1.6034 -0.2251 -1.3201
 7624SOL    HW234332   2.593   3.844  10.348 -2.8841 -0.0509  1.4649
 7625SOL     OW34333   1.776   1.426   1.008 -0.6221 -0.2216  0.0633
 7625SOL    HW134334   1.753   1.460   1.094  0.1373  0.8504 -0.1518
 7625SOL    HW234335   1.700   1.376   0.978  0.1255 -0.8151 -0.8398
 7626SOL     OW34336   0.726   0.574   8.309 -0.1948  0.3774 -0.1206
 7626SOL    HW134337   0.729   0.606   8.219  0.6537  1.4528  0.2872
 7626SOL    HW234338   0.743   0.481   8.301  1.6328  0.6531  0.6622
 7627SOL     OW34339   2.798   2.060   3.983 -0.0081 -0.1921 -0.1100
 7627SOL    HW134340   2.742   2.046   4.060  0.8121  0.4849  0.6117
 7627SOL    HW234341   2.765   2.138   3.938 -1.8225 -2.1249 -2.1171
 7628SOL     OW34342   2.995   3.884  13.645 -0.3659 -0.8166 -0.0072
 7628SOL    HW134343   2.913   3.850  13.679 -1.9024  1.5607 -1.3303
 7628SOL    HW234344   2.967   3.884  13.553 -2.6858  0.0905  0.7038
 7629SOL     OW34345   0.944   2.955   3.165 -0.2726  0.2241  0.0886
 7629SOL    HW134346   0.992   2.886   3.120  1.1463  1.8456 -0.8951
 7629SOL    HW234347   0.956   2.925   3.254  2.8118  1.9860  0.2649
 7630SOL     OW34348   4.200   0.445   4.390 -0.4079 -0.1410 -0.4824
 7630SOL    HW134349   4.181   0.436   4.483 -1.6252 -1.7121 -0.8902
 7630SOL    HW234350   4.295   0.458   4.383 -0.0629 -1.9759  0.8498
 7631SOL     OW34351   1.304   4.330   8.622  0.2473 -0.2349 -0.0859
 7631SOL    HW134352   1.357   4.390   8.569 -0.4096  2.0996  1.9140
 7631SOL    HW234353   1.344   4.245   8.606  2.6089  1.1324 -1.4874
 7632SOL     OW34354   1.773   1.726   4.889  0.5932  0.1033 -0.2562
 7632SOL    HW134355   1.700   1.787   4.890  1.2944  0.9609 -1.2193
 7632SOL    HW234356   1.850   1.776   4.861  0.2207  0.9379  0.2204
 7633SOL     OW34357   0.081   3.826   7.725  0.4371 -0.0813  0.1365
 7633SOL    HW134358   0.016   3.798   7.661  0.0518 -0.7189  0.7929
 7633SOL    HW234359   0.113   3.739   7.749 -2.0685 -0.5800  1.6566
 7634SOL     OW34360   0.391   3.693   8.789 -0.3510 -0.3071 -0.4374
 7634SOL    HW134361   0.465   3.705   8.730 -0.3815  0.5854 -0.2843
 7634SOL    HW234362   0.441   3.699   8.870 -1.2012  1.3527 -0.0458
 7635SOL     OW34363   4.691   2.336   3.711 -0.3127 -0.1196 -0.5513
 7635SOL    HW134364   4.700   2.243   3.734 -1.6935 -0.5130 -1.6027
 7635SOL    HW234365   4.644   2.372   3.785  0.8204  0.7049 -0.2304
 7636SOL     OW34366   0.182   4.608  12.614 -0.5215  0.2069 -0.5409
 7636SOL    HW134367   0.119   4.623  12.684 -0.0773 -0.2573 -0.0403
 7636SOL    HW234368   0.265   4.611  12.661 -0.7171 -0.1973 -0.1694
 7637SOL     OW34369   1.095   1.576   4.765 -0.4098  0.3091  0.2370
 7637SOL    HW134370   1.153   1.625   4.823 -0.5647 -0.7200  1.2761
 7637SOL    HW234371   1.027   1.542   4.824 -0.2098 -0.3827  0.0669
 7638SOL     OW34372   1.837   2.584   4.769  0.3406 -0.2795  0.5017
 7638SOL    HW134373   1.829   2.538   4.853 -0.8067 -2.5889 -0.8687
 7638SOL    HW234374   1.900   2.648   4.800  2.2995 -1.2698 -1.4293
 7639SOL     OW34375   0.474   3.041   3.865 -0.1224 -0.1535  0.0728
 7639SOL    HW134376   0.471   2.945   3.864 -0.4650 -0.1424  0.0457
 7639SOL    HW234377   0.515   3.047   3.951 -1.1239 -2.4538  0.7099
 7640SOL     OW34378   1.097   3.029  14.044 -0.3331 -0.0134 -0.2058
 7640SOL    HW134379   1.162   3.059  14.107 -1.8547  0.6113  1.0802
 7640SOL    HW234380   1.096   3.114  14.000 -1.6051  0.5367  0.8722
 7641SOL     OW34381   0.523   2.401  12.243  0.3666 -0.5896  0.2073
 7641SOL    HW134382   0.520   2.438  12.155  1.4573 -0.7261  0.1116
 7641SOL    HW234383   0.617   2.384  12.251  0.7474  0.5352 -1.7712
 7642SOL     OW34384   3.939   3.948   9.471  0.1489 -0.0371  0.2387
 7642SOL    HW134385   4.019   3.962   9.419  0.0081  1.0450  0.3228
 7642SOL    HW234386   3.872   3.992   9.419 -0.7241 -1.1380  0.4244
 7643SOL     OW34387   3.061   2.350  17.600 -0.2184 -0.0129 -0.3404
 7643SOL    HW134388   3.051   2.352   0.002  1.5356  0.6207 -0.1688
 7643SOL    HW234389   3.028   2.430  17.561 -2.2007 -0.6535  0.0629
 7644SOL     OW34390   2.323   4.373   5.142  0.2423 -0.5292  0.1146
 7644SOL    HW134391   2.400   4.424   5.117 -1.0710  1.8618  0.9550
 7644SOL    HW234392   2.256   4.402   5.080  0.2469 -0.8300 -0.0303
 7645SOL     OW34393   3.195   2.756   6.979 -0.5778 -0.1754 -0.1240
 7645SOL    HW134394   3.176   2.781   7.070  1.5241 -0.2178  0.3369
 7645SOL    HW234395   3.267   2.694   6.994  0.4799  0.9987 -0.2816
 7646SOL     OW34396   0.238   1.968   8.347  0.3307  0.7665  0.0349
 7646SOL    HW134397   0.207   1.898   8.290 -0.0922  0.0705  1.1161
 7646SOL    HW234398   0.329   1.941   8.360  1.4223  4.1305 -0.8193
 7647SOL     OW34399   4.011   4.047   6.400  0.3027  0.1539  0.2148
 7647SOL    HW134400   4.072   4.010   6.337  1.5136  0.4214  1.2265
 7647SOL    HW234401   4.027   4.002   6.483  1.3330  2.1279  1.0911
 7648SOL     OW34402   4.051   0.326   1.612  0.4240 -0.1360 -0.2373
 7648SOL    HW134403   4.143   0.351   1.612  0.7347 -1.3227  1.3841
 7648SOL    HW234404   4.018   0.413   1.589 -1.1488 -0.7291 -0.2108
 7649SOL     OW34405   1.548   4.479  10.144 -0.0573 -0.4866 -0.2939
 7649SOL    HW134406   1.641   4.504  10.139 -1.1521  4.0795  2.2056
 7649SOL    HW234407   1.502   4.562  10.153 -2.7564 -2.0368 -0.0076
 7650SOL     OW34408   4.612   0.825   4.724  0.9133 -0.0039 -0.1234
 7650SOL    HW134409   4.570   0.850   4.807  2.0191 -0.8515  0.6910
 7650SOL    HW234410   4.541   0.780   4.678  0.7635  0.0548  0.0479
 7651SOL     OW34411   0.226   0.952  12.300  0.4940  0.2182 -0.0397
 7651SOL    HW134412   0.265   0.888  12.240  0.4292 -0.3722  0.5535
 7651SOL    HW234413   0.253   1.023  12.241 -0.1632 -1.8795 -2.8919
 7652SOL     OW34414   2.435   0.795  15.576 -0.6210  0.4501 -0.3300
 7652SOL    HW134415   2.387   0.715  15.557 -2.3115  2.0886 -2.8990
 7652SOL    HW234416   2.430   0.843  15.494  1.9169  1.4581  0.1168
 7653SOL     OW34417   0.132   4.631   4.029 -0.2698  0.3612 -0.2848
 7653SOL    HW134418   0.119   4.715   3.985  2.5183  0.4716 -0.8866
 7653SOL    HW234419   0.061   4.634   4.093 -0.7320 -0.3120 -0.7688
 7654SOL     OW34420   0.155   1.099  14.210 -0.0661 -0.7609 -0.2803
 7654SOL    HW134421   0.242   1.073  14.181  0.3566 -0.1847  0.4883
 7654SOL    HW234422   0.156   1.193  14.193 -0.8294 -0.6690  0.1858
 7655SOL     OW34423   1.936   4.216  13.958 -0.3493  0.5390  0.3183
 7655SOL    HW134424   1.896   4.195  13.874  2.6222 -0.2691 -0.8932
 7655SOL    HW234425   1.885   4.296  13.974 -2.2343 -0.8081  1.0805
 7656SOL     OW34426   2.459   0.252   2.377 -0.2043  0.7512 -0.1772
 7656SOL    HW134427   2.426   0.303   2.304  0.8913  0.1437 -1.0893
 7656SOL    HW234428   2.473   0.315   2.448  0.6410 -1.0586  1.2871
 7657SOL     OW34429   3.641   2.397  11.146 -0.1505  0.0570  0.1117
 7657SOL    HW134430   3.641   2.350  11.230 -2.7189  1.5603  0.9343
 7657SOL    HW234431   3.720   2.451  11.144 -1.8924  2.4852 -2.0208
 7658SOL     OW34432   0.216   2.101   5.050  0.0720  0.1560 -0.0767
 7658SOL    HW134433   0.213   2.007   5.069  1.7305 -0.0342 -0.7688
 7658SOL    HW234434   0.288   2.139   5.101 -0.0676 -0.2801  0.4416
 7659SOL     OW34435   0.288   3.231   3.717 -0.0356  0.3340 -0.1284
 7659SOL    HW134436   0.352   3.245   3.647 -0.6222  1.9715 -0.3353
 7659SOL    HW234437   0.335   3.162   3.764 -0.5249  1.1565  1.5637
 7660SOL     OW34438   2.835   4.370  11.539  0.0317 -0.0046  0.4741
 7660SOL    HW134439   2.813   4.312  11.466 -0.3280  0.2221  0.3991
 7660SOL    HW234440   2.873   4.307  11.600  0.7494 -0.5797 -0.5786
 7661SOL     OW34441   1.206   4.608   9.294  0.2119 -0.1596  0.5005
 7661SOL    HW134442   1.193   4.630   9.202 -0.1385 -2.5404 -0.0334
 7661SOL    HW234443   1.175   4.518   9.301  1.2191 -0.6554 -1.4419
 7662SOL     OW34444   3.160   4.669   4.235  0.4342 -0.1665  0.0657
 7662SOL    HW134445   3.174   0.027   4.285 -1.3453 -0.3187  0.8139
 7662SOL    HW234446   3.087   4.701   4.182 -0.6026 -1.7351  0.5433
 7663SOL     OW34447   1.985   4.654   5.084  0.0488  0.4251 -0.2210
 7663SOL    HW134448   2.037   0.011   5.075  3.5969 -1.5729  2.8255
 7663SOL    HW234449   1.909   4.697   5.123 -0.7858 -2.6850  1.5598
 7664SOL     OW34450   1.949   0.706   7.440  0.3031  1.0026 -0.2675
 7664SOL    HW134451   1.956   0.619   7.399 -0.4732  0.8213 -0.0153
 7664SOL    HW234452   1.934   0.769   7.370  1.0943  0.6650 -0.7439
 7665SOL     OW34453   0.856   1.529   4.940  0.1721  0.0849 -0.2641
 7665SOL    HW134454   0.776   1.582   4.942  0.2406  0.2214 -1.1716
 7665SOL    HW234455   0.865   1.527   5.035 -1.7168  3.2150 -0.0063
 7666SOL     OW34456   0.088   4.092   1.052 -0.0950  0.1900  0.0682
 7666SOL    HW134457   0.131   4.007   1.050  1.6116  0.9722  3.1383
 7666SOL    HW234458   0.106   4.126   0.965 -0.2810  0.6257  0.1935
 7667SOL     OW34459   4.502   0.367  15.313  0.3196  0.3705 -0.2561
 7667SOL    HW134460   4.577   0.395  15.260 -0.5040  0.2306 -1.4909
 7667SOL    HW234461   4.537   0.380  15.401  2.0832 -0.8751 -0.7567
 7668SOL     OW34462   4.523   2.440   7.642  0.1321 -0.2885  0.5985
 7668SOL    HW134463   4.606   2.414   7.601 -0.5341 -0.4458 -0.6482
 7668SOL    HW234464   4.495   2.510   7.583 -0.9174 -1.2899 -0.0937
 7669SOL     OW34465   4.018   1.412   2.004  0.1559  0.3584 -0.5410
 7669SOL    HW134466   4.105   1.398   1.966 -0.2169 -0.8804 -0.9688
 7669SOL    HW234467   3.989   1.321   1.992  0.5185 -0.0814  1.9156
 7670SOL     OW34468   2.747   2.053  15.027  0.3706  0.3944 -0.6195
 7670SOL    HW134469   2.761   1.971  14.980  0.0583  0.2777 -0.5065
 7670SOL    HW234470   2.818   2.054  15.092  0.1713 -0.3215 -0.3948
 7671SOL     OW34471   1.505   1.896   7.889 -0.3943 -0.6026  0.6341
 7671SOL    HW134472   1.433   1.843   7.922 -0.5003  0.3071  1.8635
 7671SOL    HW234473   1.575   1.833   7.873  0.8278  0.2472  2.5853
 7672SOL     OW34474   2.913   2.638   8.568 -0.9669 -0.2255  0.1103
 7672SOL    HW134475   2.935   2.552   8.604 -2.4648 -1.0031 -0.7876
 7672SOL    HW234476   2.820   2.629   8.588 -0.1086 -2.1117  3.1453
 7673SOL     OW34477   2.401   3.780   8.730 -0.3370 -0.6115 -0.2468
 7673SOL    HW134478   2.369   3.743   8.812  0.2279 -0.6665 -0.0529
 7673SOL    HW234479   2.339   3.851   8.713  2.0967  1.2922 -1.0475
 7674SOL     OW34480   2.109   2.321   4.651 -0.1513  0.6015 -0.1494
 7674SOL    HW134481   2.038   2.310   4.714  0.4944 -0.2591  0.4421
 7674SOL    HW234482   2.186   2.308   4.707 -0.0972  1.1028 -0.1091
 7675SOL     OW34483   3.758   3.726   4.094 -0.7646 -0.1072  0.4465
 7675SOL    HW134484   3.677   3.777   4.090 -0.0497  0.9983  0.0028
 7675SOL    HW234485   3.764   3.702   4.186  0.6915  2.1277  0.9187
 7676SOL     OW34486   1.707   1.069  17.467  0.2661  0.0063 -0.3845
 7676SOL    HW134487   1.735   0.978  17.476  2.8008  0.5597 -2.6020
 7676SOL    HW234488   1.719   1.101  17.556 -0.7902 -0.9331  0.0925
 7677SOL     OW34489   1.717   1.239   6.594  0.3312  0.1214 -0.1147
 7677SOL    HW134490   1.652   1.205   6.532 -0.2790  0.5755  0.2702
 7677SOL    HW234491   1.706   1.171   6.661 -0.7618 -1.1484 -1.5848
 7678SOL     OW34492   4.723   3.179   7.157  0.7948 -0.3976  0.6158
 7678SOL    HW134493   0.043   3.172   7.072  0.4312  1.4693  0.2727
 7678SOL    HW234494   4.708   3.273   7.164 -0.0977 -0.4201 -0.8235
 7679SOL     OW34495   2.382   2.083   1.430 -0.3657 -0.2697 -0.0485
 7679SOL    HW134496   2.361   2.078   1.337 -0.8692  1.2953 -0.0152
 7679SOL    HW234497   2.457   2.143   1.433 -0.9878  0.3799  2.5739
 7680SOL     OW34498   3.255   0.746   5.495 -0.3449  0.5287  0.1550
 7680SOL    HW134499   3.251   0.723   5.588  0.3936 -1.3962 -0.2981
 7680SOL    HW234500   3.165   0.774   5.475  0.3551  2.1273 -0.7351
 7681SOL     OW34501   3.913   2.717   8.591  0.5356  0.0626  0.9193
 7681SOL    HW134502   3.838   2.669   8.626 -0.7783  2.1473  0.9384
 7681SOL    HW234503   3.959   2.722   8.675 -0.7162  1.2651  1.5233
 7682SOL     OW34504   1.245   4.014   2.364 -0.1863  0.3173 -0.3381
 7682SOL    HW134505   1.151   4.029   2.349 -0.7961  0.0752  3.1168
 7682SOL    HW234506   1.277   4.001   2.275 -1.9939 -1.3996 -0.7326
 7683SOL     OW34507   0.081   0.372  11.155 -0.2969  0.2666 -0.0435
 7683SOL    HW134508   0.158   0.336  11.198  0.5484  0.8541 -1.0873
 7683SOL    HW234509   0.108   0.360  11.064  1.2095  1.0229  0.3081
 7684SOL     OW34510   1.673   3.117   4.382 -0.1681  0.1327  0.3999
 7684SOL    HW134511   1.645   3.035   4.342 -1.0171 -0.4686  2.2485
 7684SOL    HW234512   1.605   3.180   4.360  0.7144  0.7290 -0.6427
 7685SOL     OW34513   1.117   2.317  11.428  0.0059 -0.1982  0.7193
 7685SOL    HW134514   1.101   2.410  11.447 -0.0741 -0.1544  0.4293
 7685SOL    HW234515   1.120   2.315  11.333  0.8394 -0.0823  0.7466
 7686SOL     OW34516   3.893   3.330   1.352 -0.2529  0.1788  0.2019
 7686SOL    HW134517   3.978   3.303   1.318  0.2792  2.6297 -0.4699
 7686SOL    HW234518   3.822   3.292   1.301  1.2862  0.1807 -1.9412
 7687SOL     OW34519   4.427   1.556   7.322 -0.2689  0.3000  0.1421
 7687SOL    HW134520   4.343   1.526   7.285 -0.3083 -0.8936  1.2127
 7687SOL    HW234521   4.486   1.555   7.247  0.3166 -1.0259  0.6328
 7688SOL     OW34522   1.902   3.327   7.471  0.1881 -0.5429 -0.5187
 7688SOL    HW134523   1.875   3.383   7.544 -0.2934 -0.2175 -0.9410
 7688SOL    HW234524   1.846   3.252   7.489 -0.0808 -0.0501  0.7072
 7689SOL     OW34525   0.183   4.457  16.099 -0.4404  0.1579 -0.2736
 7689SOL    HW134526   0.245   4.471  16.027  0.5289  2.4942  1.0306
 7689SOL    HW234527   0.243   4.414  16.160  2.1368 -0.0956 -2.9919
 7690SOL     OW34528   1.103   0.864   2.006 -0.5783 -0.0869 -0.3070
 7690SOL    HW134529   1.198   0.858   2.002 -0.5458 -0.3496  0.7888
 7690SOL    HW234530   1.081   0.948   1.965 -2.7277 -0.9801 -0.9910
 7691SOL     OW34531   3.097   1.076  11.192  0.6075  0.8736  0.4036
 7691SOL    HW134532   3.050   1.154  11.220  0.7717  0.9187  0.5595
 7691SOL    HW234533   3.151   1.116  11.125 -0.0348 -1.6340 -1.6044
 7692SOL     OW34534   4.358   2.715   8.782 -0.0807  0.9371 -0.6116
 7692SOL    HW134535   4.446   2.682   8.767  0.2268  0.5424  2.1057
 7692SOL    HW234536   4.318   2.718   8.695 -0.4078 -2.0610 -0.5641
 7693SOL     OW34537   3.741   1.318   9.973  0.1833  0.6922 -0.0281
 7693SOL    HW134538   3.661   1.278   9.937  0.7164 -0.2475 -0.1733
 7693SOL    HW234539   3.753   1.383   9.904 -0.6306 -0.8107 -1.5836
 7694SOL     OW34540   3.985   2.657   8.357 -0.4189 -0.1300  0.1267
 7694SOL    HW134541   3.980   2.689   8.446 -1.9680 -0.2919  0.0949
 7694SOL    HW234542   3.907   2.601   8.360  1.7731 -3.2750 -0.9155
 7695SOL     OW34543   1.654   1.188   4.814 -0.4354 -0.4820 -0.0000
 7695SOL    HW134544   1.572   1.146   4.838 -1.1027  0.6112 -0.3398
 7695SOL    HW234545   1.625   1.234   4.735 -1.3741 -0.8408  0.1310
 7696SOL     OW34546   3.805   2.434   3.782 -0.2318  0.4346 -0.0551
 7696SOL    HW134547   3.776   2.370   3.847  0.0936 -1.6151 -1.9323
 7696SOL    HW234548   3.857   2.494   3.835  1.3611 -0.9143 -0.1106
 7697SOL     OW34549   1.695   2.884  13.059  0.1345 -0.5653  0.1039
 7697SOL    HW134550   1.775   2.866  13.109  0.8001  1.5889 -0.1749
 7697SOL    HW234551   1.655   2.944  13.122  0.7439 -0.5403  0.4707
 7698SOL     OW34552   3.195   3.112   4.023 -0.2659  0.1169  0.2815
 7698SOL    HW134553   3.179   3.091   4.115  2.1484 -1.3331  0.3525
 7698SOL    HW234554   3.290   3.110   4.028 -0.1330  0.1636 -1.9849
 7699SOL     OW34555   1.318   0.133   9.283  0.1828  0.0323  0.1435
 7699SOL    HW134556   1.386   0.117   9.348 -0.3672 -1.9759  0.2154
 7699SOL    HW234557   1.278   0.047   9.293  1.3538 -0.5744 -0.4148
 7700SOL     OW34558   0.536   0.348   0.899 -0.3145 -0.2285 -0.4419
 7700SOL    HW134559   0.614   0.355   0.954 -0.3494  1.5435 -0.6172
 7700SOL    HW234560   0.589   0.327   0.822  0.0953  0.3036 -0.3022
 7701SOL     OW34561   4.217   0.090   1.892 -0.0783 -0.0997  0.2598
 7701SOL    HW134562   4.247   0.143   1.967  1.0375  0.4961 -0.6192
 7701SOL    HW234563   4.292   0.110   1.837  3.1179 -4.3749  3.0564
 7702SOL     OW34564   1.013   0.837   3.493 -0.2217 -0.2577  0.4184
 7702SOL    HW134565   1.029   0.746   3.519  1.7524  0.9411  3.3678
 7702SOL    HW234566   1.096   0.847   3.446 -1.0119  0.0714 -0.9064
 7703SOL     OW34567   1.517   2.226   4.731  0.4723 -0.2921  0.5637
 7703SOL    HW134568   1.546   2.310   4.696  0.3935 -0.6901 -0.4705
 7703SOL    HW234569   1.565   2.159   4.682 -0.3730 -2.4970  2.7689
 7704SOL     OW34570   4.449   0.827   8.214 -0.1744 -0.1613  0.1037
 7704SOL    HW134571   4.413   0.768   8.279 -0.0050 -1.0163 -0.5771
 7704SOL    HW234572   4.508   0.881   8.267 -0.8442  1.3582 -0.6948
 7705SOL     OW34573   1.205   0.911   6.928  0.4014  0.5968  0.3237
 7705SOL    HW134574   1.267   0.981   6.910  0.7256  0.2201 -0.0199
 7705SOL    HW234575   1.119   0.953   6.928 -0.0264 -0.2791  1.1506
 7706SOL     OW34576   0.841   3.028   7.253 -0.5341  0.1330 -0.3932
 7706SOL    HW134577   0.836   2.946   7.204  1.3399  1.1004 -2.1733
 7706SOL    HW234578   0.931   3.024   7.284 -0.7906  0.8879  0.4459
 7707SOL     OW34579   1.590   1.679  16.008  0.6613  0.4669  0.3959
 7707SOL    HW134580   1.619   1.590  16.028 -1.3865 -0.5036 -1.0077
 7707SOL    HW234581   1.582   1.678  15.912 -0.5729 -1.9128  0.5379
 7708SOL     OW34582   1.508   0.832  12.533 -0.0705  0.2504  0.6665
 7708SOL    HW134583   1.545   0.823  12.622 -1.3465 -0.3306  1.1408
 7708SOL    HW234584   1.553   0.755  12.498 -0.1426  0.2508  0.5740
 7709SOL     OW34585   3.176   2.084   7.726  0.1329  0.1145 -0.6902
 7709SOL    HW134586   3.130   2.124   7.800  2.3031 -0.7063  1.0866
 7709SOL    HW234587   3.127   2.002   7.723 -2.0169  1.2706  2.9571
 7710SOL     OW34588   1.756   0.626   2.033  0.0298  0.1473 -0.7122
 7710SOL    HW134589   1.751   0.670   1.948 -2.7241  0.3122 -0.4662
 7710SOL    HW234590   1.830   0.679   2.062 -0.7903 -0.0473  1.6877
 7711SOL     OW34591   4.039   2.977   5.274  0.5455  0.4795  0.0079
 7711SOL    HW134592   3.948   3.006   5.266  0.5800  0.5551 -0.1098
 7711SOL    HW234593   4.027   2.886   5.300 -0.2151  0.1785 -1.4065
 7712SOL     OW34594   1.440   1.215   2.893  0.4031 -0.3268 -0.3106
 7712SOL    HW134595   1.452   1.307   2.870  0.2605 -0.4878 -1.0357
 7712SOL    HW234596   1.501   1.207   2.966  0.7350 -0.5764 -0.6179
 7713SOL     OW34597   2.720   1.460   7.850  0.2245  0.2743 -0.2158
 7713SOL    HW134598   2.646   1.488   7.904 -0.0213 -0.4962 -0.1584
 7713SOL    HW234599   2.795   1.485   7.905  0.2120 -0.7593  0.2806
 7714SOL     OW34600   0.184   2.737   4.120  0.1658 -0.1845  0.2733
 7714SOL    HW134601   0.141   2.822   4.130 -0.2761 -0.1417 -2.0261
 7714SOL    HW234602   0.226   2.719   4.204  0.8880 -0.7930 -0.2252
 7715SOL     OW34603   4.157   0.622   2.857  0.0271  0.3123  0.0357
 7715SOL    HW134604   4.201   0.539   2.874 -0.8269 -0.4290 -1.3775
 7715SOL    HW234605   4.209   0.666   2.790  0.5880 -0.5174 -0.0708
 7716SOL     OW34606   0.652   3.753   0.254 -0.2983  0.2511  0.1071
 7716SOL    HW134607   0.558   3.766   0.270 -0.1499 -0.6052  1.6898
 7716SOL    HW234608   0.656   3.731   0.161  0.1385 -1.7256  0.5792
 7717SOL     OW34609   2.751   1.306   1.522  0.0331 -0.6938 -0.1277
 7717SOL    HW134610   2.822   1.337   1.579  0.5557  2.9536 -2.7762
 7717SOL    HW234611   2.710   1.390   1.504 -0.5090 -0.9633 -0.1538
 7718SOL     OW34612   4.613   2.180   5.473 -0.5101 -0.0482 -0.3906
 7718SOL    HW134613   4.540   2.202   5.531 -0.0982  0.1469  0.0589
 7718SOL    HW234614   4.680   2.246   5.495  0.1773 -1.1022  0.6665
 7719SOL     OW34615   3.769   4.076  14.872  0.3391  0.5428 -0.1697
 7719SOL    HW134616   3.750   4.110  14.785  0.8708 -1.1431 -0.9390
 7719SOL    HW234617   3.769   4.159  14.920  3.1100  0.1742  0.4549
 7720SOL     OW34618   0.399   2.652   1.958  0.0011  0.0669 -0.0089
 7720SOL    HW134619   0.492   2.675   1.953 -0.0503  0.3196  0.1831
 7720SOL    HW234620   0.400   2.558   1.938  0.5008 -0.1898  1.2501
 7721SOL     OW34621   2.670   4.395   7.964  0.7583  0.0806  0.2909
 7721SOL    HW134622   2.644   4.372   8.054  1.6042 -2.5168 -0.1280
 7721SOL    HW234623   2.595   4.444   7.931  0.1261 -2.2473 -1.7558
 7722SOL     OW34624   4.234   2.280   9.000  0.5454  0.0700  0.4262
 7722SOL    HW134625   4.196   2.234   8.925 -0.5513 -0.5447  1.3608
 7722SOL    HW234626   4.245   2.200   9.052  0.2422 -1.0733 -1.2384
 7723SOL     OW34627   3.138   3.792   3.704 -0.0347  0.0262  0.6504
 7723SOL    HW134628   3.088   3.722   3.745 -0.6951  1.0620  1.6101
 7723SOL    HW234629   3.224   3.751   3.688  0.4543  1.9268 -1.6644
 7724SOL     OW34630   1.322   3.154   4.262 -0.1099 -0.3681 -0.1891
 7724SOL    HW134631   1.389   3.170   4.328 -2.6501 -0.3750  2.3706
 7724SOL    HW234632   1.284   3.241   4.252 -0.1567 -0.3539  0.1390
 7725SOL     OW34633   2.075   0.271   4.841 -0.4181  0.1906  0.3303
 7725SOL    HW134634   2.163   0.272   4.802 -1.1896 -3.0571 -1.4813
 7725SOL    HW234635   2.044   0.356   4.810  0.0960  0.7907  1.4425
 7726SOL     OW34636   4.175   0.897  14.611 -0.3475 -0.5977 -0.5711
 7726SOL    HW134637   4.115   0.825  14.592 -0.8729 -0.3902  0.3194
 7726SOL    HW234638   4.255   0.847  14.623 -0.4103 -0.2696  1.1231
 7727SOL     OW34639   0.526   2.153   5.571 -0.2203 -0.1686  0.7631
 7727SOL    HW134640   0.447   2.162   5.519 -0.4268 -0.4811  1.0234
 7727SOL    HW234641   0.524   2.057   5.574  0.9043 -0.1234  2.9268
 7728SOL     OW34642   2.875   3.684   8.312  0.0327  0.3441  0.3778
 7728SOL    HW134643   2.837   3.770   8.324 -0.1039  0.0205  2.1706
 7728SOL    HW234644   2.961   3.707   8.276  0.0517 -1.2351 -0.6219
 7729SOL     OW34645   3.390   3.771  10.015 -0.3004  0.2195  0.0730
 7729SOL    HW134646   3.416   3.781  10.107 -2.8957  1.7340  0.6359
 7729SOL    HW234647   3.302   3.735  10.023 -0.9009  1.1590 -2.2105
 7730SOL     OW34648   4.466   1.806  15.824  0.0027 -0.4410  0.4951
 7730SOL    HW134649   4.476   1.875  15.758 -1.0498 -1.1100 -0.3697
 7730SOL    HW234650   4.481   1.725  15.775  1.9215 -0.5742  1.2875
 7731SOL     OW34651   2.483   4.056   8.206  0.6035 -0.5282 -0.2617
 7731SOL    HW134652   2.430   3.977   8.194 -0.7232  0.2143  0.7118
 7731SOL    HW234653   2.451   4.115   8.138  1.4719 -0.7279 -0.8408
 7732SOL     OW34654   1.629   3.971   2.474 -0.2199 -0.3429  0.0065
 7732SOL    HW134655   1.602   3.962   2.383 -1.1426  4.0642 -0.1626
 7732SOL    HW234656   1.624   4.066   2.480 -0.5751 -0.3715  0.1682
 7733SOL     OW34657   0.914   1.894   6.958  0.4936 -0.4083 -0.2063
 7733SOL    HW134658   0.917   1.987   6.937 -1.1219 -0.0810  1.0670
 7733SOL    HW234659   0.919   1.860   6.869  1.1951  0.7756 -0.6082
 7734SOL     OW34660   1.095   3.586  13.514 -0.1550  0.0267 -0.3311
 7734SOL    HW134661   1.085   3.558  13.423  1.1283  0.7937 -0.7115
 7734SOL    HW234662   1.013   3.631  13.533  0.7564  0.7909  1.7986
 7735SOL     OW34663   1.577   2.382   8.661  0.2009  0.0618  0.2436
 7735SOL    HW134664   1.604   2.292   8.678 -1.2425  0.2468  3.3308
 7735SOL    HW234665   1.657   2.423   8.694  0.5849  0.9295 -1.7233
 7736SOL     OW34666   4.341   4.018   3.912  0.4053 -0.2177  0.0259
 7736SOL    HW134667   4.426   3.976   3.901  0.3750 -0.1081 -0.6127
 7736SOL    HW234668   4.335   4.077   3.837 -2.7266  0.0132  0.4562
 7737SOL     OW34669   3.116   3.176   3.172 -0.4815  0.0555 -0.3354
 7737SOL    HW134670   3.190   3.225   3.135 -0.0120 -0.2687  0.1807
 7737SOL    HW234671   3.058   3.163   3.098 -1.9884  0.3225  0.8059
 7738SOL     OW34672   0.711   3.489   9.160 -0.1443  0.1787 -0.0529
 7738SOL    HW134673   0.664   3.555   9.212 -1.0335 -2.4994  2.5372
 7738SOL    HW234674   0.797   3.485   9.201 -1.2272 -1.7304  2.0657
 7739SOL     OW34675   2.071   1.645   3.819 -0.0997 -0.2723  0.1340
 7739SOL    HW134676   1.981   1.630   3.846 -0.1631 -2.1483 -1.0976
 7739SOL    HW234677   2.111   1.559   3.828  0.9072  0.2262  0.4880
 7740SOL     OW34678   3.264   0.671   6.858  0.9832 -0.7564 -0.0933
 7740SOL    HW134679   3.294   0.631   6.940  1.4071 -0.7426 -0.2430
 7740SOL    HW234680   3.186   0.718   6.887  0.3751 -2.7808  1.5183
 7741SOL     OW34681   0.244   4.312   7.920  0.0507 -0.2355 -0.3854
 7741SOL    HW134682   0.181   4.357   7.976 -3.0953 -1.4904 -2.9766
 7741SOL    HW234683   0.194   4.238   7.888  0.7277  0.6765 -3.5858
 7742SOL     OW34684   2.510   2.933  14.610  0.5204 -0.2821  0.5591
 7742SOL    HW134685   2.497   2.838  14.618 -0.1995 -0.4488 -2.8226
 7742SOL    HW234686   2.571   2.942  14.536  2.7711 -1.1479  2.2964
 7743SOL     OW34687   1.755   1.839   9.539 -0.3538  0.1116  0.2058
 7743SOL    HW134688   1.665   1.866   9.560 -0.0302  1.6219 -0.3429
 7743SOL    HW234689   1.729   1.769   9.479  0.4516 -0.2904  0.3329
 7744SOL     OW34690   0.571   2.477  14.968 -0.4365 -0.1100  0.3115
 7744SOL    HW134691   0.555   2.391  14.929  2.4877 -0.7369  0.4680
 7744SOL    HW234692   0.644   2.514  14.918 -0.6448  0.2391  0.2695
 7745SOL     OW34693   3.505   0.215   2.710  0.7983 -0.0438 -0.3757
 7745SOL    HW134694   3.514   0.121   2.690 -1.7394  0.0344 -1.7848
 7745SOL    HW234695   3.453   0.225   2.789  1.7092 -0.2051  0.2516
 7746SOL     OW34696   0.674   0.332   7.183  0.0115 -0.6586  0.0438
 7746SOL    HW134697   0.714   0.293   7.105  1.4348  0.4339  0.2385
 7746SOL    HW234698   0.617   0.392   7.134  0.4670 -2.0903 -2.2468
 7747SOL     OW34699   0.288   2.295   4.192 -0.2475  0.1326 -0.3565
 7747SOL    HW134700   0.225   2.366   4.177 -1.2375 -1.0449 -1.7378
 7747SOL    HW234701   0.309   2.267   4.103  0.6574  0.5291 -0.2703
 7748SOL     OW34702   2.387   1.497   3.008 -0.0836 -0.1774 -0.9648
 7748SOL    HW134703   2.385   1.575   2.951 -1.4932  1.3827  1.1945
 7748SOL    HW234704   2.298   1.465   2.997  0.4849 -1.8505 -0.6339
 7749SOL     OW34705   2.716   0.209   2.246 -0.1502  0.2621 -0.4374
 7749SOL    HW134706   2.641   0.217   2.305  0.2963  0.4151  0.1231
 7749SOL    HW234707   2.703   0.122   2.211 -0.5361 -0.5779  1.7592
 7750SOL     OW34708   0.875   2.056   8.432  0.0365  0.3620 -0.4712
 7750SOL    HW134709   0.847   2.146   8.450 -1.4143 -0.1001 -0.4222
 7750SOL    HW234710   0.830   2.041   8.348  0.0235 -0.4553 -0.3182
 7751SOL     OW34711   1.504   0.076  15.976 -0.2943  0.1418  0.0702
 7751SOL    HW134712   1.598   0.068  15.990 -0.0560  0.9592 -1.0542
 7751SOL    HW234713   1.499   0.170  15.995  1.7987  0.1984  0.3057
 7752SOL     OW34714   0.439   0.197   9.408  0.2766 -0.4882 -0.3853
 7752SOL    HW134715   0.432   0.156   9.321  1.0054  0.5358 -0.9257
 7752SOL    HW234716   0.526   0.181   9.444  0.3962  0.3386 -0.3203
 7753SOL     OW34717   2.753   3.955   1.290 -0.1176 -0.0173  0.1512
 7753SOL    HW134718   2.846   3.946   1.309 -0.3894 -1.0291  1.0217
 7753SOL    HW234719   2.765   3.986   1.200 -0.3463  0.7375  0.3830
 7754SOL     OW34720   0.639   3.171  10.765  0.4686  0.8120  0.1425
 7754SOL    HW134721   0.634   3.076  10.777  0.3353  0.8518  0.4152
 7754SOL    HW234722   0.550   3.174  10.729 -0.8453 -0.4766  3.2622
 7755SOL     OW34723   3.031   1.739   8.897 -0.2727 -0.2565  0.4745
 7755SOL    HW134724   3.065   1.764   8.983 -0.0318 -2.0072  0.8774
 7755SOL    HW234725   3.109   1.722   8.843  0.0087  1.2560  0.4109
 7756SOL     OW34726   3.246   3.839   0.945 -0.2515  0.1331 -0.1601
 7756SOL    HW134727   3.262   3.752   0.982 -1.1707 -0.7157 -1.7550
 7756SOL    HW234728   3.171   3.861   1.000 -0.3834 -0.1896 -0.2058
 7757SOL     OW34729   1.532   2.952   9.753 -0.1123 -0.6273  0.0530
 7757SOL    HW134730   1.461   2.905   9.796 -1.9149  0.3556 -1.8601
 7757SOL    HW234731   1.611   2.915   9.793 -0.9338 -1.7709  0.5963
 7758SOL     OW34732   2.897   2.155  14.293 -0.0149 -0.0477 -0.2309
 7758SOL    HW134733   2.856   2.072  14.319  1.6470 -0.4971  1.0352
 7758SOL    HW234734   2.900   2.206  14.374 -2.2684  0.4630 -0.4711
 7759SOL     OW34735   3.451   2.858   5.016 -0.2181  0.6721 -0.0880
 7759SOL    HW134736   3.490   2.921   4.956  1.2152  0.5086  0.6545
 7759SOL    HW234737   3.509   2.782   5.008  0.3451  1.1930 -0.8383
 7760SOL     OW34738   4.339   1.529   7.999 -0.5675 -0.4573 -0.0747
 7760SOL    HW134739   4.342   1.489   8.086 -1.8484  0.4136  0.3713
 7760SOL    HW234740   4.273   1.597   8.016 -0.8519 -1.1556  1.5931
 7761SOL     OW34741   3.090   0.561   9.783 -0.2250  0.8231 -0.3153
 7761SOL    HW134742   3.088   0.474   9.744 -1.0269  0.0247  1.5145
 7761SOL    HW234743   3.062   0.605   9.703 -1.0833  0.7886 -0.0276
 7762SOL     OW34744   2.168   4.322  10.999  0.1739 -0.3215 -0.0829
 7762SOL    HW134745   2.103   4.314  10.929 -0.4821 -0.3424  0.5194
 7762SOL    HW234746   2.218   4.395  10.964 -1.0481  0.0901 -0.9562
 7763SOL     OW34747   1.184   2.587   2.572 -0.4277 -0.0485 -0.2688
 7763SOL    HW134748   1.274   2.617   2.590 -0.1049 -0.9148 -0.4192
 7763SOL    HW234749   1.212   2.527   2.503 -1.7456  2.3627 -2.8906
 7764SOL     OW34750   3.408   2.764   5.512 -0.3292 -0.4034 -0.1694
 7764SOL    HW134751   3.400   2.858   5.528  2.6890  0.2167 -2.4019
 7764SOL    HW234752   3.426   2.731   5.600 -1.3408 -1.7413 -0.4548
 7765SOL     OW34753   1.502   0.214   1.808 -0.6028  0.5542  0.3153
 7765SOL    HW134754   1.488   0.302   1.844 -0.8750  0.8362 -0.4769
 7765SOL    HW234755   1.442   0.200   1.734 -0.3456  1.8927 -0.1404
 7766SOL     OW34756   2.999   0.343  12.354  0.3487  0.6304 -0.6064
 7766SOL    HW134757   3.070   0.315  12.412  0.3189 -1.7214 -1.6978
 7766SOL    HW234758   2.932   0.386  12.407  1.3807  0.7142  0.6471
 7767SOL     OW34759   4.636   0.213   8.547  0.7696 -0.0886 -0.0809
 7767SOL    HW134760   4.588   0.199   8.465  1.4644  2.7248 -0.9777
 7767SOL    HW234761   4.561   0.218   8.606  2.4927 -0.2299  2.1223
 7768SOL     OW34762   2.664   3.528   1.259 -0.1721  0.0931 -0.1843
 7768SOL    HW134763   2.575   3.548   1.233 -0.4465  1.6826  1.9260
 7768SOL    HW234764   2.658   3.520   1.355  0.9961 -2.7793 -0.3390
 7769SOL     OW34765   0.381   4.690  10.416 -0.0884  1.1978 -0.4409
 7769SOL    HW134766   0.420   4.683  10.329  0.2720  2.5731 -0.3945
 7769SOL    HW234767   0.287   4.689  10.397 -0.6107 -1.7976  2.2673
 7770SOL     OW34768   2.091   2.482   3.751  0.0599 -0.4864  0.1306
 7770SOL    HW134769   2.135   2.562   3.722 -0.3773  0.6093  2.4694
 7770SOL    HW234770   2.057   2.522   3.831 -1.6534 -0.3744 -0.6481
 7771SOL     OW34771   4.399   4.696   6.625 -0.0447 -0.0792 -0.0557
 7771SOL    HW134772   4.458   0.046   6.643  0.3123 -0.4636  0.3338
 7771SOL    HW234773   4.324   0.020   6.588  0.6862  0.7484 -0.4861
 7772SOL     OW34774   0.809   3.355  11.285 -0.0193 -0.3582  0.0499
 7772SOL    HW134775   0.843   3.272  11.318  1.3034  0.6060  1.1037
 7772SOL    HW234776   0.753   3.384  11.357  0.3317  0.2257  0.0845
 7773SOL     OW34777   0.232   3.344  10.662 -0.1580  0.4661 -0.1134
 7773SOL    HW134778   0.258   3.257  10.690 -0.1447  0.8510  1.0625
 7773SOL    HW234779   0.211   3.399  10.737  2.2907  2.2515 -0.7298
 7774SOL     OW34780   3.489   2.881   8.110  0.1318 -0.2239  0.0135
 7774SOL    HW134781   3.548   2.811   8.139  0.6432  1.1501  2.3312
 7774SOL    HW234782   3.424   2.842   8.052 -0.9549  0.5615  0.6957
 7775SOL     OW34783   2.622   3.563   1.526 -0.4130  0.0894  0.0863
 7775SOL    HW134784   2.548   3.598   1.477 -1.0575  0.3398  1.2462
 7775SOL    HW234785   2.627   3.625   1.599  0.9788  0.6057 -0.4444
 7776SOL     OW34786   1.950   3.264  14.251 -0.3194 -0.2237  0.4265
 7776SOL    HW134787   1.997   3.241  14.331  1.9534  2.4891 -0.1644
 7776SOL    HW234788   1.889   3.189  14.250 -0.3245 -0.2257  2.1317
 7777SOL     OW34789   3.512   3.604   7.490  0.8021 -0.2232  0.1132
 7777SOL    HW134790   3.472   3.570   7.410 -0.3524  2.3207 -0.3589
 7777SOL    HW234791   3.507   3.523   7.541 -3.1695  0.0960  0.2139
 7778SOL     OW34792   4.378   1.190   6.738  0.3728 -0.0498  0.2714
 7778SOL    HW134793   4.445   1.202   6.805  0.4921 -0.0395  0.1504
 7778SOL    HW234794   4.425   1.139   6.672 -0.1532  0.1515 -0.2638
 7779SOL     OW34795   3.392   1.330  10.733 -0.4195 -0.3927 -0.0029
 7779SOL    HW134796   3.430   1.406  10.778 -3.0936  1.3251 -0.6851
 7779SOL    HW234797   3.309   1.361  10.697  1.2260  1.2376 -2.4286
 7780SOL     OW34798   0.248   2.630   2.242  0.2170 -0.2708  0.4493
 7780SOL    HW134799   0.184   2.698   2.224  0.2975 -0.3000  0.0599
 7780SOL    HW234800   0.321   2.647   2.183  0.2914  1.2464  0.9996
 7781SOL     OW34801   0.349   2.963   1.644  0.1551  0.6428  0.1971
 7781SOL    HW134802   0.424   2.925   1.691 -0.7248 -0.0023  1.0850
 7781SOL    HW234803   0.375   3.055   1.635  2.5709 -0.1869 -1.3711
 7782SOL     OW34804   1.475   1.890   1.932  0.2312  0.8314  0.1486
 7782SOL    HW134805   1.420   1.905   2.010 -0.1533 -0.0552  0.0456
 7782SOL    HW234806   1.405   1.850   1.881 -0.0003  1.4889 -0.0455
 7783SOL     OW34807   4.105   0.482   6.066 -0.2078 -0.2659 -0.0765
 7783SOL    HW134808   4.040   0.422   6.103  0.2283 -0.1926  0.8147
 7783SOL    HW234809   4.072   0.482   5.977 -0.1211  0.4465 -0.1083
 7784SOL     OW34810   3.965   1.783   8.475 -0.2909  0.0666  0.1192
 7784SOL    HW134811   4.039   1.843   8.478 -0.8736  0.8798 -2.3471
 7784SOL    HW234812   4.009   1.715   8.526  1.7755  0.7449 -0.7410
 7785SOL     OW34813   0.945   0.171   0.287  0.1057  0.0417  0.0386
 7785SOL    HW134814   0.865   0.209   0.323  1.0107  1.6438  0.3348
 7785SOL    HW234815   0.998   0.247   0.265 -0.4135 -0.1002 -1.7094
 7786SOL     OW34816   3.301   0.380   3.474  0.5361 -0.0157  0.3243
 7786SOL    HW134817   3.217   0.339   3.454  0.2329  0.8452 -0.1636
 7786SOL    HW234818   3.347   0.353   3.395 -1.1032 -0.8750 -0.3257
 7787SOL     OW34819   3.745   3.937   6.399  0.1025 -0.4013 -0.5647
 7787SOL    HW134820   3.828   3.981   6.378  0.1160 -1.7543 -3.2914
 7787SOL    HW234821   3.697   3.939   6.317  0.9321  1.5374 -0.9938
 7788SOL     OW34822   2.977   3.800   1.972  0.4693  0.4593 -0.1721
 7788SOL    HW134823   2.943   3.728   1.919 -0.3545  0.6551  0.1072
 7788SOL    HW234824   2.978   3.873   1.910 -1.8495 -0.6528 -1.5274
 7789SOL     OW34825   1.149   3.055   5.788  0.2634  0.3064  0.4151
 7789SOL    HW134826   1.073   3.052   5.730 -0.8399  2.5623  1.7271
 7789SOL    HW234827   1.213   3.067   5.718 -0.6240  2.9279  0.0425
 7790SOL     OW34828   4.087   2.858  13.831  0.8616 -0.7372 -0.7470
 7790SOL    HW134829   4.118   2.828  13.746  0.0027 -1.3949 -0.8321
 7790SOL    HW234830   4.101   2.952  13.824 -1.1061 -0.5461 -2.0868
 7791SOL     OW34831   1.786   0.020   3.858 -0.1776 -0.4524  0.0136
 7791SOL    HW134832   1.825   0.029   3.945  1.5205  0.1868 -0.8149
 7791SOL    HW234833   1.850   4.682   3.820  2.0193  1.3979  0.7773
 7792SOL     OW34834   1.321   4.356   6.670 -0.4465  0.4236  0.8559
 7792SOL    HW134835   1.243   4.389   6.715 -0.7865  2.4867 -1.2885
 7792SOL    HW234836   1.351   4.427   6.614 -2.1772  2.0413  1.9586
 7793SOL     OW34837   2.018   1.838   4.880 -0.2333  0.1653 -0.0228
 7793SOL    HW134838   2.036   1.880   4.964 -0.5283  1.2800 -0.5165
 7793SOL    HW234839   2.084   1.769   4.885  0.3862  0.6530 -1.4736
 7794SOL     OW34840   1.533   1.617   1.616 -0.1739 -0.1540  0.1372
 7794SOL    HW134841   1.519   1.617   1.711  1.9323 -1.5100  0.4595
 7794SOL    HW234842   1.495   1.532   1.594 -0.7615  0.8500 -2.6938
 7795SOL     OW34843   3.124   0.988  16.937  0.0157 -0.0437 -0.0517
 7795SOL    HW134844   3.216   1.004  16.959  0.3937 -0.8187 -1.0692
 7795SOL    HW234845   3.082   0.996  17.022 -0.8213  2.5723 -0.7084
 7796SOL     OW34846   2.443   0.158   5.451  0.0277 -0.2237  0.3260
 7796SOL    HW134847   2.489   0.151   5.535 -1.8042  0.6155  1.4225
 7796SOL    HW234848   2.483   0.232   5.405 -1.9290  0.3268 -0.5200
 7797SOL     OW34849   0.087   4.267   9.736  0.0462 -0.4934  0.2119
 7797SOL    HW134850   0.087   4.333   9.667 -2.1572  1.9297  2.5002
 7797SOL    HW234851   0.001   4.226   9.727 -1.2909  1.8552  2.0194
 7798SOL     OW34852   4.461   4.017   6.012  0.1545 -0.4260  0.0441
 7798SOL    HW134853   4.528   4.002   5.945 -0.4105 -0.2302 -0.5734
 7798SOL    HW234854   4.382   4.039   5.962 -0.6633  1.2005  2.0628
 7799SOL     OW34855   4.367   3.875   2.031  0.2269  0.2102  0.5997
 7799SOL    HW134856   4.425   3.883   2.107 -1.3168 -1.2713  1.9491
 7799SOL    HW234857   4.361   3.781   2.019 -0.5754  0.0540  2.1679
 7800SOL     OW34858   3.718   3.617   4.979  0.1593  0.6387 -0.2391
 7800SOL    HW134859   3.704   3.525   5.002  3.3690  0.4296  0.9495
 7800SOL    HW234860   3.629   3.646   4.997 -0.0308 -0.7474  1.0757
 7801SOL     OW34861   1.570   3.678  15.193  0.3911 -0.5360  0.4474
 7801SOL    HW134862   1.508   3.609  15.217  3.1187 -3.2334 -0.3182
 7801SOL    HW234863   1.560   3.739  15.266 -1.3625  0.1930 -0.3888
 7802SOL     OW34864   2.198   0.367  12.222 -0.7471  0.1249 -0.3390
 7802SOL    HW134865   2.151   0.283  12.223 -0.6832  0.1034  0.5553
 7802SOL    HW234866   2.149   0.423  12.163 -0.3373  1.2223  0.3759
 7803SOL     OW34867   0.302   4.241   8.488  0.3431  0.3300 -0.2516
 7803SOL    HW134868   0.351   4.306   8.538 -0.5942 -0.4076  1.6474
 7803SOL    HW234869   0.246   4.213   8.560 -1.0076  0.9410 -1.0660
 7804SOL     OW34870   1.997   0.558  15.877 -0.1092  0.0826 -0.3396
 7804SOL    HW134871   1.947   0.502  15.818  0.0230 -0.6949  0.2875
 7804SOL    HW234872   1.935   0.548  15.949  1.5487 -1.1619  0.8981
 7805SOL     OW34873   3.917   2.949   5.872  0.6227  0.4234  0.2621
 7805SOL    HW134874   3.877   2.980   5.791 -0.1987  3.9662  2.0122
 7805SOL    HW234875   3.844   2.957   5.933  1.4236  1.6635  1.0805
 7806SOL     OW34876   2.825   1.241   6.861 -0.6686  0.6144 -0.0011
 7806SOL    HW134877   2.800   1.254   6.952  2.7781  2.4847  0.6681
 7806SOL    HW234878   2.866   1.326   6.850 -2.0630  1.3070  0.1285
 7807SOL     OW34879   4.151   2.140   1.781 -0.2798  0.3071  0.3646
 7807SOL    HW134880   4.216   2.210   1.790  1.2695 -1.1417  0.3104
 7807SOL    HW234881   4.191   2.077   1.721  2.1564 -0.7706  3.1892
 7808SOL     OW34882   3.527   3.647  13.315 -0.2732  0.0379  0.2404
 7808SOL    HW134883   3.438   3.613  13.307 -0.8014  1.6927 -0.9259
 7808SOL    HW234884   3.548   3.608  13.400  2.2591 -0.3619 -0.5545
 7809SOL     OW34885   1.533   0.903   8.469  0.1876 -0.5999 -0.4072
 7809SOL    HW134886   1.560   0.814   8.447 -0.3151 -1.1844  1.3474
 7809SOL    HW234887   1.479   0.878   8.544  2.2954 -0.2335  1.2210
 7810SOL     OW34888   3.841   2.535  15.470  0.3694 -0.3381  0.0693
 7810SOL    HW134889   3.843   2.615  15.418 -0.1904  0.7359  1.6750
 7810SOL    HW234890   3.746   2.529  15.482  0.2892  0.8823  0.0372
 7811SOL     OW34891   2.297   2.094   8.015  0.1800  0.6708  0.4622
 7811SOL    HW134892   2.262   2.017   8.061  0.4032  0.1036 -0.3156
 7811SOL    HW234893   2.301   2.051   7.929  1.0692  2.5049 -0.4020
 7812SOL     OW34894   3.649   1.344   5.100  0.2719  0.2861 -0.1998
 7812SOL    HW134895   3.632   1.369   5.009  1.9569  2.6646  0.1506
 7812SOL    HW234896   3.728   1.292   5.089 -1.7077 -2.9353  0.6916
 7813SOL     OW34897   3.292   4.150   2.909  0.4141  0.2524 -0.3017
 7813SOL    HW134898   3.252   4.237   2.911  4.9530  2.3536 -0.9572
 7813SOL    HW234899   3.249   4.107   2.835  0.0435 -0.0366  0.0856
 7814SOL     OW34900   3.881   1.812  12.084  0.4009 -0.0273 -0.2897
 7814SOL    HW134901   3.788   1.834  12.087  0.3137 -0.4347 -0.1083
 7814SOL    HW234902   3.900   1.854  12.000 -2.8756  0.5923 -0.7370
 7815SOL     OW34903   1.434   0.418  13.403 -0.3464  0.2475  0.4897
 7815SOL    HW134904   1.407   0.507  13.382  1.7207  0.8659  0.3858
 7815SOL    HW234905   1.446   0.375  13.318  1.2477 -1.8076  1.7556
 7816SOL     OW34906   0.891   0.458   5.940  0.1141  0.1205 -0.3135
 7816SOL    HW134907   0.966   0.420   5.894  2.2999  3.7116  0.2042
 7816SOL    HW234908   0.859   0.375   5.975  2.8115 -0.0506  1.8156
 7817SOL     OW34909   0.743   4.693   6.014  0.3919 -0.0604 -0.3497
 7817SOL    HW134910   0.759   4.599   6.007  1.0615  0.0871 -0.8456
 7817SOL    HW234911   0.649   4.698   6.026  0.0363 -1.3689 -2.5949
 7818SOL     OW34912   2.121   3.381  14.575  0.2283  0.1867 -0.0830
 7818SOL    HW134913   2.128   3.306  14.516 -0.7451 -0.0902  0.1549
 7818SOL    HW234914   2.152   3.452  14.518  2.2596  0.2203  1.0748
 7819SOL     OW34915   2.953   0.055   8.063 -0.8726  0.9835  0.5550
 7819SOL    HW134916   2.890   0.052   8.135 -0.6004  0.3543  0.7759
 7819SOL    HW234917   3.031   0.052   8.119  0.3919  2.6146 -1.1346
 7820SOL     OW34918   4.017   2.104   1.093 -0.1321 -0.2958 -0.0933
 7820SOL    HW134919   4.091   2.056   1.055 -0.8271 -0.9041 -0.6870
 7820SOL    HW234920   4.013   2.050   1.173  1.1301 -1.4196 -0.7962
 7821SOL     OW34921   3.045   2.193   4.614 -0.2617 -0.1717  0.0566
 7821SOL    HW134922   3.115   2.257   4.626 -1.4715  0.5902  3.1518
 7821SOL    HW234923   3.011   2.200   4.525 -3.0030  0.4777  1.1419
 7822SOL     OW34924   1.330   1.434   7.613  0.5323 -0.0253 -0.2529
 7822SOL    HW134925   1.397   1.367   7.626  0.1574 -0.8956 -2.7282
 7822SOL    HW234926   1.380   1.498   7.563  0.2159 -1.1000 -1.9463
 7823SOL     OW34927   4.132   0.871   7.477  0.1593 -0.0574 -0.5799
 7823SOL    HW134928   4.109   0.938   7.541  0.1745 -0.8387  0.2522
 7823SOL    HW234929   4.083   0.902   7.401 -1.9219  0.1914  0.8492
 7824SOL     OW34930   1.464   1.842   5.249  0.2800 -0.5219  0.2556
 7824SOL    HW134931   1.518   1.917   5.221  0.3992 -0.3269  1.0081
 7824SOL    HW234932   1.522   1.816   5.320  0.9609  0.4273  0.0594
 7825SOL     OW34933   0.025   3.618  13.137 -0.0626 -0.4168 -0.4595
 7825SOL    HW134934   0.056   3.563  13.208  0.1441 -2.0259 -1.7943
 7825SOL    HW234935   4.705   3.683  13.193  1.3395 -0.2530  0.3944
 7826SOL     OW34936   3.350   4.182  11.998  0.0606  0.7286 -0.7543
 7826SOL    HW134937   3.369   4.222  12.083 -0.5725 -0.0325 -0.2425
 7826SOL    HW234938   3.280   4.238  11.964 -1.2225  0.2349  1.0377
 7827SOL     OW34939   2.643   1.205  17.644  0.1248 -0.6569 -0.5609
 7827SOL    HW134940   2.575   1.273  17.645  0.4925 -0.3214  1.2261
 7827SOL    HW234941   2.704   1.245  17.582 -1.0411  1.7551 -0.1817
 7828SOL     OW34942   0.628   2.506   7.812  0.1430 -0.0814  0.3668
 7828SOL    HW134943   0.595   2.576   7.869  2.5042  2.0882 -0.9784
 7828SOL    HW234944   0.636   2.445   7.886 -1.4308 -0.1344  0.5007
 7829SOL     OW34945   2.543   4.379   4.245 -0.0383  0.5404 -0.4980
 7829SOL    HW134946   2.495   4.454   4.209  0.6452  1.7211  1.0691
 7829SOL    HW234947   2.635   4.402   4.255  0.1914 -2.0963  3.5421
 7830SOL     OW34948   1.443   2.442   5.038 -0.2273 -0.1455 -0.3860
 7830SOL    HW134949   1.455   2.522   5.089 -2.8130 -0.1266  0.2222
 7830SOL    HW234950   1.370   2.485   4.993 -0.7420 -1.7402 -1.0670
 7831SOL     OW34951   4.055   1.548   9.859 -0.8561 -0.7313 -0.3223
 7831SOL    HW134952   4.053   1.558   9.764 -0.1192  0.9369 -0.1624
 7831SOL    HW234953   4.090   1.630   9.892 -1.5995  0.0522 -1.4584
 7832SOL     OW34954   0.127   4.617   8.333 -0.0627 -0.4167 -0.5814
 7832SOL    HW134955   0.159   4.619   8.423  0.7436  2.5737 -0.9343
 7832SOL    HW234956   0.067   4.690   8.320  1.0264  0.5178 -0.3687
 7833SOL     OW34957   2.749   4.673   6.143 -0.2657  0.1689  0.3429
 7833SOL    HW134958   2.729   4.676   6.237 -0.3995 -0.5995  0.3447
 7833SOL    HW234959   2.827   4.616   6.148  0.7517  1.5038 -0.4674
 7834SOL     OW34960   2.571   2.864   3.155  0.7497 -0.5292  0.1325
 7834SOL    HW134961   2.483   2.889   3.183  1.0716  1.3113 -0.5181
 7834SOL    HW234962   2.574   2.898   3.066  3.3633  0.4765  0.6034
 7835SOL     OW34963   1.758   3.776   7.015  0.1484  0.6037  0.1292
 7835SOL    HW134964   1.684   3.718   6.997  0.8946 -0.6120  1.0253
 7835SOL    HW234965   1.712   3.859   7.006 -0.6978  0.1346  0.1387
 7836SOL     OW34966   2.346   3.690  10.507  0.2974 -0.1026  0.7118
 7836SOL    HW134967   2.367   3.764  10.449 -0.8633  0.3537  0.8826
 7836SOL    HW234968   2.383   3.620  10.454 -2.0434 -1.0023  0.2660
 7837SOL     OW34969   1.462   4.172   1.446 -0.0316 -0.0580 -0.2648
 7837SOL    HW134970   1.433   4.263   1.443 -0.3116 -0.1341  0.0350
 7837SOL    HW234971   1.431   4.143   1.532  0.7057  0.3013  0.1283
 7838SOL     OW34972   3.258   3.202   5.574 -0.1245 -0.2169 -0.1352
 7838SOL    HW134973   3.258   3.119   5.527  0.8976 -1.0593  1.3642
 7838SOL    HW234974   3.351   3.223   5.583 -0.2860  0.2771  0.4519
 7839SOL     OW34975   3.751   4.157   0.468 -0.0310  0.0397 -0.3860
 7839SOL    HW134976   3.781   4.158   0.559 -1.8485 -1.5622  0.2310
 7839SOL    HW234977   3.775   4.066   0.448 -2.1141 -0.3124 -1.2395
 7840SOL     OW34978   3.523   4.263   0.610  0.5548 -0.2779  0.4116
 7840SOL    HW134979   3.569   4.340   0.575 -0.6925  0.2382 -0.0748
 7840SOL    HW234980   3.543   4.197   0.544 -0.8486  0.9826 -1.2698
 7841SOL     OW34981   3.919   4.641   2.591  0.2268  0.2499 -0.5994
 7841SOL    HW134982   3.842   4.613   2.541 -0.7148  0.9592  0.4417
 7841SOL    HW234983   3.949   4.718   2.543  1.4794  1.1086  1.5477
 7842SOL     OW34984   4.656   1.023   6.595 -0.4914 -0.2557  0.6998
 7842SOL    HW134985   0.017   0.978   6.603  0.0650  0.5544 -0.4760
 7842SOL    HW234986   4.598   0.951   6.571 -1.6095  0.2996  1.7197
 7843SOL     OW34987   0.435   0.589   8.329  0.3710 -0.7564  0.5176
 7843SOL    HW134988   0.418   0.565   8.238  0.2517  0.1296  0.3116
 7843SOL    HW234989   0.526   0.560   8.332  0.2184 -1.3652 -0.5664
 7844SOL     OW34990   0.767   3.577   2.528 -0.2484 -0.2981  0.5337
 7844SOL    HW134991   0.696   3.513   2.537 -0.0894 -0.6700 -0.8321
 7844SOL    HW234992   0.769   3.625   2.611  0.0595  0.1298  0.2766
 7845SOL     OW34993   3.396   2.152  17.224  0.1074  0.1448  0.1401
 7845SOL    HW134994   3.397   2.155  17.129 -1.4192 -2.1194  0.0759
 7845SOL    HW234995   3.308   2.119  17.240  0.2734 -0.1496  0.4523
 7846SOL     OW34996   2.979   4.336   6.029 -0.3853 -0.4665 -0.3541
 7846SOL    HW134997   2.889   4.307   6.013 -0.7020  0.4878 -0.3098
 7846SOL    HW234998   3.001   4.302   6.116  0.3739  0.7759 -0.0496
 7847SOL     OW34999   1.869   1.302  16.659 -0.4751 -0.4044  0.0101
 7847SOL    HW135000   1.856   1.355  16.580 -2.0373 -0.9350 -0.0861
 7847SOL    HW235001   1.811   1.350  16.718 -2.1801 -1.5837 -0.7007
 7848SOL     OW35002   4.250   2.355   9.561  0.9058 -0.2034 -0.5625
 7848SOL    HW135003   4.293   2.418   9.618  1.5029 -1.2760  0.1782
 7848SOL    HW235004   4.279   2.392   9.478 -0.6843 -0.0053 -1.0344
 7849SOL     OW35005   4.486   0.360   4.398 -0.2127 -0.4662  0.0025
 7849SOL    HW135006   4.474   0.266   4.382  1.1901 -0.6087 -0.2694
 7849SOL    HW235007   4.513   0.353   4.489  1.7158  1.3703 -0.4317
 7850SOL     OW35008   3.681   2.835  11.358 -0.3144 -0.1994 -0.5228
 7850SOL    HW135009   3.627   2.779  11.415 -0.7302 -0.7858 -1.5069
 7850SOL    HW235010   3.742   2.858  11.428  0.0058  1.1524 -1.2578
 7851SOL     OW35011   1.584   3.547   5.472  0.4480 -0.0187 -0.6973
 7851SOL    HW135012   1.592   3.612   5.542  2.1395  0.7516 -1.6256
 7851SOL    HW235013   1.650   3.480   5.491  1.5800  0.9480 -1.2911
 7852SOL     OW35014   3.424   0.820   2.332  0.0031  0.4909  0.3109
 7852SOL    HW135015   3.358   0.766   2.375 -0.6782 -0.4555 -1.9079
 7852SOL    HW235016   3.476   0.851   2.406  0.8842 -1.9774  0.7217
 7853SOL     OW35017   0.720   2.822  17.140  0.0318  0.6303  0.0030
 7853SOL    HW135018   0.652   2.785  17.084  1.3494 -1.1141 -0.4699
 7853SOL    HW235019   0.784   2.751  17.138  0.8758  1.4221 -1.5376
 7854SOL     OW35020   4.582   3.025  16.634 -0.2644 -0.5789 -0.9031
 7854SOL    HW135021   4.631   3.003  16.555 -2.3201 -1.4198 -1.9630
 7854SOL    HW235022   4.525   3.096  16.603 -1.2089 -1.3905 -1.0296
 7855SOL     OW35023   3.736   1.711   7.296  0.2991  0.2143  0.6988
 7855SOL    HW135024   3.768   1.760   7.220  0.4112  0.1130  0.6793
 7855SOL    HW235025   3.815   1.701   7.350 -0.1765  3.9284  2.0784
 7856SOL     OW35026   2.328   1.563   0.815 -0.8414 -0.0605  0.1430
 7856SOL    HW135027   2.385   1.491   0.790  0.3331  0.9204  0.0214
 7856SOL    HW235028   2.337   1.623   0.742  1.0841 -0.2830  0.2008
 7857SOL     OW35029   1.985   4.614   7.615 -0.0451  0.2777  0.4459
 7857SOL    HW135030   2.022   4.526   7.614 -2.5576 -0.7680 -0.6569
 7857SOL    HW235031   1.966   4.633   7.523  0.7614 -2.4672 -0.2911
 7858SOL     OW35032   3.135   4.145   2.360  0.5688  0.3117 -0.0604
 7858SOL    HW135033   3.181   4.070   2.322  0.3853  1.2291 -2.0696
 7858SOL    HW235034   3.061   4.150   2.300 -0.0485  1.4473  0.7974
 7859SOL     OW35035   4.362   2.240   0.129  0.9784  0.3202  0.2281
 7859SOL    HW135036   4.367   2.245   0.224  2.2878  1.2134  0.1144
 7859SOL    HW235037   4.381   2.332   0.110 -0.3904  0.8039  1.1724
 7860SOL     OW35038   1.278   2.553   4.813  0.6401 -0.2893  0.5401
 7860SOL    HW135039   1.206   2.521   4.867 -0.7348  3.2437  0.7577
 7860SOL    HW235040   1.249   2.506   4.734 -1.0678  2.4770 -0.4852
 7861SOL     OW35041   1.872   1.729   6.736  0.4668 -1.0704 -0.1121
 7861SOL    HW135042   1.828   1.806   6.772 -1.2384 -1.0737 -2.1769
 7861SOL    HW235043   1.802   1.668   6.713  0.2632 -1.3037  1.1431
 7862SOL     OW35044   2.111   1.278  15.009 -0.2650 -0.1644 -0.0987
 7862SOL    HW135045   2.195   1.271  14.963 -0.4049 -0.0165 -0.3803
 7862SOL    HW235046   2.143   1.301  15.096 -0.5556  1.9304 -0.5203
 7863SOL     OW35047   2.345   3.845   6.357  0.6385  0.2288  0.0194
 7863SOL    HW135048   2.432   3.812   6.333  0.8365 -0.7908  2.1105
 7863SOL    HW235049   2.365   3.938   6.349 -0.4732  0.6215  1.8578
 7864SOL     OW35050   2.270   3.129   0.796 -0.2042 -0.0875  0.2779
 7864SOL    HW135051   2.190   3.100   0.838 -1.5291  1.3923 -1.1988
 7864SOL    HW235052   2.241   3.204   0.743 -1.0947 -0.0836  0.7822
 7865SOL     OW35053   4.581   3.949  11.287  0.5573  0.0123  0.5192
 7865SOL    HW135054   4.642   3.893  11.336  0.5124  0.4481  1.0722
 7865SOL    HW235055   4.630   4.028  11.265  1.2805 -0.4112  0.6111
 7866SOL     OW35056   4.604   0.333   1.563  0.0491  0.4027 -0.1389
 7866SOL    HW135057   4.666   0.305   1.495 -1.3179 -1.6582 -0.5442
 7866SOL    HW235058   4.541   0.260   1.559 -0.8734  1.2609 -1.4192
 7867SOL     OW35059   2.839   1.040  15.398  0.0551 -0.3498  0.2430
 7867SOL    HW135060   2.877   1.101  15.335 -1.9168 -0.2596 -0.8715
 7867SOL    HW235061   2.747   1.057  15.377  0.6260  2.4799  0.0484
 7868SOL     OW35062   2.386   0.337   5.078  0.0032 -0.6129  0.1535
 7868SOL    HW135063   2.324   0.265   5.062 -1.9976  1.8310 -3.2682
 7868SOL    HW235064   2.434   0.326   4.995  0.3539  3.4837 -0.1988
 7869SOL     OW35065   0.767   3.534  10.889  0.1664 -0.0542  0.5195
 7869SOL    HW135066   0.703   3.592  10.848  0.5453 -0.7243 -1.0473
 7869SOL    HW235067   0.835   3.599  10.906  1.3385 -1.4111  1.0628
 7870SOL     OW35068   0.952   3.703  15.223  0.1127  0.6265  0.1755
 7870SOL    HW135069   0.988   3.754  15.296 -1.6014  2.3904 -0.2119
 7870SOL    HW235070   0.884   3.658  15.273 -0.2596  0.7085 -0.2539
 7871SOL     OW35071   2.241   3.375   2.417 -0.0108 -0.2994 -0.1706
 7871SOL    HW135072   2.213   3.289   2.386 -2.1191  1.3353 -2.8697
 7871SOL    HW235073   2.224   3.440   2.349 -0.5117  0.8985  1.1049
 7872SOL     OW35074   3.521   2.339   5.612 -0.0928  0.2970 -0.3485
 7872SOL    HW135075   3.521   2.392   5.692 -0.0276 -1.5194  0.8563
 7872SOL    HW235076   3.612   2.311   5.607  0.3766  1.3054  2.2448
 7873SOL     OW35077   0.628   3.195   8.300 -0.6639  0.1076 -0.5806
 7873SOL    HW135078   0.574   3.132   8.254  0.8397 -0.8053 -1.1059
 7873SOL    HW235079   0.585   3.200   8.385 -0.1609 -0.9056 -0.2724
 7874SOL     OW35080   4.081   2.167   4.570  0.3618 -0.4082  0.5512
 7874SOL    HW135081   4.163   2.208   4.598 -0.0331  0.7311  0.0212
 7874SOL    HW235082   4.072   2.177   4.476  0.3249 -1.4921  0.4386
 7875SOL     OW35083   3.131   2.846   7.217 -0.7748 -0.4516  0.5773
 7875SOL    HW135084   3.160   2.874   7.303 -0.5816 -0.4208  0.5030
 7875SOL    HW235085   3.044   2.885   7.212  0.3487  2.0423  0.4544
 7876SOL     OW35086   4.452   3.330  12.333 -0.2817 -0.0751  0.3816
 7876SOL    HW135087   4.460   3.336  12.237  1.7743  1.0262  0.6105
 7876SOL    HW235088   4.490   3.246  12.360 -0.2208  0.1942  1.1137
 7877SOL     OW35089   1.520   3.301   0.705  0.0026  0.0442 -0.0195
 7877SOL    HW135090   1.484   3.387   0.726  1.9336  0.2506  2.4842
 7877SOL    HW235091   1.573   3.325   0.629  0.7090  1.1190  0.8124
 7878SOL     OW35092   1.678   0.193   7.662 -0.1349 -0.5472 -0.1991
 7878SOL    HW135093   1.718   0.129   7.720 -0.3537 -0.9264 -0.4728
 7878SOL    HW235094   1.599   0.148   7.632 -0.1457 -1.5520  1.3729
 7879SOL     OW35095   1.558   3.419   7.332 -0.4656 -0.7711  0.1770
 7879SOL    HW135096   1.466   3.393   7.335 -0.7528  0.2471  0.2041
 7879SOL    HW235097   1.565   3.490   7.397  2.1093  1.7680 -2.8817
 7880SOL     OW35098   3.142   3.844   4.790  0.2820 -0.1037  0.4459
 7880SOL    HW135099   3.105   3.782   4.853 -0.2546  0.5660  0.7835
 7880SOL    HW235100   3.206   3.885   4.848 -1.6616  1.8571  1.1671
 7881SOL     OW35101   1.515   4.482   4.010 -0.2034 -0.5367  0.5404
 7881SOL    HW135102   1.550   4.393   4.010 -0.2967 -0.5720  0.0887
 7881SOL    HW235103   1.572   4.523   4.075 -0.7164  0.9139  0.0691
 7882SOL     OW35104   0.334   0.435  12.999  0.0327  0.3672 -0.0325
 7882SOL    HW135105   0.293   0.512  12.959  0.0670  1.1577  1.4342
 7882SOL    HW235106   0.286   0.361  12.963  1.1794 -0.6466  0.5543
 7883SOL     OW35107   3.220   1.541   1.333 -0.3601  0.1044  0.0760
 7883SOL    HW135108   3.266   1.541   1.417  1.9981 -0.3673 -1.2219
 7883SOL    HW235109   3.293   1.504   1.284 -1.9746 -1.1122 -1.3972
 7884SOL     OW35110   1.230   3.538   6.757  0.0532  0.0805  0.3393
 7884SOL    HW135111   1.289   3.527   6.682  0.0254 -1.9672  0.6097
 7884SOL    HW235112   1.264   3.607   6.813 -1.6443  0.5162  0.8248
 7885SOL     OW35113   1.578   4.214  17.651  0.0937  0.1981 -0.3389
 7885SOL    HW135114   1.543   4.147  17.593  0.9266 -0.8632  0.3832
 7885SOL    HW235115   1.643   4.152  17.684  1.0726  0.9108 -0.9130
 7886SOL     OW35116   2.863   2.292   6.629  0.3003  0.3220  0.3112
 7886SOL    HW135117   2.780   2.281   6.584  0.7245  1.9836 -0.8757
 7886SOL    HW235118   2.912   2.322   6.553 -1.0531  1.2043 -0.2182
 7887SOL     OW35119   3.214   4.223  10.614 -0.1020  0.2884 -0.6185
 7887SOL    HW135120   3.156   4.157  10.650  1.5088 -1.2902 -0.9579
 7887SOL    HW235121   3.171   4.230  10.528 -0.4631  0.6491 -0.4123
 7888SOL     OW35122   1.222   1.528   8.027  0.1597 -0.6347 -0.0289
 7888SOL    HW135123   1.211   1.523   8.122 -0.5882 -3.5184 -0.2598
 7888SOL    HW235124   1.145   1.479   7.998 -0.2889  0.7293 -1.1938
 7889SOL     OW35125   1.793   0.817  17.484 -0.2896  0.0697 -0.4027
 7889SOL    HW135126   1.871   0.792  17.533 -0.0022  2.5448  0.4381
 7889SOL    HW235127   1.837   0.809  17.399  0.8080 -3.0306  0.4852
 7890SOL     OW35128   3.954   1.138   2.956 -0.1370  0.1553 -0.0559
 7890SOL    HW135129   4.047   1.118   2.945  0.3163  1.2979  1.6410
 7890SOL    HW235130   3.927   1.080   2.885 -0.1585  0.2013 -0.0854
 7891SOL     OW35131   4.405   3.596   9.962 -0.4032 -0.1150  0.6380
 7891SOL    HW135132   4.348   3.650   9.907  2.1363  2.0260  0.0849
 7891SOL    HW235133   4.478   3.655   9.984 -0.7847  0.9977 -1.0811
 7892SOL     OW35134   2.240   0.098   2.515  0.3043  0.3237 -0.0125
 7892SOL    HW135135   2.179   0.084   2.442 -0.7629 -1.3164  1.1629
 7892SOL    HW235136   2.311   0.147   2.474  0.0942  3.3143  3.2426
 7893SOL     OW35137   3.525   0.962  13.596  0.5066 -0.4044 -0.3392
 7893SOL    HW135138   3.496   1.015  13.521  0.0151 -0.1182  0.0523
 7893SOL    HW235139   3.551   0.886  13.544 -0.9082 -1.5251  0.5877
 7894SOL     OW35140   2.344   2.674  16.252  0.0375  0.3738 -0.5370
 7894SOL    HW135141   2.389   2.746  16.295  1.6729  0.0051 -1.6281
 7894SOL    HW235142   2.404   2.602  16.272 -3.1569 -1.6677  1.7557
 7895SOL     OW35143   4.230   0.236   4.056 -0.2077  0.0636 -0.2167
 7895SOL    HW135144   4.254   0.328   4.045 -1.7476  0.4254 -0.4941
 7895SOL    HW235145   4.307   0.191   4.020 -0.5455 -0.8667  0.2039
 7896SOL     OW35146   1.138   3.346   9.076 -0.3628 -0.6037 -0.0098
 7896SOL    HW135147   1.187   3.271   9.042 -0.1563 -0.6019  0.2906
 7896SOL    HW235148   1.052   3.327   9.039  0.5814 -0.6413 -2.2563
 7897SOL     OW35149   3.945   0.041  15.631 -0.0000  0.0969  0.3866
 7897SOL    HW135150   3.917   0.105  15.696  0.0132  0.0116  0.4754
 7897SOL    HW235151   4.027   0.009  15.669  1.5443  0.9690 -2.1624
 7898SOL     OW35152   1.037   0.673   5.036  0.3320  0.1444 -0.2295
 7898SOL    HW135153   0.950   0.655   5.071  0.0965  0.2667 -0.7511
 7898SOL    HW235154   1.029   0.762   5.002  1.4242  0.3599  0.0720
 7899SOL     OW35155   2.919   1.566   8.048  0.6367 -0.0492  0.2816
 7899SOL    HW135156   2.924   1.478   8.085  2.3459 -0.0120  0.1825
 7899SOL    HW235157   2.972   1.606   8.117 -1.4835 -0.7916  2.3240
 7900SOL     OW35158   1.437   3.857   4.901 -0.5420 -0.2114 -0.4284
 7900SOL    HW135159   1.527   3.854   4.867  0.2036 -2.3550  1.6950
 7900SOL    HW235160   1.443   3.779   4.956  1.7995  1.5776  1.8507
 7901SOL     OW35161   2.714   1.971  12.131  0.3339  0.8480 -0.5454
 7901SOL    HW135162   2.647   1.914  12.166  1.8356 -0.1893  0.6316
 7901SOL    HW235163   2.799   1.929  12.118 -1.3355 -2.0994 -1.7007
 7902SOL     OW35164   0.731   0.223   9.440  0.1927  0.4944 -0.2422
 7902SOL    HW135165   0.721   0.152   9.504  0.6587 -0.2424 -1.0043
 7902SOL    HW235166   0.826   0.228   9.435  0.3335 -0.4376  1.5442
 7903SOL     OW35167   2.422   0.257   3.592  0.3401 -0.0286  0.2821
 7903SOL    HW135168   2.488   0.189   3.604  1.8280  1.2655 -0.6016
 7903SOL    HW235169   2.442   0.322   3.659  0.0386  0.1963  0.1500
 7904SOL     OW35170   0.871   4.616   1.908 -0.2074 -0.3045  0.0496
 7904SOL    HW135171   0.948   4.625   1.964 -0.5144 -0.3001  0.4682
 7904SOL    HW235172   0.808   4.672   1.955 -2.7969 -1.4579 -2.0147
 7905SOL     OW35173   3.191   2.152   7.252 -0.0288 -0.0078 -0.0770
 7905SOL    HW135174   3.259   2.195   7.199  0.0341 -1.2647 -1.0330
 7905SOL    HW235175   3.113   2.187   7.209 -0.1492  0.0568  0.2012
 7906SOL     OW35176   0.742   0.452   3.388 -0.2815  0.1553 -0.0976
 7906SOL    HW135177   0.836   0.469   3.380 -0.0452 -1.1346 -0.0376
 7906SOL    HW235178   0.713   0.541   3.407  2.0920  0.2249  3.1277
 7907SOL     OW35179   3.639   1.314  14.613  0.4372  0.6314 -0.1187
 7907SOL    HW135180   3.694   1.339  14.539  1.1888  0.2141  0.2977
 7907SOL    HW235181   3.573   1.265  14.564  1.2503  0.9634 -1.5356
 7908SOL     OW35182   2.239   1.831   3.916  0.5434  0.2033  0.3338
 7908SOL    HW135183   2.293   1.758   3.945  1.8032  0.7531 -0.6294
 7908SOL    HW235184   2.158   1.785   3.895 -0.4140  2.3935 -0.7734
 7909SOL     OW35185   2.030   1.421   7.801  0.0330 -0.4461  0.6962
 7909SOL    HW135186   2.122   1.444   7.812  0.1496 -0.8803  0.6063
 7909SOL    HW235187   2.027   1.330   7.831  0.1030  0.2998  2.9477
 7910SOL     OW35188   0.221   3.903   5.465  0.0369  0.0827  0.4264
 7910SOL    HW135189   0.252   3.960   5.394  1.1827 -1.7439 -0.5275
 7910SOL    HW235190   0.257   3.825   5.423  1.6866  1.2488 -0.3201
 7911SOL     OW35191   2.433   4.150   0.709  0.2744 -0.7890 -0.1998
 7911SOL    HW135192   2.438   4.132   0.803 -1.8651  2.0447  0.4361
 7911SOL    HW235193   2.430   4.060   0.677 -0.7412 -0.4255 -1.1245
 7912SOL     OW35194   1.636   0.296   0.698  0.2153 -0.7049 -0.0838
 7912SOL    HW135195   1.719   0.279   0.743  1.2953  0.1556 -1.7339
 7912SOL    HW235196   1.604   0.365   0.756 -0.0230  0.1160 -1.1900
 7913SOL     OW35197   2.583   2.926   1.201  0.3689  0.0324 -0.2428
 7913SOL    HW135198   2.675   2.924   1.227  1.2658  2.3128 -3.2870
 7913SOL    HW235199   2.558   2.843   1.243 -0.5313 -0.7833 -2.3812
 7914SOL     OW35200   0.952   4.430   5.177  0.2085 -0.3437 -0.3327
 7914SOL    HW135201   0.948   4.370   5.252 -0.0185 -1.7803 -1.4787
 7914SOL    HW235202   0.979   4.368   5.109  1.5903  1.3292 -1.3170
 7915SOL     OW35203   1.410   0.052  16.274 -0.2248 -0.1323 -0.1755
 7915SOL    HW135204   1.496   0.066  16.312  0.7017 -1.5907 -1.7596
 7915SOL    HW235205   1.419   0.103  16.193  0.6990 -1.1958 -0.7368
 7916SOL     OW35206   1.270   4.562   6.128  0.2974  0.2987 -0.1171
 7916SOL    HW135207   1.197   4.595   6.076 -1.2492 -1.0327  1.2365
 7916SOL    HW235208   1.317   4.512   6.061  1.0019  2.2706 -1.1133
 7917SOL     OW35209   1.800   3.913   8.785  0.2206  0.2691 -0.0668
 7917SOL    HW135210   1.874   3.854   8.802  0.0321  0.3256  0.9498
 7917SOL    HW235211   1.818   3.965   8.864  0.0893 -0.0519  0.1752
 7918SOL     OW35212   1.476   0.085   5.537 -0.3630 -0.3664 -0.0739
 7918SOL    HW135213   1.439   0.060   5.452  2.7713  0.9155 -1.8247
 7918SOL    HW235214   1.547   0.144   5.512  1.3864 -2.8939 -1.0769
 7919SOL     OW35215   3.205   0.159   1.050  0.2190 -0.1321  0.0111
 7919SOL    HW135216   3.124   0.121   1.017  1.4435  0.6036 -3.8257
 7919SOL    HW235217   3.220   0.133   1.141  2.9262  2.3426  0.2964
 7920SOL     OW35218   1.394   0.331   5.338 -0.2993  0.1959  0.0899
 7920SOL    HW135219   1.324   0.308   5.277  1.7262 -0.6469 -1.9038
 7920SOL    HW235220   1.357   0.370   5.417  0.5262  1.3518 -0.0854
 7921SOL     OW35221   2.214   3.068   5.438 -0.3602 -0.2357  0.5745
 7921SOL    HW135222   2.165   3.032   5.364 -1.1487 -0.0511  1.0113
 7921SOL    HW235223   2.252   2.986   5.471  1.8817  0.4947 -0.1896
 7922SOL     OW35224   1.920   1.581   4.480 -0.1354  0.0063  0.0238
 7922SOL    HW135225   1.903   1.499   4.433 -1.2636  0.5935 -0.6101
 7922SOL    HW235226   1.984   1.625   4.424  0.0658 -0.6622 -0.2701
 7923SOL     OW35227   3.361   3.164  15.972 -0.0971  0.2219  0.1616
 7923SOL    HW135228   3.425   3.098  15.947 -1.4976 -0.0876 -2.6092
 7923SOL    HW235229   3.402   3.234  15.921 -3.6351  0.9617 -1.6604
 7924SOL     OW35230   4.443   0.183  10.792 -0.1703  0.2166 -0.4560
 7924SOL    HW135231   4.376   0.148  10.733 -0.0190 -1.3234  0.2859
 7924SOL    HW235232   4.454   0.092  10.821 -1.3483  0.1258 -0.2811
 7925SOL     OW35233   2.970   4.195  11.680 -0.5596 -0.2311  0.3585
 7925SOL    HW135234   3.063   4.202  11.657 -0.2695 -1.6244  1.1501
 7925SOL    HW235235   2.944   4.110  11.644  1.9151 -0.5499 -0.6842
 7926SOL     OW35236   0.616   4.330   4.197  0.3844 -0.0830 -0.0041
 7926SOL    HW135237   0.708   4.329   4.224 -0.5567  6.0068  3.3924
 7926SOL    HW235238   0.615   4.418   4.160 -0.4927 -0.2559 -0.3950
 7927SOL     OW35239   1.836   3.473   5.771 -0.1264  0.0098  0.5949
 7927SOL    HW135240   1.912   3.437   5.816  0.0528 -0.1412  0.1753
 7927SOL    HW235241   1.868   3.553   5.730 -1.0803 -0.5067 -1.1958
 7928SOL     OW35242   0.566   0.777   1.618  1.1204  0.4100  0.6155
 7928SOL    HW135243   0.521   0.861   1.617 -1.5611 -1.0408  0.2016
 7928SOL    HW235244   0.495   0.719   1.646  1.6836 -0.7255 -0.3237
 7929SOL     OW35245   0.521   2.108   6.791  0.2615 -0.0705 -0.2093
 7929SOL    HW135246   0.570   2.162   6.853  1.3179 -1.2235 -0.0535
 7929SOL    HW235247   0.567   2.146   6.716 -0.1485 -0.9514 -0.9086
 7930SOL     OW35248   0.951   3.385   6.461  0.2615  0.0080 -0.3119
 7930SOL    HW135249   0.891   3.334   6.515 -1.1731  1.4311 -0.5544
 7930SOL    HW235250   0.935   3.347   6.374 -0.2466 -2.2961  0.7901
 7931SOL     OW35251   3.068   0.159  16.786  0.2923 -0.0298  0.1602
 7931SOL    HW135252   3.011   0.149  16.862  1.6668 -1.6668  0.9643
 7931SOL    HW235253   3.153   0.131  16.819  1.1900  2.0494 -0.3704
 7932SOL     OW35254   0.146   2.164   8.194 -0.2463  0.1244  0.1193
 7932SOL    HW135255   0.204   2.108   8.247  1.3078  0.3816 -1.3062
 7932SOL    HW235256   0.061   2.147   8.233  0.3136 -1.8608  0.5194
 7933SOL     OW35257   3.011   2.768   6.522  0.2181  0.2690  0.3015
 7933SOL    HW135258   3.075   2.713   6.569 -0.7509 -1.5123 -0.4655
 7933SOL    HW235259   3.022   2.857   6.555  0.0260  0.2357  0.4534
 7934SOL     OW35260   4.658   2.737   6.270  0.2298 -0.0069 -0.6745
 7934SOL    HW135261   0.009   2.677   6.264  2.4091  2.7181 -1.2647
 7934SOL    HW235262   4.693   2.826   6.280  0.3038 -0.3626  1.9812
 7935SOL     OW35263   0.477   3.944   2.149  0.4800  0.1998 -0.8812
 7935SOL    HW135264   0.564   3.967   2.180  0.1052  2.8611 -1.8127
 7935SOL    HW235265   0.496   3.886   2.074  0.2112 -1.4948  0.3645
 7936SOL     OW35266   3.294   0.212   3.159 -0.2430 -0.0402 -0.0048
 7936SOL    HW135267   3.269   0.129   3.118 -0.7177  0.9013 -1.5972
 7936SOL    HW235268   3.388   0.197   3.164 -0.1786 -0.5823 -3.0402
 7937SOL     OW35269   2.573   1.916   7.274  0.3072 -0.0724  0.3809
 7937SOL    HW135270   2.491   1.912   7.225  2.3790  0.9146 -3.1528
 7937SOL    HW235271   2.539   1.914   7.364  2.5198  1.2676  1.2471
 7938SOL     OW35272   3.331   4.118   4.789 -0.4299 -0.2718 -0.2520
 7938SOL    HW135273   3.410   4.166   4.763 -1.4352  0.4581 -1.9472
 7938SOL    HW235274   3.362   4.055   4.854  0.1383  1.8261  1.5455
 7939SOL     OW35275   1.216   4.684  16.427 -0.1917 -0.5426  0.1738
 7939SOL    HW135276   1.224   4.605  16.374 -1.0280 -1.6748  1.7428
 7939SOL    HW235277   1.304   4.716  16.405  1.3820 -2.6801  3.3242
 7940SOL     OW35278   4.071   1.922   9.322  0.5914 -0.2394 -0.0796
 7940SOL    HW135279   3.976   1.930   9.326  0.5565 -0.4548 -0.4755
 7940SOL    HW235280   4.093   1.945   9.412  1.2264 -0.0016 -0.2973
 7941SOL     OW35281   1.693   1.962   2.149 -0.1520  0.0088 -0.3752
 7941SOL    HW135282   1.706   1.989   2.058 -0.5628 -3.2875 -1.4116
 7941SOL    HW235283   1.603   1.992   2.164 -0.0400  0.2136 -0.1140
 7942SOL     OW35284   3.929   1.884   3.585  0.2614 -0.1666  0.0718
 7942SOL    HW135285   3.868   1.821   3.623 -0.0019  0.5281  0.7902
 7942SOL    HW235286   3.921   1.873   3.490 -2.0182 -1.4940  0.4149
 7943SOL     OW35287   3.318   3.674   0.246  0.3315 -0.1707 -0.7738
 7943SOL    HW135288   3.335   3.590   0.204 -0.6411 -0.6537 -0.2045
 7943SOL    HW235289   3.223   3.685   0.239  0.2127 -1.7360 -1.4885
 7944SOL     OW35290   1.260   3.717   8.872  0.3516  0.6490 -0.1449
 7944SOL    HW135291   1.346   3.701   8.911 -0.8704 -1.2964  1.7441
 7944SOL    HW235292   1.196   3.710   8.943  0.9359 -0.6536  0.2485
 7945SOL     OW35293   1.046   2.582  13.840  0.3296  0.8256  0.3268
 7945SOL    HW135294   1.127   2.554  13.882 -0.6235  0.8416  2.1784
 7945SOL    HW235295   1.001   2.502  13.814  0.6042  0.0168  2.3283
 7946SOL     OW35296   3.129   3.522  10.825  0.3452 -0.0177  0.1706
 7946SOL    HW135297   3.160   3.433  10.841 -0.4956  0.1101  2.5375
 7946SOL    HW235298   3.037   3.509  10.804  0.5510  2.1316 -2.1108
 7947SOL     OW35299   3.950   1.863   5.978 -0.2952 -0.1620 -0.0047
 7947SOL    HW135300   4.044   1.875   5.965 -0.0800 -1.2539  0.5813
 7947SOL    HW235301   3.922   1.935   6.034  1.9446  1.5118 -1.0415
 7948SOL     OW35302   4.272   2.379  15.155  0.1125  0.2780 -0.1832
 7948SOL    HW135303   4.204   2.440  15.183 -0.5706 -0.5732  0.0126
 7948SOL    HW235304   4.279   2.323  15.233 -0.2712  1.9247  1.0461
 7949SOL     OW35305   3.306   2.163  15.232  0.1859  0.3656 -0.2817
 7949SOL    HW135306   3.357   2.244  15.226  1.5221 -0.3955  0.9329
 7949SOL    HW235307   3.337   2.124  15.314 -0.0228 -2.5065 -1.6041
 7950SOL     OW35308   2.884   4.308   8.337  0.3198  0.4533  0.0017
 7950SOL    HW135309   2.912   4.227   8.380 -0.9551  0.8956  1.6692
 7950SOL    HW235310   2.933   4.313   8.254 -0.2484  1.0983 -0.2948
 7951SOL     OW35311   4.065   2.619  11.009  0.0543 -0.0354 -0.0550
 7951SOL    HW135312   4.036   2.540  11.055  0.6102 -0.8499 -1.1238
 7951SOL    HW235313   4.158   2.631  11.027  0.4096 -1.8765 -0.7029
 7952SOL     OW35314   4.458   3.042   3.501  0.0397 -0.5122  0.5140
 7952SOL    HW135315   4.468   3.124   3.549 -0.3000  1.6756 -3.1258
 7952SOL    HW235316   4.363   3.041   3.511  0.0118  0.8583  0.4364
 7953SOL     OW35317   3.446   2.775   7.359 -0.3837  0.2222  0.5333
 7953SOL    HW135318   3.391   2.715   7.409 -0.0966  1.3041  2.1783
 7953SOL    HW235319   3.463   2.711   7.290 -1.7252 -1.2134  1.5367
 7954SOL     OW35320   2.316   0.993   4.375 -0.8199  0.4116 -0.3802
 7954SOL    HW135321   2.363   0.944   4.307  0.4018 -3.7641  3.4150
 7954SOL    HW235322   2.229   0.953   4.373 -0.3560 -0.6080 -0.2119
 7955SOL     OW35323   2.988   2.296  12.515  0.1989 -0.0233  0.0763
 7955SOL    HW135324   2.914   2.321  12.461 -0.1146  2.3743  1.5929
 7955SOL    HW235325   2.932   2.236  12.564  1.4790 -0.9824  0.3872
 7956SOL     OW35326   3.594   3.464   7.172 -0.0335  0.0579  0.1635
 7956SOL    HW135327   3.525   3.505   7.224  0.2566  0.8384 -0.0667
 7956SOL    HW235328   3.548   3.381   7.159 -0.9807  0.5688  0.2744
 7957SOL     OW35329   1.761   3.361  16.389 -0.5993 -0.0757  0.1269
 7957SOL    HW135330   1.819   3.430  16.422 -1.9278  0.4333  1.3976
 7957SOL    HW235331   1.709   3.410  16.325  0.0846 -0.2856 -0.5872
 7958SOL     OW35332   1.639   0.178   2.971  0.0350  0.6642 -0.9110
 7958SOL    HW135333   1.711   0.236   2.995 -0.1222  0.7487 -0.6399
 7958SOL    HW235334   1.659   0.150   2.882 -1.0258 -0.6137 -0.7685
 7959SOL     OW35335   3.459   2.823  15.639 -0.0357 -0.1959  0.0581
 7959SOL    HW135336   3.523   2.887  15.671 -0.1431 -1.0278  1.9025
 7959SOL    HW235337   3.416   2.888  15.582 -1.0186 -0.0175  1.0144
 7960SOL     OW35338   1.835   1.312  17.054 -0.2081 -0.3709  0.2333
 7960SOL    HW135339   1.854   1.330  17.146  0.4785 -0.7146  0.1602
 7960SOL    HW235340   1.792   1.227  17.068 -0.0412 -0.6973 -1.1753
 7961SOL     OW35341   2.180   2.943  16.495  0.0136 -0.0268 -0.2442
 7961SOL    HW135342   2.090   2.945  16.527  0.2905  0.4869  0.5121
 7961SOL    HW235343   2.183   3.031  16.458 -3.5047  1.2642  2.5445
 7962SOL     OW35344   3.672   0.737   3.494 -0.0574  0.0964  0.6623
 7962SOL    HW135345   3.757   0.769   3.526  1.5275 -2.5393 -0.9008
 7962SOL    HW235346   3.705   0.690   3.417  1.8395 -0.6146  1.9045
 7963SOL     OW35347   1.883   4.011   5.218 -0.1551  0.0477 -0.0589
 7963SOL    HW135348   1.844   3.928   5.243  0.0154 -0.3748 -1.1643
 7963SOL    HW235349   1.811   4.063   5.253  0.5031  1.2717 -0.5049
 7964SOL     OW35350   0.954   2.160   4.048 -0.3771 -0.6128 -0.1509
 7964SOL    HW135351   1.015   2.139   4.119 -0.8023 -1.3861 -0.0152
 7964SOL    HW235352   1.003   2.195   3.974  1.5925  1.4160  2.0974
 7965SOL     OW35353   0.129   3.239  13.439  0.0109 -0.5080 -0.0435
 7965SOL    HW135354   0.159   3.161  13.393  1.2926 -0.1508  0.1761
 7965SOL    HW235355   0.068   3.199  13.500  0.9518 -2.2259 -0.2340
 7966SOL     OW35356   1.663   1.299   5.967 -0.6210 -0.3337  0.0929
 7966SOL    HW135357   1.648   1.225   6.026  0.0338 -0.3607  0.2214
 7966SOL    HW235358   1.622   1.370   6.017  0.9550 -0.0191  0.9279
 7967SOL     OW35359   1.094   0.083  15.163 -0.0872 -0.4264 -0.1460
 7967SOL    HW135360   1.076   0.067  15.070 -0.9326 -1.2465  0.1526
 7967SOL    HW235361   1.127   4.719  15.187 -0.9191 -0.3611  1.2649
 7968SOL     OW35362   1.094   0.462   2.599 -0.1235 -0.1261  0.4645
 7968SOL    HW135363   1.180   0.442   2.638  0.6254  0.3091 -0.9637
 7968SOL    HW235364   1.048   0.525   2.655 -1.1098 -0.0495 -0.4472
 7969SOL     OW35365   0.179   4.207   8.247 -0.1385 -0.3549 -0.0388
 7969SOL    HW135366   0.220   4.199   8.333 -1.1196  1.9010  0.6506
 7969SOL    HW235367   0.136   4.121   8.247 -1.5519  0.3604  2.8753
 7970SOL     OW35368   2.476   1.400   0.644  0.2400 -0.3627  0.4433
 7970SOL    HW135369   2.560   1.442   0.664 -1.6597  2.7379  1.8639
 7970SOL    HW235370   2.471   1.413   0.550 -3.3177 -0.0308  0.6873
 7971SOL     OW35371   2.390   3.555   4.083  0.0638 -0.6269 -0.0244
 7971SOL    HW135372   2.362   3.467   4.106  0.9912 -0.8677  0.1813
 7971SOL    HW235373   2.458   3.568   4.149 -0.1139 -2.0046  0.4127
 7972SOL     OW35374   2.663   4.504   9.383  0.4355 -0.2056 -0.4114
 7972SOL    HW135375   2.579   4.549   9.390  0.4411 -0.3319  0.4367
 7972SOL    HW235376   2.634   4.432   9.326  2.6398 -1.0478 -0.4524
 7973SOL     OW35377   3.972   2.311   3.597 -0.2495 -0.1792 -0.2972
 7973SOL    HW135378   3.911   2.274   3.533 -1.6383  0.5652  0.5936
 7973SOL    HW235379   3.919   2.365   3.656  1.4295  1.4283 -0.2690
 7974SOL     OW35380   1.273   4.065  12.652  0.6779  0.1667 -0.2848
 7974SOL    HW135381   1.289   4.148  12.608  1.0537 -0.7930 -1.9304
 7974SOL    HW235382   1.332   4.077  12.726  0.7067  1.2418 -0.4837
 7975SOL     OW35383   2.997   1.208  10.514 -0.3796 -0.3316  0.6511
 7975SOL    HW135384   3.025   1.254  10.434  2.6909  1.6184  2.8380
 7975SOL    HW235385   3.027   1.118  10.501 -0.5645 -0.2733 -0.2255
 7976SOL     OW35386   1.742   0.525  13.167 -0.2643  0.3122  0.1899
 7976SOL    HW135387   1.786   0.570  13.095 -0.4936 -0.8676 -0.6821
 7976SOL    HW235388   1.652   0.517  13.136 -0.4518  0.3051  0.7291
 7977SOL     OW35389   1.065   1.306   6.259  0.1726  0.3164  0.3275
 7977SOL    HW135390   0.976   1.330   6.232 -0.7514 -0.5235  2.6069
 7977SOL    HW235391   1.123   1.363   6.209 -0.6564 -1.2869 -2.4616
 7978SOL     OW35392   2.232   2.855   7.437  0.2269  0.1174  0.3064
 7978SOL    HW135393   2.280   2.824   7.359 -1.1628 -0.8599 -0.1601
 7978SOL    HW235394   2.290   2.815   7.502 -0.0017  0.3371  0.6408
 7979SOL     OW35395   0.232   0.287   4.609 -0.5678  0.5431 -0.4206
 7979SOL    HW135396   0.279   0.215   4.650 -0.9760 -0.0425 -0.9754
 7979SOL    HW235397   0.176   0.317   4.680 -0.6892 -1.6144  0.3979
 7980SOL     OW35398   2.536   3.592   4.315 -0.1891 -0.2658  0.5602
 7980SOL    HW135399   2.616   3.608   4.265 -0.6708  1.5386  0.3718
 7980SOL    HW235400   2.537   3.671   4.369  0.9017 -0.2388  0.4932
 7981SOL     OW35401   0.513   2.116   5.866 -0.1129  0.0485 -0.2577
 7981SOL    HW135402   0.503   2.141   5.774 -1.4516  1.6753  0.3244
 7981SOL    HW235403   0.595   2.157   5.893 -1.1845  2.5896 -0.8593
 7982SOL     OW35404   2.032   1.623   3.362  0.5732 -0.1704  0.1233
 7982SOL    HW135405   1.978   1.553   3.399 -0.9486  1.0112  0.1033
 7982SOL    HW235406   2.089   1.563   3.313  0.2967  2.1958 -3.0427
 7983SOL     OW35407   2.941   0.583   3.246 -0.5444 -0.3119 -0.3017
 7983SOL    HW135408   2.945   0.644   3.320  0.8714 -0.8251  0.0376
 7983SOL    HW235409   2.916   0.647   3.179 -0.3707 -0.0070 -0.0762
 7984SOL     OW35410   1.999   0.697   8.266  0.0936  0.1228 -0.2697
 7984SOL    HW135411   2.082   0.742   8.280  0.1326  0.0786 -0.3648
 7984SOL    HW235412   1.980   0.679   8.359  1.7225  0.6817  0.1779
 7985SOL     OW35413   1.858   1.591  11.731 -0.0477  0.2738 -0.6429
 7985SOL    HW135414   1.792   1.633  11.787  1.2805  1.5393 -0.0252
 7985SOL    HW235415   1.882   1.659  11.668  0.0717  2.6638  1.9676
 7986SOL     OW35416   1.192   0.115  14.544  0.0092  0.7044 -0.1580
 7986SOL    HW135417   1.262   0.180  14.555 -0.8753  1.6589 -0.0951
 7986SOL    HW235418   1.239   0.046  14.499 -0.2080  0.8513 -0.6101
 7987SOL     OW35419   0.572   0.814   3.916 -0.1096 -0.4224  0.2886
 7987SOL    HW135420   0.483   0.847   3.908 -0.2252 -1.4653 -3.0091
 7987SOL    HW235421   0.560   0.742   3.978  0.6746 -0.6871  0.1360
 7988SOL     OW35422   1.134   2.933  13.571  0.0296  0.2947  0.3080
 7988SOL    HW135423   1.141   2.880  13.492 -1.7154  0.2636  0.1807
 7988SOL    HW235424   1.178   3.013  13.543 -0.9899  0.6344 -0.3088
 7989SOL     OW35425   3.257   4.253   5.069  0.0144 -0.2082  0.0565
 7989SOL    HW135426   3.271   4.259   4.975  0.7685  0.7383  0.2256
 7989SOL    HW235427   3.165   4.281   5.074  0.4855  1.3605 -0.2693
 7990SOL     OW35428   4.615   2.465   4.582 -0.1367  0.4020 -0.6436
 7990SOL    HW135429   4.694   2.510   4.610  1.1053 -1.5048 -1.0932
 7990SOL    HW235430   4.604   2.403   4.655 -0.2606 -0.1463 -1.1237
 7991SOL     OW35431   0.974   2.980  11.824  0.6340 -0.2165 -0.3316
 7991SOL    HW135432   1.001   2.927  11.900  1.1716 -1.3467 -1.3180
 7991SOL    HW235433   1.046   2.962  11.764  1.4472 -0.8731  0.8245
 7992SOL     OW35434   0.724   3.739  17.629  0.6254 -0.1706  0.6356
 7992SOL    HW135435   0.770   3.787  17.560 -1.9282 -0.3268 -1.1727
 7992SOL    HW235436   0.770   3.657  17.616  1.4043  0.4346 -0.4545
 7993SOL     OW35437   2.468   1.075   2.899  0.2153 -0.3916  0.0727
 7993SOL    HW135438   2.377   1.084   2.871 -0.3094 -1.8970  1.3225
 7993SOL    HW235439   2.462   0.985   2.932  1.1970 -0.2332  0.6677
 7994SOL     OW35440   0.273   0.622   5.855 -0.0246  0.1841 -0.4196
 7994SOL    HW135441   0.189   0.604   5.898 -0.9612 -1.3300 -2.8706
 7994SOL    HW235442   0.308   0.695   5.906  4.4751 -1.3909 -1.2880
 7995SOL     OW35443   1.762   1.669   6.174  0.1641  0.1727  0.3663
 7995SOL    HW135444   1.782   1.665   6.268  0.3054 -1.7818  0.2411
 7995SOL    HW235445   1.766   1.764   6.167  0.3486  0.0122 -1.5860
 7996SOL     OW35446   3.617   4.178  11.302 -0.5005 -0.2538  0.4229
 7996SOL    HW135447   3.623   4.096  11.351 -0.4907 -0.2152  0.4858
 7996SOL    HW235448   3.525   4.178  11.275  0.2444 -2.1253 -2.0956
 7997SOL     OW35449   2.881   1.440  15.854  0.2460  0.1041  0.3198
 7997SOL    HW135450   2.913   1.525  15.823 -0.7669  0.4726  0.2985
 7997SOL    HW235451   2.938   1.373  15.817  0.0885 -0.1541  0.5524
 7998SOL     OW35452   4.645   4.560   2.400  0.2952  0.2199  0.4389
 7998SOL    HW135453   4.678   4.480   2.359 -2.1595 -0.2074 -0.6851
 7998SOL    HW235454   4.575   4.582   2.339 -0.1311  1.4900  1.3826
 7999SOL     OW35455   3.918   3.963   1.532  0.1055 -0.0152  0.2617
 7999SOL    HW135456   3.873   3.887   1.570 -0.0646  0.5778  1.2465
 7999SOL    HW235457   3.978   3.986   1.602 -0.8477  0.5123  0.9074
 8000SOL     OW35458   0.125   4.633   9.337  0.1171  0.1951 -0.3840
 8000SOL    HW135459   0.217   4.619   9.360  0.1471 -0.4090 -0.8624
 8000SOL    HW235460   0.129   0.004   9.319  0.0423 -0.3666 -3.3855
 8001SOL     OW35461   0.328   2.529   4.945 -0.0889 -0.3933  0.2938
 8001SOL    HW135462   0.397   2.568   4.892  0.5947 -1.4886  0.3756
 8001SOL    HW235463   0.370   2.461   4.998  0.5385 -1.4287 -1.5325
 8002SOL     OW35464   0.985   2.662   4.723  0.1804 -0.1496 -0.6550
 8002SOL    HW135465   0.962   2.576   4.688  3.2443 -1.3692  0.2844
 8002SOL    HW235466   1.061   2.676   4.666 -0.8704 -1.1383 -2.2879
 8003SOL     OW35467   0.628   1.556   6.300  0.0312  0.1206 -0.3325
 8003SOL    HW135468   0.617   1.640   6.256 -0.4651  0.6591  0.8158
 8003SOL    HW235469   0.640   1.583   6.391 -1.6993 -1.0712  0.2525
 8004SOL     OW35470   2.849   4.162  10.750 -0.0716 -0.3597  0.8429
 8004SOL    HW135471   2.923   4.102  10.738  0.3411 -0.2788  3.1393
 8004SOL    HW235472   2.797   4.124  10.679 -0.2294  0.8084  0.3228
 8005SOL     OW35473   0.595   4.088  16.238 -0.4298  0.3140 -0.4430
 8005SOL    HW135474   0.536   4.050  16.304 -0.7592 -0.5344 -1.2264
 8005SOL    HW235475   0.637   4.006  16.211 -1.2665 -0.3265  0.1734
 8006SOL     OW35476   1.487   4.713   6.182  0.5194 -0.6926 -0.0596
 8006SOL    HW135477   1.550   4.648   6.213  0.0428 -0.2773  1.8190
 8006SOL    HW235478   1.410   4.659   6.162 -0.3424  1.2870 -2.0772
 8007SOL     OW35479   2.178   2.834   7.021 -0.2239  0.2409 -0.1829
 8007SOL    HW135480   2.180   2.918   7.068  0.3264  0.1149  0.0159
 8007SOL    HW235481   2.267   2.824   6.989  0.7869  0.0496  2.7219
 8008SOL     OW35482   3.591   2.257  13.902  0.5144 -0.5826 -0.3678
 8008SOL    HW135483   3.536   2.228  13.829  0.1756  0.0658 -0.3593
 8008SOL    HW235484   3.537   2.240  13.979  0.5054  0.0557 -0.2354
 8009SOL     OW35485   3.636   0.658  14.321  0.1404 -0.6965  0.1047
 8009SOL    HW135486   3.696   0.718  14.277 -1.9299 -0.1485 -1.9092
 8009SOL    HW235487   3.625   0.592  14.253  1.1590  0.4850 -1.1832
 8010SOL     OW35488   2.453   4.667   9.237 -0.4832 -0.4360 -0.0660
 8010SOL    HW135489   2.367   4.672   9.196 -0.2556 -0.9918 -0.6182
 8010SOL    HW235490   2.460   0.037   9.260 -0.4397 -0.4131 -0.1752
 8011SOL     OW35491   2.488   2.521   4.895  0.2554  0.0011 -0.4701
 8011SOL    HW135492   2.410   2.482   4.856 -0.5995  0.0959  1.1077
 8011SOL    HW235493   2.519   2.568   4.818  1.1676  1.3376  0.7036
 8012SOL     OW35494   0.127   1.202  14.466 -0.2898  0.0109  0.1224
 8012SOL    HW135495   0.149   1.138  14.398  2.5607 -0.5873  1.6422
 8012SOL    HW235496   0.045   1.166  14.500  0.0541 -0.4033  0.5037
 8013SOL     OW35497   3.714   3.128   4.700  0.4098  0.1054  0.7613
 8013SOL    HW135498   3.693   3.220   4.686  1.0087  0.0388 -0.6057
 8013SOL    HW235499   3.645   3.089   4.647  0.3368 -1.6739  2.1858
 8014SOL     OW35500   1.768   0.609   7.653 -0.4464  0.0512  0.1332
 8014SOL    HW135501   1.828   0.551   7.701  1.4394  1.1867 -0.8774
 8014SOL    HW235502   1.825   0.639   7.582  2.6852 -1.2733  2.0690
 8015SOL     OW35503   4.042   2.747  12.381 -0.1779 -0.1523  0.1491
 8015SOL    HW135504   3.964   2.763  12.328  0.3382 -0.1363 -0.6190
 8015SOL    HW235505   4.092   2.717  12.305  0.0532  0.7157 -0.0449
 8016SOL     OW35506   3.618   0.358   1.985  0.3053  0.3835  0.6525
 8016SOL    HW135507   3.577   0.338   2.069  1.9430  0.7475  1.5203
 8016SOL    HW235508   3.709   0.369   2.011  0.3105  2.6607 -0.3292
 8017SOL     OW35509   3.067   4.368   9.716  0.2571 -0.2064 -0.1983
 8017SOL    HW135510   3.158   4.342   9.727  0.2701  0.4338  1.1521
 8017SOL    HW235511   3.043   4.387   9.806  1.9097  1.2983 -0.0757
 8018SOL     OW35512   2.740   0.769   1.700 -0.2462 -0.4104  0.8837
 8018SOL    HW135513   2.659   0.737   1.740 -0.7000  0.2629  0.4960
 8018SOL    HW235514   2.802   0.776   1.773 -0.3015 -0.8717  0.9783
 8019SOL     OW35515   4.157   2.397   4.240  0.2546 -0.4771  0.2152
 8019SOL    HW135516   4.232   2.402   4.182 -0.7697  1.2963 -0.9717
 8019SOL    HW235517   4.123   2.307   4.239 -0.2750 -0.3028  1.6546
 8020SOL     OW35518   3.418   2.564   6.833  0.2188 -0.2234  0.4994
 8020SOL    HW135519   3.417   2.565   6.738  1.0444  1.7671  0.5109
 8020SOL    HW235520   3.461   2.480   6.850  1.3547  0.4323  0.8793
 8021SOL     OW35521   3.928   1.927   2.616 -0.1777  0.3199  0.4108
 8021SOL    HW135522   3.957   1.839   2.638 -1.0683  0.1468  0.8803
 8021SOL    HW235523   3.988   1.959   2.548 -0.1931  0.0511  0.2725
 8022SOL     OW35524   0.324   2.168  14.564  0.1981  0.0937  0.1695
 8022SOL    HW135525   0.381   2.141  14.492 -0.2413 -0.2428 -0.0546
 8022SOL    HW235526   0.361   2.255  14.580  1.3428 -0.0128 -1.9773
 8023SOL     OW35527   0.757   1.194   9.048  0.4615 -0.4662  0.5984
 8023SOL    HW135528   0.669   1.167   9.023  1.0550 -0.9260 -0.9620
 8023SOL    HW235529   0.793   1.108   9.072  1.5526  0.1862  1.2775
 8024SOL     OW35530   2.390   2.679   1.991 -0.1197  0.3973 -0.2877
 8024SOL    HW135531   2.408   2.703   1.900 -0.2705 -0.1849 -0.4682
 8024SOL    HW235532   2.302   2.645   1.974 -0.1691 -0.3350  1.4462
 8025SOL     OW35533   1.529   0.409   3.372  0.1052  0.4527  0.2997
 8025SOL    HW135534   1.498   0.412   3.281  0.3593  1.8607  0.2497
 8025SOL    HW235535   1.454   0.370   3.417 -0.1346 -0.3498 -0.7949
 8026SOL     OW35536   1.079   0.717  10.881  0.8702 -0.0756  0.1980
 8026SOL    HW135537   1.012   0.705  10.813 -0.1311 -1.6704  1.4658
 8026SOL    HW235538   1.114   0.629  10.892 -0.2329 -0.5579 -0.1636
 8027SOL     OW35539   1.682   3.904   4.790  0.1206 -0.3104  0.0032
 8027SOL    HW135540   1.685   3.967   4.718 -1.6236  0.8240  0.9175
 8027SOL    HW235541   1.767   3.917   4.832 -0.0072 -0.4600  0.3080
 8028SOL     OW35542   0.190   0.890  15.350 -0.1594  0.0349 -0.2250
 8028SOL    HW135543   0.147   0.949  15.287 -1.2613 -0.1695  0.3327
 8028SOL    HW235544   0.280   0.921  15.338 -0.1936 -0.0810 -0.7809
 8029SOL     OW35545   4.387   4.339   5.146 -0.2550 -0.6331 -0.0729
 8029SOL    HW135546   4.406   4.253   5.108 -2.1084 -0.0495 -2.3183
 8029SOL    HW235547   4.294   4.352   5.129  0.2157  0.5373 -1.7714
 8030SOL     OW35548   3.748   4.059   6.633  0.2653 -0.0414 -0.6772
 8030SOL    HW135549   3.703   4.004   6.697 -0.1476  0.9515 -0.1119
 8030SOL    HW235550   3.769   3.996   6.564  0.0567 -1.1915  0.3103
 8031SOL     OW35551   2.111   4.600   2.651  0.0703  0.2561 -0.2471
 8031SOL    HW135552   2.155   4.683   2.633 -0.5153  0.7169  0.4716
 8031SOL    HW235553   2.110   4.594   2.747  1.8230 -1.6134 -0.3267
 8032SOL     OW35554   3.788   1.824   4.881  0.8403 -0.2316 -0.2873
 8032SOL    HW135555   3.717   1.889   4.878 -0.9466 -2.2753 -2.2101
 8032SOL    HW235556   3.858   1.871   4.836  2.8575 -0.6879  2.4447
 8033SOL     OW35557   1.155   4.169   1.862 -0.1407 -0.5225 -0.3748
 8033SOL    HW135558   1.180   4.261   1.866 -1.8545 -0.0937  0.7910
 8033SOL    HW235559   1.151   4.160   1.767  2.1651  1.8363 -0.6636
 8034SOL     OW35560   0.593   0.868  13.989 -0.3260 -0.0729 -0.4433
 8034SOL    HW135561   0.556   0.914  14.064  1.7504 -0.7217  0.9757
 8034SOL    HW235562   0.631   0.947  13.951 -0.7411 -1.4454 -3.6753
 8035SOL     OW35563   1.379   0.374   8.464  0.5039  0.2688  0.5572
 8035SOL    HW135564   1.298   0.419   8.442 -0.6925 -1.5075  1.2740
 8035SOL    HW235565   1.417   0.351   8.379  1.1925 -0.2722  1.0086
 8036SOL     OW35566   1.620   4.604   2.023  0.0303 -0.4617  0.1148
 8036SOL    HW135567   1.638   4.559   1.941  1.7262 -0.7237  0.6344
 8036SOL    HW235568   1.688   4.565   2.079  0.0721 -2.3062 -1.2389
 8037SOL     OW35569   4.230   0.238   9.777 -0.5862  0.0541 -0.3533
 8037SOL    HW135570   4.256   0.282   9.858  3.0380 -0.0302 -1.4419
 8037SOL    HW235571   4.264   0.300   9.711  2.6889 -1.7484 -0.3686
 8038SOL     OW35572   4.504   0.366   2.249  0.4546 -0.0621 -0.4362
 8038SOL    HW135573   4.423   0.415   2.260  0.6443  0.2288 -0.3465
 8038SOL    HW235574   4.542   0.376   2.336 -1.9775 -2.0186  0.8437
 8039SOL     OW35575   0.286   2.074  13.411 -0.4097  0.2425  0.0628
 8039SOL    HW135576   0.224   2.141  13.383 -0.1686 -1.1768 -3.7865
 8039SOL    HW235577   0.288   2.011  13.340 -0.5043 -1.7332  1.8163
 8040SOL     OW35578   4.596   4.283   0.042 -0.1271  0.5276 -0.5188
 8040SOL    HW135579   4.676   4.239   0.071 -1.0118 -0.9090 -0.2747
 8040SOL    HW235580   4.615   4.376   0.059  0.2595  0.5497 -1.0487
 8041SOL     OW35581   2.705   2.120   4.497 -1.1275  0.5772 -0.7257
 8041SOL    HW135582   2.628   2.133   4.553 -0.2895  4.3624 -0.4209
 8041SOL    HW235583   2.767   2.098   4.567 -2.1932 -1.4244 -0.4138
 8042SOL     OW35584   3.998   3.928   5.577 -0.6307  0.5486 -0.0479
 8042SOL    HW135585   4.052   3.894   5.648 -1.7776 -0.3645  0.3933
 8042SOL    HW235586   4.050   4.002   5.549  0.5598  0.5696  2.2423
 8043SOL     OW35587   2.831   2.921   3.238  0.1124  0.1997 -0.1826
 8043SOL    HW135588   2.821   2.986   3.168 -0.6978 -1.0468 -1.2290
 8043SOL    HW235589   2.745   2.879   3.243  0.8429 -1.1872  0.7301
 8044SOL     OW35590   1.888   4.652   9.619  0.3368  0.3095 -0.3922
 8044SOL    HW135591   1.942   4.576   9.596  1.7868  1.0835  0.4559
 8044SOL    HW235592   1.846   4.660   9.533  2.5283 -2.7649 -1.7366
 8045SOL     OW35593   2.728   3.636  12.227  0.5221  0.2459  0.4585
 8045SOL    HW135594   2.666   3.683  12.283 -0.1566  1.3913 -1.2407
 8045SOL    HW235595   2.660   3.599  12.170  0.1679  3.0163 -0.9037
 8046SOL     OW35596   2.087   1.971   9.911 -0.3229  0.1740  0.1620
 8046SOL    HW135597   2.039   1.909   9.856 -0.2712  0.7293 -0.5099
 8046SOL    HW235598   2.114   1.918   9.985  1.0764 -0.2349 -0.6337
 8047SOL     OW35599   0.206   0.185   2.257 -0.7675  0.1134 -0.3422
 8047SOL    HW135600   0.165   0.128   2.322 -0.6093  1.9568  1.3714
 8047SOL    HW235601   0.288   0.139   2.239 -1.8659 -1.2523 -1.8975
 8048SOL     OW35602   4.223   3.156  15.314  0.4154  0.0559  0.4343
 8048SOL    HW135603   4.166   3.164  15.390  0.7434  0.7847  0.6033
 8048SOL    HW235604   4.186   3.225  15.258 -2.3861  1.9616  4.6371
 8049SOL     OW35605   4.450   1.283   3.330  0.6734  0.3049 -0.5304
 8049SOL    HW135606   4.471   1.368   3.369 -2.6443 -0.1191  2.2185
 8049SOL    HW235607   4.530   1.269   3.279  0.9454 -0.0632 -0.0037
 8050SOL     OW35608   2.232   4.152   8.399  0.5795  0.1967 -0.1438
 8050SOL    HW135609   2.143   4.123   8.378  1.4333 -1.4483 -1.4600
 8050SOL    HW235610   2.269   4.147   8.311 -1.9986  1.8654 -1.3333
 8051SOL     OW35611   4.311   3.649   4.801  0.2361 -0.2419  0.0665
 8051SOL    HW135612   4.354   3.688   4.878  1.3487 -2.0316  0.3371
 8051SOL    HW235613   4.372   3.674   4.731  0.1830 -0.0961  0.0724
 8052SOL     OW35614   2.557   4.291   4.719 -0.2376 -0.0412  0.6210
 8052SOL    HW135615   2.593   4.256   4.637 -0.2540  1.1170  0.1146
 8052SOL    HW235616   2.507   4.363   4.681  0.3223  0.6720  1.2296
 8053SOL     OW35617   1.609   4.164   2.809  0.6428  0.0685  0.0156
 8053SOL    HW135618   1.664   4.240   2.828  0.2260  0.1897  0.7270
 8053SOL    HW235619   1.676   4.098   2.790 -0.1261 -0.9282  0.7802
 8054SOL     OW35620   1.926   2.693  10.955 -0.5093 -0.1973  0.1321
 8054SOL    HW135621   1.852   2.671  10.898 -0.6419  0.4181  0.0669
 8054SOL    HW235622   1.983   2.617  10.952 -1.1073 -0.7882  3.1074
 8055SOL     OW35623   2.087   3.865   5.974 -0.3519 -0.4299 -0.5403
 8055SOL    HW135624   2.075   3.943   5.920  1.7999  0.6056  0.4493
 8055SOL    HW235625   2.030   3.879   6.049  0.6806 -0.3662  0.2433
 8056SOL     OW35626   2.930   3.910   9.688 -0.0345 -0.5093 -0.1735
 8056SOL    HW135627   2.895   3.827   9.657  0.2858  0.1726 -2.3398
 8056SOL    HW235628   2.999   3.891   9.752  1.2570  2.0407 -0.7669
 8057SOL     OW35629   2.939   2.529   1.487 -0.2963 -0.2288  0.7209
 8057SOL    HW135630   2.885   2.532   1.408 -0.7293 -0.3529  1.0120
 8057SOL    HW235631   2.943   2.436   1.508  1.3119 -0.1087  0.9602
 8058SOL     OW35632   2.999   3.806   0.726 -0.0543 -0.1033 -0.0858
 8058SOL    HW135633   3.014   3.893   0.688  1.5147  0.2376  1.2800
 8058SOL    HW235634   2.970   3.823   0.815 -0.1122 -1.2323  0.1016
 8059SOL     OW35635   4.075   4.144  12.528  0.4868 -0.8105  0.2586
 8059SOL    HW135636   4.099   4.233  12.557  1.0482 -1.1368  0.8077
 8059SOL    HW235637   4.158   4.097  12.521  0.0414 -1.5786  0.2181
 8060SOL     OW35638   3.020   0.053   4.644  0.0965  0.5275 -0.1508
 8060SOL    HW135639   2.977   0.127   4.601 -1.0634 -0.4983 -0.7749
 8060SOL    HW235640   2.965   0.042   4.722 -0.7125  0.7160 -0.6949
 8061SOL     OW35641   1.991   0.897   7.022 -0.0525  0.4469 -0.2321
 8061SOL    HW135642   2.001   0.884   6.928 -1.1876 -0.6659 -0.1956
 8061SOL    HW235643   1.992   0.806   7.052 -2.6718  1.2022  2.0795
 8062SOL     OW35644   0.501   2.996   5.485  0.3197 -0.0005 -0.5893
 8062SOL    HW135645   0.439   2.949   5.429 -0.2104  0.5248 -0.4366
 8062SOL    HW235646   0.568   2.927   5.487  0.9614  0.6712  1.1148
 8063SOL     OW35647   2.425   0.094   8.381  0.8543 -0.2072 -0.4884
 8063SOL    HW135648   2.430   0.028   8.311 -0.4424 -1.9572  1.0692
 8063SOL    HW235649   2.500   0.146   8.355  0.5243 -0.0455 -1.1277
 8064SOL     OW35650   0.758   0.329  15.119  0.2136  0.6034  0.0564
 8064SOL    HW135651   0.795   0.333  15.031 -1.6583  0.4109 -0.7304
 8064SOL    HW235652   0.670   0.360  15.100 -0.5762 -0.8530  1.3214
 8065SOL     OW35653   0.844   1.082   6.116 -0.3906 -0.0861  0.0778
 8065SOL    HW135654   0.874   1.002   6.072 -0.2599  0.5824 -1.0541
 8065SOL    HW235655   0.799   1.056   6.196 -0.3328  1.6473  0.6827
 8066SOL     OW35656   1.812   0.138  10.387  0.3568  0.2995  0.4780
 8066SOL    HW135657   1.718   0.127  10.375  0.2947  0.9529  0.3194
 8066SOL    HW235658   1.823   0.098  10.473 -0.9330 -0.5901  0.2283
 8067SOL     OW35659   3.533   1.555  17.608  0.0148  0.1199  0.4126
 8067SOL    HW135660   3.441   1.576  17.589 -0.4655 -2.3818 -0.0870
 8067SOL    HW235661   3.526   1.572   0.008  0.4121  0.2275  0.4191
 8068SOL     OW35662   3.842   1.939   4.269  0.0031  0.0626 -0.3329
 8068SOL    HW135663   3.850   1.882   4.346  1.2374  1.0171  0.2357
 8068SOL    HW235664   3.816   1.879   4.198 -3.7655  1.3552 -0.0535
 8069SOL     OW35665   0.569   3.488   6.539 -0.3224 -0.1037 -0.4018
 8069SOL    HW135666   0.623   3.410   6.537  0.3350  0.3570 -0.5690
 8069SOL    HW235667   0.525   3.483   6.454  1.9465 -0.5807 -1.5515
 8070SOL     OW35668   4.171   1.999   0.698 -0.3860 -0.0018  0.3925
 8070SOL    HW135669   4.136   1.913   0.673  0.9228 -0.5390  0.4092
 8070SOL    HW235670   4.180   2.053   0.619 -1.4262 -1.5423 -0.7872
 8071SOL     OW35671   1.516   1.394  12.420  0.1799 -0.1918  0.7724
 8071SOL    HW135672   1.455   1.423  12.352  0.3080  0.0483  0.7631
 8071SOL    HW235673   1.457   1.367  12.491  2.5031 -0.6136  2.5377
 8072SOL     OW35674   3.513   1.663   7.460  0.1148  0.0547  0.0848
 8072SOL    HW135675   3.581   1.689   7.398 -0.3094 -0.1881 -0.4726
 8072SOL    HW235676   3.542   1.577   7.489 -1.2569 -0.2414  0.5858
 8073SOL     OW35677   0.932   3.689   1.021 -0.3268  0.1122  0.4164
 8073SOL    HW135678   0.908   3.606   1.064  2.2564 -0.7340  0.2451
 8073SOL    HW235679   0.910   3.681   0.928 -2.1311  2.5424  0.6516
 8074SOL     OW35680   1.603   1.952  15.675 -0.0846 -0.0587  0.4335
 8074SOL    HW135681   1.674   1.927  15.616  1.1194  0.5387  1.6262
 8074SOL    HW235682   1.574   2.042  15.656  0.3810  0.0241  0.0872
 8075SOL     OW35683   2.305   2.377   8.821  0.0809  0.0988 -0.4857
 8075SOL    HW135684   2.267   2.390   8.734 -1.4419 -2.3566 -0.1977
 8075SOL    HW235685   2.400   2.387   8.813  0.0957 -0.2869 -0.8308
 8076SOL     OW35686   1.399   1.698  12.711  0.2633  0.1417  0.2279
 8076SOL    HW135687   1.315   1.656  12.729  0.7318 -0.3530  1.2360
 8076SOL    HW235688   1.467   1.635  12.689 -0.3340 -0.1927 -0.6708
 8077SOL     OW35689   3.599   0.013   8.097  0.2981  0.3870 -0.4117
 8077SOL    HW135690   3.633   4.646   8.105 -2.6435 -0.7255 -0.5780
 8077SOL    HW235691   3.655   0.067   8.153  0.1068  2.1352 -1.9135
 8078SOL     OW35692   1.525   2.178   8.852 -0.5397 -0.3324  0.1096
 8078SOL    HW135693   1.550   2.214   8.938 -1.3839 -0.0465  0.2303
 8078SOL    HW235694   1.433   2.203   8.842 -0.0469  0.8196 -1.4774
 8079SOL     OW35695   2.400   3.150  10.836 -0.3391 -0.1329 -0.7074
 8079SOL    HW135696   2.472   3.150  10.899  1.0309 -0.5863 -2.2542
 8079SOL    HW235697   2.352   3.221  10.879 -0.7398 -0.3970 -0.7201
 8080SOL     OW35698   0.531   4.581   9.259  0.2853 -0.3006  0.6931
 8080SOL    HW135699   0.600   4.518   9.240  0.0880  0.2214 -1.8911
 8080SOL    HW235700   0.529   4.591   9.354  0.7070  0.8765  0.5842
 8081SOL     OW35701   1.368   3.406   5.149 -0.2374 -0.2497  0.7733
 8081SOL    HW135702   1.326   3.333   5.195  0.2675 -0.1300  1.4328
 8081SOL    HW235703   1.403   3.449   5.228 -1.0994  0.8232  0.5645
 8082SOL     OW35704   4.487   2.643   4.424 -0.2823  0.1985 -0.3553
 8082SOL    HW135705   4.533   2.582   4.482 -0.2353 -0.7696 -1.4267
 8082SOL    HW235706   4.473   2.596   4.343  0.3486  0.0380 -0.3713
 8083SOL     OW35707   0.043   0.608  16.612 -0.1958  0.5556 -0.0948
 8083SOL    HW135708   4.677   0.588  16.582  0.8118 -1.6006 -1.6805
 8083SOL    HW235709   0.063   0.685  16.558  0.0066  0.2335 -0.4820
 8084SOL     OW35710   0.589   0.840   9.669  0.0255 -0.6575  0.3315
 8084SOL    HW135711   0.644   0.917   9.687  2.5276 -2.2005 -0.6759
 8084SOL    HW235712   0.630   0.784   9.735 -0.7379 -1.3543  0.2066
 8085SOL     OW35713   1.253   4.099   9.435  0.4248 -0.5322 -0.2061
 8085SOL    HW135714   1.163   4.119   9.458 -0.2700 -1.8534 -1.8197
 8085SOL    HW235715   1.279   4.057   9.518 -0.5132 -0.8889 -0.1029
 8086SOL     OW35716   2.537   0.283   1.734  0.1271  0.2776 -0.4230
 8086SOL    HW135717   2.495   0.197   1.744 -1.3077  1.2288  1.6703
 8086SOL    HW235718   2.481   0.322   1.667  0.4994  0.0959 -0.8388
 8087SOL     OW35719   2.802   1.334   2.427  0.9091 -0.2620  1.1033
 8087SOL    HW135720   2.820   1.322   2.520 -2.2183 -1.4477  1.5249
 8087SOL    HW235721   2.707   1.332   2.436  0.7999  0.2115  0.1194
 8088SOL     OW35722   2.219   0.468  13.676 -0.1879 -0.2127  0.2332
 8088SOL    HW135723   2.278   0.392  13.676  2.5235  1.8698 -0.3614
 8088SOL    HW235724   2.151   0.440  13.615  0.8027 -0.0885 -0.9334
 8089SOL     OW35725   2.826   2.984   0.969  0.2764  0.0784  0.0266
 8089SOL    HW135726   2.795   3.070   0.995  1.7670  0.6326 -0.0473
 8089SOL    HW235727   2.746   2.946   0.933  0.7190 -0.8313 -0.0026
 8090SOL     OW35728   2.555   3.218   7.975  0.2773  0.4737  0.0779
 8090SOL    HW135729   2.617   3.177   8.036 -0.0030  0.7283  0.5328
 8090SOL    HW235730   2.486   3.239   8.038  0.6743 -1.1022  1.0453
 8091SOL     OW35731   1.987   2.770  15.602  0.2706  0.0522 -0.8776
 8091SOL    HW135732   2.039   2.696  15.571  0.2951 -0.0982 -0.4809
 8091SOL    HW235733   1.926   2.781  15.529  0.6610 -0.0838 -1.2232
 8092SOL     OW35734   3.177   2.845   7.728  0.1934  0.2737 -0.7301
 8092SOL    HW135735   3.092   2.804   7.709 -0.2313  0.1396  1.4352
 8092SOL    HW235736   3.237   2.772   7.714  0.7809  1.1989 -3.0013
 8093SOL     OW35737   4.714   3.833   3.010 -0.6277 -0.1363  0.3937
 8093SOL    HW135738   4.687   3.781   2.935 -1.8056 -0.6565  1.1734
 8093SOL    HW235739   4.646   3.897   3.031  0.1122 -0.1510  2.9296
 8094SOL     OW35740   1.939   4.482   5.492  0.2753  0.2222 -0.5202
 8094SOL    HW135741   1.850   4.469   5.459 -0.5609  0.7540  1.5664
 8094SOL    HW235742   1.921   4.499   5.584  1.6990  1.5631 -0.4844
 8095SOL     OW35743   2.667   1.793  10.905  0.2094  0.9328 -0.2309
 8095SOL    HW135744   2.654   1.849  10.830  1.2318  1.0056 -0.3512
 8095SOL    HW235745   2.681   1.708  10.864 -0.9080 -0.1345  1.5398
 8096SOL     OW35746   1.327   0.867   1.089 -0.0885  0.0241 -0.0650
 8096SOL    HW135747   1.329   0.869   1.185  0.4836 -0.8502 -0.0588
 8096SOL    HW235748   1.367   0.954   1.083 -1.9063  0.7426 -1.8170
 8097SOL     OW35749   0.759   0.626   0.823  1.0285 -0.4786 -0.2709
 8097SOL    HW135750   0.821   0.645   0.753  1.1134 -1.3354 -0.4310
 8097SOL    HW235751   0.754   0.530   0.815 -1.5517 -0.1843 -2.2360
 8098SOL     OW35752   1.518   0.025   0.693  0.2127  0.0149 -0.5853
 8098SOL    HW135753   1.532   0.119   0.680 -0.1684  0.0859 -0.4680
 8098SOL    HW235754   1.521   4.720   0.601  2.1030  1.8190 -1.0805
 8099SOL     OW35755   3.877   4.205   4.961  0.6003 -0.1668  0.5785
 8099SOL    HW135756   3.925   4.125   4.980  0.0170 -0.8954 -1.0318
 8099SOL    HW235757   3.844   4.222   5.050  0.4419  0.4959  0.3983
 8100SOL     OW35758   4.015   3.028   3.579  0.9707  0.3488 -0.0130
 8100SOL    HW135759   4.091   3.078   3.607 -0.0418  1.1481  1.3155
 8100SOL    HW235760   4.034   2.999   3.490  0.4377 -1.8087  0.5720
 8101SOL     OW35761   2.647   0.729  15.705 -0.3397 -0.3269  0.1744
 8101SOL    HW135762   2.708   0.776  15.648  0.5255 -1.2391  0.3472
 8101SOL    HW235763   2.562   0.745  15.665 -0.9085 -0.6301  1.2598
 8102SOL     OW35764   3.761   1.710  15.575 -0.4156 -0.6771  0.2343
 8102SOL    HW135765   3.748   1.699  15.481  0.4056 -2.5685  0.3433
 8102SOL    HW235766   3.856   1.695  15.576 -0.3771 -0.4527 -0.5465
 8103SOL     OW35767   1.251   0.987  14.423  0.1330 -0.0901  0.5820
 8103SOL    HW135768   1.324   0.947  14.471  1.6106  1.1134 -0.6385
 8103SOL    HW235769   1.288   1.069  14.392  0.6674  0.0164  1.4938
 8104SOL     OW35770   4.718   0.352   5.236 -0.3992  0.2948  0.3483
 8104SOL    HW135771   0.051   0.424   5.264 -0.9403  1.0702 -0.5213
 8104SOL    HW235772   0.009   0.292   5.309 -1.3847 -0.4097 -0.0462
 8105SOL     OW35773   4.508   0.101  15.380 -0.0703 -0.1211 -1.0513
 8105SOL    HW135774   4.522   0.186  15.339 -0.1325  0.4831  0.1816
 8105SOL    HW235775   4.595   0.062  15.371 -0.4118 -0.8152 -1.3620
 8106SOL     OW35776   2.459   1.090   6.509 -0.0808  0.1945  0.0456
 8106SOL    HW135777   2.535   1.132   6.469  0.3947  0.2939  1.0645
 8106SOL    HW235778   2.435   1.032   6.437 -1.5230  1.1808 -0.2891
 8107SOL     OW35779   2.001   3.387   3.339  0.2020 -0.1195  0.0494
 8107SOL    HW135780   2.067   3.359   3.275 -0.3388  0.8395 -0.9216
 8107SOL    HW235781   2.017   3.325   3.410  0.0834  0.7875  0.8707
 8108SOL     OW35782   1.640   3.621   4.795 -0.3003  0.1017  0.0424
 8108SOL    HW135783   1.627   3.710   4.763  0.8171 -0.2448 -1.3880
 8108SOL    HW235784   1.600   3.629   4.881  1.3382 -2.1538  1.0091
 8109SOL     OW35785   2.741   3.118  14.749  0.4502 -0.2049 -0.4534
 8109SOL    HW135786   2.775   3.031  14.732 -0.0428 -0.1630 -1.6401
 8109SOL    HW235787   2.823   3.140  14.794  0.6463  0.6767 -1.2225
 8110SOL     OW35788   3.080   0.436   5.511  0.3189 -0.3958  0.2794
 8110SOL    HW135789   3.168   0.444   5.474  0.6357  0.8091  1.2628
 8110SOL    HW235790   3.071   0.345   5.538  1.1148 -0.0616  1.6587
 8111SOL     OW35791   1.206   3.882   4.294  0.3636 -0.0885 -0.1236
 8111SOL    HW135792   1.239   3.951   4.236 -1.1775 -0.5267 -1.5307
 8111SOL    HW235793   1.116   3.908   4.278  0.1998 -0.0343  0.9307
 8112SOL     OW35794   2.481   3.066   3.766  0.1698  0.4677  0.1880
 8112SOL    HW135795   2.429   3.070   3.686  0.3559  1.7072  0.1260
 8112SOL    HW235796   2.412   3.026   3.819  0.0443  1.8396  1.0705
 8113SOL     OW35797   2.023   3.811   8.866 -0.1534 -0.1300 -0.2420
 8113SOL    HW135798   2.107   3.768   8.851  0.3996  1.2277 -1.0022
 8113SOL    HW235799   2.041   3.854   8.949 -0.5186 -0.0876 -0.1870
 8114SOL     OW35800   4.032   2.235   0.271  0.5505 -0.2846 -0.2509
 8114SOL    HW135801   4.020   2.148   0.231  0.4439  0.2981 -1.4783
 8114SOL    HW235802   4.070   2.285   0.200 -1.2708 -0.4820 -1.3672
 8115SOL     OW35803   0.019   1.665   6.379  0.4336  0.2214 -0.0702
 8115SOL    HW135804   4.691   1.589   6.404  1.7572 -0.5274  0.3377
 8115SOL    HW235805   0.078   1.643   6.307  1.5724 -0.2159  1.0099
 8116SOL     OW35806   1.363   2.075   5.502  0.4493  0.5165 -0.2752
 8116SOL    HW135807   1.430   2.006   5.511  1.2364  1.5043  1.4245
 8116SOL    HW235808   1.354   2.109   5.590 -1.7588 -0.8476  0.0281
 8117SOL     OW35809   4.072   1.297   2.734 -0.1156 -0.0113 -0.6110
 8117SOL    HW135810   4.016   1.264   2.805 -0.3705  0.3404 -0.6465
 8117SOL    HW235811   4.004   1.345   2.685 -0.4521  1.7022  1.4988
 8118SOL     OW35812   1.644   3.689   5.700  0.4028 -0.3913 -0.1892
 8118SOL    HW135813   1.649   3.645   5.785 -0.6507  0.8285  0.5212
 8118SOL    HW235814   1.735   3.687   5.670  0.0758  1.0542 -1.2923
 8119SOL     OW35815   2.018   4.402   4.121 -0.5302 -0.4463  0.7241
 8119SOL    HW135816   1.993   4.458   4.048  1.2629  0.0630  0.5043
 8119SOL    HW235817   1.996   4.314   4.091 -0.9031 -0.6433  1.5859
 8120SOL     OW35818   3.307   1.319  12.131  0.4948 -0.7036  0.2955
 8120SOL    HW135819   3.215   1.296  12.148 -0.3118  0.2578 -2.6778
 8120SOL    HW235820   3.355   1.280  12.204  0.7172 -0.7330  0.1344
 8121SOL     OW35821   2.012   2.522   7.419 -0.0127 -0.4716  0.2638
 8121SOL    HW135822   1.932   2.470   7.420  0.3436 -1.0291 -0.0797
 8121SOL    HW235823   1.992   2.575   7.496  1.1488  0.2336  0.0825
 8122SOL     OW35824   4.320   2.824   2.365  0.5220  0.0737  0.0937
 8122SOL    HW135825   4.314   2.729   2.367  0.1153  0.0802 -0.9181
 8122SOL    HW235826   4.406   2.830   2.323  1.2836 -0.3466  1.5889
 8123SOL     OW35827   0.064   2.843   4.880  0.0118 -0.2199 -0.2032
 8123SOL    HW135828   4.693   2.858   4.881  0.1873  0.9628 -1.4235
 8123SOL    HW235829   0.085   2.778   4.813  2.1871  0.1163  0.1346
 8124SOL     OW35830   2.873   4.564   3.090  0.3123  0.1682  0.0261
 8124SOL    HW135831   2.894   4.537   3.179 -0.8591 -0.8879 -0.0068
 8124SOL    HW235832   2.907   4.653   3.088  2.5832 -0.7361 -0.9809
 8125SOL     OW35833   1.533   0.338   0.189 -0.4770 -0.6971 -0.5952
 8125SOL    HW135834   1.503   0.264   0.136 -0.4541 -1.3410  0.3004
 8125SOL    HW235835   1.589   0.302   0.258 -0.9332 -0.3063 -0.0192
 8126SOL     OW35836   2.493   1.310   7.990  0.3568  0.3362  0.3923
 8126SOL    HW135837   2.522   1.353   8.071 -1.0821  1.9937  0.0166
 8126SOL    HW235838   2.551   1.234   7.990 -1.4621 -1.0500  0.5933
 8127SOL     OW35839   2.892   2.279   3.410  0.0782  0.6115  1.2046
 8127SOL    HW135840   2.876   2.232   3.328 -1.4075  1.3250  1.0887
 8127SOL    HW235841   2.987   2.287   3.416  0.0069  1.4814  1.1901
 8128SOL     OW35842   4.693   2.996  13.192 -0.1355 -0.2039  0.0143
 8128SOL    HW135843   0.065   2.993  13.181 -0.4099 -3.4517 -1.4630
 8128SOL    HW235844   4.664   3.086  13.210  1.9142  0.2191  1.2295
 8129SOL     OW35845   3.045   0.415   1.822 -0.1399  0.0535 -0.4996
 8129SOL    HW135846   2.996   0.355   1.766 -1.4465  1.0115 -0.3917
 8129SOL    HW235847   3.128   0.421   1.774 -0.1931  1.3044 -0.4562
 8130SOL     OW35848   2.461   4.094   3.846  0.5866 -0.1868 -0.2127
 8130SOL    HW135849   2.506   4.022   3.891 -0.0849  0.7777  1.9906
 8130SOL    HW235850   2.435   4.148   3.921  1.1535 -0.4913  0.1964
 8131SOL     OW35851   0.702   3.280  16.872 -0.6705 -0.1813  0.9902
 8131SOL    HW135852   0.777   3.258  16.927  0.3913 -0.1770 -0.4489
 8131SOL    HW235853   0.710   3.231  16.790  0.3727 -0.1179  1.0565
 8132SOL     OW35854   2.313   0.394   4.767  0.5441 -0.1286 -0.0899
 8132SOL    HW135855   2.352   0.475   4.800 -0.9228 -0.6573  2.9620
 8132SOL    HW235856   2.390   0.358   4.725 -0.2384 -3.6503  1.5256
 8133SOL     OW35857   2.234   2.831  11.380  0.5410  0.5265  0.2563
 8133SOL    HW135858   2.268   2.893  11.316 -0.7817  1.2299  0.2483
 8133SOL    HW235859   2.254   2.750  11.333 -0.3443  1.2130 -1.2910
 8134SOL     OW35860   0.339   2.084   7.110  0.2436  0.9547  0.3173
 8134SOL    HW135861   0.326   2.041   7.025  1.6397  0.0269  0.5663
 8134SOL    HW235862   0.270   2.041   7.161 -1.0789  2.7588  0.0592
 8135SOL     OW35863   4.431   0.633  13.127  0.1492 -0.3837 -0.0877
 8135SOL    HW135864   4.460   0.571  13.060  0.5989  1.0584 -1.2177
 8135SOL    HW235865   4.364   0.684  13.082  1.0756 -0.0782 -1.1344
 8136SOL     OW35866   0.348   1.200  16.407  0.0322  0.1583 -0.3263
 8136SOL    HW135867   0.399   1.251  16.471  0.3208  0.5751 -0.8899
 8136SOL    HW235868   0.258   1.225  16.428  0.8829  2.6119  0.3551
 8137SOL     OW35869   0.419   4.716   5.017  0.5144  0.4763 -0.4343
 8137SOL    HW135870   0.510   0.009   4.993  1.3162 -3.4329  0.0710
 8137SOL    HW235871   0.427   0.009   5.111 -1.8916 -0.2373 -0.0916
 8138SOL     OW35872   1.281   2.907  17.589 -0.0445 -0.2237 -0.1431
 8138SOL    HW135873   1.363   2.898  17.539 -0.0528 -0.7374 -0.0671
 8138SOL    HW235874   1.297   2.828  17.640  0.9171  0.0851  0.0507
 8139SOL     OW35875   3.933   3.077  14.107 -0.3117 -0.1361 -0.1132
 8139SOL    HW135876   3.854   3.061  14.055  0.3983  0.7476 -1.4688
 8139SOL    HW235877   3.895   3.127  14.180  1.9820 -2.1773  2.4705
 8140SOL     OW35878   0.915   1.239   5.859  0.2073 -0.0751 -0.1664
 8140SOL    HW135879   0.894   1.222   5.951 -3.2860  0.3892 -0.8678
 8140SOL    HW235880   1.007   1.266   5.857  0.6793 -1.7313 -0.0972
 8141SOL     OW35881   1.612   2.233   3.904 -0.4384  0.1605 -0.0746
 8141SOL    HW135882   1.625   2.155   3.850 -0.9377  1.0520 -1.4840
 8141SOL    HW235883   1.554   2.197   3.971  0.6408  0.5091  1.0244
 8142SOL     OW35884   3.263   1.711   6.447  0.2798  0.0824 -0.4363
 8142SOL    HW135885   3.192   1.769   6.476 -0.1002 -1.2027  1.2093
 8142SOL    HW235886   3.299   1.695   6.534 -0.0318 -2.3078 -0.7678
 8143SOL     OW35887   3.329   2.118   6.082 -0.3497  0.4282  0.9593
 8143SOL    HW135888   3.335   2.200   6.131  0.8369 -0.5409  2.4101
 8143SOL    HW235889   3.359   2.154   5.998 -1.6444 -1.5731 -0.3678
 8144SOL     OW35890   3.767   0.213  10.476  0.2029  0.0512  0.2518
 8144SOL    HW135891   3.832   0.149  10.502  0.2609 -0.1917 -0.5028
 8144SOL    HW235892   3.800   0.241  10.391 -1.4770  0.8830 -0.1279
 8145SOL     OW35893   4.432   0.125   3.947 -0.2684 -0.1215 -0.2412
 8145SOL    HW135894   4.480   0.044   3.929  0.2523  0.1011  0.1331
 8145SOL    HW235895   4.461   0.180   3.874  0.4117 -0.5555 -0.2939
 8146SOL     OW35896   4.502   1.198  16.690 -0.2345  0.4602  0.2311
 8146SOL    HW135897   4.473   1.147  16.615 -1.1346  2.9007 -1.0910
 8146SOL    HW235898   4.439   1.168  16.756 -0.7739  1.1034  0.0126
 8147SOL     OW35899   4.415   3.798   5.704 -0.6569  0.1247  0.1631
 8147SOL    HW135900   4.416   3.851   5.624  0.7554  0.5981  0.4950
 8147SOL    HW235901   4.488   3.739   5.686 -1.4967 -0.4611 -1.2954
 8148SOL     OW35902   2.062   3.374   5.345 -0.0235  0.7412 -0.1767
 8148SOL    HW135903   2.093   3.334   5.426  1.4289  0.0843 -1.0624
 8148SOL    HW235904   1.968   3.381   5.362 -0.6002 -1.6860 -2.4148
 8149SOL     OW35905   0.125   0.143   8.678 -0.3666 -0.0218  0.8186
 8149SOL    HW135906   0.132   0.051   8.653  0.2438 -0.1230  1.3542
 8149SOL    HW235907   0.056   0.167   8.616  0.8827 -0.4216 -0.7270
 8150SOL     OW35908   3.784   1.652   9.199 -0.5564 -0.1082 -0.3189
 8150SOL    HW135909   3.763   1.559   9.197 -1.2224  0.0576 -0.6631
 8150SOL    HW235910   3.868   1.655   9.153  0.7982  0.1664  2.1830
 8151SOL     OW35911   2.184   3.667   6.806  0.4833  0.1083  0.3589
 8151SOL    HW135912   2.093   3.657   6.832  0.0598  1.8663 -0.4080
 8151SOL    HW235913   2.222   3.688   6.892 -0.5999  0.1348  0.8250
 8152SOL     OW35914   1.997   1.432  11.986  0.3175  0.1940  0.1460
 8152SOL    HW135915   1.988   1.519  11.949 -1.6194  1.5104  3.7276
 8152SOL    HW235916   1.905   1.412  12.003  0.5041 -0.4930  0.3628
 8153SOL     OW35917   2.341   0.197   9.314  0.6080  0.2078  0.7376
 8153SOL    HW135918   2.430   0.229   9.308  0.4299  0.7680  1.0736
 8153SOL    HW235919   2.342   0.149   9.396 -1.0317 -1.6039 -0.3056
 8154SOL     OW35920   2.740   2.842   2.184 -0.3590 -0.2158 -0.0792
 8154SOL    HW135921   2.722   2.783   2.110 -1.1906 -1.7852  1.3621
 8154SOL    HW235922   2.678   2.805   2.247 -0.5261 -0.5189 -0.4179
 8155SOL     OW35923   3.788   3.121   5.513 -0.0613 -0.1458  0.0027
 8155SOL    HW135924   3.753   3.086   5.431 -1.8242 -0.9325  1.0910
 8155SOL    HW235925   3.782   3.050   5.577  0.2776 -0.1151  0.0648
 8156SOL     OW35926   3.901   0.021   5.811  0.6886  0.1864 -0.1321
 8156SOL    HW135927   3.922   4.703   5.896  0.6360 -1.7004 -1.0292
 8156SOL    HW235928   3.806   0.026   5.801  0.4773 -1.5295  0.9467
 8157SOL     OW35929   2.498   1.605   2.102 -0.3752  0.3751 -0.3987
 8157SOL    HW135930   2.505   1.670   2.172  1.6057 -0.1393 -0.1143
 8157SOL    HW235931   2.412   1.619   2.064 -0.5812 -0.6403 -0.3216
 8158SOL     OW35932   0.716   2.136   8.200 -0.1267  0.8477  0.3823
 8158SOL    HW135933   0.735   2.193   8.275 -2.2380  3.3191 -0.9564
 8158SOL    HW235934   0.671   2.199   8.143 -0.4012  0.9322  0.6918
 8159SOL     OW35935   3.498   2.088   7.276  0.1510 -0.3970  0.2656
 8159SOL    HW135936   3.593   2.083   7.280  0.1619 -1.0464 -0.9334
 8159SOL    HW235937   3.475   2.014   7.220  1.3675 -1.3468  1.0102
 8160SOL     OW35938   0.782   2.202   5.947 -0.3166  0.0238 -0.0372
 8160SOL    HW135939   0.825   2.286   5.931  1.2533 -0.5205  1.3876
 8160SOL    HW235940   0.841   2.141   5.904  0.9763  0.7050  0.7898
 8161SOL     OW35941   1.023   4.090  15.170  0.1654 -0.2854  0.0650
 8161SOL    HW135942   0.982   4.110  15.254 -1.7138 -1.7461 -0.5021
 8161SOL    HW235943   1.086   4.024  15.198  0.3046  1.1005  2.9550
 8162SOL     OW35944   4.278   1.936   2.723 -0.3596  0.1442 -0.6774
 8162SOL    HW135945   4.351   1.917   2.664 -0.5602 -1.3679 -0.4230
 8162SOL    HW235946   4.225   1.977   2.656  0.2175  1.9075 -0.0669
 8163SOL     OW35947   3.773   0.885   1.691 -0.2363 -0.0737  0.1547
 8163SOL    HW135948   3.758   0.826   1.617  1.6597  0.4962 -0.6925
 8163SOL    HW235949   3.696   0.882   1.746 -0.8755  0.7465 -0.6903
 8164SOL     OW35950   4.678   2.996   6.400 -0.2974 -0.4742 -0.2720
 8164SOL    HW135951   4.685   3.089   6.423 -1.9468 -0.1819 -0.9060
 8164SOL    HW235952   4.597   2.996   6.348  0.2195  0.9613 -1.0871
 8165SOL     OW35953   3.635   1.668   5.114  0.6648 -0.4862  0.4993
 8165SOL    HW135954   3.655   1.706   5.029 -1.6166 -1.9682 -0.7030
 8165SOL    HW235955   3.546   1.700   5.124 -0.1897 -3.1777  1.5800
 8166SOL     OW35956   3.406   4.300  10.063  0.2924  0.0512 -0.4374
 8166SOL    HW135957   3.409   4.395  10.050  0.2989  0.1557  0.3236
 8166SOL    HW235958   3.495   4.290  10.097  0.6894 -1.5986 -1.9690
 8167SOL     OW35959   4.537   0.626   3.740  0.4709  0.7397 -0.0505
 8167SOL    HW135960   4.465   0.671   3.784 -0.3949  0.9993 -1.7299
 8167SOL    HW235961   4.514   0.657   3.652 -0.3254 -1.0717 -0.4964
 8168SOL     OW35962   2.275   2.903   3.923 -0.5097  0.3062  0.0817
 8168SOL    HW135963   2.265   2.991   3.958  0.5119 -0.2844  1.8690
 8168SOL    HW235964   2.221   2.858   3.987  2.4036 -0.2804  2.1060
 8169SOL     OW35965   1.165   0.397   6.367 -0.1237 -0.4443  0.3616
 8169SOL    HW135966   1.113   0.326   6.406 -1.2371  0.0687 -0.2007
 8169SOL    HW235967   1.253   0.360   6.367 -0.8080 -2.0877  0.7368
 8170SOL     OW35968   1.629   2.223   3.450  0.2126  0.6537  0.1484
 8170SOL    HW135969   1.601   2.138   3.483  1.0010 -0.3714 -1.8520
 8170SOL    HW235970   1.650   2.196   3.361 -1.0033  0.3842 -0.0437
 8171SOL     OW35971   0.393   0.180   5.767 -0.6707 -0.7779 -0.1504
 8171SOL    HW135972   0.389   0.207   5.858  0.7842 -0.6812 -0.1181
 8171SOL    HW235973   0.478   0.195   5.726 -1.5937 -0.1946 -1.8898
 8172SOL     OW35974   0.730   0.508  14.358 -0.5095  0.7164  0.8529
 8172SOL    HW135975   0.679   0.527  14.280 -0.3776  3.0543  1.3438
 8172SOL    HW235976   0.821   0.504  14.327 -0.4748 -1.1385  1.1788
 8173SOL     OW35977   0.860   3.094  11.418  0.1382 -0.5611 -0.5373
 8173SOL    HW135978   0.853   2.998  11.415 -2.7650 -0.3025 -1.7183
 8173SOL    HW235979   0.948   3.108  11.454  1.0936 -0.5754 -2.8624
 8174SOL     OW35980   1.705   1.088   0.048  0.6490  0.1292  0.4629
 8174SOL    HW135981   1.712   1.089   0.144  0.1805  2.4052  0.4731
 8174SOL    HW235982   1.659   1.006   0.030  1.5520 -0.5257  1.0750
 8175SOL     OW35983   0.403   3.506   7.761 -0.2545  0.0408 -0.0781
 8175SOL    HW135984   0.311   3.529   7.776 -0.1567 -1.6049  3.1193
 8175SOL    HW235985   0.415   3.539   7.672 -1.6348  0.1592 -0.2272
 8176SOL     OW35986   0.610   4.082   3.134  0.5960 -0.0826 -0.4820
 8176SOL    HW135987   0.555   4.108   3.209 -0.9129  0.9202 -1.9346
 8176SOL    HW235988   0.541   4.083   3.067 -0.3808 -1.2335  0.4925
 8177SOL     OW35989   2.101   3.412   2.117 -0.1470 -0.2463  0.8760
 8177SOL    HW135990   2.178   3.359   2.096 -0.4734  0.9323 -3.3198
 8177SOL    HW235991   2.142   3.499   2.108 -1.3646  0.5854  3.2491
 8178SOL     OW35992   2.291   0.686   5.462  0.0039 -0.1665 -0.0914
 8178SOL    HW135993   2.371   0.633   5.458  0.5634  0.4819  2.4763
 8178SOL    HW235994   2.264   0.677   5.371  0.6836 -0.9911 -0.2122
 8179SOL     OW35995   2.023   2.770  13.630 -0.1462 -0.1865  0.1810
 8179SOL    HW135996   2.037   2.676  13.640  0.6678  0.0256  0.9782
 8179SOL    HW235997   2.051   2.775  13.538  2.5698  1.0786  1.0875
 8180SOL     OW35998   0.136   1.613   7.335  0.2715  0.0628 -0.7193
 8180SOL    HW135999   0.106   1.523   7.323  2.2039 -1.0162  2.4462
 8180SOL    HW236000   0.225   1.587   7.313  0.7397  2.1795 -1.2706
 8181SOL     OW36001   2.392   3.962   6.732  0.3939  0.0611 -0.1689
 8181SOL    HW136002   2.396   3.903   6.807  2.2435  1.4956  0.8529
 8181SOL    HW236003   2.460   4.026   6.755  0.1858  0.1373  0.2359
 8182SOL     OW36004   4.394   2.124   2.353 -0.3998 -0.1168 -0.1791
 8182SOL    HW136005   4.385   2.033   2.380  0.8125  0.1253  1.0453
 8182SOL    HW236006   4.306   2.163   2.353 -0.2329  0.2562 -0.1102
 8183SOL     OW36007   0.218   0.521  15.310  0.0063  0.4053  0.0818
 8183SOL    HW136008   0.177   0.456  15.252 -1.3876 -0.2936  1.8532
 8183SOL    HW236009   0.309   0.496  15.293 -0.0128  0.8559 -0.6775
 8184SOL     OW36010   2.591   2.521   7.352 -0.1033 -0.2949 -0.0814
 8184SOL    HW136011   2.614   2.428   7.353  1.7549  0.1593  1.7399
 8184SOL    HW236012   2.672   2.550   7.310 -0.2162  1.2664  0.7766
 8185SOL     OW36013   1.095   4.031   6.820 -0.0585 -0.7685  0.1407
 8185SOL    HW136014   1.042   4.097   6.776 -0.0819  1.0361  2.8965
 8185SOL    HW236015   1.145   3.994   6.747 -1.9370 -0.3872 -1.3311
 8186SOL     OW36016   1.554   0.310   2.272  0.2422  0.3216 -0.1029
 8186SOL    HW136017   1.530   0.397   2.239 -1.3890  0.2178  0.7573
 8186SOL    HW236018   1.476   0.274   2.315 -0.6566  1.3769 -0.8560
 8187SOL     OW36019   2.773   2.899  12.309 -0.4897  0.0222 -0.3061
 8187SOL    HW136020   2.753   2.946  12.228  0.9672  1.4428  0.1637
 8187SOL    HW236021   2.697   2.913  12.365 -1.0078 -0.0377 -1.0020
 8188SOL     OW36022   0.136   0.241  15.434  0.0280  0.2643  0.2416
 8188SOL    HW136023   0.109   0.203  15.350  1.0230  1.1148 -0.4576
 8188SOL    HW236024   0.072   0.311  15.448  0.0736  0.3170  0.1867
 8189SOL     OW36025   2.153   1.077   6.346  0.3292  0.0167 -0.0786
 8189SOL    HW136026   2.229   1.025   6.322  1.2165  0.8365  0.9809
 8189SOL    HW236027   2.181   1.156   6.300  3.1583 -0.1858  1.3123
 8190SOL     OW36028   4.434   0.377  12.703 -0.2981  0.0938  0.0079
 8190SOL    HW136029   4.358   0.326  12.732  0.1818 -1.1142 -0.8913
 8190SOL    HW236030   4.406   0.404  12.616  0.0229 -1.9635 -0.7263
 8191SOL     OW36031   3.605   2.028   1.531 -0.0565 -0.5052 -0.4637
 8191SOL    HW136032   3.652   2.107   1.504 -1.3899  0.6058  0.4622
 8191SOL    HW236033   3.516   2.060   1.547 -0.2428 -0.7946 -0.9466
 8192SOL     OW36034   0.793   2.325   8.415 -0.1158  0.2596  0.5667
 8192SOL    HW136035   0.822   2.410   8.380 -0.3548 -0.0037 -0.2805
 8192SOL    HW236036   0.792   2.331   8.510  0.3806 -0.7626  0.6420
 8193SOL     OW36037   1.818   2.136   7.984  0.1191  0.6242  0.2235
 8193SOL    HW136038   1.836   2.088   7.903 -2.1346  0.7082 -0.3279
 8193SOL    HW236039   1.734   2.098   8.007  0.7077 -0.8922 -0.1362
 8194SOL     OW36040   3.573   4.014   2.194  0.0399 -0.3420 -0.2333
 8194SOL    HW136041   3.667   4.032   2.204  0.2300 -1.1537 -0.6190
 8194SOL    HW236042   3.566   3.946   2.127  3.0162  0.9197 -1.8250
 8195SOL     OW36043   4.346   2.610   9.608  0.2801 -0.5887 -0.0372
 8195SOL    HW136044   4.423   2.625   9.661 -0.6978 -0.7118  1.4173
 8195SOL    HW236045   4.383   2.621   9.520  0.8790 -0.5587  0.2249
 8196SOL     OW36046   2.710   1.303   5.161 -0.1651 -0.3161  0.2283
 8196SOL    HW136047   2.795   1.263   5.181 -0.9853 -2.1744 -0.0099
 8196SOL    HW236048   2.731   1.390   5.196  0.3146 -0.7636  1.0370
 8197SOL     OW36049   3.714   1.987   5.415  0.4988 -0.9193  0.6116
 8197SOL    HW136050   3.802   1.959   5.437  1.5691  1.0192 -1.2253
 8197SOL    HW236051   3.716   2.080   5.437 -0.5132 -0.6065 -0.5852
 8198SOL     OW36052   0.327   0.412   7.500 -0.5887 -0.0362  0.2902
 8198SOL    HW136053   0.344   0.506   7.494 -1.8111  0.2078  0.4950
 8198SOL    HW236054   0.336   0.404   7.595 -0.9732 -2.4899  0.1319
 8199SOL     OW36055   0.952   1.357   0.842  0.3174  0.1679  0.1256
 8199SOL    HW136056   0.940   1.438   0.791  0.8343  0.8226  1.0420
 8199SOL    HW236057   0.874   1.312   0.810  0.1872 -0.5307  1.4213
 8200SOL     OW36058   1.016   1.958  13.358 -0.1417  0.5295  0.3957
 8200SOL    HW136059   1.000   1.985  13.267 -0.1293 -1.7220 -0.2788
 8200SOL    HW236060   1.089   1.897  13.351 -2.0822 -1.7218 -0.0435
 8201SOL     OW36061   3.545   4.499   9.472 -1.2275  0.3409  0.8670
 8201SOL    HW136062   3.541   4.426   9.534 -1.2320 -0.3182  0.0988
 8201SOL    HW236063   3.477   4.558   9.504 -0.6162  0.4915  1.8834
 8202SOL     OW36064   0.454   0.532   8.078 -0.1818 -0.1962 -0.6710
 8202SOL    HW136065   0.450   0.437   8.067  0.0947 -0.2213 -0.5372
 8202SOL    HW236066   0.484   0.559   7.992  0.8302  0.4727 -0.1083
 8203SOL     OW36067   3.887   1.169   5.725  0.4152  0.3165 -0.2389
 8203SOL    HW136068   3.883   1.076   5.744  0.9374  0.2773 -0.3244
 8203SOL    HW236069   3.979   1.193   5.739  1.0147 -1.8418 -0.5566
 8204SOL     OW36070   1.096   2.392   6.312 -0.4616  0.5413 -0.4309
 8204SOL    HW136071   1.192   2.390   6.308 -0.4887  3.2146 -2.1958
 8204SOL    HW236072   1.091   2.384   6.408 -2.9843 -0.0901 -0.6145
 8205SOL     OW36073   2.829   0.465   9.873 -0.4455  0.8245  0.3576
 8205SOL    HW136074   2.915   0.474   9.832  0.1595 -0.8099  1.3049
 8205SOL    HW236075   2.810   0.554   9.904 -1.4905  0.5234  0.5584
 8206SOL     OW36076   2.117   0.981   7.506 -0.7274 -0.2353 -0.8261
 8206SOL    HW136077   2.105   1.022   7.421 -0.0614 -2.4996 -2.0201
 8206SOL    HW236078   2.172   0.904   7.486 -0.0913 -0.1197  0.4577
 8207SOL     OW36079   3.444   3.257   3.203  0.3323 -0.1276 -0.6143
 8207SOL    HW136080   3.529   3.256   3.159  0.1643 -2.5747 -0.8835
 8207SOL    HW236081   3.442   3.179   3.259 -0.5594 -0.4299 -1.0650
 8208SOL     OW36082   3.544   4.394   3.643  0.0210 -0.2871 -0.2171
 8208SOL    HW136083   3.634   4.377   3.615  0.0242 -0.5634 -0.0300
 8208SOL    HW236084   3.564   4.376   3.735  0.8118 -0.3575 -0.4021
 8209SOL     OW36085   3.401   3.054   0.304  0.0844  0.2115 -0.4576
 8209SOL    HW136086   3.425   3.092   0.219  3.5116 -2.0455 -0.5095
 8209SOL    HW236087   3.473   2.992   0.316  1.0892  1.2413 -1.0991
 8210SOL     OW36088   4.312   0.530   9.663 -0.4139  0.3244  0.3367
 8210SOL    HW136089   4.369   0.473   9.611 -0.4129 -0.4983  1.2536
 8210SOL    HW236090   4.312   0.611   9.611 -2.9294  1.1877  1.7042
 8211SOL     OW36091   2.056   3.499  11.947  0.0304 -0.0127 -0.1496
 8211SOL    HW136092   1.981   3.552  11.976  0.6082  0.2197  0.9261
 8211SOL    HW236093   2.123   3.526  12.010  0.9814  0.9456 -1.5510
 8212SOL     OW36094   3.056   0.524   8.820  0.3494  0.2974 -0.4027
 8212SOL    HW136095   3.048   0.616   8.846  0.6625  0.3880 -0.6211
 8212SOL    HW236096   3.129   0.493   8.873  0.2147 -1.0975 -1.0501
 8213SOL     OW36097   2.969   3.235   5.989  0.2914 -0.1718 -0.0441
 8213SOL    HW136098   3.054   3.264   5.956 -0.6047  1.5244 -0.8779
 8213SOL    HW236099   2.945   3.166   5.927 -2.1015 -0.7837  1.5964
 8214SOL     OW36100   3.442   2.343  10.909 -0.1306 -0.4232  0.2634
 8214SOL    HW136101   3.534   2.317  10.905  0.3219  1.4528 -1.4285
 8214SOL    HW236102   3.425   2.351  10.815  1.5538  1.1901  0.0909
 8215SOL     OW36103   2.720   0.262   3.376 -0.0447 -0.2968  0.2325
 8215SOL    HW136104   2.801   0.296   3.412 -0.8181  1.8092 -0.0372
 8215SOL    HW236105   2.757   0.174   3.369  2.0405  0.7071 -1.3180
 8216SOL     OW36106   0.191   4.093   8.963 -0.6385  0.2219  0.1807
 8216SOL    HW136107   0.263   4.145   8.998 -2.1862  2.9411 -0.6589
 8216SOL    HW236108   0.222   4.004   8.977 -0.2527 -0.1538 -2.9094
 8217SOL     OW36109   2.544   3.576   7.645 -0.0645 -0.5280  0.1253
 8217SOL    HW136110   2.505   3.508   7.701  0.1652 -1.8139 -1.2716
 8217SOL    HW236111   2.467   3.619   7.607  1.8775  1.9650 -0.9820
 8218SOL     OW36112   3.083   1.921   2.381  0.0249  0.0196 -0.6908
 8218SOL    HW136113   3.114   2.006   2.411  0.8895 -0.4015 -0.3922
 8218SOL    HW236114   3.016   1.898   2.445 -1.6538  2.5463 -1.5255
 8219SOL     OW36115   2.427   2.856   7.240  0.1481 -0.2567 -0.4593
 8219SOL    HW136116   2.511   2.814   7.260  0.2468 -0.0869 -0.5204
 8219SOL    HW236117   2.412   2.818   7.154 -0.0465  0.4766 -0.7528
 8220SOL     OW36118   0.942   2.684   5.560 -0.2414  0.5018 -0.3275
 8220SOL    HW136119   0.996   2.705   5.636  2.3410 -1.2310 -1.6971
 8220SOL    HW236120   0.987   2.712   5.480 -0.4070 -0.3069 -0.7105
 8221SOL     OW36121   2.014   0.500  12.067 -0.4732 -0.0181  0.7248
 8221SOL    HW136122   2.022   0.583  12.114 -1.6822 -0.6922  2.1045
 8221SOL    HW236123   1.940   0.522  12.010  0.6445  0.3731 -0.5872
 8222SOL     OW36124   0.879   2.221  10.368  0.2778 -0.4387 -0.7260
 8222SOL    HW136125   0.827   2.241  10.290 -1.0595 -3.2777 -0.5498
 8222SOL    HW236126   0.969   2.219  10.336  0.1300 -0.4335 -1.1449
 8223SOL     OW36127   2.089   2.094   8.886  0.1033 -0.2592  0.1215
 8223SOL    HW136128   2.006   2.140   8.876 -0.9138 -2.0595  0.2903
 8223SOL    HW236129   2.088   2.026   8.819 -0.6665  0.1103 -0.2385
 8224SOL     OW36130   1.634   2.219   9.503 -0.2686  0.5855 -0.5236
 8224SOL    HW136131   1.598   2.202   9.416  1.6927  1.8150 -1.5654
 8224SOL    HW236132   1.726   2.228   9.480  0.0068  0.6651  0.6053
 8225SOL     OW36133   4.683   2.148   1.975 -0.2285 -0.0802  0.0407
 8225SOL    HW136134   0.002   2.221   2.020  1.1270  0.3836 -2.0149
 8225SOL    HW236135   4.677   2.079   2.042  1.9268  0.4365  0.7522
 8226SOL     OW36136   1.115   1.887   0.719 -0.0433  0.6158  0.3295
 8226SOL    HW136137   1.076   1.938   0.790 -1.2424 -0.0099  0.1275
 8226SOL    HW236138   1.159   1.940   0.653 -0.6159  1.0850  0.3244
 8227SOL     OW36139   2.306   1.947  10.416  0.6083 -0.1526  0.4109
 8227SOL    HW136140   2.272   1.986  10.497  0.0307 -0.6989  0.4342
 8227SOL    HW236141   2.229   1.932  10.361  1.0262 -0.0416 -0.2027
 8228SOL     OW36142   0.240   0.475   8.515  0.8708 -0.3270 -0.0770
 8228SOL    HW136143   0.324   0.511   8.486  0.8417 -1.3553 -1.3992
 8228SOL    HW236144   0.191   0.475   8.434  3.5242 -0.5018 -1.6988
 8229SOL     OW36145   2.122   4.163   4.854 -1.0198 -0.2299  0.0880
 8229SOL    HW136146   2.071   4.243   4.868 -0.7005  0.1106 -0.7016
 8229SOL    HW236147   2.145   4.151   4.946  2.6635 -0.6485 -0.9123
 8230SOL     OW36148   3.262   2.433  10.675  0.1988 -0.2984  0.0000
 8230SOL    HW136149   3.192   2.388  10.628  0.8412 -1.7038  0.4039
 8230SOL    HW236150   3.216   2.467  10.752  2.3516  2.0394  0.2844
 8231SOL     OW36151   4.159   0.035   4.807  0.1309 -0.0681 -0.1930
 8231SOL    HW136152   4.214   4.709   4.745 -1.3014 -2.2613  0.2597
 8231SOL    HW236153   4.186   4.712   4.886  1.0092 -0.7023 -0.8512
 8232SOL     OW36154   0.587   3.221   5.346 -0.3554 -0.1620 -0.2155
 8232SOL    HW136155   0.566   3.139   5.391 -0.5208 -0.3018 -0.5470
 8232SOL    HW236156   0.502   3.258   5.325  2.7949  4.8197 -4.1456
 8233SOL     OW36157   3.286   0.379  17.414  0.0211  0.0797  0.0164
 8233SOL    HW136158   3.223   0.428  17.468 -0.9805 -0.5660 -0.5577
 8233SOL    HW236159   3.225   0.332  17.356  0.8556  0.2745 -1.0265
 8234SOL     OW36160   1.289   4.000  13.046 -0.2012  0.1458  0.0450
 8234SOL    HW136161   1.273   4.077  12.991  0.4728  0.4627  0.2996
 8234SOL    HW236162   1.330   3.947  12.977 -1.9583  0.8400 -1.5415
 8235SOL     OW36163   2.942   2.821   6.828  0.4693 -0.0509  0.3148
 8235SOL    HW136164   3.022   2.792   6.873  0.0025 -1.6132  0.1464
 8235SOL    HW236165   2.970   2.900   6.782  3.2185 -0.9745  0.3512
 8236SOL     OW36166   1.902   3.546  10.819 -0.2994 -0.5247  0.1997
 8236SOL    HW136167   1.938   3.458  10.815 -1.6160 -1.0298 -0.6863
 8236SOL    HW236168   1.968   3.588  10.873 -0.3253  0.1813 -0.3131
 8237SOL     OW36169   0.801   3.551  13.257  0.1925 -0.2127  0.7034
 8237SOL    HW136170   0.882   3.500  13.257 -0.3839 -1.1375 -1.8171
 8237SOL    HW236171   0.740   3.490  13.215  2.7239 -1.2326 -1.5296
 8238SOL     OW36172   2.058   0.349   6.216  0.2085 -0.2014  0.9859
 8238SOL    HW136173   1.971   0.387   6.231 -0.0112  0.1507 -1.2805
 8238SOL    HW236174   2.091   0.412   6.152  1.9565 -1.5010  0.6411
 8239SOL     OW36175   0.089   3.892  16.857 -0.2642 -0.1417 -0.4381
 8239SOL    HW136176   0.072   3.852  16.772 -1.1193 -2.3928  0.8092
 8239SOL    HW236177   0.029   3.848  16.918 -0.9399  2.6262  0.8987
 8240SOL     OW36178   4.335   2.523   2.029  0.1990  0.4149  0.0285
 8240SOL    HW136179   4.361   2.564   2.111  1.3557 -0.4514  0.1038
 8240SOL    HW236180   4.405   2.459   2.012  1.8442  2.2308 -0.0418
 8241SOL     OW36181   1.941   2.571   8.107 -0.0103  0.4124 -0.2551
 8241SOL    HW136182   1.892   2.553   8.187  2.0721  2.0011  1.3687
 8241SOL    HW236183   1.867   2.569   8.046 -0.7933  1.9805  0.6274
 8242SOL     OW36184   4.169   2.450  11.996 -0.0172 -0.6196 -0.3323
 8242SOL    HW136185   4.188   2.453  12.090 -0.8353 -3.0028 -0.0923
 8242SOL    HW236186   4.122   2.531  11.979  0.0909 -0.6530 -0.7906
 8243SOL     OW36187   2.665   2.760   0.742 -0.3865 -0.1588  0.0937
 8243SOL    HW136188   2.601   2.826   0.715  1.7893  1.9372  0.1116
 8243SOL    HW236189   2.706   2.734   0.659  0.5063  0.9434  0.1918
 8244SOL     OW36190   1.764   0.575   4.877 -0.3366  0.2091 -0.1903
 8244SOL    HW136191   1.777   0.551   4.969 -0.8852  0.2132 -0.1154
 8244SOL    HW236192   1.724   0.662   4.878 -1.5723 -0.3626 -1.0875
 8245SOL     OW36193   1.461   3.908   4.447 -0.1201 -0.2637 -0.1429
 8245SOL    HW136194   1.448   3.819   4.480  0.8091  0.1707  1.3652
 8245SOL    HW236195   1.397   3.912   4.376 -0.0646  1.4410 -0.0958
 8246SOL     OW36196   3.628   0.364   4.106 -0.5497  0.1227  0.4157
 8246SOL    HW136197   3.625   0.454   4.072  1.6207 -0.0874 -0.3267
 8246SOL    HW236198   3.630   0.379   4.200  0.8370 -1.4113  0.6209
 8247SOL     OW36199   1.369   4.668  15.798  0.0905  0.0426 -0.7109
 8247SOL    HW136200   1.397   4.720  15.874 -0.1603  2.4796 -2.3056
 8247SOL    HW236201   1.456   4.660  15.759  0.0897  1.6446 -1.0624
 8248SOL     OW36202   1.110   3.737  16.976  0.4123 -0.0945  0.0053
 8248SOL    HW136203   1.200   3.765  16.958  1.3216 -0.0940  4.6055
 8248SOL    HW236204   1.063   3.786  16.909  1.8207  0.4063 -0.6163
 8249SOL     OW36205   1.108   0.828   7.164 -0.0099 -0.0658  0.2288
 8249SOL    HW136206   1.113   0.923   7.172  2.6659 -0.2423  0.3744
 8249SOL    HW236207   1.119   0.810   7.071 -0.9126 -1.1675  0.3290
 8250SOL     OW36208   0.511   3.184   5.669 -0.1926  0.0488  0.0290
 8250SOL    HW136209   0.482   3.104   5.624 -0.3786 -0.3112  0.7826
 8250SOL    HW236210   0.605   3.173   5.677 -0.6424 -2.5607  1.8494
 8251SOL     OW36211   2.374   0.600   8.351 -0.2901  0.0541  0.6851
 8251SOL    HW136212   2.293   0.621   8.397 -0.6519  1.2999 -0.5275
 8251SOL    HW236213   2.397   0.674   8.295 -0.6606 -0.4145 -0.0839
 8252SOL     OW36214   3.920   4.453   4.825  0.0399  0.1195  0.3764
 8252SOL    HW136215   3.888   4.374   4.870  2.6081 -1.0307  0.1646
 8252SOL    HW236216   3.867   4.515   4.874  0.4765  0.0524  0.9309
 8253SOL     OW36217   3.207   1.969   2.696 -0.8443  0.5218 -0.1734
 8253SOL    HW136218   3.263   1.944   2.623 -0.0459 -0.1433  0.6697
 8253SOL    HW236219   3.124   1.926   2.674 -0.9693  1.3884 -1.4132
 8254SOL     OW36220   0.654   2.924   9.610 -0.0162  0.4767  0.5886
 8254SOL    HW136221   0.589   2.889   9.550  0.5128  1.8672 -0.8167
 8254SOL    HW236222   0.656   3.008   9.564 -2.6147  0.9931  1.4145
 8255SOL     OW36223   0.188   4.722  16.207  0.0346  0.2851  0.2483
 8255SOL    HW136224   0.246   0.062  16.164  1.4405 -1.8797 -1.0151
 8255SOL    HW236225   0.213   4.638  16.169  2.2658  1.8106 -1.6171
 8256SOL     OW36226   2.633   0.783  11.039  0.4893  0.1966 -0.1375
 8256SOL    HW136227   2.587   0.736  10.969  0.2174  1.1525 -0.6152
 8256SOL    HW236228   2.710   0.728  11.045  0.6038  0.2766 -0.8684
 8257SOL     OW36229   0.853   4.374   2.322  0.3041  0.4937 -0.1167
 8257SOL    HW136230   0.822   4.408   2.238  1.5504 -1.9799 -1.6011
 8257SOL    HW236231   0.771   4.341   2.359  0.7182 -2.8068 -2.0943
 8258SOL     OW36232   4.013   1.273  14.531 -0.1546 -0.1540  0.4807
 8258SOL    HW136233   3.940   1.325  14.497  0.9234  0.0810 -1.4795
 8258SOL    HW236234   3.978   1.185  14.520 -0.0023 -0.1800  0.2164
 8259SOL     OW36235   0.060   1.011   7.238 -0.1026 -0.1927  0.4823
 8259SOL    HW136236   4.714   1.077   7.245  0.6299  0.2207  3.9687
 8259SOL    HW236237   0.138   1.066   7.249 -0.3567 -0.0751  1.6744
 8260SOL     OW36238   0.779   0.312   0.742  0.2283  0.2985  0.1790
 8260SOL    HW136239   0.854   0.253   0.745 -0.3345 -0.3078  2.8788
 8260SOL    HW236240   0.717   0.244   0.715  1.6036  0.3779 -3.1356
 8261SOL     OW36241   0.223   3.778  17.070  0.2604  0.3606 -0.0347
 8261SOL    HW136242   0.281   3.722  17.020 -0.9927 -0.9094 -0.0660
 8261SOL    HW236243   0.154   3.805  17.008 -1.2177  1.4387  2.0806
 8262SOL     OW36244   0.290   2.349   2.304  1.0174 -0.3677 -0.0021
 8262SOL    HW136245   0.285   2.445   2.301 -0.2549 -0.4600 -0.5839
 8262SOL    HW236246   0.383   2.344   2.327  1.4560  1.8640 -1.2134
 8263SOL     OW36247   2.371   2.856   5.502 -0.3955 -0.0477  0.4106
 8263SOL    HW136248   2.320   2.819   5.575 -3.5393  0.8220 -1.3604
 8263SOL    HW236249   2.445   2.795   5.498 -1.9271 -1.8855  0.0725
 8264SOL     OW36250   1.335   4.369   2.889  0.0332  0.0592 -0.6050
 8264SOL    HW136251   1.295   4.429   2.952  0.2877  0.5078 -0.8710
 8264SOL    HW236252   1.311   4.282   2.921  1.8031  0.1953  1.0578
 8265SOL     OW36253   1.765   2.908   8.465  0.3220 -0.9217  0.3452
 8265SOL    HW136254   1.718   2.835   8.427 -0.4293  1.1305 -2.6822
 8265SOL    HW236255   1.702   2.923   8.535  1.0650  0.8848  0.6471
 8266SOL     OW36256   1.276   1.710   9.337 -0.1913  0.0379 -0.3312
 8266SOL    HW136257   1.340   1.645   9.308 -0.9871 -0.6860 -0.4424
 8266SOL    HW236258   1.229   1.727   9.255 -1.3463  1.9925  0.7201
 8267SOL     OW36259   0.540   2.324   2.366 -0.0970 -0.3456 -0.1557
 8267SOL    HW136260   0.577   2.241   2.336 -1.3799 -0.1859 -2.1480
 8267SOL    HW236261   0.605   2.365   2.423  1.0061 -0.8962 -1.0181
 8268SOL     OW36262   2.247   1.436  12.286  0.5595 -0.4236 -0.1067
 8268SOL    HW136263   2.159   1.429  12.323  0.6703 -1.4735 -0.0295
 8268SOL    HW236264   2.233   1.505  12.221 -0.9428  0.2352  0.9184
 8269SOL     OW36265   0.790   3.096  17.071  0.0823 -0.0001 -0.0369
 8269SOL    HW136266   0.790   3.011  17.116  0.1287  1.1313  2.1002
 8269SOL    HW236267   0.704   3.100  17.029  0.8384  0.5636 -1.5303
 8270SOL     OW36268   1.986   1.739  12.950  0.2451  0.1177 -0.2759
 8270SOL    HW136269   2.002   1.691  13.032  1.3499  2.9410  1.1360
 8270SOL    HW236270   1.973   1.662  12.894 -0.0273 -0.3618  0.4330
 8271SOL     OW36271   2.401   2.713   2.859  0.4645  0.4466  0.2031
 8271SOL    HW136272   2.319   2.756   2.835  1.0583  1.0149 -0.7747
 8271SOL    HW236273   2.430   2.699   2.769  0.2556 -0.5445  0.2956
 8272SOL     OW36274   4.603   1.672   7.479 -0.1104  0.1144  0.1762
 8272SOL    HW136275   4.685   1.693   7.435 -1.0627  0.7244 -1.2939
 8272SOL    HW236276   4.554   1.636   7.406  1.4546  0.5986 -1.0997
 8273SOL     OW36277   2.230   1.652   5.469  0.4625  0.2942  0.1915
 8273SOL    HW136278   2.317   1.634   5.435  0.6735  0.0677  0.8532
 8273SOL    HW236279   2.245   1.738   5.509 -0.5556 -0.2035  1.6626
 8274SOL     OW36280   4.304   3.738   1.697  0.5879  0.6004  0.2089
 8274SOL    HW136281   4.213   3.725   1.722  0.8217 -0.0031  0.7683
 8274SOL    HW236282   4.302   3.824   1.656  0.5583  0.8373  0.7094
 8275SOL     OW36283   0.269   2.944  15.280  0.2496 -0.3492  0.2661
 8275SOL    HW136284   0.314   3.027  15.265 -1.6862  0.2786 -1.9917
 8275SOL    HW236285   0.345   2.888  15.267  0.6517 -0.2286  2.0008
 8276SOL     OW36286   1.676   4.227   7.975  0.0606  0.5300  0.1378
 8276SOL    HW136287   1.630   4.311   7.967  1.5569  1.4786  1.4327
 8276SOL    HW236288   1.620   4.182   8.038  0.4281  0.5290  0.4636
 8277SOL     OW36289   4.172   0.631   3.134  0.2328 -0.1921  0.3791
 8277SOL    HW136290   4.268   0.638   3.140  0.2173  0.5053 -0.2585
 8277SOL    HW236291   4.172   0.589   3.048 -0.6196 -0.7534  0.6564
 8278SOL     OW36292   1.599   2.689   2.996 -0.2863  0.7279 -0.1547
 8278SOL    HW136293   1.602   2.746   3.072  0.9119 -0.3417  0.6076
 8278SOL    HW236294   1.514   2.646   3.004 -0.9507  1.8831 -0.9778
 8279SOL     OW36295   2.161   2.195  14.626  0.5725 -0.2033 -0.1990
 8279SOL    HW136296   2.116   2.256  14.685  1.1618  0.0351  0.0070
 8279SOL    HW236297   2.251   2.229  14.630  1.0875 -1.2468 -3.4533
 8280SOL     OW36298   3.135   2.446   5.811 -0.5083  0.1272 -0.0885
 8280SOL    HW136299   3.105   2.525   5.766  0.2828  2.4562  3.4535
 8280SOL    HW236300   3.163   2.399   5.733  0.0523 -1.3696  1.0302
 8281SOL     OW36301   3.474   2.592   1.913  0.4690  0.4245  0.0231
 8281SOL    HW136302   3.548   2.548   1.871  1.0446  1.3764  0.0324
 8281SOL    HW236303   3.503   2.683   1.903 -1.6074  1.0003 -1.0298
 8282SOL     OW36304   3.371   1.756   7.680  0.2250  0.1373  0.1752
 8282SOL    HW136305   3.281   1.756   7.648  1.6253 -0.3464 -3.7658
 8282SOL    HW236306   3.417   1.716   7.606 -2.1972 -1.1180 -0.6378
 8283SOL     OW36307   0.612   1.711  12.466 -0.0391 -0.0009 -0.2880
 8283SOL    HW136308   0.642   1.673  12.384 -0.6743 -1.8465  0.3284
 8283SOL    HW236309   0.671   1.666  12.526  1.1683  2.2256  0.1693
 8284SOL     OW36310   4.588   2.949   6.907  0.2906 -0.1532 -0.3672
 8284SOL    HW136311   4.499   2.983   6.914  0.9621  1.6098 -0.5629
 8284SOL    HW236312   4.639   3.018   6.948 -0.1012 -0.0761 -0.0113
 8285SOL     OW36313   2.054   0.762   6.373  0.1340 -0.4777  0.1495
 8285SOL    HW136314   2.025   0.712   6.297  1.3438 -0.7311 -0.1442
 8285SOL    HW236315   2.051   0.854   6.348  0.0801 -0.1104  1.4761
 8286SOL     OW36316   3.869   3.543   3.250 -0.6030 -0.1045 -0.2065
 8286SOL    HW136317   3.803   3.604   3.216  0.7146  2.2699  1.4094
 8286SOL    HW236318   3.843   3.468   3.198 -0.6743  0.9135 -1.6315
 8287SOL     OW36319   3.926   1.937  11.035  0.1897  0.5857  0.0700
 8287SOL    HW136320   3.914   1.867  11.099  1.1958  0.3494 -0.0112
 8287SOL    HW236321   3.836   1.945  11.002 -0.2504  0.1384  1.1561
 8288SOL     OW36322   2.551   4.463  10.127 -0.0540 -0.1917  0.1495
 8288SOL    HW136323   2.535   4.555  10.149  0.3530  0.1795 -1.1114
 8288SOL    HW236324   2.645   4.445  10.136  0.0508 -1.1607 -2.7714
 8289SOL     OW36325   2.663   2.914  11.478  0.1972  0.5446 -0.1787
 8289SOL    HW136326   2.571   2.900  11.501  0.2912  3.3082  1.8240
 8289SOL    HW236327   2.703   2.845  11.529 -2.6260 -1.5010 -0.7640
 8290SOL     OW36328   3.900   3.048   2.101  0.2641  0.4834 -0.4120
 8290SOL    HW136329   3.824   2.991   2.097  1.2585 -0.8275 -0.5126
 8290SOL    HW236330   3.953   3.004   2.168  0.1120 -0.8315 -1.1635
 8291SOL     OW36331   3.315   3.480   9.900  0.2438  0.3815  0.2124
 8291SOL    HW136332   3.303   3.415   9.969 -1.4039 -1.5517 -1.9015
 8291SOL    HW236333   3.397   3.515   9.935  0.7670 -0.2964 -0.3468
 8292SOL     OW36334   0.107   2.485  13.464 -0.0972  0.5199 -0.0457
 8292SOL    HW136335   0.142   2.515  13.547 -0.6261  0.0357  0.3494
 8292SOL    HW236336   0.059   2.407  13.493  0.1265  0.8388  1.1777
 8293SOL     OW36337   0.689   2.084   2.332 -0.2666 -1.0624 -0.2328
 8293SOL    HW136338   0.682   2.019   2.402 -0.0198 -2.8884 -1.9367
 8293SOL    HW236339   0.750   2.047   2.269 -0.0962  0.3351 -0.8846
 8294SOL     OW36340   4.145   1.829  15.578 -0.6338  0.0799 -0.1231
 8294SOL    HW136341   4.146   1.858  15.669  0.9325 -2.1749  0.5762
 8294SOL    HW236342   4.103   1.743  15.582 -0.2289 -0.0621  1.0316
 8295SOL     OW36343   0.286   1.772   4.784  0.3105 -0.3787 -0.1946
 8295SOL    HW136344   0.209   1.824   4.759 -0.9826 -1.1828  2.1377
 8295SOL    HW236345   0.245   1.688   4.804 -2.1273  0.3899 -1.9637
 8296SOL     OW36346   1.657   0.584  15.634 -0.1783  0.0030  0.2654
 8296SOL    HW136347   1.656   0.557  15.542 -3.4879  0.0975  0.2653
 8296SOL    HW236348   1.704   0.510  15.672  1.8585  0.8557 -0.6392
 8297SOL     OW36349   0.892   0.678   2.015  0.5518 -0.3484  0.1772
 8297SOL    HW136350   0.923   0.756   1.969  2.3094 -1.1929 -0.0604
 8297SOL    HW236351   0.910   0.691   2.108  0.3174 -1.1108  0.3300
 8298SOL     OW36352   2.335   1.078   6.752 -0.0185  0.1377 -0.1234
 8298SOL    HW136353   2.376   1.091   6.666  0.4044 -0.3545  0.0049
 8298SOL    HW236354   2.380   0.995   6.765  0.6214  0.3599 -0.8882
 8299SOL     OW36355   0.429   4.616   2.027 -0.1627  0.6006  0.0632
 8299SOL    HW136356   0.337   4.589   2.033 -1.0253  2.9483 -2.4602
 8299SOL    HW236357   0.450   4.572   1.944 -2.0017  0.8250 -0.5318
 8300SOL     OW36358   1.104   3.958   8.401  0.3078  0.1178 -0.0691
 8300SOL    HW136359   1.139   4.048   8.397 -0.0167  0.2729  0.6183
 8300SOL    HW236360   1.071   3.960   8.312  0.8955 -2.1690 -0.3379
 8301SOL     OW36361   1.796   3.029   1.837 -0.1612  0.0122 -0.1389
 8301SOL    HW136362   1.869   3.062   1.784 -1.1575  1.8769 -0.3610
 8301SOL    HW236363   1.798   3.099   1.902 -0.2193 -0.2137  0.1055
 8302SOL     OW36364   2.499   1.847   3.050 -0.1367  0.3314 -0.1493
 8302SOL    HW136365   2.569   1.833   2.986 -0.0396  0.4201 -0.0626
 8302SOL    HW236366   2.438   1.796   2.998 -2.3362  0.0624  2.7295
 8303SOL     OW36367   2.895   0.222  15.784  0.2723  0.1428 -0.5100
 8303SOL    HW136368   2.897   0.129  15.764 -0.7029  0.2513 -1.0872
 8303SOL    HW236369   2.959   0.221  15.856 -2.0768  2.1316  1.6086
 8304SOL     OW36370   4.271   3.997   3.471  0.2953 -0.4894  0.4247
 8304SOL    HW136371   4.207   3.929   3.493  0.5949 -0.4877  1.2931
 8304SOL    HW236372   4.215   4.073   3.487  2.8918  1.4503  0.3866
 8305SOL     OW36373   2.347   1.914  13.470  0.3505 -0.2357 -0.4348
 8305SOL    HW136374   2.357   1.928  13.375  2.6462 -0.2080 -0.1917
 8305SOL    HW236375   2.358   1.819  13.463 -0.9754 -0.3802 -0.6728
 8306SOL     OW36376   0.533   0.508  14.567 -0.0301 -0.2740 -0.3259
 8306SOL    HW136377   0.608   0.533  14.513 -0.8110  1.7716 -0.4552
 8306SOL    HW236378   0.548   0.558  14.648 -0.5587  2.2614 -1.7659
 8307SOL     OW36379   2.814   3.408   8.215  0.2341  0.0751  0.1776
 8307SOL    HW136380   2.731   3.390   8.257 -0.6062  3.1085 -0.1533
 8307SOL    HW236381   2.827   3.503   8.216  0.5360  0.0178  1.0444
 8308SOL     OW36382   2.938   4.492   3.346 -0.2414 -0.0105  0.2426
 8308SOL    HW136383   3.015   4.503   3.402  0.5547  1.4476 -1.1281
 8308SOL    HW236384   2.874   4.442   3.397  0.9470 -1.5882  0.1968
 8309SOL     OW36385   1.176   0.295   2.179  0.8309 -0.2014 -0.2709
 8309SOL    HW136386   1.155   0.361   2.113  1.3339  0.3545  0.1283
 8309SOL    HW236387   1.241   0.237   2.138  0.2488 -0.7116 -0.4716
 8310SOL     OW36388   1.637   0.606   0.774 -0.2304  0.1676 -0.1989
 8310SOL    HW136389   1.570   0.675   0.771 -1.8989 -1.3988  1.3959
 8310SOL    HW236390   1.603   0.545   0.839  0.7314 -0.4305 -0.2551
 8311SOL     OW36391   4.058   2.594   7.599  0.5060 -0.1935 -0.2722
 8311SOL    HW136392   3.993   2.526   7.581  0.1453  0.0771  0.0231
 8311SOL    HW236393   4.136   2.563   7.553  0.1039  0.3587 -1.3047
 8312SOL     OW36394   3.046   2.351   1.965  0.4120  0.1995  0.1030
 8312SOL    HW136395   3.060   2.284   1.899 -0.9529 -0.3620  0.3799
 8312SOL    HW236396   3.123   2.339   2.020 -0.1236  1.0274  1.0289
 8313SOL     OW36397   4.633   4.356   3.735  0.4605 -0.1727  0.2899
 8313SOL    HW136398   4.701   4.292   3.756  0.5960 -0.1686 -0.1373
 8313SOL    HW236399   4.552   4.307   3.725  0.1615  0.6121 -1.1776
 8314SOL     OW36400   3.955   1.289   4.874  0.5584  0.5257 -0.1552
 8314SOL    HW136401   3.931   1.382   4.870  0.9553  0.7409  2.6107
 8314SOL    HW236402   3.918   1.255   4.793  0.0407  0.1100  0.2572
 8315SOL     OW36403   4.158   0.379   4.663 -0.1336  0.1242  0.2131
 8315SOL    HW136404   4.082   0.321   4.652 -0.1454  0.3303 -0.7849
 8315SOL    HW236405   4.180   0.353   4.753  2.6435  1.1444 -0.2019
 8316SOL     OW36406   3.921   1.951   1.768 -0.4551  0.0545  0.2502
 8316SOL    HW136407   3.930   1.885   1.700  0.5895  0.2883  0.1600
 8316SOL    HW236408   3.970   2.023   1.728  0.0754 -0.0624  0.6801
 8317SOL     OW36409   0.080   1.590  14.845  0.0390 -0.6718  0.1215
 8317SOL    HW136410   0.096   1.532  14.771 -1.0149  1.0673 -1.4600
 8317SOL    HW236411   0.038   1.544  14.918  2.1908 -1.4683  0.8294
 8318SOL     OW36412   2.699   1.171  13.108  0.7566  0.0218  0.1931
 8318SOL    HW136413   2.696   1.120  13.027  0.0684  0.7094 -0.2129
 8318SOL    HW236414   2.790   1.200  13.112  0.7952  0.0761 -1.4710
 8319SOL     OW36415   1.571   4.224   8.922 -0.0546  0.1064 -0.3130
 8319SOL    HW136416   1.622   4.296   8.885 -0.9917  0.8085 -0.2522
 8319SOL    HW236417   1.611   4.148   8.882 -0.3720  0.0448 -0.5106
 8320SOL     OW36418   1.976   1.672  13.504 -0.4177  0.0251 -0.3033
 8320SOL    HW136419   2.048   1.667  13.567 -2.3323 -0.3397  1.8388
 8320SOL    HW236420   2.005   1.741  13.444 -1.1020  1.7851  1.3905
 8321SOL     OW36421   0.142   4.201   0.085  0.3966  0.5614 -0.1737
 8321SOL    HW136422   0.224   4.250   0.094  0.0151  0.9515  1.2074
 8321SOL    HW236423   0.175   4.111   0.090  1.5944  0.8625 -2.6475
 8322SOL     OW36424   0.683   3.926  15.796  0.2344  0.1504 -0.2112
 8322SOL    HW136425   0.589   3.920  15.816  0.1572 -0.6542 -0.8056
 8322SOL    HW236426   0.682   3.909  15.702  0.0399  1.4165 -0.4488
 8323SOL     OW36427   1.993   3.921   7.410 -0.2839 -0.1121  0.0711
 8323SOL    HW136428   1.898   3.911   7.403 -0.4102  0.6441  0.7817
 8323SOL    HW236429   2.012   3.867   7.333 -0.2941 -0.6648  0.4489
 8324SOL     OW36430   0.349   2.723   8.647 -0.0607 -0.1936 -0.3329
 8324SOL    HW136431   0.274   2.773   8.679  0.3070 -1.1478  2.0078
 8324SOL    HW236432   0.415   2.770   8.699 -1.7340  0.1913  1.4272
 8325SOL     OW36433   2.484   1.929  14.270 -0.0231  0.2793 -0.0218
 8325SOL    HW136434   2.475   1.985  14.347  0.8088 -1.7029  1.4869
 8325SOL    HW236435   2.397   1.934  14.229  0.6205  1.8067 -1.2067
 8326SOL     OW36436   0.952   3.533   5.668 -0.3966  0.7106 -0.0154
 8326SOL    HW136437   0.861   3.565   5.674  0.3786  2.4866  2.4164
 8326SOL    HW236438   0.942   3.462   5.731  0.8107 -1.6052 -2.4560
 8327SOL     OW36439   4.683   1.414   4.800 -0.3426 -0.1692  0.2156
 8327SOL    HW136440   0.045   1.447   4.829  0.2354 -0.5595 -1.0221
 8327SOL    HW236441   4.636   1.454   4.873 -0.3681 -2.5621  1.5092
 8328SOL     OW36442   4.331   2.599  13.952  0.3820  0.2642 -0.1435
 8328SOL    HW136443   4.236   2.594  13.964  0.6216  0.5748  1.9198
 8328SOL    HW236444   4.363   2.510  13.970 -0.7001  0.2663  1.7975
 8329SOL     OW36445   4.161   4.487  11.403 -0.0089 -0.4596 -0.1260
 8329SOL    HW136446   4.116   4.459  11.483  0.4819 -1.9407 -0.3536
 8329SOL    HW236447   4.104   4.560  11.382 -1.7313 -1.8647 -0.3154
 8330SOL     OW36448   4.580   2.165   8.634 -0.7642 -0.0248  0.2243
 8330SOL    HW136449   4.672   2.140   8.625 -0.3413  1.1367  1.3387
 8330SOL    HW236450   4.586   2.247   8.683 -1.0136  0.2745 -0.2420
 8331SOL     OW36451   3.424   0.150  17.487 -0.2128  0.0027 -0.0650
 8331SOL    HW136452   3.447   0.145  17.394 -0.9466  1.4865 -0.3265
 8331SOL    HW236453   3.376   0.232  17.478  1.3920  1.0383  0.8531
 8332SOL     OW36454   0.469   0.623   9.263 -0.0934 -0.3260 -0.4136
 8332SOL    HW136455   0.479   0.637   9.357 -0.6863  0.5600 -0.4819
 8332SOL    HW236456   0.496   0.707   9.224  0.5252 -0.1067  0.4848
 8333SOL     OW36457   3.477   0.791   3.957 -0.2636 -0.4344  0.2450
 8333SOL    HW136458   3.504   0.802   3.866 -1.0107 -2.5023 -0.2334
 8333SOL    HW236459   3.553   0.746   3.994  1.3555  0.7724 -1.5945
 8334SOL     OW36460   1.067   1.554  16.378 -0.2746  0.0373  0.0871
 8334SOL    HW136461   1.123   1.632  16.378  0.6027 -0.5842  1.5806
 8334SOL    HW236462   1.122   1.494  16.328  1.5020 -0.3553  2.5313
 8335SOL     OW36463   3.667   2.066   5.890  0.0176  0.1842  0.1080
 8335SOL    HW136464   3.682   1.976   5.862 -1.6519 -0.0260 -0.1034
 8335SOL    HW236465   3.587   2.083   5.841  0.4894 -0.0431 -0.7466
 8336SOL     OW36466   1.408   0.050   7.694 -0.2690  0.7485  0.4995
 8336SOL    HW136467   1.398   0.062   7.599  2.7194  0.8541  0.2013
 8336SOL    HW236468   1.341   4.706   7.711 -1.1093  1.8502  1.4736
 8337SOL     OW36469   2.718   2.823   7.228 -0.0423 -0.1901 -0.2794
 8337SOL    HW136470   2.730   2.790   7.139  0.4243 -0.9274  0.0586
 8337SOL    HW236471   2.775   2.899   7.216 -1.2948  0.7722 -0.1825
 8338SOL     OW36472   0.284   0.407   2.764  0.4355  0.5051 -0.1155
 8338SOL    HW136473   0.358   0.467   2.772  2.5155 -1.7931 -1.8894
 8338SOL    HW236474   0.330   0.332   2.726 -0.7807 -0.9149  1.2336
 8339SOL     OW36475   1.242   3.903   6.584 -0.4289 -0.5158 -0.7322
 8339SOL    HW136476   1.297   3.979   6.604 -2.3374  0.8203 -0.4993
 8339SOL    HW236477   1.305   3.848   6.538  1.2299 -0.1640  1.1108
 8340SOL     OW36478   3.832   1.154  13.511 -0.2520 -0.0672  1.1032
 8340SOL    HW136479   3.798   1.177  13.598 -0.1814 -3.2419  1.9664
 8340SOL    HW236480   3.912   1.106  13.534 -0.3797 -0.2773  1.1130
 8341SOL     OW36481   2.585   4.150   6.700 -1.0107 -0.1892  0.3158
 8341SOL    HW136482   2.592   4.222   6.762 -1.5214 -0.2849  0.4799
 8341SOL    HW236483   2.510   4.182   6.650  1.0056 -1.8567 -3.7719
 8342SOL     OW36484   1.488   3.100   7.732 -0.3383 -0.1586  0.1139
 8342SOL    HW136485   1.422   3.031   7.728  1.2534 -1.5439 -2.2635
 8342SOL    HW236486   1.450   3.180   7.694 -0.0102 -0.6938 -1.3300
 8343SOL     OW36487   0.419   3.574   8.020 -0.1488  0.0952  0.6229
 8343SOL    HW136488   0.423   3.525   7.938  3.3263  0.9297  0.2737
 8343SOL    HW236489   0.473   3.651   7.999 -0.7254  0.8165  1.7929
 8344SOL     OW36490   2.953   0.965   4.935  0.1567  0.4687 -0.4957
 8344SOL    HW136491   3.018   0.897   4.954 -0.4541  0.0484  0.0479
 8344SOL    HW236492   2.939   0.937   4.844 -1.4339 -0.6743  0.1053
 8345SOL     OW36493   4.462   1.835   1.033  0.2168  0.0612 -0.3036
 8345SOL    HW136494   4.541   1.787   1.012 -0.0585 -0.2926 -0.5170
 8345SOL    HW236495   4.447   1.796   1.119  1.4466 -0.4627 -0.3304
 8346SOL     OW36496   3.736   0.522   7.346 -0.4099 -0.0698 -0.6838
 8346SOL    HW136497   3.821   0.563   7.325 -0.1555 -0.3520 -0.2026
 8346SOL    HW236498   3.770   0.434   7.331 -1.7815 -0.7367  0.1488
 8347SOL     OW36499   4.630   3.920   6.927  0.3019 -0.6177 -0.0102
 8347SOL    HW136500   4.715   3.945   6.890 -0.0427 -0.5404 -0.7532
 8347SOL    HW236501   4.576   3.997   6.912 -0.5663 -1.3338 -0.5576
 8348SOL     OW36502   1.611   0.976  13.040  0.7001  0.4309 -0.0635
 8348SOL    HW136503   1.592   1.043  13.106  1.3373  1.0932 -0.5548
 8348SOL    HW236504   1.707   0.976  13.038  0.6871  0.5562 -0.5204
 8349SOL     OW36505   4.541   3.865   7.230  0.4219 -0.0535  0.0033
 8349SOL    HW136506   4.516   3.958   7.233  0.0060 -0.2184  1.3770
 8349SOL    HW236507   4.539   3.838   7.138 -1.0096 -0.8493  0.2698
 8350SOL     OW36508   0.225   2.902  11.963  0.2308 -0.1619 -0.4480
 8350SOL    HW136509   0.164   2.886  11.891 -1.6219  0.4641  0.9865
 8350SOL    HW236510   0.266   2.816  11.966 -0.4222 -0.5127 -1.5937
 8351SOL     OW36511   2.558   1.203  15.431 -0.1977  0.1086 -0.2642
 8351SOL    HW136512   2.553   1.291  15.394  0.3536  0.7436  1.1380
 8351SOL    HW236513   2.586   1.215  15.522 -0.5684 -1.9564  0.1224
 8352SOL     OW36514   4.061   2.567   2.015 -0.3284 -0.4368  0.8626
 8352SOL    HW136515   4.051   2.658   1.987 -1.2992 -0.3310  1.5304
 8352SOL    HW236516   4.155   2.555   2.022  0.2730  2.9057 -1.5101
 8353SOL     OW36517   4.527   3.697   5.057  0.2925  0.5230 -0.0655
 8353SOL    HW136518   4.527   3.620   5.114 -1.1632  0.2667 -0.4111
 8353SOL    HW236519   4.562   3.661   4.975 -0.2503 -0.7450  0.2533
 8354SOL     OW36520   3.631   1.560   2.310  0.4548  0.7385 -0.1170
 8354SOL    HW136521   3.722   1.551   2.283  0.9245  1.5613  1.1822
 8354SOL    HW236522   3.624   1.650   2.340  1.9445  0.8811 -0.2014
 8355SOL     OW36523   4.399   3.432   5.819 -0.3634 -0.6708  1.1479
 8355SOL    HW136524   4.404   3.486   5.739  3.5930 -2.3348  0.2428
 8355SOL    HW236525   4.481   3.455   5.863 -0.6273  1.9816  0.2834
 8356SOL     OW36526   4.574   4.492   5.019 -0.2174  0.1850  0.0277
 8356SOL    HW136527   4.562   4.517   4.927  3.3170  3.6866  0.5512
 8356SOL    HW236528   4.498   4.435   5.028 -0.4973  0.4096 -0.8515
 8357SOL     OW36529   4.679   1.258  11.651  0.3260 -0.4882  0.6340
 8357SOL    HW136530   4.649   1.262  11.560  1.1826 -0.5501  0.3488
 8357SOL    HW236531   0.037   1.207  11.651  0.6408  0.0064 -1.2643
 8358SOL     OW36532   2.426   1.613   4.839 -0.0997  0.3799  0.3311
 8358SOL    HW136533   2.428   1.579   4.750 -1.8015  1.7535 -0.2275
 8358SOL    HW236534   2.333   1.617   4.858  0.2826  0.0782  2.2992
 8359SOL     OW36535   2.911   2.298   8.416 -0.8118  0.1459 -0.5314
 8359SOL    HW136536   2.816   2.305   8.413 -1.1437 -2.9955  2.8302
 8359SOL    HW236537   2.915   2.305   8.511 -0.7185 -0.8613 -0.4647
 8360SOL     OW36538   3.051   0.391   1.063  0.3976  0.4652  0.4852
 8360SOL    HW136539   3.120   0.330   1.038 -0.5120 -0.3087 -0.1484
 8360SOL    HW236540   3.088   0.424   1.145 -1.0740 -1.3543  1.8848
 8361SOL     OW36541   4.603   1.731   4.478 -0.2943  0.4488 -0.0043
 8361SOL    HW136542   4.621   1.642   4.509 -0.4236  0.4498  0.0695
 8361SOL    HW236543   4.693   1.757   4.460 -0.2384  1.2793  1.4579
 8362SOL     OW36544   4.233   0.379   2.939  0.1656  0.3366  0.9580
 8362SOL    HW136545   4.301   0.325   2.898 -0.2105  1.3527 -0.9768
 8362SOL    HW236546   4.202   0.314   3.002 -1.3309  0.0257 -0.1078
 8363SOL     OW36547   3.375   3.457   0.481 -0.2419  0.4320  0.2487
 8363SOL    HW136548   3.360   3.484   0.391 -2.6778 -0.7888  0.2943
 8363SOL    HW236549   3.301   3.487   0.534  0.2644  1.3612  0.4291
 8364SOL     OW36550   3.297   3.144   6.102  0.5149  0.0802  0.1360
 8364SOL    HW136551   3.335   3.231   6.091  0.8807 -0.2561 -1.3254
 8364SOL    HW236552   3.273   3.141   6.194  0.6137  2.7626  0.2297
 8365SOL     OW36553   0.508   1.190   3.074 -0.3190 -0.1668  0.5914
 8365SOL    HW136554   0.513   1.238   3.157  0.2763 -0.1838  0.5609
 8365SOL    HW236555   0.533   1.100   3.095  0.8750  0.0490  0.1078
 8366SOL     OW36556   0.354   3.333   8.141  0.4574  0.5777 -0.0227
 8366SOL    HW136557   0.315   3.353   8.226 -0.7623 -1.6948 -0.0492
 8366SOL    HW236558   0.393   3.415   8.109 -1.2694  1.2613 -0.3853
 8367SOL     OW36559   3.798   2.709   9.025  0.3707 -0.3226  0.2871
 8367SOL    HW136560   3.818   2.741   9.113  0.2080 -0.0631  0.2299
 8367SOL    HW236561   3.805   2.614   9.033  0.9659 -0.2652  0.5151
 8368SOL     OW36562   3.286   1.877   7.311  0.3331 -0.4925 -0.5176
 8368SOL    HW136563   3.272   1.970   7.294  0.6445 -0.3474  0.0328
 8368SOL    HW236564   3.370   1.881   7.357  1.0135 -1.1095 -1.7133
 8369SOL     OW36565   1.469   4.420  13.993  0.2204  0.3364 -0.4330
 8369SOL    HW136566   1.414   4.498  14.004  0.0424  0.0800  0.4632
 8369SOL    HW236567   1.415   4.356  14.039  1.0595  0.1913  0.3388
 8370SOL     OW36568   2.493   1.675   7.938 -0.1820 -0.3596  0.2366
 8370SOL    HW136569   2.556   1.675   8.011 -0.5570  0.8337  0.5523
 8370SOL    HW236570   2.517   1.756   7.893 -0.3779 -0.0331  0.7166
 8371SOL     OW36571   1.116   2.514  15.861 -0.0952  0.7616  0.0971
 8371SOL    HW136572   1.098   2.524  15.768 -0.1191  1.2368  0.1545
 8371SOL    HW236573   1.138   2.421  15.871 -0.3791  0.6417 -0.3902
 8372SOL     OW36574   3.319   3.474  15.193 -0.0864 -0.0328  0.2748
 8372SOL    HW136575   3.356   3.394  15.156 -0.0278  0.4731 -0.7873
 8372SOL    HW236576   3.290   3.522  15.115 -2.8384 -0.9862  0.7093
 8373SOL     OW36577   0.112   2.669  13.053 -0.2092 -0.2088  0.1473
 8373SOL    HW136578   0.034   2.684  13.000 -0.9003 -0.5451  1.0603
 8373SOL    HW236579   0.176   2.643  12.986 -1.5434  0.5184 -1.3943
 8374SOL     OW36580   1.730   2.872   5.912 -0.3619 -0.0660  0.2676
 8374SOL    HW136581   1.771   2.817   5.979 -0.0533  0.8371  0.8168
 8374SOL    HW236582   1.709   2.948   5.965 -1.0174 -0.0272 -0.0531
 8375SOL     OW36583   4.609   4.400   7.345  0.4604  0.1260 -0.4014
 8375SOL    HW136584   4.583   4.311   7.323  1.1633 -0.5069  1.3024
 8375SOL    HW236585   4.565   4.402   7.430 -0.2358 -0.3065 -0.7578
 8376SOL     OW36586   1.073   0.163  15.537 -0.1997 -0.2289  0.1022
 8376SOL    HW136587   1.063   0.219  15.615 -0.6085  0.1447 -0.2167
 8376SOL    HW236588   1.018   0.211  15.476 -0.4976  0.3281  0.7996
 8377SOL     OW36589   4.143   4.566   3.350  0.2923 -0.1079  0.3461
 8377SOL    HW136590   4.207   4.498   3.330 -1.2153 -1.6866  0.9293
 8377SOL    HW236591   4.200   4.643   3.348  1.4236 -0.9820 -1.0832
 8378SOL     OW36592   2.022   3.192   3.583  0.5413  0.3211  0.4145
 8378SOL    HW136593   1.947   3.251   3.591  1.0866  1.4109 -2.2838
 8378SOL    HW236594   1.975   3.122   3.538 -1.4073  2.0343 -0.2368
 8379SOL     OW36595   1.487   4.712  11.808  0.4344 -0.5434  0.4955
 8379SOL    HW136596   1.422   4.641  11.806 -0.2415  0.1861 -2.3516
 8379SOL    HW236597   1.434   0.046  11.864 -0.2657 -0.0102 -0.7091
 8380SOL     OW36598   3.861   3.286   1.789 -0.2987  0.1138  0.0320
 8380SOL    HW136599   3.848   3.210   1.732  1.4514  0.1512 -0.4237
 8380SOL    HW236600   3.892   3.342   1.717 -0.3134 -1.2331 -1.0361
 8381SOL     OW36601   3.700   1.305   3.787  0.2506 -0.4941 -0.0203
 8381SOL    HW136602   3.672   1.217   3.761 -0.0817 -0.4247  0.1040
 8381SOL    HW236603   3.618   1.353   3.779 -0.0387 -0.5114  2.5991
 8382SOL     OW36604   2.002   3.297   1.069  0.3447 -0.3983 -0.2893
 8382SOL    HW136605   1.946   3.342   1.132 -1.2304  1.0072 -2.6668
 8382SOL    HW236606   2.071   3.363   1.067  0.8686 -0.9001  1.9703
 8383SOL     OW36607   3.847   1.113  17.570  0.8190  0.3902 -0.4417
 8383SOL    HW136608   3.908   1.039  17.561  1.8649  1.1693  0.2889
 8383SOL    HW236609   3.905   1.184  17.598  1.6103  0.7237 -2.9976
 8384SOL     OW36610   3.666   1.312   8.812 -0.1309  0.0132 -0.0297
 8384SOL    HW136611   3.586   1.364   8.801  0.1856  0.3888 -0.5990
 8384SOL    HW236612   3.661   1.247   8.742  1.4597 -1.3019  1.0974
 8385SOL     OW36613   1.383   0.171   0.961  0.0582  0.2932 -0.2667
 8385SOL    HW136614   1.359   0.089   0.917  0.8254  1.2755 -2.4788
 8385SOL    HW236615   1.476   0.178   0.939  0.4965  1.0219  1.7578
 8386SOL     OW36616   4.114   4.418   6.612 -0.4890  0.3330  0.6062
 8386SOL    HW136617   4.035   4.380   6.650 -0.1944 -2.3448 -1.4990
 8386SOL    HW236618   4.082   4.501   6.576  1.8353  1.2161  0.5546
 8387SOL     OW36619   3.257   1.330   8.100  0.2676  0.7687  0.6865
 8387SOL    HW136620   3.280   1.252   8.150 -3.1441  0.4471  1.7290
 8387SOL    HW236621   3.209   1.290   8.028  3.0296  1.9922 -1.8278
 8388SOL     OW36622   2.958   0.262   3.817  0.3305  0.3286  0.1878
 8388SOL    HW136623   2.935   0.338   3.870 -0.4084  1.0504 -1.1522
 8388SOL    HW236624   3.048   0.240   3.839  0.7404  1.3999 -0.4370
 8389SOL     OW36625   1.234   2.032  15.928 -0.0721  0.1858  0.3148
 8389SOL    HW136626   1.174   1.958  15.940  0.4764 -0.5089 -1.2942
 8389SOL    HW236627   1.322   1.993  15.928 -0.6023 -1.0072 -2.7956
 8390SOL     OW36628   0.266   4.073   4.154  0.1421 -0.3181  0.1087
 8390SOL    HW136629   0.198   4.020   4.114 -0.1562  1.6233 -1.9861
 8390SOL    HW236630   0.294   4.028   4.233 -1.4696 -0.2149  0.7389
 8391SOL     OW36631   2.465   3.001   7.703 -0.4986 -0.1551  0.1427
 8391SOL    HW136632   2.485   3.030   7.792 -3.2975 -0.7364  0.9699
 8391SOL    HW236633   2.541   3.029   7.653 -2.0018 -1.9349 -3.1418
 8392SOL     OW36634   3.271   0.864   1.163 -0.1358 -0.2769  0.3274
 8392SOL    HW136635   3.182   0.878   1.195  0.8897  0.9225  2.6175
 8392SOL    HW236636   3.298   0.798   1.227 -1.1858 -3.0974 -2.1535
 8393SOL     OW36637   3.758   2.180   8.956  0.1308  0.2359  0.7627
 8393SOL    HW136638   3.821   2.110   8.938  1.0303  1.0653  0.6820
 8393SOL    HW236639   3.687   2.134   9.000 -0.6361  0.4002 -0.3060
 8394SOL     OW36640   0.395   4.136   1.893 -0.0024 -0.3873 -0.2971
 8394SOL    HW136641   0.466   4.111   1.834 -0.4775  0.1060 -1.0681
 8394SOL    HW236642   0.461   4.148   1.962  2.0447  0.5871 -2.4356
 8395SOL     OW36643   0.285   1.928   6.378 -0.1209  0.6264  0.6357
 8395SOL    HW136644   0.208   1.956   6.427 -1.2506 -2.0165  0.3521
 8395SOL    HW236645   0.316   2.010   6.340  0.4757 -0.1946 -0.6407
 8396SOL     OW36646   2.973   1.336   0.208 -0.2351  0.2311 -0.1314
 8396SOL    HW136647   2.920   1.264   0.244  2.4836 -1.3737  0.6350
 8396SOL    HW236648   2.972   1.390   0.287 -0.0378  0.3164 -0.1877
 8397SOL     OW36649   0.190   3.103   3.309  0.2315 -0.1840  0.3064
 8397SOL    HW136650   0.117   3.159   3.286  0.2707 -0.1721  0.2089
 8397SOL    HW236651   0.157   3.039   3.372 -0.5961  1.7817  1.8451
 8398SOL     OW36652   3.231   4.645   3.091 -0.3417 -0.1194  0.1615
 8398SOL    HW136653   3.272   4.625   3.175 -2.5792 -0.6657  1.1157
 8398SOL    HW236654   3.152   4.697   3.106 -1.8080 -1.9385 -1.1791
 8399SOL     OW36655   3.551   1.954   8.545  0.4939  0.4446 -0.1881
 8399SOL    HW136656   3.496   1.957   8.623  0.1962 -2.3587 -0.2911
 8399SOL    HW236657   3.578   1.863   8.551  0.9676  0.6152  0.2976
 8400SOL     OW36658   1.032   2.738   3.665  0.2066 -0.0112  0.1357
 8400SOL    HW136659   1.118   2.761   3.699  0.0211 -3.1361  2.7119
 8400SOL    HW236660   0.980   2.782   3.732 -0.6449  0.4628 -0.8318
 8401SOL     OW36661   0.798   0.867   2.812  0.2881 -0.1091  0.6509
 8401SOL    HW136662   0.789   0.793   2.872  0.2172 -1.0445 -0.5050
 8401SOL    HW236663   0.704   0.885   2.812  0.6088  1.6162  0.2244
 8402SOL     OW36664   3.554   2.870   1.871 -0.1817 -0.1896  0.6929
 8402SOL    HW136665   3.480   2.927   1.894 -1.2007 -1.0779 -0.3599
 8402SOL    HW236666   3.572   2.903   1.783 -1.2104 -0.1314  0.5021
 8403SOL     OW36667   0.265   0.202  15.683 -0.3891 -0.3131 -0.0513
 8403SOL    HW136668   0.295   0.280  15.730  0.2969 -0.5868 -0.0325
 8403SOL    HW236669   0.230   0.240  15.603 -0.6639 -0.3812  0.0395
 8404SOL     OW36670   3.942   2.436  12.195 -0.1177  0.9326 -0.6706
 8404SOL    HW136671   4.034   2.442  12.223 -0.7448  0.7561  1.4769
 8404SOL    HW236672   3.926   2.346  12.167  0.5787  0.5678  0.1066
 8405SOL     OW36673   3.372   3.239  17.536 -0.2811 -0.4418 -0.2425
 8405SOL    HW136674   3.393   3.244  17.443 -1.5743 -1.7503 -0.6044
 8405SOL    HW236675   3.420   3.160  17.560  0.2314 -0.0009  0.1804
 8406SOL     OW36676   4.501   0.673  11.212  0.4292  0.2381  0.0233
 8406SOL    HW136677   4.495   0.701  11.121  0.8477 -0.6906 -0.2923
 8406SOL    HW236678   4.407   0.675  11.229  0.2239 -1.6722 -0.9181
 8407SOL     OW36679   1.893   0.327   2.777  0.3404  0.3726 -0.3545
 8407SOL    HW136680   1.936   0.351   2.695  2.0029  0.6497  0.6005
 8407SOL    HW236681   1.933   0.392   2.835  0.6243  1.4970 -1.8274
 8408SOL     OW36682   3.968   0.667   2.592  0.0524 -0.1199 -0.3676
 8408SOL    HW136683   4.028   0.706   2.528  0.4961  3.8292  2.4975
 8408SOL    HW236684   3.996   0.575   2.592  0.3707 -0.0228 -0.3767
 8409SOL     OW36685   3.136   3.161  15.151  0.3054  0.1403  0.1703
 8409SOL    HW136686   3.046   3.190  15.138  0.1268 -0.7239 -0.5216
 8409SOL    HW236687   3.168   3.174  15.061 -0.1862  1.0460  0.1280
 8410SOL     OW36688   1.857   1.351   2.604  0.0714 -0.0329 -0.6021
 8410SOL    HW136689   1.910   1.409   2.549  0.2826 -0.4115 -0.7940
 8410SOL    HW236690   1.858   1.266   2.561  1.1391 -0.9134  1.1389
 8411SOL     OW36691   2.970   3.320   1.082 -0.1821 -0.1585  0.2622
 8411SOL    HW136692   3.011   3.244   1.042  0.4636  0.1391  0.3481
 8411SOL    HW236693   2.888   3.285   1.116  1.3626 -1.4222  2.6661
 8412SOL     OW36694   0.994   0.791  10.196 -0.1417 -0.0914  0.2971
 8412SOL    HW136695   1.012   0.845  10.273  0.0774 -0.2165  0.3340
 8412SOL    HW236696   1.075   0.740  10.193 -0.0540  0.0062  1.1001
 8413SOL     OW36697   3.586   0.036   6.605 -0.2252 -0.1757 -0.3528
 8413SOL    HW136698   3.497   0.067   6.622 -0.5657 -0.3686 -1.7714
 8413SOL    HW236699   3.558   4.675   6.569 -0.3328  0.1536 -1.0308
 8414SOL     OW36700   1.252   1.472  16.990 -0.2802 -0.3950 -0.0414
 8414SOL    HW136701   1.342   1.441  16.989 -0.9908 -2.3987 -0.7814
 8414SOL    HW236702   1.230   1.477  16.897 -2.6371 -0.7359  0.4949
 8415SOL     OW36703   1.265   2.108   6.782  0.0079  0.3705  0.4121
 8415SOL    HW136704   1.305   2.096   6.868  0.0180  0.2238  0.3871
 8415SOL    HW236705   1.174   2.105   6.809  0.5335  0.2349  2.1672
 8416SOL     OW36706   2.970   4.246   2.973 -0.4503  0.7997 -0.1165
 8416SOL    HW136707   2.984   4.215   2.883 -0.2943  1.3302 -0.2787
 8416SOL    HW236708   2.876   4.256   2.979 -0.6486 -0.4623 -1.0620
 8417SOL     OW36709   2.103   1.190   3.604 -0.1348 -0.3413 -0.1694
 8417SOL    HW136710   2.110   1.132   3.681  2.1127  1.5335  1.0292
 8417SOL    HW236711   2.035   1.252   3.632  0.9786  1.1542 -0.8226
 8418SOL     OW36712   2.939   2.894   5.193 -0.0738  0.0943 -0.4826
 8418SOL    HW136713   2.929   2.926   5.103  0.6899  0.0758 -0.5687
 8418SOL    HW236714   3.028   2.860   5.193 -0.6165 -1.3551  0.9572
 8419SOL     OW36715   0.801   2.651   3.341  0.5121  0.2967 -0.5569
 8419SOL    HW136716   0.769   2.572   3.385  0.9581  0.5867  0.2908
 8419SOL    HW236717   0.835   2.608   3.262  0.1953 -0.3247 -0.3587
 8420SOL     OW36718   4.390   3.549   2.408  0.4101 -0.1280  0.1557
 8420SOL    HW136719   4.329   3.486   2.447  1.0564 -0.9501 -0.1801
 8420SOL    HW236720   4.476   3.511   2.393  1.1591  0.5123  2.7918
 8421SOL     OW36721   1.142   2.334  15.180  0.6718 -0.5511 -0.3409
 8421SOL    HW136722   1.182   2.419  15.164  1.2522 -0.1861  3.1342
 8421SOL    HW236723   1.207   2.270  15.149 -0.2949 -1.7351  0.0838
 8422SOL     OW36724   4.254   0.941   5.761  0.0016  0.3563  0.9578
 8422SOL    HW136725   4.262   0.846   5.761  2.1961  0.5440 -0.9974
 8422SOL    HW236726   4.345   0.954   5.788 -0.2885  0.1861  2.0241
 8423SOL     OW36727   3.013   3.497   6.854 -0.0743  0.6627 -0.5552
 8423SOL    HW136728   2.954   3.572   6.867 -0.8349 -0.4901  2.7853
 8423SOL    HW236729   3.096   3.530   6.889 -0.2676  0.3887  0.1774
 8424SOL     OW36730   3.984   1.127   6.277 -0.0979 -0.1538  0.3205
 8424SOL    HW136731   3.923   1.194   6.306  1.8294  1.1220  1.4013
 8424SOL    HW236732   3.929   1.052   6.300 -0.6314 -0.1378 -0.8729
 8425SOL     OW36733   0.300   2.347  12.775 -0.0793 -0.3950 -0.0764
 8425SOL    HW136734   0.237   2.420  12.770  1.2849  0.6524 -1.9733
 8425SOL    HW236735   0.237   2.275  12.766  0.2073 -0.5517 -0.7955
 8426SOL     OW36736   4.011   4.280   3.008 -0.1109 -0.1229 -0.2420
 8426SOL    HW136737   3.942   4.231   2.964  0.5879 -0.1933 -1.2693
 8426SOL    HW236738   3.990   4.357   2.954 -1.3394 -1.3806 -1.5587
 8427SOL     OW36739   2.526   0.569   6.675  0.1754 -0.4479  0.0933
 8427SOL    HW136740   2.612   0.593   6.709  0.2200 -0.1840 -0.2045
 8427SOL    HW236741   2.517   0.603   6.586 -0.5560  0.0095  0.3397
 8428SOL     OW36742   0.405   0.079  14.223  0.0662 -0.3152 -0.0399
 8428SOL    HW136743   0.469   0.049  14.159  0.4626  1.5938 -0.5316
 8428SOL    HW236744   0.357   0.135  14.162 -0.9798 -0.6362  0.4770
 8429SOL     OW36745   3.848   1.697  10.782  0.4010 -0.3335 -0.4659
 8429SOL    HW136746   3.804   1.778  10.806 -1.1067 -1.8322  1.9208
 8429SOL    HW236747   3.815   1.646  10.856  4.4351  0.0100  1.6164
 8430SOL     OW36748   1.302   3.810   0.261  0.3459  0.1094 -0.1949
 8430SOL    HW136749   1.288   3.865   0.184  0.7824  1.7035  0.8520
 8430SOL    HW236750   1.281   3.875   0.328  1.5759 -0.3262  0.6216
 8431SOL     OW36751   3.747   2.050   6.890 -0.7512  0.5390 -0.3002
 8431SOL    HW136752   3.692   1.994   6.835 -1.4326 -1.9279  2.9035
 8431SOL    HW236753   3.785   2.099   6.817 -1.4108  1.0227 -0.3150
 8432SOL     OW36754   1.875   0.764   2.991  0.1734  0.1648  0.1305
 8432SOL    HW136755   1.870   0.709   3.069  0.7402  0.1877  0.1840
 8432SOL    HW236756   1.829   0.702   2.934  0.6657 -1.8139  1.9042
 8433SOL     OW36757   1.768   3.160   9.815  0.6853  0.3146  0.3812
 8433SOL    HW136758   1.737   3.143   9.726  1.6062 -2.3157  0.5802
 8433SOL    HW236759   1.775   3.256   9.814  0.3771  0.3216 -1.9029
 8434SOL     OW36760   0.565   4.299  16.461  0.0026  0.4967  0.4951
 8434SOL    HW136761   0.644   4.350  16.480 -0.5407  0.6603  2.2506
 8434SOL    HW236762   0.606   4.213  16.450  0.9783  0.6791  2.8372
 8435SOL     OW36763   0.989   4.321   6.557  0.0725  0.5518  0.2135
 8435SOL    HW136764   1.040   4.374   6.495  1.5573 -0.3451  0.6822
 8435SOL    HW236765   0.970   4.249   6.498 -1.9992  1.9802 -0.8683
 8436SOL     OW36766   3.796   0.549   8.117 -0.1188 -0.7974  0.7031
 8436SOL    HW136767   3.773   0.529   8.027  1.5771 -1.1410  0.3479
 8436SOL    HW236768   3.861   0.614   8.090 -1.4392  0.2479  0.0769
 8437SOL     OW36769   1.482   0.081   8.329  0.1803  0.1733  0.1319
 8437SOL    HW136770   1.400   0.089   8.377 -0.6760 -0.0272 -1.3002
 8437SOL    HW236771   1.466   0.011   8.266  0.1387 -1.9132  2.4608
 8438SOL     OW36772   3.379   2.202   8.955  0.1503  0.2089 -0.4604
 8438SOL    HW136773   3.376   2.229   9.047  2.4434 -2.0601  0.3063
 8438SOL    HW236774   3.411   2.113   8.971  0.4918  0.3224 -0.5203
 8439SOL     OW36775   1.388   4.503   2.595 -0.4549  0.5776  0.1476
 8439SOL    HW136776   1.310   4.547   2.628 -0.0872  0.3177  1.3343
 8439SOL    HW236777   1.382   4.528   2.502  1.7978 -0.6960 -0.3272
 8440SOL     OW36778   1.256   3.768   6.901 -0.2415 -0.4010 -0.0665
 8440SOL    HW136779   1.279   3.780   6.993 -0.0721 -0.8676 -0.0484
 8440SOL    HW236780   1.174   3.818   6.904  0.6223  1.0201 -0.0949
 8441SOL     OW36781   0.357   2.746   2.932 -0.1179 -0.2197  0.2005
 8441SOL    HW136782   0.395   2.753   3.019 -0.1746 -0.3608  0.2368
 8441SOL    HW236783   0.294   2.817   2.942  0.4117  0.6118 -2.2036
 8442SOL     OW36784   4.311   4.583   4.656  0.2230 -0.1045  0.2788
 8442SOL    HW136785   4.303   4.494   4.622 -1.4062 -0.1124  0.6759
 8442SOL    HW236786   4.346   4.625   4.578 -0.5461  0.0689  0.0354
 8443SOL     OW36787   3.007   0.916   7.257  0.4539  0.0096 -0.4027
 8443SOL    HW136788   3.006   0.870   7.341  0.5202  0.5241 -0.1207
 8443SOL    HW236789   2.913   0.919   7.239  0.4595  1.8094 -0.1621
 8444SOL     OW36790   1.359   4.168   3.630  0.0210 -0.2682 -0.2701
 8444SOL    HW136791   1.361   4.255   3.671 -0.8835  0.2254 -1.2825
 8444SOL    HW236792   1.426   4.183   3.564  1.8304  1.1532  1.8886
 8445SOL     OW36793   4.218   2.535   0.535 -0.7203 -0.2662 -0.6124
 8445SOL    HW136794   4.190   2.579   0.616 -1.7728 -1.7090 -0.1833
 8445SOL    HW236795   4.166   2.454   0.544 -0.5339 -0.4345 -1.0844
 8446SOL     OW36796   1.611   3.674  12.023  0.0275 -0.0938 -0.4312
 8446SOL    HW136797   1.600   3.587  11.985 -0.7906 -0.7456  1.3036
 8446SOL    HW236798   1.582   3.725  11.947  1.0200 -0.8638 -1.3261
 8447SOL     OW36799   3.953   0.313   6.213 -0.0544  0.2008  0.1309
 8447SOL    HW136800   3.864   0.297   6.244  0.3944  0.2219  1.4342
 8447SOL    HW236801   3.997   0.229   6.221 -1.2021 -0.3263  0.7602
 8448SOL     OW36802   3.167   1.193   3.267 -0.0284 -0.0051 -0.3810
 8448SOL    HW136803   3.115   1.273   3.259 -1.3642 -1.0561 -2.2426
 8448SOL    HW236804   3.238   1.231   3.319 -1.2248 -0.9984  1.9290
 8449SOL     OW36805   1.716   4.233   4.929  0.6013 -0.0102  0.2405
 8449SOL    HW136806   1.782   4.164   4.933  1.0353  0.4514  1.1879
 8449SOL    HW236807   1.747   4.276   4.849  0.3946 -1.2089 -0.4913
 8450SOL     OW36808   1.706   1.822   1.668 -0.1682 -0.6982 -0.2460
 8450SOL    HW136809   1.621   1.779   1.651 -1.3326  1.8626 -0.8784
 8450SOL    HW236810   1.761   1.763   1.615 -0.7700  0.1635 -1.8352
 8451SOL     OW36811   3.005   1.692  15.801  0.4938 -0.4855 -0.0949
 8451SOL    HW136812   3.069   1.740  15.854 -0.5614 -2.0793  2.6027
 8451SOL    HW236813   2.978   1.748  15.728 -3.2414 -0.1731  1.5362
 8452SOL     OW36814   2.657   3.576   3.241  0.4986  0.2049 -0.1084
 8452SOL    HW136815   2.700   3.576   3.327  1.6229  0.5898 -0.6676
 8452SOL    HW236816   2.563   3.568   3.256  0.5799 -0.1594  0.1969
 8453SOL     OW36817   1.625   0.910   9.758 -0.3624 -0.2245  0.2692
 8453SOL    HW136818   1.675   0.920   9.839  0.7063  1.0715 -0.5485
 8453SOL    HW236819   1.664   0.974   9.699  2.5832 -1.2996  1.0541
 8454SOL     OW36820   4.487   3.259   8.148 -0.2195  0.1291  0.7349
 8454SOL    HW136821   4.492   3.194   8.078 -1.6803 -1.8602  2.4721
 8454SOL    HW236822   4.408   3.234   8.195 -0.4161  0.8938  0.8151
 8455SOL     OW36823   3.855   1.924   0.698  0.3372 -0.0481 -0.6146
 8455SOL    HW136824   3.808   1.890   0.775 -0.2011 -0.1494 -0.9864
 8455SOL    HW236825   3.917   1.853   0.683 -1.3683 -1.2532 -1.9652
 8456SOL     OW36826   4.183   1.321   6.257 -0.5130  0.6422  0.2014
 8456SOL    HW136827   4.252   1.271   6.212 -1.6082 -0.4517 -0.2535
 8456SOL    HW236828   4.107   1.264   6.251 -1.2788  1.6919 -0.0518
 8457SOL     OW36829   1.234   4.078   0.148  0.2750 -0.6611 -0.8977
 8457SOL    HW136830   1.147   4.057   0.182  0.8976 -0.7710  0.6258
 8457SOL    HW236831   1.221   4.171   0.127  1.5098 -0.6989 -1.8303
 8458SOL     OW36832   0.599   0.314   2.890 -0.0265 -0.5330  0.1577
 8458SOL    HW136833   0.617   0.282   2.979  1.8960  1.7535  0.5953
 8458SOL    HW236834   0.587   0.230   2.844 -0.3076 -0.6293  0.4097
 8459SOL     OW36835   2.789   2.499   5.623  0.4635 -0.3211  0.2223
 8459SOL    HW136836   2.800   2.404   5.622  1.6400 -0.2249  3.6497
 8459SOL    HW236837   2.813   2.523   5.534 -0.5964 -0.0393  0.0159
 8460SOL     OW36838   4.132   2.568   2.558  0.5430 -0.5129  0.1177
 8460SOL    HW136839   4.077   2.645   2.552  0.6813 -0.6814 -3.2241
 8460SOL    HW236840   4.203   2.601   2.613  0.6604 -3.9395  2.0156
 8461SOL     OW36841   1.975   2.707   6.257 -0.5642  0.2311  0.0376
 8461SOL    HW136842   1.881   2.717   6.241 -0.6478 -1.1609 -0.3474
 8461SOL    HW236843   1.981   2.734   6.349  1.0370 -0.1357  0.0412
 8462SOL     OW36844   3.592   1.806   1.711  0.1156 -0.0335  0.5907
 8462SOL    HW136845   3.546   1.828   1.631  0.2136  1.1460  0.8583
 8462SOL    HW236846   3.648   1.882   1.725 -0.3348  0.6509 -1.3143
 8463SOL     OW36847   1.170   3.298   6.641  0.1907 -0.1416  0.0244
 8463SOL    HW136848   1.087   3.310   6.595 -0.7634 -0.0110  1.8059
 8463SOL    HW236849   1.188   3.381   6.685 -1.0424  0.7351 -1.1139
 8464SOL     OW36850   3.272   3.852   5.656  0.4611 -0.1030  0.6908
 8464SOL    HW136851   3.299   3.865   5.747  0.1555  0.8617  0.6472
 8464SOL    HW236852   3.346   3.810   5.613  2.6799 -0.0149  4.4186
 8465SOL     OW36853   1.888   1.168  15.105  0.7327  0.4054 -0.2138
 8465SOL    HW136854   1.893   1.086  15.154 -0.9097  0.1112 -0.5315
 8465SOL    HW236855   1.978   1.179  15.074  0.3363 -0.1934 -1.5935
 8466SOL     OW36856   2.218   4.204   8.035  0.7678 -0.0717 -0.0761
 8466SOL    HW136857   2.125   4.190   8.018  0.8005 -1.6279  0.9957
 8466SOL    HW236858   2.206   4.299   8.032  1.0901 -0.0360 -0.2179
 8467SOL     OW36859   1.633   2.737  16.450 -0.3479  0.2245  0.1646
 8467SOL    HW136860   1.584   2.711  16.372 -1.5735 -0.1336  1.0514
 8467SOL    HW236861   1.716   2.690  16.441 -0.3163 -0.1013  2.1952
 8468SOL     OW36862   3.261   0.149   6.331 -0.4619 -0.0402  0.0596
 8468SOL    HW136863   3.317   0.216   6.370  0.7132 -1.1889  0.3477
 8468SOL    HW236864   3.184   0.169   6.385  0.4369 -0.2642  1.4353
 8469SOL     OW36865   1.617   4.367   2.246 -0.1219 -0.4449  0.1537
 8469SOL    HW136866   1.634   4.273   2.248 -0.7175 -0.5210  1.4629
 8469SOL    HW236867   1.703   4.407   2.232  0.0776 -1.5005 -1.6250
 8470SOL     OW36868   2.249   0.510   3.796  1.0813 -0.8585 -0.3599
 8470SOL    HW136869   2.223   0.445   3.860  0.3139  1.5747  1.7865
 8470SOL    HW236870   2.336   0.473   3.783  1.2087 -0.4840 -0.5566
 8471SOL     OW36871   4.312   3.471   8.055 -0.0277 -0.6335  0.3157
 8471SOL    HW136872   4.242   3.445   8.114  1.6316  0.3275  2.7196
 8471SOL    HW236873   4.384   3.420   8.092  0.3651 -1.1025 -1.1208
 8472SOL     OW36874   3.504   1.983   6.259 -0.4211  0.1387  0.3510
 8472SOL    HW136875   3.482   1.899   6.218 -0.5020  0.4222 -0.1817
 8472SOL    HW236876   3.472   2.038   6.188 -2.2515 -0.4356  0.7229
 8473SOL     OW36877   1.730   1.070  17.089 -0.1662  0.3686  0.0160
 8473SOL    HW136878   1.783   0.995  17.118 -0.7506  0.3300  0.9864
 8473SOL    HW236879   1.717   1.042  16.998 -3.2177 -0.0517  0.5816
 8474SOL     OW36880   0.722   0.875   8.811  0.3631  0.3498  0.1211
 8474SOL    HW136881   0.750   0.944   8.751  2.1696 -0.7163 -0.2384
 8474SOL    HW236882   0.698   0.801   8.755 -1.3771  1.7331 -1.0082
 8475SOL     OW36883   0.488   4.599   0.628 -0.1143  0.1279  0.2356
 8475SOL    HW136884   0.393   4.595   0.617 -0.1760  1.0926  0.4340
 8475SOL    HW236885   0.509   4.514   0.589 -0.2397 -0.0034  0.4517
 8476SOL     OW36886   4.551   2.908   1.601  0.2112  0.3812  0.9451
 8476SOL    HW136887   4.615   2.837   1.608 -0.0977  0.1047  0.9623
 8476SOL    HW236888   4.559   2.942   1.512 -0.2896  0.7658  1.0452
 8477SOL     OW36889   2.128   1.085   5.701 -0.2876  0.0427  0.6941
 8477SOL    HW136890   2.106   1.060   5.790  0.4684  1.1408  1.1890
 8477SOL    HW236891   2.120   1.002   5.654 -1.5669  1.6135 -1.9127
 8478SOL     OW36892   4.470   1.019   9.460  0.1575 -0.0267 -0.1665
 8478SOL    HW136893   4.421   1.011   9.542  1.3828  0.1105  0.5807
 8478SOL    HW236894   4.549   1.067   9.485 -1.3274  2.3800 -0.0551
 8479SOL     OW36895   3.902   1.733   5.210  0.1500  0.0583 -0.1015
 8479SOL    HW136896   3.832   1.670   5.225  1.0479 -1.0081 -0.3652
 8479SOL    HW236897   3.851   1.801   5.168 -0.7518 -2.1032 -2.5104
 8480SOL     OW36898   0.153   4.569   6.995  0.0730 -0.0858 -0.0630
 8480SOL    HW136899   0.142   4.655   6.953  0.6761  0.0562  0.0619
 8480SOL    HW236900   0.131   4.590   7.086  0.4655  3.3452 -0.7442
 8481SOL     OW36901   0.348   2.053   4.349 -0.3884 -0.4483  0.1453
 8481SOL    HW136902   0.315   2.137   4.317  0.4239 -0.0187  0.4353
 8481SOL    HW236903   0.405   2.024   4.278  0.3866 -0.2088  0.6719
 8482SOL     OW36904   4.528   1.537   1.920 -0.5271 -0.1004 -0.0984
 8482SOL    HW136905   4.574   1.465   1.877 -0.3211  0.4563 -0.8128
 8482SOL    HW236906   4.453   1.561   1.865  0.4382 -0.0340 -1.3727
 8483SOL     OW36907   0.585   2.284   4.563 -0.4108 -0.0311 -0.1241
 8483SOL    HW136908   0.504   2.281   4.512  0.3709  2.5144 -1.5116
 8483SOL    HW236909   0.636   2.238   4.496  0.9155  2.5232 -0.8426
 8484SOL     OW36910   4.285   2.171  13.846  0.0266 -0.7786 -0.5150
 8484SOL    HW136911   4.293   2.262  13.819 -0.8271  0.1246  2.2970
 8484SOL    HW236912   4.261   2.186  13.938  3.7118 -0.4503  0.3814
 8485SOL     OW36913   3.786   1.402  10.884 -0.5882 -0.3541  0.4736
 8485SOL    HW136914   3.765   1.317  10.923 -2.8083  0.2605  0.5977
 8485SOL    HW236915   3.870   1.415  10.928 -0.0844 -0.5545 -0.4246
 8486SOL     OW36916   3.310   3.544   2.269 -0.2271  0.0787 -0.2253
 8486SOL    HW136917   3.325   3.450   2.273 -2.3438 -0.3674 -2.1583
 8486SOL    HW236918   3.359   3.573   2.345  0.5227  0.1900 -0.7506
 8487SOL     OW36919   3.551   0.850   0.728  0.0314 -0.3075 -0.0465
 8487SOL    HW136920   3.459   0.854   0.751 -0.1103  1.2236 -0.8742
 8487SOL    HW236921   3.593   0.786   0.786 -0.0877  0.2892  0.6956
 8488SOL     OW36922   1.423   3.128   4.930  0.4403 -0.0412 -0.0814
 8488SOL    HW136923   1.475   3.150   5.008  0.3715  0.1274 -0.0846
 8488SOL    HW236924   1.468   3.183   4.866  1.2437 -2.3969 -1.5536
 8489SOL     OW36925   0.313   0.712   7.732  0.9275  0.3225 -0.3975
 8489SOL    HW136926   0.271   0.757   7.806 -0.6214  1.0137 -1.7061
 8489SOL    HW236927   0.345   0.785   7.678  0.3038  0.8455 -0.0633
 8490SOL     OW36928   2.684   2.727   7.542  0.3534  0.4049  0.3511
 8490SOL    HW136929   2.696   2.715   7.447  0.1803  0.2107  0.3544
 8490SOL    HW236930   2.774   2.743   7.572  0.3516  2.4786 -0.7801
 8491SOL     OW36931   4.475   2.379  14.047 -0.5161 -0.3339 -0.3132
 8491SOL    HW136932   4.515   2.408  14.129 -0.6823 -1.8728  0.2985
 8491SOL    HW236933   4.511   2.291  14.058  0.3667  0.1285  0.4998
 8492SOL     OW36934   3.535   1.607   8.448 -0.1003 -0.0849 -0.2531
 8492SOL    HW136935   3.531   1.527   8.396  0.0085 -2.0925  2.7677
 8492SOL    HW236936   3.447   1.639   8.429 -0.1939 -0.6796 -0.8036
 8493SOL     OW36937   4.340   0.931   5.214  0.3562 -0.0282 -0.2681
 8493SOL    HW136938   4.315   1.019   5.185 -0.5665  0.3312  1.6258
 8493SOL    HW236939   4.425   0.925   5.170 -0.2793 -0.4039 -1.4405
 8494SOL     OW36940   3.294   0.416  14.963 -0.1478 -0.1522 -0.5692
 8494SOL    HW136941   3.199   0.410  14.957 -0.2203  1.8630 -1.4618
 8494SOL    HW236942   3.312   0.396  15.055  0.9736  1.4509 -0.4414
 8495SOL     OW36943   1.454   4.330   5.362 -0.1123 -0.7457 -0.3632
 8495SOL    HW136944   1.386   4.271   5.394 -0.2942 -0.0662  0.5088
 8495SOL    HW236945   1.502   4.281   5.295 -0.9046 -0.2968 -1.2600
 8496SOL     OW36946   2.020   3.455  11.615  0.6434  0.6811 -0.8098
 8496SOL    HW136947   2.054   3.383  11.561  1.0049  0.3680 -0.1583
 8496SOL    HW236948   2.091   3.491  11.668 -0.1050  1.1694 -0.1322
 8497SOL     OW36949   3.124   0.039   9.627  0.2839 -0.2218 -0.4552
 8497SOL    HW136950   3.199   4.704   9.638  0.6831  0.5918  1.1095
 8497SOL    HW236951   3.050   4.713   9.662  0.0454  1.0916  0.9052
 8498SOL     OW36952   3.107   0.609  11.767  0.1313  0.9031  0.0405
 8498SOL    HW136953   3.108   0.694  11.723 -0.4764  1.2589  0.7336
 8498SOL    HW236954   3.159   0.557  11.705  0.2909  2.7875 -1.4020
 8499SOL     OW36955   0.510   0.986   6.200  0.2363 -0.4401  0.3631
 8499SOL    HW136956   0.595   0.975   6.243 -0.0194  0.2684  1.0530
 8499SOL    HW236957   0.462   1.034   6.268  1.4967 -0.4632  1.2866
 8500SOL     OW36958   3.166   4.031  16.334  0.3036 -0.0726 -0.0215
 8500SOL    HW136959   3.105   4.085  16.283 -0.0643 -0.0341  0.4555
 8500SOL    HW236960   3.104   3.963  16.361 -2.0546  2.4739  1.0750
 8501SOL     OW36961   1.259   3.134   2.720 -0.0326 -0.0354 -0.3974
 8501SOL    HW136962   1.286   3.052   2.762  0.1793 -0.1715 -0.7995
 8501SOL    HW236963   1.262   3.197   2.792 -0.4745 -0.7412  0.2500
 8502SOL     OW36964   3.956   4.396  14.157 -0.3286 -0.1109  0.0032
 8502SOL    HW136965   3.940   4.330  14.090 -1.3144 -0.2645  0.3852
 8502SOL    HW236966   4.011   4.335  14.205 -0.7585  0.3644  1.0951
 8503SOL     OW36967   2.311   4.484   6.998  0.3226  0.1088 -0.3460
 8503SOL    HW136968   2.329   4.540   6.923  0.6968  0.4488 -0.0020
 8503SOL    HW236969   2.255   4.413   6.964 -1.2392  1.5493 -0.7791
 8504SOL     OW36970   0.487   4.229   3.730  0.0085  0.0439 -0.5869
 8504SOL    HW136971   0.451   4.167   3.794  0.1903 -0.7442 -1.2589
 8504SOL    HW236972   0.510   4.294   3.796 -0.9372 -0.6132  0.3957
 8505SOL     OW36973   4.338   2.161   7.909 -0.4327  0.2480  0.0463
 8505SOL    HW136974   4.262   2.173   7.966  0.8941  1.9791  1.4745
 8505SOL    HW236975   4.412   2.180   7.967 -0.1330  0.2411 -0.3308
 8506SOL     OW36976   4.031   4.595  13.969  0.3660 -0.4514  0.6063
 8506SOL    HW136977   4.050   4.541  13.892 -1.3443  0.2070 -0.2731
 8506SOL    HW236978   4.005   4.526  14.030 -1.5769  0.9169  1.3339
 8507SOL     OW36979   4.478   0.398   0.481  0.3714  0.1107  0.3261
 8507SOL    HW136980   4.405   0.439   0.528 -0.4038 -3.4306  2.2038
 8507SOL    HW236981   4.547   0.431   0.539  0.2333 -0.3567  0.7601
 8508SOL     OW36982   1.382   3.218  15.987 -0.0496  0.1851 -0.2622
 8508SOL    HW136983   1.403   3.152  16.052  2.1892  0.7671 -0.3840
 8508SOL    HW236984   1.286   3.225  15.987 -0.1087 -0.6809  0.3534
 8509SOL     OW36985   0.227   4.381   3.324 -0.4995 -0.6056 -0.4118
 8509SOL    HW136986   0.292   4.417   3.384  0.1428 -2.1914 -0.1455
 8509SOL    HW236987   0.146   4.390   3.375 -0.1027 -0.0600  0.1191
 8510SOL     OW36988   2.956   1.225   5.178  0.0004 -0.1903  0.2923
 8510SOL    HW136989   3.030   1.171   5.206  0.1968  1.2590  2.5748
 8510SOL    HW236990   2.999   1.274   5.109  1.3339 -3.6280 -1.3266
 8511SOL     OW36991   0.655   1.287   5.288  0.4156 -0.0959  0.0612
 8511SOL    HW136992   0.689   1.232   5.218  2.0869  0.8505  0.1331
 8511SOL    HW236993   0.661   1.226   5.361  0.4213 -2.2962 -1.7839
 8512SOL     OW36994   1.137   2.736   8.481  0.0114 -0.4726  0.3157
 8512SOL    HW136995   1.145   2.803   8.413  0.2624 -0.1563  0.6603
 8512SOL    HW236996   1.215   2.747   8.536 -0.9296 -2.4314  2.0275
 8513SOL     OW36997   0.932   1.680   0.766 -0.3821  0.2276 -0.1542
 8513SOL    HW136998   0.990   1.747   0.732  0.2759  0.7982  2.1057
 8513SOL    HW236999   0.862   1.681   0.701 -3.7332  2.0567  3.4132
 8514SOL     OW37000   4.614   3.717   8.280 -0.3139 -0.3285 -0.2476
 8514SOL    HW137001   4.556   3.690   8.351 -1.1967  0.6972 -0.5809
 8514SOL    HW237002   4.662   3.637   8.259 -2.5876 -2.1054  1.2142
 8515SOL     OW37003   1.576   3.826  15.451 -0.4941 -0.2528 -0.4747
 8515SOL    HW137004   1.607   3.914  15.428 -0.8546  0.2011  0.7749
 8515SOL    HW237005   1.584   3.827  15.546  4.3118 -0.7207 -0.8982
 8516SOL     OW37006   3.939   3.450   3.774  0.0943 -0.3110 -0.3461
 8516SOL    HW137007   4.006   3.384   3.791  2.0358  1.2250 -2.0555
 8516SOL    HW237008   3.965   3.514   3.840  2.8593  1.2230 -2.9234
 8517SOL     OW37009   1.865   4.529   1.112  0.3345  0.5426  0.3920
 8517SOL    HW137010   1.796   4.564   1.056  0.3728 -0.6897 -0.4205
 8517SOL    HW237011   1.884   4.604   1.169 -1.3805 -1.1949  3.2203
 8518SOL     OW37012   1.398   2.778   8.640 -0.5935 -0.1966  0.1675
 8518SOL    HW137013   1.466   2.845   8.633  0.0156 -0.8406 -0.0582
 8518SOL    HW237014   1.387   2.772   8.735 -0.8229  1.5906  0.2404
 8519SOL     OW37015   2.514   0.497  10.377 -0.0860  0.0021  0.1906
 8519SOL    HW137016   2.463   0.553  10.436 -1.4552 -0.7103 -0.3189
 8519SOL    HW237017   2.537   0.562  10.311  2.5047  0.0866  1.1612
 8520SOL     OW37018   4.592   3.635   9.271  0.3938  0.3451 -0.3161
 8520SOL    HW137019   4.654   3.690   9.318  1.5026 -1.9205  0.8881
 8520SOL    HW237020   4.637   3.552   9.254  0.4316 -0.4782  3.6312
 8521SOL     OW37021   3.788   3.175   6.653 -0.0367 -0.0933  0.6609
 8521SOL    HW137022   3.877   3.182   6.690 -0.4464 -1.2848  1.8751
 8521SOL    HW237023   3.760   3.257   6.613  0.3530  1.4954  3.6322
 8522SOL     OW37024   2.238   2.279   1.937  0.2748 -0.1918 -0.0763
 8522SOL    HW137025   2.294   2.211   1.975  1.5791  0.4447 -0.8828
 8522SOL    HW237026   2.171   2.219   1.905  1.7040 -2.3681  0.9888
 8523SOL     OW37027   0.376   2.436   6.020 -0.1557 -0.1786  0.7332
 8523SOL    HW137028   0.392   2.530   6.017  0.5554 -0.2715  1.5189
 8523SOL    HW237029   0.284   2.432   6.045  0.0074  1.3469  1.6183
 8524SOL     OW37030   0.543   2.602   2.791 -0.5921 -0.1638 -0.0582
 8524SOL    HW137031   0.487   2.582   2.717  0.8879 -0.9479 -0.9577
 8524SOL    HW237032   0.476   2.637   2.850  0.7814  1.4146  0.5744
 8525SOL     OW37033   4.646   2.398   3.439 -0.2607  0.1763  0.1177
 8525SOL    HW137034   4.664   2.491   3.455 -1.9280  0.4159  0.7015
 8525SOL    HW237035   4.642   2.365   3.529  1.4291 -1.0715 -0.2759
 8526SOL     OW37036   3.670   3.910   5.116 -0.5203  0.1219  0.1592
 8526SOL    HW137037   3.686   4.004   5.113  0.7089 -0.0777  0.3024
 8526SOL    HW237038   3.699   3.878   5.030 -0.5058 -1.2624  0.6778
 8527SOL     OW37039   2.680   4.169   6.439 -0.1211 -0.2617  0.1479
 8527SOL    HW137040   2.677   4.163   6.535 -1.0228  0.2994  0.1554
 8527SOL    HW237041   2.771   4.142   6.424  0.2834 -0.4129  2.8508
 8528SOL     OW37042   2.799   0.593   6.403  0.1104  0.2075 -0.1668
 8528SOL    HW137043   2.851   0.621   6.478  1.2360 -0.5615 -0.6498
 8528SOL    HW237044   2.713   0.632   6.413  1.0007  1.1758  3.4668
 8529SOL     OW37045   4.427   4.053   7.860 -0.2487  0.0003 -0.8097
 8529SOL    HW137046   4.391   4.030   7.946 -2.3303 -0.8046 -1.8985
 8529SOL    HW237047   4.518   4.064   7.888 -0.7433 -0.0897  0.8793
 8530SOL     OW37048   1.605   2.872   4.244 -0.2838  0.1098  1.1108
 8530SOL    HW137049   1.521   2.834   4.219  0.2691 -0.1903 -0.2701
 8530SOL    HW237050   1.634   2.787   4.278 -2.3278 -1.4643 -1.0851
 8531SOL     OW37051   0.676   0.300   8.283 -0.6499 -0.4773  0.2640
 8531SOL    HW137052   0.592   0.255   8.295 -1.2512  0.5470 -0.0948
 8531SOL    HW237053   0.713   0.254   8.208  1.5202  0.1778  0.9284
 8532SOL     OW37054   1.832   1.988   7.758  0.2419 -0.3920 -1.0951
 8532SOL    HW137055   1.906   2.044   7.736  0.0392  0.8557  1.3612
 8532SOL    HW237056   1.861   1.897   7.749  0.8329 -0.5799  2.5240
 8533SOL     OW37057   4.246   3.710   7.954  0.4704 -0.3488 -0.0942
 8533SOL    HW137058   4.281   3.626   7.986 -0.0858  0.4185  2.5598
 8533SOL    HW237059   4.290   3.763   8.021  0.5460  1.5016 -1.6261
 8534SOL     OW37060   3.351   3.057   1.872 -0.2280  0.2772 -0.4982
 8534SOL    HW137061   3.350   3.142   1.828 -0.2279  1.7930  2.4212
 8534SOL    HW237062   3.269   3.060   1.921  0.1793  3.4231  0.0213
 8535SOL     OW37063   2.919   0.988   6.356 -0.5872 -0.0889 -0.0249
 8535SOL    HW137064   2.965   1.020   6.279 -0.3050  0.3105  0.3147
 8535SOL    HW237065   2.941   1.048   6.426 -1.1500  0.0568  0.0288
 8536SOL     OW37066   2.387   4.295   5.916 -0.0678  0.0738 -0.3780
 8536SOL    HW137067   2.457   4.231   5.910  0.7822  1.0015 -0.2648
 8536SOL    HW237068   2.372   4.312   5.822 -1.9870  0.3538 -0.0223
 8537SOL     OW37069   2.945   3.552   2.745 -0.1062  0.6065  0.2319
 8537SOL    HW137070   2.927   3.541   2.838  0.5719 -0.7706  0.1893
 8537SOL    HW237071   3.033   3.589   2.750 -0.2643  1.1411 -0.7139
 8538SOL     OW37072   0.902   2.320   6.662  0.2866  0.6467  0.0470
 8538SOL    HW137073   0.891   2.239   6.613  1.6268  0.8436 -0.6036
 8538SOL    HW237074   0.971   2.369   6.616 -0.6520  1.2683 -0.7164
 8539SOL     OW37075   0.554   1.491   0.571 -0.3601 -0.6300 -0.0150
 8539SOL    HW137076   0.528   1.502   0.663  3.1474  0.0639  0.8817
 8539SOL    HW237077   0.565   1.396   0.568  0.1202 -0.5528 -0.7085
 8540SOL     OW37078   4.530   4.112   3.457 -0.3116 -0.0797  0.0518
 8540SOL    HW137079   4.521   4.193   3.407 -2.2433  0.3584  1.1437
 8540SOL    HW237080   4.454   4.060   3.430  0.3419 -0.3055 -1.4139
 8541SOL     OW37081   3.854   4.358   5.719 -0.4670  0.2417  0.3139
 8541SOL    HW137082   3.848   4.263   5.734  0.6584  0.1938  0.4929
 8541SOL    HW237083   3.921   4.379   5.784 -1.6620  2.5739  0.7526
 8542SOL     OW37084   3.219   0.239   1.337  0.4313 -0.4608 -0.3437
 8542SOL    HW137085   3.168   0.320   1.331  1.0522 -0.1203 -0.9828
 8542SOL    HW237086   3.310   0.269   1.341  1.1201 -2.8044  1.7617
 8543SOL     OW37087   4.293   4.126   7.191 -0.2296  0.4573 -0.3506
 8543SOL    HW137088   4.254   4.212   7.202 -1.8252 -0.4722  1.3515
 8543SOL    HW237089   4.385   4.152   7.184 -0.1221 -0.0171 -0.7312
 8544SOL     OW37090   3.522   3.316   0.766 -0.2323  0.4995  0.1366
 8544SOL    HW137091   3.493   3.229   0.741  0.2552  0.5755 -0.6753
 8544SOL    HW237092   3.564   3.343   0.684  1.1048  1.2433  1.0651
 8545SOL     OW37093   0.787   0.762   3.779 -0.1684 -0.1061 -0.6615
 8545SOL    HW137094   0.735   0.732   3.704  0.4238 -1.6749 -0.4330
 8545SOL    HW237095   0.709   0.784   3.831 -0.8419 -0.5794 -1.4629
 8546SOL     OW37096   3.172   3.252  14.012 -0.1499 -0.0381 -0.6071
 8546SOL    HW137097   3.199   3.317  13.948 -1.6689 -1.2750 -2.4809
 8546SOL    HW237098   3.079   3.270  13.997 -0.6175 -1.4396  0.5514
 8547SOL     OW37099   1.541   2.078   9.264 -0.0643  0.4282 -0.1821
 8547SOL    HW137100   1.505   2.000   9.222  2.0209  0.8852 -2.8597
 8547SOL    HW237101   1.560   2.032   9.346 -0.4096 -2.1335 -1.5308
 8548SOL     OW37102   3.347   0.729   1.754  0.1508  0.3921  0.0517
 8548SOL    HW137103   3.438   0.709   1.772 -0.1523 -0.2247  0.9046
 8548SOL    HW237104   3.311   0.644   1.730  3.6024 -1.0123 -0.0393
 8549SOL     OW37105   0.275   1.859  13.684 -0.4838  0.2391  0.2261
 8549SOL    HW137106   0.284   1.808  13.603 -0.4617  1.2677 -0.4187
 8549SOL    HW237107   0.238   1.786  13.733 -1.1256  0.5442  0.1908
 8550SOL     OW37108   1.502   3.340  10.957 -0.1811  0.1730 -0.2740
 8550SOL    HW137109   1.540   3.428  10.961 -0.3795  0.2714 -0.5575
 8550SOL    HW237110   1.430   3.352  11.019 -1.2381 -0.2915 -1.4326
 8551SOL     OW37111   3.318   0.795   3.479 -0.3915 -0.0327 -0.4364
 8551SOL    HW137112   3.266   0.763   3.405  0.0489  0.4240 -0.9545
 8551SOL    HW237113   3.346   0.879   3.442  0.3416 -0.4007 -0.7121
 8552SOL     OW37114   1.865   4.129   8.578 -0.6153 -0.2462  0.4727
 8552SOL    HW137115   1.830   4.067   8.641  0.8227 -1.1455  0.3934
 8552SOL    HW237116   1.901   4.191   8.642 -1.3739  0.0009  0.6543
 8553SOL     OW37117   3.680   2.670  14.933  0.0636  0.0465  0.0837
 8553SOL    HW137118   3.744   2.606  14.965 -1.6102 -1.2176  0.9606
 8553SOL    HW237119   3.687   2.650  14.840 -1.8250 -0.4413  0.0359
 8554SOL     OW37120   3.273   0.674   2.493 -0.3174  0.4090  0.0116
 8554SOL    HW137121   3.241   0.585   2.477 -0.0931  0.3010  0.1668
 8554SOL    HW237122   3.339   0.661   2.561  0.9455  0.5751 -1.1946
 8555SOL     OW37123   0.807   3.454   3.055  0.8722 -0.0008  0.0948
 8555SOL    HW137124   0.806   3.380   3.117 -0.1855 -1.1451 -1.3006
 8555SOL    HW237125   0.728   3.441   3.003  1.8221 -0.2484 -1.2645
 8556SOL     OW37126   1.206   0.323  13.511  0.4273  0.3164  0.2825
 8556SOL    HW137127   1.289   0.355  13.477  0.4540  0.6318  0.6398
 8556SOL    HW237128   1.187   0.259  13.443 -0.0625  1.8892 -1.0711
 8557SOL     OW37129   0.430   1.799   8.810 -0.3090  0.4767 -0.2365
 8557SOL    HW137130   0.394   1.741   8.743  0.5705  0.3083 -0.5624
 8557SOL    HW237131   0.512   1.756   8.835 -1.6039 -2.0408 -0.3590
 8558SOL     OW37132   0.262   1.527   7.765 -0.3077  0.4918  0.0741
 8558SOL    HW137133   0.201   1.473   7.715 -0.1379 -0.3868  0.8252
 8558SOL    HW237134   0.281   1.600   7.706  0.3232  0.1601 -0.1390
 8559SOL     OW37135   0.801   3.161   2.628  0.5274 -0.0329  0.0730
 8559SOL    HW137136   0.710   3.139   2.649  0.5362  1.7015  2.0072
 8559SOL    HW237137   0.824   3.093   2.565 -1.3095 -1.2676  0.7593
 8560SOL     OW37138   3.601   2.365  12.793  0.8270  0.0657  0.1518
 8560SOL    HW137139   3.643   2.324  12.869  0.5356 -1.0778 -0.2945
 8560SOL    HW237140   3.671   2.387  12.732  0.1522 -2.4042 -1.5370
 8561SOL     OW37141   1.196   1.624   4.097  0.2405 -0.3577 -0.1210
 8561SOL    HW137142   1.266   1.681   4.069  1.0137  0.0616  2.6237
 8561SOL    HW237143   1.243   1.541   4.088  0.2913 -0.4663  1.1405
 8562SOL     OW37144   4.569   0.861   3.447  0.2089  0.5341  0.0052
 8562SOL    HW137145   4.646   0.855   3.390  0.3662  1.7412  0.0776
 8562SOL    HW237146   4.593   0.934   3.504  1.0430  1.3842 -1.4118
 8563SOL     OW37147   3.766   2.886   5.648  0.5728  0.0932 -0.4009
 8563SOL    HW137148   3.802   2.803   5.618  0.7808  0.4233 -1.0513
 8563SOL    HW237149   3.680   2.853   5.674  0.9685 -0.5465  0.0823
 8564SOL     OW37150   0.439   0.876  15.685 -0.4567 -0.4966  0.3127
 8564SOL    HW137151   0.421   0.793  15.640  3.7515 -0.5887 -1.2484
 8564SOL    HW237152   0.498   0.846  15.755  1.1868  1.8337 -0.0693
 8565SOL     OW37153   2.742   0.597   2.867  0.1902 -0.3201 -0.3957
 8565SOL    HW137154   2.668   0.585   2.807  1.0399  0.3020 -1.5675
 8565SOL    HW237155   2.804   0.644   2.811 -0.0186  1.4397  0.8427
 8566SOL     OW37156   2.661   0.274   7.625  0.0013 -0.0824 -0.0102
 8566SOL    HW137157   2.636   0.352   7.674 -0.1595 -1.0092  1.3861
 8566SOL    HW237158   2.634   0.200   7.680  1.0716  0.0368  0.6676
 8567SOL     OW37159   0.051   0.500  15.794 -0.4957 -0.3708  0.3524
 8567SOL    HW137160   0.082   0.574  15.847  2.1102 -0.8124 -0.5758
 8567SOL    HW237161   0.133   0.452  15.784 -0.5624 -0.1618 -1.1975
 8568SOL     OW37162   0.585   2.363   4.842 -0.6604 -0.3742 -0.1317
 8568SOL    HW137163   0.581   2.335   4.750 -1.3739  0.4684 -0.3561
 8568SOL    HW237164   0.513   2.313   4.879  0.8083 -2.7860 -0.5171
 8569SOL     OW37165   4.223   1.584   0.430 -0.0953 -0.7930 -0.1433
 8569SOL    HW137166   4.174   1.515   0.476  0.8789  0.1128  2.2593
 8569SOL    HW237167   4.260   1.617   0.512 -0.0021 -1.7615  0.2105
 8570SOL     OW37168   2.046   2.218  11.626  0.1399  0.8127  0.7894
 8570SOL    HW137169   2.135   2.252  11.632  0.6820 -0.4499 -0.1350
 8570SOL    HW237170   2.052   2.152  11.557  0.1279  0.6375  0.9564
 8571SOL     OW37171   4.381   1.147   7.266  0.1093 -0.7331 -0.0157
 8571SOL    HW137172   4.317   1.150   7.338  0.0536  0.9756 -0.1361
 8571SOL    HW237173   4.387   1.239   7.243  0.5129 -1.2209 -1.8158
 8572SOL     OW37174   3.345   0.543  10.924 -0.1541 -0.0644 -0.0544
 8572SOL    HW137175   3.304   0.587  10.998  2.0676  2.8572 -0.5834
 8572SOL    HW237176   3.384   0.473  10.977  1.3434  2.4621  2.2198
 8573SOL     OW37177   2.017   2.153   5.613  0.2170  0.1495  0.7765
 8573SOL    HW137178   2.055   2.241   5.608  0.1194  0.1514  0.0646
 8573SOL    HW237179   1.924   2.168   5.631  0.6171  1.4002  1.8160
 8574SOL     OW37180   4.083   2.334   6.305  0.2371 -0.3015  0.1865
 8574SOL    HW137181   4.035   2.270   6.357 -0.9869  1.2471  0.9547
 8574SOL    HW237182   4.027   2.411   6.302 -2.1100 -1.9950  1.0035
 8575SOL     OW37183   2.705   3.089   6.691 -0.0437 -0.2038 -0.4783
 8575SOL    HW137184   2.657   3.010   6.719 -0.7944  0.5564  0.3625
 8575SOL    HW237185   2.716   3.065   6.599  3.2741 -1.9129  0.3677
 8576SOL     OW37186   3.000   4.300  10.934 -0.1332 -0.1264  0.2584
 8576SOL    HW137187   2.959   4.248  10.864  1.6335  0.0642 -0.9064
 8576SOL    HW237188   3.019   4.383  10.890  2.4446 -0.4488  0.7660
 8577SOL     OW37189   2.606   1.079  14.593 -0.1786 -0.6477 -0.9628
 8577SOL    HW137190   2.577   1.133  14.519 -0.3515  1.6196  0.7252
 8577SOL    HW237191   2.696   1.112  14.596  0.1619 -1.6746  0.0601
 8578SOL     OW37192   1.379   3.701  13.265 -0.4140  0.0178  0.0753
 8578SOL    HW137193   1.391   3.743  13.180  1.0220  0.6961  0.6111
 8578SOL    HW237194   1.335   3.771  13.314 -1.5439 -0.4366 -0.3074
 8579SOL     OW37195   1.080   3.267   5.188 -0.9724 -0.2745  0.7718
 8579SOL    HW137196   1.094   3.239   5.098 -1.9133  2.4354 -0.1977
 8579SOL    HW237197   1.031   3.348   5.178  0.0031  0.1621 -0.4229
 8580SOL     OW37198   1.509   3.352   4.321  0.3724  0.1852 -0.2743
 8580SOL    HW137199   1.514   3.332   4.228  0.5453  0.0824 -0.2429
 8580SOL    HW237200   1.582   3.414   4.326 -0.2703  0.9598 -0.5629
 8581SOL     OW37201   4.212   1.048   2.653 -0.6989  0.7927  0.2247
 8581SOL    HW137202   4.307   1.041   2.661 -1.0887 -1.1772  3.3840
 8581SOL    HW237203   4.201   1.115   2.720 -0.5382  0.9831  0.0585
 8582SOL     OW37204   0.094   2.554   8.710 -0.2247 -0.5780  0.7713
 8582SOL    HW137205   0.088   2.641   8.747  0.7959 -0.0989 -0.1824
 8582SOL    HW237206   0.182   2.558   8.671 -0.6327 -0.2134 -0.1131
 8583SOL     OW37207   1.285   2.221   6.532  0.0082  0.2744  0.0391
 8583SOL    HW137208   1.296   2.203   6.625 -0.1557 -0.3775 -0.0714
 8583SOL    HW237209   1.202   2.176   6.522 -0.6642  1.4299  0.3676
 8584SOL     OW37210   3.248   0.155   9.411 -0.0187  0.9460 -0.3821
 8584SOL    HW137211   3.213   0.117   9.492 -0.7801  0.7447 -0.8028
 8584SOL    HW237212   3.319   0.098   9.383  0.8657  1.2689  1.1881
 8585SOL     OW37213   1.250   2.785  13.795 -0.2045  0.0616 -0.0888
 8585SOL    HW137214   1.201   2.704  13.807 -2.3349  1.3707 -0.1194
 8585SOL    HW237215   1.200   2.836  13.732  0.7343  1.1429  0.0495
 8586SOL     OW37216   3.312   2.101   9.447 -0.3252 -0.1698  0.4400
 8586SOL    HW137217   3.349   2.130   9.531  3.3598 -1.4710 -0.7090
 8586SOL    HW237218   3.267   2.022   9.477 -0.9000  0.0389  0.1167
 8587SOL     OW37219   0.028   1.205   1.032 -0.4019  0.1208 -0.1494
 8587SOL    HW137220   4.704   1.169   1.107  0.6393 -0.7238  0.0882
 8587SOL    HW237221   0.045   1.127   0.979 -2.5557  0.1998 -0.9739
 8588SOL     OW37222   2.058   3.249  13.740  0.0505  0.1194 -0.1816
 8588SOL    HW137223   2.031   3.158  13.728  1.5829 -0.4789  0.9829
 8588SOL    HW237224   2.069   3.246  13.835 -3.7034 -0.9557  0.2429
 8589SOL     OW37225   1.263   1.332   1.230 -0.5043  0.1348  0.0814
 8589SOL    HW137226   1.335   1.395   1.234  0.8178 -1.2301 -2.5361
 8589SOL    HW237227   1.191   1.393   1.215  0.4083  0.9723 -0.8234
 8590SOL     OW37228   0.058   0.341   7.376  0.3507 -0.0577 -0.2287
 8590SOL    HW137229   0.047   0.248   7.354  1.3711  0.5909 -3.3532
 8590SOL    HW237230   0.075   0.373   7.288 -1.8784 -0.4189 -0.7934
 8591SOL     OW37231   4.615   4.585   2.890 -0.1899  0.4708 -0.0678
 8591SOL    HW137232   4.649   4.545   2.969 -1.8742 -0.0336  0.4068
 8591SOL    HW237233   4.599   4.505   2.840  2.6959  0.0312 -0.2883
 8592SOL     OW37234   2.879   1.134  14.691  1.0462  0.4835  0.2015
 8592SOL    HW137235   2.965   1.169  14.712  1.1795  0.2608  0.0251
 8592SOL    HW237236   2.834   1.169  14.768  1.5927  2.2708 -0.3170
 8593SOL     OW37237   4.567   4.444   2.631  0.3813 -0.0558 -0.3623
 8593SOL    HW137238   4.616   4.479   2.557 -0.2273 -2.6877 -1.9902
 8593SOL    HW237239   4.505   4.380   2.596 -0.2852  0.8771 -0.8931
 8594SOL     OW37240   3.807   1.289   6.753  0.0037  0.2648 -0.1121
 8594SOL    HW137241   3.869   1.321   6.819 -2.2363  1.1119  1.5538
 8594SOL    HW237242   3.840   1.339   6.678  0.5775  1.5156  0.9673
 8595SOL     OW37243   3.895   4.551   8.595 -0.4434 -0.0985  0.4333
 8595SOL    HW137244   3.961   4.585   8.656  0.4403 -0.5726 -0.2494
 8595SOL    HW237245   3.942   4.472   8.568  1.0318 -0.2051  3.2736
 8596SOL     OW37246   0.891   2.126   1.176 -0.6170  0.1530  0.0538
 8596SOL    HW137247   0.842   2.192   1.227  0.6107  0.2777  1.0599
 8596SOL    HW237248   0.825   2.057   1.180 -0.2054 -0.2064  0.6037
 8597SOL     OW37249   4.340   0.634   7.110  0.3436 -0.0542 -0.4275
 8597SOL    HW137250   4.422   0.585   7.105 -0.7410 -2.0228  1.0292
 8597SOL    HW237251   4.367   0.724   7.131 -0.0236 -0.4269  1.6220
 8598SOL     OW37252   2.128   3.861   6.609  0.0098  0.7504 -0.1038
 8598SOL    HW137253   2.176   3.806   6.670  0.1256  0.4383 -0.4772
 8598SOL    HW237254   2.192   3.881   6.540 -0.3085 -1.2055 -0.9760
 8599SOL     OW37255   2.429   3.609   7.258 -0.3169  0.1194 -0.3647
 8599SOL    HW137256   2.519   3.608   7.223 -0.5287  0.1426 -0.9095
 8599SOL    HW237257   2.422   3.519   7.290  0.3841  0.5627  1.0306
 8600SOL     OW37258   0.257   4.125   3.175 -0.6172 -0.8636 -0.0663
 8600SOL    HW137259   0.323   4.126   3.244  0.7734 -2.6928 -1.3683
 8600SOL    HW237260   0.182   4.143   3.232 -0.1553  1.1081 -0.0957
 8601SOL     OW37261   2.620   4.517   3.161 -0.6694 -0.3833  0.1828
 8601SOL    HW137262   2.708   4.526   3.123 -1.2897 -1.9960 -1.6498
 8601SOL    HW237263   2.604   4.422   3.162 -0.0274 -0.5145 -1.1620
 8602SOL     OW37264   2.069   1.636   2.859 -0.4411  0.2209 -0.2281
 8602SOL    HW137265   1.978   1.661   2.846 -0.8012 -0.0615  1.6554
 8602SOL    HW237266   2.074   1.545   2.830 -0.7194 -0.9319  3.2776
 8603SOL     OW37267   0.805   2.139  16.935 -0.1470 -0.0956 -0.0902
 8603SOL    HW137268   0.848   2.055  16.952  2.1969  0.7242 -1.9692
 8603SOL    HW237269   0.764   2.131  16.849  1.9711  0.0795 -1.1312
 8604SOL     OW37270   2.099   4.645   6.545 -0.0955 -0.4059  0.0468
 8604SOL    HW137271   2.101   4.703   6.468 -1.0776 -0.1778  0.1931
 8604SOL    HW237272   2.015   4.668   6.586  0.5769 -0.9006  1.6753
 8605SOL     OW37273   3.020   2.973   2.468  0.6585  0.6745  0.3210
 8605SOL    HW137274   3.106   3.013   2.456  1.1014  0.3267  2.2672
 8605SOL    HW237275   2.988   3.029   2.538 -0.6009  2.4569 -1.6945
 8606SOL     OW37276   4.624   0.319   4.112 -0.5465  0.0836  0.0826
 8606SOL    HW137277   4.640   0.288   4.023  1.0924  0.7771  0.1320
 8606SOL    HW237278   4.597   0.233   4.144 -0.7965  0.0221 -0.2962
 8607SOL     OW37279   3.984   2.055   6.159 -0.0425  0.1979  0.4376
 8607SOL    HW137280   3.946   2.042   6.246 -0.8071 -1.0416 -0.0907
 8607SOL    HW237281   4.057   2.112   6.181  0.1072  0.2009 -0.0626
 8608SOL     OW37282   4.403   1.613   9.629 -0.0303  0.7328 -0.0588
 8608SOL    HW137283   4.431   1.628   9.539 -0.7006 -1.1734 -0.5769
 8608SOL    HW237284   4.435   1.697   9.663  1.8945 -0.2576  0.5517
 8609SOL     OW37285   3.272   3.871   0.653  0.4857 -0.1899  0.2263
 8609SOL    HW137286   3.294   3.951   0.700  0.2695  1.1727 -1.9563
 8609SOL    HW237287   3.222   3.831   0.724 -0.8401  0.5556 -0.2915
 8610SOL     OW37288   2.901   1.266  11.233  0.0724  0.2299 -0.3188
 8610SOL    HW137289   2.892   1.351  11.191 -1.9229  0.3430  0.3808
 8610SOL    HW237290   2.872   1.270  11.324 -2.3122 -2.3259 -0.9948
 8611SOL     OW37291   2.175   1.290  16.823  0.3562  0.3232 -0.4361
 8611SOL    HW137292   2.188   1.383  16.804 -0.6307  0.3463 -1.0216
 8611SOL    HW237293   2.253   1.268  16.873  0.5985 -0.0490 -0.9809
 8612SOL     OW37294   4.646   3.483   6.716 -0.7049  0.2596 -0.1256
 8612SOL    HW137295   4.611   3.461   6.803 -0.1129  0.2505  0.1121
 8612SOL    HW237296   4.564   3.516   6.681 -0.6057 -1.4149 -1.9287
 8613SOL     OW37297   1.194   0.349   9.237 -0.6458  0.3406 -0.5994
 8613SOL    HW137298   1.239   0.265   9.247 -1.8414 -0.1189  0.9766
 8613SOL    HW237299   1.179   0.340   9.143 -0.5890 -0.6926 -0.5153
 8614SOL     OW37300   1.265   3.722   3.140 -0.9342 -0.1449 -0.5693
 8614SOL    HW137301   1.315   3.691   3.065 -0.1518 -0.4374  0.0802
 8614SOL    HW237302   1.179   3.692   3.112  1.6469 -3.7314 -4.5892
 8615SOL     OW37303   4.406   3.660   8.451  0.3315 -0.8030 -0.1315
 8615SOL    HW137304   4.320   3.634   8.418  0.7121 -0.8504 -1.1009
 8615SOL    HW237305   4.444   3.578   8.480 -1.6849 -0.8291  2.3776
 8616SOL     OW37306   4.030   1.853  14.844  0.5072  0.0172 -0.1520
 8616SOL    HW137307   4.125   1.847  14.857  0.7431  1.1276 -1.4014
 8616SOL    HW237308   4.014   1.925  14.905  3.8126 -0.4823  1.3133
 8617SOL     OW37309   0.223   3.960   2.969  0.2973 -0.2891 -0.6141
 8617SOL    HW137310   0.215   4.021   3.042  1.5669 -0.9308  0.0555
 8617SOL    HW237311   0.146   3.905   2.986 -0.3483  0.9645  0.4348
 8618SOL     OW37312   2.190   2.094  13.638 -0.0698 -0.5763 -0.3381
 8618SOL    HW137313   2.262   2.060  13.585  0.2743 -0.8834  0.3327
 8618SOL    HW237314   2.244   2.133  13.707  0.1414  0.1060 -0.8853
 8619SOL     OW37315   2.644   1.871   5.216  0.7314  0.2837 -0.0832
 8619SOL    HW137316   2.685   1.785   5.205  0.5021  0.1440  0.1437
 8619SOL    HW237317   2.559   1.847   5.179  0.7538  0.3787 -0.1949
 8620SOL     OW37318   0.239   4.663   5.388  0.6272  0.1160  0.7128
 8620SOL    HW137319   0.171   4.617   5.438 -1.9070  1.3030 -1.6811
 8620SOL    HW237320   0.268   4.599   5.323  1.2386 -1.3423  2.4159
 8621SOL     OW37321   3.511   1.513   6.678  0.1242  0.2067  0.2435
 8621SOL    HW137322   3.497   1.519   6.773  1.2882  0.7357  0.3815
 8621SOL    HW237323   3.507   1.421   6.654 -1.4402  0.1938  0.5148
 8622SOL     OW37324   4.297   3.920   7.020 -0.6063 -0.2561 -0.0648
 8622SOL    HW137325   4.278   3.977   7.094  0.7119 -0.3637  0.3514
 8622SOL    HW237326   4.255   3.979   6.958  0.2052 -0.4252 -0.7841
 8623SOL     OW37327   2.325   4.337   5.633  0.4108  0.2983  0.1067
 8623SOL    HW137328   2.323   4.426   5.670 -2.3203  0.2920  0.0217
 8623SOL    HW237329   2.369   4.357   5.551  0.3871 -1.5053 -0.3374
 8624SOL     OW37330   2.095   4.420   5.014  0.1737 -0.7576  0.2402
 8624SOL    HW137331   2.143   4.459   4.941  1.1412  0.6371  1.6152
 8624SOL    HW237332   2.040   4.496   5.033  0.7565 -0.4052  0.5263
 8625SOL     OW37333   3.905   1.675  16.654  1.0696  0.0876  0.2408
 8625SOL    HW137334   3.863   1.697  16.737 -1.2277 -0.5550 -0.7463
 8625SOL    HW237335   3.833   1.684  16.591  0.5256 -1.1810  0.6917
 8626SOL     OW37336   4.706   1.593   5.714  0.1162 -0.6501 -0.1818
 8626SOL    HW137337   0.068   1.555   5.735 -0.1294 -1.7191 -1.1021
 8626SOL    HW237338   4.717   1.594   5.619 -0.9494 -1.6703 -0.3161
 8627SOL     OW37339   3.635   3.932   8.144  0.7595  0.0517  0.1737
 8627SOL    HW137340   3.615   3.884   8.064 -1.7378 -1.8035  1.9226
 8627SOL    HW237341   3.598   3.878   8.214 -0.4874 -1.0098 -1.3104
 8628SOL     OW37342   3.977   4.651   6.529 -0.1666  0.5728  0.2202
 8628SOL    HW137343   3.897   4.656   6.477  0.6753  0.0048 -1.1437
 8628SOL    HW237344   3.959   4.657   6.623  0.8583 -0.8666  0.5084
 8629SOL     OW37345   2.969   0.958   1.298  0.5293 -0.4892 -0.1085
 8629SOL    HW137346   2.967   1.021   1.226 -0.3008 -1.4942 -0.9665
 8629SOL    HW237347   3.021   1.006   1.363 -0.5527  1.3235 -0.5715
 8630SOL     OW37348   2.619   2.352   1.098 -0.6875  0.1246  0.3413
 8630SOL    HW137349   2.598   2.380   1.187 -0.8051 -1.3290  0.7709
 8630SOL    HW237350   2.587   2.432   1.056  0.0822 -0.3145 -1.0779
 8631SOL     OW37351   0.649   2.607   9.500  0.2414 -0.0044 -0.4398
 8631SOL    HW137352   0.712   2.660   9.453  0.1260 -0.2887 -0.9145
 8631SOL    HW237353   0.564   2.623   9.460 -0.1567  1.9779  1.1816
 8632SOL     OW37354   4.285   3.114   3.268  0.4391 -0.1144  0.4403
 8632SOL    HW137355   4.357   3.092   3.209 -1.3403 -0.4176 -1.5755
 8632SOL    HW237356   4.308   3.202   3.300 -1.3425  1.7076 -3.3483
 8633SOL     OW37357   2.146   2.516   2.719  0.2785  0.1844 -0.0703
 8633SOL    HW137358   2.100   2.518   2.803  1.0245  1.1818  0.3097
 8633SOL    HW237359   2.079   2.563   2.669  0.9327 -0.3071 -1.4172
 8634SOL     OW37360   1.772   0.365  11.009  0.1948 -0.1528  0.2289
 8634SOL    HW137361   1.864   0.384  11.026 -0.4787  1.4746  2.0522
 8634SOL    HW237362   1.781   0.309  10.932 -1.0249 -0.6934  0.4753
 8635SOL     OW37363   2.561   2.508   7.665  0.0417  0.0379  0.3423
 8635SOL    HW137364   2.576   2.571   7.594  2.4205 -2.0462 -1.0110
 8635SOL    HW237365   2.573   2.561   7.744  0.3356 -1.8939  1.5884
 8636SOL     OW37366   2.571   2.826   6.678  0.2181  0.2339 -0.3211
 8636SOL    HW137367   2.643   2.772   6.644  0.4704  1.8034 -2.3151
 8636SOL    HW237368   2.494   2.786   6.638 -0.6883  0.4962  1.1977
 8637SOL     OW37369   0.293   0.446   5.567  0.5116 -0.1827  0.4680
 8637SOL    HW137370   0.206   0.485   5.564 -0.4357 -2.4450 -2.0069
 8637SOL    HW237371   0.272   0.369   5.620 -0.0709 -1.4955 -1.6709
 8638SOL     OW37372   2.702   3.788   2.120  0.2938 -0.5632 -0.2883
 8638SOL    HW137373   2.700   3.830   2.206 -1.4002 -0.0457 -0.5942
 8638SOL    HW237374   2.751   3.706   2.128  1.9334  0.5180  0.8580
 8639SOL     OW37375   3.459   3.176   4.878 -0.0816  0.0141  0.1072
 8639SOL    HW137376   3.364   3.169   4.877 -0.1073  0.1303  1.2555
 8639SOL    HW237377   3.490   3.123   4.805 -1.1494 -0.8551  0.2819
 8640SOL     OW37378   1.303   4.508   4.353 -0.3190 -0.1896  0.3012
 8640SOL    HW137379   1.350   4.556   4.285  1.0734 -0.9413  0.7273
 8640SOL    HW237380   1.250   4.578   4.390  1.3898  1.2462  0.0432
 8641SOL     OW37381   1.371   3.809   7.652 -0.0211 -0.6773  0.0836
 8641SOL    HW137382   1.326   3.737   7.695  0.3284  0.1340  1.7921
 8641SOL    HW237383   1.327   3.794   7.568  0.4740  0.4260 -0.3798
 8642SOL     OW37384   3.634   3.258   3.871  0.3256  0.1246  0.7756
 8642SOL    HW137385   3.693   3.333   3.876  0.2185  0.3073 -0.8482
 8642SOL    HW237386   3.685   3.214   3.804  0.9113  0.9053  0.7145
 8643SOL     OW37387   0.571   1.040   7.251  0.2831 -0.3280 -0.2245
 8643SOL    HW137388   0.611   0.974   7.308  0.1453 -0.5364 -0.3662
 8643SOL    HW237389   0.648   1.071   7.204 -1.1660  0.8659 -1.8122
 8644SOL     OW37390   0.390   2.278  13.593 -0.0782  0.1466 -0.2320
 8644SOL    HW137391   0.373   2.343  13.524 -0.2942 -0.6391 -0.9251
 8644SOL    HW237392   0.479   2.305  13.615  0.6104 -2.4663  0.1301
 8645SOL     OW37393   2.558   3.725   6.900 -0.6495 -0.4366 -0.1645
 8645SOL    HW137394   2.531   3.643   6.941  1.7925 -0.6285  1.0415
 8645SOL    HW237395   2.574   3.778   6.978  2.1655  0.8942 -1.6468
 8646SOL     OW37396   0.059   4.029   5.218 -0.2637  0.4231 -0.4383
 8646SOL    HW137397   0.096   3.971   5.151 -1.2741 -0.1826 -0.4731
 8646SOL    HW237398   4.696   3.986   5.215  0.5769 -1.1430 -1.9367
 8647SOL     OW37399   1.428   3.282   0.297 -0.3962 -0.0739  0.3856
 8647SOL    HW137400   1.385   3.361   0.266  0.6806 -0.0443 -1.0267
 8647SOL    HW237401   1.379   3.212   0.253 -1.1224  0.0564  0.9909
 8648SOL     OW37402   1.131   1.160   7.830 -0.0575  0.0657  0.0004
 8648SOL    HW137403   1.112   1.227   7.895 -0.4127 -0.9974  1.0011
 8648SOL    HW237404   1.082   1.086   7.866 -0.9274 -0.1173 -1.5366
 8649SOL     OW37405   2.404   1.604   3.937 -0.5045  0.4214  0.4494
 8649SOL    HW137406   2.496   1.601   3.911 -0.4449 -0.4930  0.7876
 8649SOL    HW237407   2.367   1.552   3.866  0.5625  2.3260 -1.5236
 8650SOL     OW37408   2.788   1.567  13.369 -0.4517  0.4725  0.0931
 8650SOL    HW137409   2.788   1.658  13.338  0.2790  0.6164  0.5309
 8650SOL    HW237410   2.874   1.559  13.409  0.5447  1.0344 -1.9176
 8651SOL     OW37411   3.802   0.515  15.951 -0.4800 -0.3032 -0.2944
 8651SOL    HW137412   3.888   0.540  15.917  0.5357 -2.4229  0.7682
 8651SOL    HW237413   3.791   0.574  16.026 -2.0975  0.1933 -0.9235
 8652SOL     OW37414   0.768   0.232   8.008 -0.0950  0.1419  0.1497
 8652SOL    HW137415   0.713   0.190   7.943  0.1101 -0.3811  0.3143
 8652SOL    HW237416   0.792   0.160   8.067 -0.8237 -1.0155 -0.9685
 8653SOL     OW37417   0.764   1.709   1.255  0.2541  0.0035  0.4847
 8653SOL    HW137418   0.705   1.668   1.318 -0.4231  2.1268  1.2326
 8653SOL    HW237419   0.846   1.714   1.304 -0.1607 -0.2796  1.2082
 8654SOL     OW37420   3.368   1.348   3.978  0.0769  0.0066  0.2364
 8654SOL    HW137421   3.430   1.391   3.918  1.0783 -0.7869  0.6891
 8654SOL    HW237422   3.432   1.281   4.003 -0.2217 -0.5323 -0.4067
 8655SOL     OW37423   2.309   2.160   5.780 -0.5499  0.1031 -0.3696
 8655SOL    HW137424   2.259   2.208   5.847 -0.3142  0.4995 -0.4796
 8655SOL    HW237425   2.350   2.236   5.739 -0.5817  1.5275  2.2010
 8656SOL     OW37426   4.118   3.788   3.187 -0.2394 -0.2137 -0.7633
 8656SOL    HW137427   4.078   3.787   3.100 -0.2711  0.6702 -0.7631
 8656SOL    HW237428   4.081   3.873   3.213 -0.2638 -0.7760  1.0048
 8657SOL     OW37429   3.705   2.816   3.486 -0.2143  0.1446 -0.1260
 8657SOL    HW137430   3.668   2.738   3.528  1.2933  0.7690  2.3055
 8657SOL    HW237431   3.623   2.852   3.452 -0.1742 -0.1542 -0.5416
 8658SOL     OW37432   3.308   2.995   5.866  0.5095 -0.0822  0.4300
 8658SOL    HW137433   3.311   3.045   5.947 -0.9396  2.0696 -0.8561
 8658SOL    HW237434   3.224   3.025   5.832  1.7225 -0.3848 -2.8711
 8659SOL     OW37435   1.641   1.659   1.978  0.5122 -0.0833  0.7277
 8659SOL    HW137436   1.606   1.748   1.968  0.9825 -0.0780 -0.8596
 8659SOL    HW237437   1.556   1.615   1.979 -0.7621  2.3391  0.3827
 8660SOL     OW37438   3.291   3.640  14.978  0.1120  0.2785 -0.5723
 8660SOL    HW137439   3.368   3.680  15.018  0.2683 -0.6123  0.0218
 8660SOL    HW237440   3.238   3.719  14.994 -2.0008 -1.5990  1.6671
 8661SOL     OW37441   0.550   3.779   1.960  0.2105 -0.4606 -0.6509
 8661SOL    HW137442   0.470   3.785   1.907  0.3598 -0.3222 -0.8570
 8661SOL    HW237443   0.560   3.684   1.958  0.0963 -0.5258  1.5762
 8662SOL     OW37444   4.530   4.712   6.927 -0.0958 -0.3447 -0.0407
 8662SOL    HW137445   4.617   0.008   6.892  0.1012  1.9292  1.6826
 8662SOL    HW237446   4.532   4.619   6.950 -0.4863  0.2154  2.2588
 8663SOL     OW37447   1.651   2.097   1.042 -0.2551  0.3575  0.0610
 8663SOL    HW137448   1.611   2.172   1.084  1.3449  0.6339  1.1010
 8663SOL    HW237449   1.733   2.130   1.005 -0.2310 -1.2772 -1.3588
 8664SOL     OW37450   3.821   3.206   6.994 -0.0356  0.3287  0.2674
 8664SOL    HW137451   3.907   3.241   6.973 -0.3838 -0.9366 -3.3064
 8664SOL    HW237452   3.844   3.126   7.040 -0.2297  0.2965  0.3089
 8665SOL     OW37453   2.542   1.460   5.715  0.0275  0.0777 -0.1480
 8665SOL    HW137454   2.598   1.530   5.684 -1.8624  0.3483 -2.9374
 8665SOL    HW237455   2.475   1.502   5.769 -2.5398 -0.4945 -2.9131
 8666SOL     OW37456   0.701   1.153   5.511  0.2287 -0.0776  0.4695
 8666SOL    HW137457   0.698   1.184   5.602  3.3146  1.6124 -0.0325
 8666SOL    HW237458   0.778   1.097   5.505 -1.3941 -2.4132  1.0882
 8667SOL     OW37459   4.155   3.572   8.441  0.6216  0.3991  0.2952
 8667SOL    HW137460   4.117   3.574   8.354  0.1126  2.1039  0.5427
 8667SOL    HW237461   4.123   3.489   8.475 -0.3866  1.1914  1.2839
 8668SOL     OW37462   3.724   3.731   2.357 -0.2436  0.1938  0.3475
 8668SOL    HW137463   3.771   3.793   2.301 -1.8394  1.6242  0.6210
 8668SOL    HW237464   3.769   3.649   2.336  1.9061  1.4287  0.1274
 8669SOL     OW37465   4.312   3.155  13.105  0.1569  0.0369  0.4178
 8669SOL    HW137466   4.234   3.199  13.072  0.7130  0.2006 -0.6952
 8669SOL    HW237467   4.266   3.072  13.117 -1.0649  0.7411  0.5981
 8670SOL     OW37468   4.303   2.283   4.646  0.3157 -0.3720 -0.3594
 8670SOL    HW137469   4.292   2.374   4.620  1.7848  0.2687  1.2347
 8670SOL    HW237470   4.375   2.286   4.709 -0.2777 -1.2808  0.3576
 8671SOL     OW37471   1.348   0.895   3.882 -0.1321 -0.2544  0.4102
 8671SOL    HW137472   1.269   0.842   3.869  0.2516 -0.7898  0.2791
 8671SOL    HW237473   1.307   0.975   3.915  0.7443  0.7127 -0.8530
 8672SOL     OW37474   4.586   0.258   6.264  0.7680 -0.3735  0.6293
 8672SOL    HW137475   4.646   0.302   6.325  1.9971 -1.0655 -0.0907
 8672SOL    HW237476   4.550   0.330   6.212  1.8314 -0.0279  0.3735
 8673SOL     OW37477   2.099   2.298   5.928  0.1586 -0.4226  0.2271
 8673SOL    HW137478   2.032   2.231   5.916  0.9651 -1.1621 -0.2393
 8673SOL    HW237479   2.070   2.342   6.007  0.2370  0.2001 -0.0947
 8674SOL     OW37480   2.656   0.261   4.957 -0.5641  0.1099 -0.1377
 8674SOL    HW137481   2.666   0.195   5.026  1.2661  1.8247  1.2300
 8674SOL    HW237482   2.743   0.296   4.941  0.0555 -0.6394  1.5315
 8675SOL     OW37483   2.143   3.484  14.020 -0.1840  0.9339  0.1268
 8675SOL    HW137484   2.177   3.562  14.064 -1.1545  1.0888  0.6138
 8675SOL    HW237485   2.171   3.505  13.931 -3.1120  0.5187 -0.8891
 8676SOL     OW37486   2.181   1.277   4.102  0.1558 -0.2755  0.4074
 8676SOL    HW137487   2.104   1.249   4.151 -0.8044  0.2160 -0.8305
 8676SOL    HW237488   2.185   1.366   4.137 -2.7260  0.5692 -1.5007
 8677SOL     OW37489   3.578   0.139  13.749 -0.3236  0.3563 -0.6013
 8677SOL    HW137490   3.571   0.074  13.819 -1.9164 -0.1606 -1.2304
 8677SOL    HW237491   3.485   0.151  13.729 -0.8124  0.3317  1.6267
 8678SOL     OW37492   3.902   1.670   1.956 -0.1120  0.1653 -0.3044
 8678SOL    HW137493   3.887   1.643   1.865  0.5837  1.1617 -0.7133
 8678SOL    HW237494   3.911   1.584   1.995 -0.0637  0.5984  0.6410
 8679SOL     OW37495   3.108   2.137   1.075  0.6037 -0.3307  0.0808
 8679SOL    HW137496   3.075   2.047   1.074  3.5543 -1.4393  1.7581
 8679SOL    HW237497   3.038   2.190   1.038 -1.2640 -2.7737  0.0772
 8680SOL     OW37498   4.469   1.573   3.366  0.1490 -0.6296 -0.5318
 8680SOL    HW137499   4.551   1.623   3.373 -0.9931  1.3444 -1.3774
 8680SOL    HW237500   4.446   1.594   3.276 -0.5489 -1.8291 -0.6303
 8681SOL     OW37501   1.774   0.742  12.681 -0.1919 -0.6075  0.3906
 8681SOL    HW137502   1.770   0.648  12.697 -0.6088 -0.4132  1.4480
 8681SOL    HW237503   1.829   0.743  12.603  1.6809  1.7350  1.7363
 8682SOL     OW37504   1.213   3.941   7.827  0.2025 -0.8738 -0.0422
 8682SOL    HW137505   1.283   3.894   7.782  0.2714 -2.5484  1.8393
 8682SOL    HW237506   1.160   3.866   7.854 -1.5110  0.4472  0.2710
 8683SOL     OW37507   3.709   3.225   8.447 -0.0537 -0.2540 -0.4527
 8683SOL    HW137508   3.646   3.264   8.385  1.2663 -1.0948 -2.3200
 8683SOL    HW237509   3.716   3.138   8.407  2.2774 -0.6476  0.8234
 8684SOL     OW37510   2.846   3.876   3.371 -0.5084  0.6483  0.4023
 8684SOL    HW137511   2.819   3.933   3.443 -1.2712 -2.2147  2.3979
 8684SOL    HW237512   2.885   3.943   3.314  0.0090  0.6851  0.7990
 8685SOL     OW37513   1.869   2.742  16.916  0.0568  0.0840  0.4336
 8685SOL    HW137514   1.939   2.686  16.882 -0.2583  0.8680 -1.4975
 8685SOL    HW237515   1.818   2.750  16.836  1.7065 -0.9218 -0.7220
 8686SOL     OW37516   0.475   1.908   7.276  0.4814  0.5729  0.2104
 8686SOL    HW137517   0.416   1.976   7.244  1.5682 -0.0528 -3.1192
 8686SOL    HW237518   0.498   1.851   7.203 -0.4539 -0.1992  0.5275
 8687SOL     OW37519   0.341   0.842   1.895 -0.1172 -0.0732  0.5083
 8687SOL    HW137520   0.348   0.778   1.824  0.0998  0.6381 -0.1149
 8687SOL    HW237521   0.360   0.913   1.833  0.2484  1.7958  2.7886
 8688SOL     OW37522   3.237   0.975   8.662  0.5247  0.4382 -0.0884
 8688SOL    HW137523   3.236   0.934   8.748 -2.1976 -3.1038 -1.7960
 8688SOL    HW237524   3.195   1.054   8.696  1.6683  0.8042  0.4503
 8689SOL     OW37525   2.791   1.777  11.773 -0.1520  0.4249 -0.1918
 8689SOL    HW137526   2.882   1.787  11.744  0.1240  0.4141  0.6646
 8689SOL    HW237527   2.800   1.776  11.868  0.6463  2.0361 -0.2562
 8690SOL     OW37528   2.458   0.037   1.358 -0.1448  0.1365 -0.9349
 8690SOL    HW137529   2.457   0.110   1.297  2.1641  2.3540  1.6874
 8690SOL    HW237530   2.473   0.080   1.442 -0.7805 -0.0732 -0.7128
 8691SOL     OW37531   4.595   1.792   7.828  0.1044  0.7567  0.5065
 8691SOL    HW137532   4.583   1.773   7.921 -0.4981  1.1924  0.5194
 8691SOL    HW237533   4.508   1.831   7.820 -0.1470  0.2654  0.8643
 8692SOL     OW37534   4.269   1.008   1.471  0.0744  0.2174  0.0613
 8692SOL    HW137535   4.225   0.985   1.389  1.3031  0.7206 -0.7362
 8692SOL    HW237536   4.197   1.002   1.534  0.4181  0.6494  0.4898
 8693SOL     OW37537   0.063   2.058   8.983 -0.2877 -0.4184 -0.4139
 8693SOL    HW137538   4.707   2.064   9.039 -1.2078 -1.0740 -1.6403
 8693SOL    HW237539   0.094   1.969   8.995  0.0685 -0.9035 -4.9731
 8694SOL     OW37540   4.021   1.575   9.031  0.0779 -0.4955 -0.2726
 8694SOL    HW137541   4.023   1.480   9.043  0.8347 -0.6259 -1.4155
 8694SOL    HW237542   3.978   1.594   8.948 -1.5868  0.6280  0.8364
 8695SOL     OW37543   2.240   1.940   1.634  0.2861 -0.3737  0.0461
 8695SOL    HW137544   2.303   1.993   1.585  1.1512 -0.5108  1.0156
 8695SOL    HW237545   2.206   1.876   1.572  1.4943 -0.4253 -0.5560
 8696SOL     OW37546   1.551   4.176   5.960  0.3305 -0.0781  0.3722
 8696SOL    HW137547   1.625   4.135   5.915  3.0498  0.7844  4.0102
 8696SOL    HW237548   1.592   4.192   6.045  0.2756  1.5602  0.0956
 8697SOL     OW37549   2.584   2.396   8.795 -0.5479 -0.6561  0.3613
 8697SOL    HW137550   2.654   2.387   8.859 -0.2739 -1.1048 -0.0015
 8697SOL    HW237551   2.605   2.478   8.749  1.0001 -0.6484  1.1012
 8698SOL     OW37552   1.618   3.972   8.362 -0.6297 -0.6804  0.5737
 8698SOL    HW137553   1.699   3.952   8.408  0.4925  1.9531 -0.2522
 8698SOL    HW237554   1.611   3.893   8.307  0.5814  0.7502 -1.6633
 8699SOL     OW37555   0.426   1.391  15.891 -0.4386 -0.4896  1.1000
 8699SOL    HW137556   0.406   1.424  15.803  0.9618  0.2334  1.0541
 8699SOL    HW237557   0.503   1.440  15.920  0.5801 -2.6873  2.0673
 8700SOL     OW37558   3.330   1.366   6.151  0.2594  0.1855 -0.0901
 8700SOL    HW137559   3.249   1.415   6.143  0.3752  0.4814  0.5061
 8700SOL    HW237560   3.379   1.421   6.213  0.2211  1.0726 -0.8575
 8701SOL     OW37561   3.086   2.927   3.632 -0.1515 -0.1659  0.4896
 8701SOL    HW137562   3.056   2.877   3.556  1.0502 -1.6894  1.0141
 8701SOL    HW237563   3.078   3.008   3.583  2.9381 -2.0805 -3.1109
 8702SOL     OW37564   2.898   1.190   9.453 -0.6022  0.4031  0.0172
 8702SOL    HW137565   2.805   1.193   9.477 -0.4693  0.2269  0.5370
 8702SOL    HW237566   2.918   1.283   9.449  1.8599 -0.0907  0.9595
 8703SOL     OW37567   0.074   4.486   6.438  0.1192  0.1372 -0.1360
 8703SOL    HW137568   0.084   4.404   6.391 -1.9875  0.8843 -1.8615
 8703SOL    HW237569   0.012   4.454   6.503 -2.1167  0.6664 -2.0225
 8704SOL     OW37570   1.627   4.549  11.207  0.0608  0.3465  0.0832
 8704SOL    HW137571   1.650   4.495  11.283  2.6233 -2.2039 -2.5001
 8704SOL    HW237572   1.648   4.637  11.237 -3.3989  0.8975  0.9037
 8705SOL     OW37573   2.087   1.282   9.783 -0.0156 -0.1798  0.7773
 8705SOL    HW137574   2.099   1.336   9.861  1.1556  0.7926 -0.0776
 8705SOL    HW237575   2.034   1.340   9.729  0.5424 -0.1774  0.2378
 8706SOL     OW37576   4.082   2.453   4.849  0.3813  0.2499  0.8343
 8706SOL    HW137577   4.009   2.484   4.795  0.2673  0.8619  1.3443
 8706SOL    HW237578   4.156   2.478   4.794  1.4398 -0.1251  2.0857
 8707SOL     OW37579   3.636   2.969  16.930 -0.7819 -0.5644  0.1341
 8707SOL    HW137580   3.634   2.887  16.979 -0.5482  0.7162  2.3282
 8707SOL    HW237581   3.726   2.997  16.951 -1.5668  2.0556  0.0664
 8708SOL     OW37582   2.776   2.339   3.909  0.8823  0.5628  0.1198
 8708SOL    HW137583   2.745   2.430   3.905 -1.5990 -0.3242 -0.5282
 8708SOL    HW237584   2.816   2.317   3.825 -0.8700 -2.0273 -0.0201
 8709SOL     OW37585   4.038   3.526   5.854  0.1210  0.1922  0.2807
 8709SOL    HW137586   4.081   3.582   5.788 -1.3413  1.8992  0.7651
 8709SOL    HW237587   4.061   3.572   5.934  0.5236  0.5284 -0.0256
 8710SOL     OW37588   0.503   0.060   4.679 -0.4834  0.0903 -0.3250
 8710SOL    HW137589   0.575   0.122   4.688 -1.3176  0.7111  1.8355
 8710SOL    HW237590   0.472   0.051   4.769  1.3294  0.4549  0.3396
 8711SOL     OW37591   3.934   0.090   7.083  0.0212  0.3296  0.4626
 8711SOL    HW137592   3.955   0.165   7.026  2.0599  0.0720  0.8780
 8711SOL    HW237593   3.861   0.123   7.136 -1.6649 -1.8060 -0.5365
 8712SOL     OW37594   0.170   0.117   7.598 -0.9602 -0.5387 -0.5070
 8712SOL    HW137595   0.169   0.026   7.568  0.1040 -0.6335 -0.2558
 8712SOL    HW237596   0.222   0.160   7.530 -1.5680 -1.6373 -1.6608
 8713SOL     OW37597   1.227   3.939   0.510 -0.2845 -0.0945  0.3626
 8713SOL    HW137598   1.152   3.998   0.497  0.0651 -0.0143 -1.2793
 8713SOL    HW237599   1.193   3.897   0.589  1.0323 -0.5204  0.6994
 8714SOL     OW37600   1.402   1.167  10.468  0.2716  0.2376 -0.7875
 8714SOL    HW137601   1.407   1.244  10.411 -0.2841  0.9070  0.0718
 8714SOL    HW237602   1.429   1.206  10.551  1.0521 -0.7600 -0.5655
 8715SOL     OW37603   1.692   2.291  10.238 -0.3952 -0.3695  0.1023
 8715SOL    HW137604   1.668   2.204  10.206 -0.9945 -0.6874  1.4287
 8715SOL    HW237605   1.650   2.347  10.173 -0.3641  0.9022  1.1916
 8716SOL     OW37606   4.231   2.536   7.923  0.2052  0.7436  0.5426
 8716SOL    HW137607   4.219   2.482   7.845  3.6608  0.0729  0.4819
 8716SOL    HW237608   4.272   2.468   7.977  0.8334 -0.8372 -1.9257
 8717SOL     OW37609   3.849   2.277   4.745  0.5899  0.6805  0.2940
 8717SOL    HW137610   3.918   2.259   4.681 -1.8579 -0.5024 -2.0441
 8717SOL    HW237611   3.896   2.264   4.827  0.9212 -0.4408 -0.0674
 8718SOL     OW37612   3.639   4.405  15.430  0.0847 -0.3760 -0.2850
 8718SOL    HW137613   3.682   4.487  15.454 -0.5324 -0.8828  2.5173
 8718SOL    HW237614   3.694   4.383  15.354  1.7243 -1.5849  1.2360
 8719SOL     OW37615   2.042   2.152   7.719  0.2108 -0.4518  0.2789
 8719SOL    HW137616   2.096   2.227   7.693 -1.9277  1.2409  0.7213
 8719SOL    HW237617   2.115   2.090   7.716  1.8369  1.3569  1.9371
 8720SOL     OW37618   1.716   3.496   2.160  0.0881 -0.4043 -0.1000
 8720SOL    HW137619   1.755   3.561   2.102 -2.5740  0.3395 -1.0680
 8720SOL    HW237620   1.643   3.554   2.185 -0.6037 -1.1364 -0.4297
 8721SOL     OW37621   3.812   4.182   2.855 -0.3472  0.0912 -0.4450
 8721SOL    HW137622   3.832   4.252   2.792  0.5274  0.3908  0.1674
 8721SOL    HW237623   3.728   4.216   2.886  0.3465  1.0675  0.3547
 8722SOL     OW37624   1.166   2.439   4.582  0.2412 -0.0760 -0.0168
 8722SOL    HW137625   1.148   2.507   4.516 -1.3043 -0.6673 -0.2088
 8722SOL    HW237626   1.080   2.400   4.597  1.3208 -1.6770  1.9483
 8723SOL     OW37627   3.483   0.663   4.755  0.4125 -0.1311 -0.2943
 8723SOL    HW137628   3.444   0.578   4.734  0.3377 -0.3372  0.7204
 8723SOL    HW237629   3.511   0.656   4.846 -0.9807  0.6043  0.2013
 8724SOL     OW37630   2.029   1.342   1.967  0.2706  0.1211  0.3463
 8724SOL    HW137631   1.957   1.396   1.933 -0.5021  0.5436  2.6390
 8724SOL    HW237632   2.017   1.342   2.062  1.7778  2.0106  0.5299
 8725SOL     OW37633   1.839   3.305   1.919  0.4649 -0.1304 -0.2768
 8725SOL    HW137634   1.885   3.375   1.964 -0.5210  0.6069 -0.4093
 8725SOL    HW237635   1.755   3.343   1.893 -0.8355 -2.0224  1.1712
 8726SOL     OW37636   2.768   2.563   1.255 -0.2360  0.2172  0.2099
 8726SOL    HW137637   2.685   2.577   1.301  1.0263  3.0403  1.6193
 8726SOL    HW237638   2.785   2.656   1.245 -0.7010  0.3086  0.2408
 8727SOL     OW37639   3.275   2.922  17.299 -0.2109 -0.4103  0.3638
 8727SOL    HW137640   3.281   2.827  17.299  2.2686 -0.2707 -1.7833
 8727SOL    HW237641   3.366   2.943  17.321 -0.7134  0.6026  1.4904
 8728SOL     OW37642   3.998   4.656   8.296  0.1300  0.0568  0.1686
 8728SOL    HW137643   4.003   4.713   8.220  0.3465 -2.7316 -1.9046
 8728SOL    HW237644   4.071   4.595   8.285 -0.2154 -0.3801  0.3029
 8729SOL     OW37645   2.309   4.155   1.965 -0.0370  0.4586 -0.2664
 8729SOL    HW137646   2.377   4.088   1.961  0.7937  1.4204 -2.6131
 8729SOL    HW237647   2.238   4.094   1.945  0.5695 -0.4838  0.4310
 8730SOL     OW37648   3.867   0.093  16.416 -0.0017  0.4128  0.2949
 8730SOL    HW137649   3.774   0.091  16.435 -0.0770  2.3228  0.0628
 8730SOL    HW237650   3.898   0.155  16.482 -0.5656  2.4018 -1.3089
 8731SOL     OW37651   0.417   0.906  13.419  0.0610 -0.1340  0.6127
 8731SOL    HW137652   0.450   0.912  13.508  1.4524  1.8848 -0.0203
 8731SOL    HW237653   0.501   0.904  13.374 -0.0229  0.9756  0.4105
 8732SOL     OW37654   0.014   1.349  16.736 -0.1655 -0.4162  0.1983
 8732SOL    HW137655   0.058   1.347  16.651  0.4070 -2.8784  0.5764
 8732SOL    HW237656   4.649   1.313  16.720 -1.5047  3.0727 -0.3609
 8733SOL     OW37657   3.403   2.438   0.010 -0.3606  0.7832  0.1106
 8733SOL    HW137658   3.362   2.485  17.630  0.3441  1.3645  0.0895
 8733SOL    HW237659   3.434   2.363  17.653  0.8108  1.1219  0.3395
 8734SOL     OW37660   2.308   3.444   4.902  0.0741  0.2226 -0.4609
 8734SOL    HW137661   2.294   3.531   4.866  0.2633  0.4611  0.0460
 8734SOL    HW237662   2.229   3.433   4.955  0.4180  1.7022  0.3603
 8735SOL     OW37663   2.387   0.711   6.158 -0.1210  0.8067  0.5430
 8735SOL    HW137664   2.412   0.728   6.067 -0.8203 -2.4077 -0.2354
 8735SOL    HW237665   2.309   0.656   6.152  1.2543 -1.3546  2.6619
 8736SOL     OW37666   0.465   2.679  12.524 -0.2489 -0.2226  0.7769
 8736SOL    HW137667   0.439   2.707  12.612  0.1463  0.4754  0.6682
 8736SOL    HW237668   0.545   2.631  12.547  0.2112  0.5049  0.6923
 8737SOL     OW37669   0.120   2.222   0.140 -0.3408  0.4421 -0.1711
 8737SOL    HW137670   0.073   2.159   0.084 -1.3095  1.0933 -0.0873
 8737SOL    HW237671   0.167   2.163   0.199 -1.7437 -0.3124  0.2008
 8738SOL     OW37672   2.434   0.737   6.450  0.1833  0.3224 -0.4961
 8738SOL    HW137673   2.512   0.785   6.424 -0.1623  1.9512  1.4456
 8738SOL    HW237674   2.402   0.721   6.361 -1.1841 -1.3356  0.2899
 8739SOL     OW37675   1.790   1.502   7.718  0.1314  0.2078  0.1265
 8739SOL    HW137676   1.869   1.464   7.755 -0.4840 -1.8645 -0.6655
 8739SOL    HW237677   1.734   1.428   7.694 -0.4196  1.1504 -1.5286
 8740SOL     OW37678   3.864   0.091  17.402  0.1912  0.3918  0.0323
 8740SOL    HW137679   3.959   0.083  17.414  0.1513 -0.4762 -0.2279
 8740SOL    HW237680   3.845   0.148  17.477  0.0207  0.6785 -0.2313
 8741SOL     OW37681   1.683   1.691   1.062 -0.3239 -0.4537 -0.3236
 8741SOL    HW137682   1.622   1.764   1.074  0.1936 -0.7690  4.2070
 8741SOL    HW237683   1.703   1.682   0.969 -0.9072 -1.5378 -0.3567
 8742SOL     OW37684   3.852   0.464  16.396  0.5284  0.1400  0.0130
 8742SOL    HW137685   3.801   0.470  16.477 -0.0120 -1.4068 -0.2010
 8742SOL    HW237686   3.938   0.428  16.419  0.3140 -1.1020 -1.1160
 8743SOL     OW37687   3.593   3.331   8.231  0.0356 -0.1260 -0.4940
 8743SOL    HW137688   3.547   3.408   8.197  1.4225  1.0097  0.2349
 8743SOL    HW237689   3.583   3.265   8.162  0.5756  0.3968 -1.0712
 8744SOL     OW37690   2.808   1.962   3.542 -0.4354  0.3162  0.2407
 8744SOL    HW137691   2.734   2.011   3.506 -0.5609 -0.3882 -0.4488
 8744SOL    HW237692   2.779   1.938   3.630  0.0460  0.3981  0.4227
 8745SOL     OW37693   2.577   3.941  15.666 -0.1571 -0.3391  0.7623
 8745SOL    HW137694   2.634   3.870  15.696  1.5630  1.7429  2.4464
 8745SOL    HW237695   2.499   3.892  15.639 -0.6846  0.5169  0.7372
 8746SOL     OW37696   3.834   1.005   2.772  0.5929 -0.4541  0.4342
 8746SOL    HW137697   3.847   0.923   2.819  1.0363 -0.3838  0.4358
 8746SOL    HW237698   3.865   0.974   2.686  0.2514 -0.8373  0.4481
 8747SOL     OW37699   0.009   0.116   3.304 -0.5665 -0.0870 -0.0119
 8747SOL    HW137700   0.005   0.169   3.224  1.1323  0.9284  0.5729
 8747SOL    HW237701   0.093   0.132   3.346  0.9397 -0.9929 -2.7016
 8748SOL     OW37702   0.121   1.757   8.599 -0.2094 -0.4307 -0.4692
 8748SOL    HW137703   0.060   1.715   8.660 -0.7532  0.5690 -0.3182
 8748SOL    HW237704   0.200   1.722   8.641  0.7525  2.5523  0.2159
 8749SOL     OW37705   4.600   1.442  12.086  0.1545  0.4938 -0.0868
 8749SOL    HW137706   4.515   1.484  12.100 -1.3363 -2.2056 -0.9568
 8749SOL    HW237707   4.569   1.353  12.070  0.8167 -0.0531  1.5898
 8750SOL     OW37708   4.317   2.751   7.785  0.4311  0.3917 -0.0742
 8750SOL    HW137709   4.261   2.679   7.815  0.7830 -0.2281 -0.9050
 8750SOL    HW237710   4.402   2.726   7.822 -0.6012  0.4680  2.3820
 8751SOL     OW37711   3.430   1.939   7.925 -0.1102 -0.1569 -0.2400
 8751SOL    HW137712   3.394   1.856   7.955 -0.2589  0.6737  1.8912
 8751SOL    HW237713   3.388   1.950   7.840 -1.5485  0.3420  0.5356
 8752SOL     OW37714   3.217   2.885   3.892 -0.1207  0.4507  0.1197
 8752SOL    HW137715   3.162   2.958   3.923 -1.4478 -0.7390  0.5588
 8752SOL    HW237716   3.196   2.880   3.799  0.3423  0.7844 -0.0051
 8753SOL     OW37717   3.600   4.301  17.132 -0.1544  0.0424  0.0013
 8753SOL    HW137718   3.590   4.362  17.205 -1.4460 -0.1882  0.0187
 8753SOL    HW237719   3.560   4.221  17.165 -0.0916  0.1191  0.2628
 8754SOL     OW37720   2.468   0.808   9.636  0.2772 -0.7396 -0.1474
 8754SOL    HW137721   2.476   0.731   9.692  2.4422 -0.6624 -0.3500
 8754SOL    HW237722   2.415   0.778   9.562 -0.6142  0.8539 -0.1488
 8755SOL     OW37723   0.807   4.462  16.512  0.3624 -0.0399  0.1493
 8755SOL    HW137724   0.829   4.555  16.523 -1.4794  0.3666  0.3878
 8755SOL    HW237725   0.865   4.420  16.575 -1.4947  1.0907  2.6389
 8756SOL     OW37726   2.086   3.110  15.539  0.5821 -0.0400  0.3773
 8756SOL    HW137727   2.033   3.065  15.474 -1.8439 -1.0077  2.9740
 8756SOL    HW237728   2.025   3.183  15.555  0.2724 -0.0368 -0.8116
 8757SOL     OW37729   3.287   4.133   0.713 -0.4755 -0.3047 -0.5057
 8757SOL    HW137730   3.378   4.140   0.686 -0.2628  2.9389  1.0855
 8757SOL    HW237731   3.294   4.144   0.808  0.6553  0.4859 -0.6839
 8758SOL     OW37732   3.568   3.723  10.542 -0.1589 -0.1942 -0.0029
 8758SOL    HW137733   3.545   3.761  10.457 -0.1780 -1.1982 -0.4500
 8758SOL    HW237734   3.559   3.803  10.593  0.2937 -1.3141  1.8294
 8759SOL     OW37735   3.114   3.568   6.595 -0.4948 -0.2908  0.1241
 8759SOL    HW137736   3.060   3.646   6.580 -0.0264  0.0015 -0.0721
 8759SOL    HW237737   3.109   3.557   6.690  1.0619  1.3061  0.4010
 8760SOL     OW37738   2.497   3.762   3.534 -0.1410  0.1595 -0.4712
 8760SOL    HW137739   2.422   3.730   3.585  0.8089 -2.2208 -0.5649
 8760SOL    HW237740   2.503   3.692   3.469  1.1749  0.3403 -0.5270
 8761SOL     OW37741   2.371   0.236  13.645  0.0228 -0.1410 -0.0537
 8761SOL    HW137742   2.353   0.158  13.697 -3.2274  0.3703 -0.4198
 8761SOL    HW237743   2.405   0.186  13.571  0.3282 -0.7343  0.4921
 8762SOL     OW37744   4.318   0.575   9.316 -0.3021 -0.2599 -0.3293
 8762SOL    HW137745   4.391   0.519   9.287  0.5461  0.8186 -0.2920
 8762SOL    HW237746   4.260   0.505   9.343  1.0323 -1.5221 -0.7453
 8763SOL     OW37747   1.760   4.459  13.987  0.2399 -0.2684  0.5198
 8763SOL    HW137748   1.723   4.509  13.914  0.4293 -1.1542 -0.1767
 8763SOL    HW237749   1.676   4.449  14.031  0.2859  2.2069  1.2038
 8764SOL     OW37750   1.958   0.808  16.360  0.2744  0.1726  0.2030
 8764SOL    HW137751   1.953   0.790  16.266  2.3388  1.6524 -0.1859
 8764SOL    HW237752   1.973   0.902  16.353  0.9844  0.0129 -0.3408
 8765SOL     OW37753   2.656   2.855   5.069 -0.2376  0.8371 -0.7179
 8765SOL    HW137754   2.562   2.862   5.054 -0.0999  0.1868 -1.8589
 8765SOL    HW237755   2.649   2.881   5.161  1.3480 -1.8933  0.1757
 8766SOL     OW37756   2.938   2.246   9.798  0.0701 -0.3596 -0.5987
 8766SOL    HW137757   3.022   2.282   9.767 -0.1482  0.3877 -0.3109
 8766SOL    HW237758   2.881   2.276   9.728  0.0870  0.1096 -0.4065
 8767SOL     OW37759   3.407   0.588   5.792  0.5748 -0.0536  0.2882
 8767SOL    HW137760   3.465   0.628   5.856  0.4435  0.9973 -0.2523
 8767SOL    HW237761   3.436   0.497   5.793 -0.3300 -0.3052  4.3952
 8768SOL     OW37762   3.637   0.270   8.687 -0.4544  0.0365  0.6638
 8768SOL    HW137763   3.594   0.187   8.705  0.8267 -0.9921 -0.9861
 8768SOL    HW237764   3.725   0.246   8.658 -0.3876  0.8500  0.1859
 8769SOL     OW37765   0.894   2.384   0.253  0.1291 -0.1682  0.3936
 8769SOL    HW137766   0.977   2.406   0.296 -1.5490 -0.2378  3.6551
 8769SOL    HW237767   0.830   2.438   0.301 -1.4669 -1.9603  0.2629
 8770SOL     OW37768   2.257   4.253  10.734 -0.1147 -0.5343  0.1769
 8770SOL    HW137769   2.282   4.340  10.764 -2.0234  0.8089 -2.1112
 8770SOL    HW237770   2.338   4.207  10.756  1.5153  2.4307  0.3852
 8771SOL     OW37771   3.012   0.626   2.751 -0.0965 -0.3511 -0.8621
 8771SOL    HW137772   3.030   0.702   2.696 -1.2392 -0.5761 -1.5384
 8771SOL    HW237773   3.085   0.641   2.811  2.0615  0.4640 -3.6885
 8772SOL     OW37774   2.249   1.026   7.732 -0.2286 -0.3470  0.3045
 8772SOL    HW137775   2.264   0.932   7.736  1.3017 -0.0435  1.3459
 8772SOL    HW237776   2.201   1.025   7.649  1.5219  0.7687 -0.7271
 8773SOL     OW37777   0.573   3.804   9.731 -0.4511 -0.0113 -0.4359
 8773SOL    HW137778   0.571   3.726   9.786  0.6684  0.3739  0.1499
 8773SOL    HW237779   0.573   3.881   9.787  0.9549 -1.9372  2.1695
 8774SOL     OW37780   4.559   4.666  10.410  0.1017 -0.9159 -0.3439
 8774SOL    HW137781   4.480   4.709  10.378 -1.1858 -2.8243  0.2621
 8774SOL    HW237782   4.523   4.581  10.437  0.5777  0.1154  3.6535
 8775SOL     OW37783   0.506   4.117  13.167 -0.5824 -0.1303 -0.4255
 8775SOL    HW137784   0.553   4.123  13.084 -0.1226 -0.8645 -0.2183
 8775SOL    HW237785   0.540   4.194  13.213 -1.4738  0.1080 -0.1698
 8776SOL     OW37786   3.421   2.968   2.670  0.9887  0.7886  0.2137
 8776SOL    HW137787   3.343   2.913   2.664  1.6116  0.1548 -2.0804
 8776SOL    HW237788   3.464   2.923   2.743  1.2329  0.0594 -0.3806
 8777SOL     OW37789   3.929   3.558  10.544 -0.5701 -0.1073  0.5582
 8777SOL    HW137790   4.024   3.550  10.540 -0.4648  1.2602  0.4177
 8777SOL    HW237791   3.927   3.645  10.584  2.4590  1.3465 -2.4732
 8778SOL     OW37792   4.333   3.788   8.208  0.2716 -0.1073 -0.3586
 8778SOL    HW137793   4.334   3.799   8.303 -1.3514 -0.8234 -0.2686
 8778SOL    HW237794   4.428   3.789   8.194  0.3476 -0.2861  0.1502
 8779SOL     OW37795   3.010   3.675  12.654 -0.7594  0.1589 -0.3767
 8779SOL    HW137796   2.952   3.650  12.582 -2.0267 -1.3316  1.1753
 8779SOL    HW237797   2.970   3.762  12.659 -0.1631  0.4872 -1.3452
 8780SOL     OW37798   2.193   0.323   7.677  0.1105 -0.1420  0.1660
 8780SOL    HW137799   2.196   0.382   7.752  2.8289  1.4626 -1.2261
 8780SOL    HW237800   2.101   0.320   7.651  0.6277  0.0537 -1.6575
 8781SOL     OW37801   1.551   2.562   0.884 -0.0875 -0.2285  0.4966
 8781SOL    HW137802   1.589   2.622   0.820  0.2852  1.2792  2.1439
 8781SOL    HW237803   1.550   2.606   0.969  2.7720 -0.4399  0.6632
 8782SOL     OW37804   4.256   2.983   3.857  0.0396  0.3921 -0.1001
 8782SOL    HW137805   4.185   3.023   3.908 -0.7984  1.8374 -2.4003
 8782SOL    HW237806   4.288   3.046   3.792 -1.1851 -0.0628 -1.1517
 8783SOL     OW37807   2.025   0.573   7.031 -0.1598  0.2697 -0.5383
 8783SOL    HW137808   2.083   0.536   7.098 -0.7496  0.1785 -0.0757
 8783SOL    HW237809   2.070   0.540   6.953  0.1616  1.8063 -1.0075
 8784SOL     OW37810   1.501   1.917   9.542 -0.0380 -0.2942  0.4318
 8784SOL    HW137811   1.436   1.849   9.526 -0.2216  0.1517 -0.6977
 8784SOL    HW237812   1.453   1.984   9.591 -0.4641 -0.7838  0.6752
 8785SOL     OW37813   1.678   0.885   1.096 -0.2896  0.3207  0.0123
 8785SOL    HW137814   1.620   0.854   1.026 -0.6593  0.9267  0.0402
 8785SOL    HW237815   1.739   0.812   1.092  0.6614  1.2097 -1.6902
 8786SOL     OW37816   4.056   3.620   0.992 -0.3550 -0.2746 -0.5754
 8786SOL    HW137817   4.139   3.641   0.948  1.5061 -3.5420  1.4291
 8786SOL    HW237818   4.069   3.675   1.069 -0.8809  0.1214 -0.7728
 8787SOL     OW37819   2.433   0.217   7.296  0.1470  0.2353  0.2931
 8787SOL    HW137820   2.467   0.213   7.207 -1.4951 -0.1410 -0.3054
 8787SOL    HW237821   2.521   0.198   7.330  0.8238 -1.1652 -2.2831
 8788SOL     OW37822   2.357   0.103   7.628 -0.7088 -0.3559  0.0711
 8788SOL    HW137823   2.306   0.184   7.632  1.7297  1.1368  0.9576
 8788SOL    HW237824   2.300   0.049   7.682 -2.4004  1.0934 -0.2826
 8789SOL     OW37825   2.109   2.668  16.424 -0.0401  0.5958 -0.3245
 8789SOL    HW137826   2.128   2.759  16.448 -1.5908  0.8200  0.0009
 8789SOL    HW237827   2.192   2.645  16.382  0.1228  0.1748  0.2327
 8790SOL     OW37828   0.847   1.920   2.935  0.7499 -0.3709 -0.5297
 8790SOL    HW137829   0.917   1.940   2.873  4.0949 -2.2418  2.6932
 8790SOL    HW237830   0.852   1.991   2.999 -0.4624  0.3255 -1.2086
 8791SOL     OW37831   1.596   2.585  12.092  0.5201  0.4696 -0.2736
 8791SOL    HW137832   1.618   2.618  12.005  1.3893  0.7687  0.0603
 8791SOL    HW237833   1.656   2.511  12.104  0.7138  0.8140  0.9119
 8792SOL     OW37834   2.355   1.889   1.153 -0.2824  0.2768  0.1324
 8792SOL    HW137835   2.445   1.902   1.182  0.0725  0.0745 -0.8502
 8792SOL    HW237836   2.343   1.957   1.087 -0.5465 -0.7949 -0.9359
 8793SOL     OW37837   2.057   0.320   9.462  0.2967  0.5099 -0.3226
 8793SOL    HW137838   2.060   0.384   9.391 -0.8152  0.7796 -0.1260
 8793SOL    HW237839   2.006   0.255   9.414  0.2095 -1.2347  2.0863
 8794SOL     OW37840   3.568   4.474   7.696  0.1388  0.6995  0.0689
 8794SOL    HW137841   3.634   4.438   7.636  1.0990  1.4668  0.6632
 8794SOL    HW237842   3.497   4.413   7.673  1.1273 -0.9426  1.3067
 8795SOL     OW37843   1.786   1.976   9.016 -0.4205  0.7593  0.2527
 8795SOL    HW137844   1.799   2.015   9.102 -1.3445 -1.4127  1.3706
 8795SOL    HW237845   1.814   2.046   8.957 -1.7539  1.3743  0.3558
 8796SOL     OW37846   2.521   2.033   5.511 -0.3036  0.1771  0.6192
 8796SOL    HW137847   2.550   1.946   5.486  2.6148  1.0181  0.9722
 8796SOL    HW237848   2.562   2.092   5.447 -2.0092  1.9888  1.1944
 8797SOL     OW37849   3.198   4.420   2.944 -0.2481  0.1099  0.2819
 8797SOL    HW137850   3.116   4.383   2.978 -0.3290 -0.7093 -0.7844
 8797SOL    HW237851   3.206   4.501   2.995  0.3916 -0.6974  1.4684
 8798SOL     OW37852   2.158   1.828   9.479 -0.0361 -0.2564  0.5052
 8798SOL    HW137853   2.097   1.852   9.549  0.5679  0.3018  0.8389
 8798SOL    HW237854   2.115   1.751   9.442  1.3332 -0.6661 -0.2340
 8799SOL     OW37855   3.593   1.843   2.381 -0.3852  0.1699 -0.1364
 8799SOL    HW137856   3.670   1.839   2.324 -1.1334  0.5120 -1.1692
 8799SOL    HW237857   3.625   1.779   2.444 -1.8980 -0.2191  0.2106
 8800SOL     OW37858   3.038   3.271   8.343  0.2051  0.0404 -0.5769
 8800SOL    HW137859   2.964   3.320   8.306 -0.3663 -0.2891  0.1429
 8800SOL    HW237860   3.023   3.184   8.307  2.1759 -0.8723  0.8491
 8801SOL     OW37861   1.811   2.485   6.952  0.3850  0.6330 -0.2800
 8801SOL    HW137862   1.889   2.536   6.973  0.4637  0.4854 -0.2192
 8801SOL    HW237863   1.783   2.522   6.868 -0.6450 -1.0057 -0.6472
 8802SOL     OW37864   0.240   1.242   4.597  0.4300 -0.6264  0.3817
 8802SOL    HW137865   0.164   1.218   4.650 -1.3063  0.2527 -1.6921
 8802SOL    HW237866   0.297   1.207   4.665  0.3869 -0.2285  0.6206
 8803SOL     OW37867   3.688   1.549   6.225 -0.1028 -0.7379  0.8677
 8803SOL    HW137868   3.736   1.605   6.163  1.2075 -1.1932  1.4852
 8803SOL    HW237869   3.669   1.472   6.171 -2.5251  1.4082 -1.3862
 8804SOL     OW37870   0.995   4.508  12.229  0.1283 -0.1418  0.0942
 8804SOL    HW137871   1.015   4.542  12.316 -1.6210 -1.6322  1.0804
 8804SOL    HW237872   1.063   4.442  12.215 -0.5498 -0.4961 -1.6302
 8805SOL     OW37873   1.294   2.451  11.148  0.3207  0.1897 -0.0657
 8805SOL    HW137874   1.389   2.443  11.145  0.2364 -0.4235 -1.1297
 8805SOL    HW237875   1.276   2.475  11.057 -0.6885  0.3626  0.1758
 8806SOL     OW37876   4.053   3.132   3.134  0.2198  0.1036  0.0831
 8806SOL    HW137877   4.131   3.147   3.187 -0.1532  0.5518  0.4995
 8806SOL    HW237878   4.017   3.060   3.185 -1.3254  1.7873  1.3802
 8807SOL     OW37879   1.983   0.071   8.735 -0.0427  0.1240  0.4120
 8807SOL    HW137880   1.953   0.153   8.696  1.1851  0.6743  0.6298
 8807SOL    HW237881   2.061   0.111   8.774  0.0947  0.1328  0.1354
 8808SOL     OW37882   4.063   3.088   4.519  0.5053  0.2396 -0.5669
 8808SOL    HW137883   4.120   3.154   4.559  0.5175  0.6267 -1.2184
 8808SOL    HW237884   4.063   3.123   4.430 -0.3677  0.0610 -0.6377
 8809SOL     OW37885   2.047   1.072   8.728 -0.3438 -0.2807 -0.3980
 8809SOL    HW137886   2.121   1.079   8.787 -0.8045  1.2342  0.0113
 8809SOL    HW237887   1.973   1.080   8.789 -0.4561  1.6552 -0.7856
 8810SOL     OW37888   3.687   0.999  16.776  0.2321  0.1140  0.3202
 8810SOL    HW137889   3.610   1.049  16.751  0.5068  1.1549  1.5857
 8810SOL    HW237890   3.760   1.058  16.752 -0.1486  0.3290 -0.3314
 8811SOL     OW37891   0.508   0.379   9.153  0.1352  0.4925 -0.0743
 8811SOL    HW137892   0.446   0.320   9.197 -1.4863  1.1448 -1.5091
 8811SOL    HW237893   0.487   0.463   9.193 -4.0091 -0.3620 -0.4393
 8812SOL     OW37894   4.613   0.484   8.566  0.1314  0.0646  0.1639
 8812SOL    HW137895   4.689   0.427   8.552 -0.0240 -0.0803 -0.0795
 8812SOL    HW237896   4.592   0.508   8.476  2.1808  1.9558  0.1731
 8813SOL     OW37897   3.886   4.097   1.272 -0.2358  0.3370  0.0605
 8813SOL    HW137898   3.886   4.032   1.343 -1.2926 -0.3483 -0.5685
 8813SOL    HW237899   3.829   4.157   1.319 -2.6252 -0.2339 -2.1378
 8814SOL     OW37900   1.975   3.248   4.062  0.6759  0.0753 -0.1535
 8814SOL    HW137901   1.975   3.171   4.118  1.5687 -1.3943 -2.2026
 8814SOL    HW237902   1.956   3.205   3.979  0.0127 -0.3105  0.2037
 8815SOL     OW37903   4.042   2.889   7.689  0.1548 -0.0723 -0.3399
 8815SOL    HW137904   4.030   2.984   7.696  1.4676 -0.0313  1.1298
 8815SOL    HW237905   4.044   2.868   7.595 -0.7931 -0.0768 -0.3595
 8816SOL     OW37906   2.223   4.543   9.018  0.0552 -0.1266 -0.5826
 8816SOL    HW137907   2.165   4.467   9.014 -1.4694  1.1416 -2.9289
 8816SOL    HW237908   2.263   4.539   8.931  0.4121 -1.5753 -0.3443
 8817SOL     OW37909   2.207   1.441   3.258  0.5662  0.6293  0.1598
 8817SOL    HW137910   2.248   1.354   3.266  2.7884  1.9525  2.9233
 8817SOL    HW237911   2.282   1.501   3.263  1.1874 -0.0352 -0.9785
 8818SOL     OW37912   0.960   4.631   6.640 -0.2508 -0.1820  0.0790
 8818SOL    HW137913   0.945   4.566   6.571  0.0771  0.3389 -0.4787
 8818SOL    HW237914   1.056   4.635   6.640 -0.3362  1.8023 -0.2388
 8819SOL     OW37915   0.313   0.530   3.325  0.3242  0.1572 -0.1912
 8819SOL    HW137916   0.336   0.475   3.250 -1.4923  0.0118 -0.6342
 8819SOL    HW237917   0.365   0.610   3.319  1.3705 -0.4115  1.2082
 8820SOL     OW37918   3.514   1.129  17.286  0.2429 -0.3988 -0.4418
 8820SOL    HW137919   3.554   1.144  17.371 -0.1946 -0.6789 -0.1842
 8820SOL    HW237920   3.590   1.135  17.228  0.2434 -0.5207 -0.4538
 8821SOL     OW37921   2.566   0.341   5.704  0.0585 -0.5395  0.2443
 8821SOL    HW137922   2.547   0.262   5.754 -1.6050  0.3592  1.0616
 8821SOL    HW237923   2.660   0.339   5.717 -0.0527  3.3786  1.6300
 8822SOL     OW37924   4.041   3.684   1.742 -0.2625  0.4567 -0.1975
 8822SOL    HW137925   4.055   3.646   1.829 -2.7709  1.4857  0.6324
 8822SOL    HW237926   3.947   3.697   1.741 -0.2138  0.6660 -1.6800
 8823SOL     OW37927   2.826   1.332   2.704  0.6501  0.8037  0.1065
 8823SOL    HW137928   2.760   1.334   2.773 -1.4891  0.4845 -1.8864
 8823SOL    HW237929   2.897   1.282   2.743  1.3255 -0.2937 -2.5144
 8824SOL     OW37930   3.224   3.560  13.378 -0.4467  0.0175 -0.1457
 8824SOL    HW137931   3.234   3.492  13.444 -2.6263  0.3474  0.5518
 8824SOL    HW237932   3.137   3.541  13.342 -0.9516 -0.3375  1.2515
 8825SOL     OW37933   1.173   0.554   5.254 -0.4412 -0.4063  0.0982
 8825SOL    HW137934   1.121   0.594   5.184 -2.0361  0.8542  2.0199
 8825SOL    HW237935   1.261   0.571   5.221 -1.1790 -2.2595 -2.8117
 8826SOL     OW37936   0.450   3.643   7.477 -0.7433  0.0068 -0.3821
 8826SOL    HW137937   0.397   3.577   7.433  0.5615 -1.3996  0.2050
 8826SOL    HW237938   0.526   3.654   7.420 -1.9801  1.2848 -1.8087
 8827SOL     OW37939   2.146   3.651   0.091  0.3256 -0.0354  0.0321
 8827SOL    HW137940   2.201   3.591   0.040  2.4565  1.1955  0.8693
 8827SOL    HW237941   2.139   3.606   0.175  0.3555  1.3902  0.7862
 8828SOL     OW37942   0.123   2.063   6.591 -0.2417  0.0646 -0.3322
 8828SOL    HW137943   0.072   2.059   6.511  1.8547  2.2703 -1.7774
 8828SOL    HW237944   0.077   2.007   6.654 -1.4986  2.0104  0.4483
 8829SOL     OW37945   1.960   4.434  17.281  0.1887  0.2492 -0.1534
 8829SOL    HW137946   1.958   4.515  17.230 -0.9608  1.1685  1.3581
 8829SOL    HW237947   1.918   4.463  17.362  1.0380  1.1811 -0.0450
 8830SOL     OW37948   1.538   0.309   6.755 -0.2526 -0.7372 -0.1874
 8830SOL    HW137949   1.628   0.295   6.723 -0.8123 -1.1799 -1.5538
 8830SOL    HW237950   1.558   0.291   6.847 -3.5507  0.5950  0.7745
 8831SOL     OW37951   3.454   3.533   3.714  0.0451 -0.1501 -0.3814
 8831SOL    HW137952   3.547   3.509   3.709  0.0398 -0.4405  0.9268
 8831SOL    HW237953   3.420   3.499   3.631  0.5280  1.9803 -1.4395
 8832SOL     OW37954   4.394   2.633   3.208  0.1438 -0.1241 -0.0268
 8832SOL    HW137955   4.399   2.663   3.299  0.0007 -0.4318  0.0831
 8832SOL    HW237956   4.386   2.540   3.232  0.3075 -0.1405 -0.0350
 8833SOL     OW37957   2.719   2.194  16.013  0.1810 -0.6618 -0.3831
 8833SOL    HW137958   2.648   2.167  16.071  0.8683 -1.5680  0.0107
 8833SOL    HW237959   2.699   2.287  15.999  0.4489 -0.6373 -0.5935
 8834SOL     OW37960   3.049   2.178   2.446 -0.2786 -0.1467  0.3552
 8834SOL    HW137961   3.116   2.229   2.402  0.1597 -0.4401  0.6844
 8834SOL    HW237962   3.045   2.226   2.528 -0.3844  0.0063  0.2592
 8835SOL     OW37963   4.009   3.352   6.104  0.3806 -0.3136 -0.0401
 8835SOL    HW137964   3.980   3.395   6.024  3.3224  0.7387 -0.5376
 8835SOL    HW237965   3.922   3.327   6.135  0.0590  0.0646 -0.6582
 8836SOL     OW37966   2.713   1.081  16.915  0.2937 -0.1531 -0.2974
 8836SOL    HW137967   2.648   1.146  16.942  0.1462 -0.6154  0.4549
 8836SOL    HW237968   2.732   1.116  16.828  0.5974  0.4609  0.0144
 8837SOL     OW37969   0.337   1.673   6.391  0.5578  0.0786 -0.0739
 8837SOL    HW137970   0.409   1.658   6.452  0.1043  1.6229  0.8347
 8837SOL    HW237971   0.324   1.767   6.390 -1.4676 -0.1964 -0.0194
 8838SOL     OW37972   1.240   4.042   4.878  0.3745  0.4048 -0.2154
 8838SOL    HW137973   1.277   3.955   4.894  0.9491  0.9287  1.3438
 8838SOL    HW237974   1.320   4.087   4.852 -0.6843  0.6734 -3.0735
 8839SOL     OW37975   1.313   1.037  12.578  0.4195 -0.1107  0.6076
 8839SOL    HW137976   1.383   0.977  12.554  0.1605 -0.1813  0.0446
 8839SOL    HW237977   1.237   0.986  12.550  0.5329  0.6587 -1.0664
 8840SOL     OW37978   2.904   1.479   1.644 -0.1695 -0.4847 -0.1764
 8840SOL    HW137979   2.844   1.525   1.703 -0.4812 -0.4236 -0.5398
 8840SOL    HW237980   2.954   1.555   1.616  0.4547 -0.8750 -0.1257
 8841SOL     OW37981   2.901   2.945   5.943  0.2606 -0.3481 -0.4124
 8841SOL    HW137982   2.806   2.946   5.958  0.2614 -2.4687 -0.3620
 8841SOL    HW237983   2.909   2.914   5.853  2.1783  0.2877 -0.4722
 8842SOL     OW37984   0.104   4.216   6.617  0.0215  0.0898 -0.4270
 8842SOL    HW137985   0.051   4.175   6.549  1.1399  1.1172 -1.9107
 8842SOL    HW237986   0.052   4.293   6.642 -1.5168 -1.3086  0.6609
 8843SOL     OW37987   4.147   1.925   8.123 -0.3517  0.5502 -0.1213
 8843SOL    HW137988   4.203   1.943   8.199  1.5788  0.7412 -1.6072
 8843SOL    HW237989   4.154   2.011   8.081  2.0925 -0.8761 -2.6247
 8844SOL     OW37990   3.850   2.619   0.002  0.3199 -0.1190 -0.5651
 8844SOL    HW137991   3.812   2.564  17.627 -0.9556  1.8355 -1.4346
 8844SOL    HW237992   3.934   2.582   0.029 -0.6576 -0.6444  1.7885
 8845SOL     OW37993   1.826   4.000   2.968 -0.2730 -0.0366 -0.7107
 8845SOL    HW137994   1.841   4.058   2.893 -1.5228  1.3727  0.1389
 8845SOL    HW237995   1.836   3.911   2.933  0.3626  0.8747 -2.8321
 8846SOL     OW37996   0.305   0.780   5.357  0.2703 -0.2831 -0.0736
 8846SOL    HW137997   0.382   0.736   5.395  3.0362  1.3802 -3.7743
 8846SOL    HW237998   0.309   0.868   5.396  1.8734 -0.5546  0.3917
 8847SOL     OW37999   0.036   3.635   4.031 -0.0178  0.3867 -0.0694
 8847SOL    HW138000   0.059   3.585   4.110  1.6045  1.3244  0.0667
 8847SOL    HW238001   0.070   3.571   3.967  1.2220  0.8923  0.0788
 8848SOL     OW38002   3.172   1.345   8.463 -0.2949 -0.0337 -0.0904
 8848SOL    HW138003   3.106   1.410   8.489 -0.1637 -0.6240  1.7056
 8848SOL    HW238004   3.140   1.283   8.529 -0.2797 -0.5845 -0.6017
 8849SOL     OW38005   0.392   0.127  14.501 -0.6925  0.3562  0.6506
 8849SOL    HW138006   0.466   0.081  14.540 -0.8949 -1.2604 -0.8288
 8849SOL    HW238007   0.394   0.097  14.410  1.0406 -0.8920  1.1133
 8850SOL     OW38008   4.213   2.071  14.546 -0.0902 -0.2203 -0.3609
 8850SOL    HW138009   4.302   2.039  14.534  0.9087  1.9457  1.2641
 8850SOL    HW238010   4.217   2.120  14.628 -1.9971 -1.1364  0.2941
 8851SOL     OW38011   1.411   4.093   6.671 -0.5399  0.1341  0.4835
 8851SOL    HW138012   1.505   4.111   6.675 -0.3320 -1.1696  1.4934
 8851SOL    HW238013   1.374   4.182   6.672 -0.0294  0.3722 -2.8021
 8852SOL     OW38014   3.814   3.245   5.217 -0.2886  0.5516 -0.4147
 8852SOL    HW138015   3.770   3.298   5.283 -2.5160 -1.0768 -0.6164
 8852SOL    HW238016   3.888   3.298   5.184  0.7401 -1.7637 -1.8030
 8853SOL     OW38017   3.633   0.047   6.911 -0.5303 -0.2626 -0.2065
 8853SOL    HW138018   3.621   0.043   6.816  0.8601  0.2820 -0.3932
 8853SOL    HW238019   3.678   0.130   6.925 -2.0207  0.6294 -0.6732
 8854SOL     OW38020   4.414   2.187   6.195  0.6361 -0.3874  0.1510
 8854SOL    HW138021   4.365   2.217   6.118 -0.6118  0.4196  1.2490
 8854SOL    HW238022   4.395   2.253   6.262 -0.0386  0.3201 -0.7284
 8855SOL     OW38023   2.876   0.432  15.334 -0.2639  0.0024  0.1591
 8855SOL    HW138024   2.850   0.386  15.414  0.9484 -1.6495 -0.4044
 8855SOL    HW238025   2.898   0.356  15.280  1.2564  1.2282 -0.9395
 8856SOL     OW38026   4.237   2.254  14.739 -0.3681  0.2986  0.1496
 8856SOL    HW138027   4.192   2.339  14.735 -0.8571  0.0554  0.4908
 8856SOL    HW238028   4.316   2.285  14.783  0.4236 -0.4216 -0.7812
 8857SOL     OW38029   1.431   3.603   5.912 -0.1539  0.4262  0.0603
 8857SOL    HW138030   1.508   3.556   5.946  2.2386  1.5937 -3.7023
 8857SOL    HW238031   1.394   3.534   5.857 -0.9005  1.6969 -1.0257
 8858SOL     OW38032   3.959   1.364   6.043  0.0719 -0.5511  0.1128
 8858SOL    HW138033   3.869   1.348   6.069  0.5656  1.7776  3.1786
 8858SOL    HW238034   3.973   1.449   6.084 -0.7727  0.4695 -1.6822
 8859SOL     OW38035   0.688   1.287   7.174  0.0056 -0.5747  0.5756
 8859SOL    HW138036   0.771   1.249   7.204  0.3526 -0.1902  0.0861
 8859SOL    HW238037   0.635   1.290   7.254  2.0615  0.9813  1.8489
 8860SOL     OW38038   4.444   1.250   6.407 -0.2356 -0.3006 -0.3021
 8860SOL    HW138039   4.458   1.162   6.375 -1.4417 -1.4247  2.2247
 8860SOL    HW238040   4.354   1.241   6.440 -0.0868  0.3106  0.2905
 8861SOL     OW38041   4.160   3.213   5.362  0.1199 -0.0537  0.4048
 8861SOL    HW138042   4.229   3.205   5.296  0.4275  1.9673  0.4557
 8861SOL    HW238043   4.115   3.131   5.347  0.1211  0.1609 -0.7446
 8862SOL     OW38044   3.335   0.911   4.693  0.0483  0.1902 -0.0745
 8862SOL    HW138045   3.338   0.885   4.601 -0.5027  0.3836 -0.1425
 8862SOL    HW238046   3.380   0.832   4.725  1.5935  0.9855 -0.2804
 8863SOL     OW38047   2.215   0.087   7.163 -0.5677 -0.1718  0.1967
 8863SOL    HW138048   2.280   0.107   7.230 -1.0912  3.5784 -0.3991
 8863SOL    HW238049   2.226   0.147   7.089 -2.1038 -0.7165 -0.4757
 8864SOL     OW38050   3.282   2.537   2.487 -1.1052 -0.4384 -0.0124
 8864SOL    HW138051   3.283   2.445   2.461  2.1118 -0.1439 -0.8575
 8864SOL    HW238052   3.197   2.555   2.448 -1.5545 -2.0578  0.1855
 8865SOL     OW38053   3.882   2.575  13.729 -0.2275  0.0543 -0.3786
 8865SOL    HW138054   3.807   2.519  13.712  0.1337  0.0805 -2.1042
 8865SOL    HW238055   3.853   2.652  13.682  1.4714  0.4160 -0.8544
 8866SOL     OW38056   4.032   2.154   4.264  0.0766 -0.1518  0.7623
 8866SOL    HW138057   4.003   2.068   4.297 -0.2696 -0.0902  0.6166
 8866SOL    HW238058   4.051   2.127   4.174 -0.0235  0.5601  0.5287
 8867SOL     OW38059   0.929   2.036   5.792 -0.5159  0.7569  0.5997
 8867SOL    HW138060   0.879   1.955   5.799  1.5764 -0.6892 -1.6215
 8867SOL    HW238061   1.014   2.008   5.824 -0.5016  0.3550  0.1992
 8868SOL     OW38062   3.090   0.865   2.633  0.0325  0.0377 -0.3036
 8868SOL    HW138063   3.106   0.956   2.607 -1.7095  0.8747  1.5295
 8868SOL    HW238064   3.047   0.834   2.553 -1.6940 -0.6798  0.8969
 8869SOL     OW38065   2.564   3.977  12.995  0.1993 -0.3828  0.0673
 8869SOL    HW138066   2.497   4.045  12.984 -0.9635 -1.2305  1.7812
 8869SOL    HW238067   2.517   3.894  12.979 -0.7880 -0.3214  2.5863
 8870SOL     OW38068   3.800   1.250   4.639 -0.4871 -0.1056 -0.3966
 8870SOL    HW138069   3.716   1.267   4.597 -1.2154 -1.0785  0.6591
 8870SOL    HW238070   3.839   1.172   4.600  3.4708  1.0297  1.2765
 8871SOL     OW38071   0.419   2.175   6.150  0.0239  0.2416  0.0901
 8871SOL    HW138072   0.327   2.152   6.153  0.3240 -0.8934  0.3563
 8871SOL    HW238073   0.402   2.259   6.106 -4.4676  0.4428  2.2433
 8872SOL     OW38074   1.628   1.914   6.061 -0.3057 -0.2976 -0.2778
 8872SOL    HW138075   1.534   1.905   6.078  0.0843 -1.5275  1.1913
 8872SOL    HW238076   1.634   1.837   6.005  1.9683  1.0235 -1.7924
 8873SOL     OW38077   4.406   2.236  10.604 -0.2011 -0.3140 -0.9498
 8873SOL    HW138078   4.380   2.150  10.639  0.1738  0.4082  1.1130
 8873SOL    HW238079   4.479   2.253  10.663 -1.8323 -0.8027  1.2407
 8874SOL     OW38080   4.601   2.250   8.067  0.1859 -0.4082  0.1943
 8874SOL    HW138081   4.615   2.201   8.148  0.6042 -1.1283 -0.3038
 8874SOL    HW238082   4.689   2.274   8.038  1.1857 -2.0526  1.7963
 8875SOL     OW38083   3.842   2.086   2.843 -0.2432  0.0240 -0.5655
 8875SOL    HW138084   3.890   2.167   2.825 -0.2438 -0.2903 -1.9982
 8875SOL    HW238085   3.892   2.025   2.789 -1.0240 -1.2207  0.1235
 8876SOL     OW38086   1.937   2.183   8.453  0.1919 -0.0124 -0.0154
 8876SOL    HW138087   1.924   2.130   8.532 -3.5148 -0.4569 -0.9166
 8876SOL    HW238088   1.932   2.115   8.386 -0.2707 -0.3225  0.3343
 8877SOL     OW38089   2.462   2.382   5.662  0.0809  0.0108  0.5737
 8877SOL    HW138090   2.437   2.384   5.569 -1.2107  2.0152  0.9743
 8877SOL    HW238091   2.555   2.366   5.645 -0.1628  0.3977 -1.1236
 8878SOL     OW38092   4.004   3.163   4.833 -1.2160 -0.0388  0.1484
 8878SOL    HW138093   4.073   3.225   4.808 -0.2070 -1.0593  0.4151
 8878SOL    HW238094   3.924   3.200   4.796  0.0845  1.8080 -0.8711
 8879SOL     OW38095   3.471   0.160  13.087 -0.4170  0.2712 -0.0559
 8879SOL    HW138096   3.463   0.139  13.180  0.6666 -0.9250 -0.2446
 8879SOL    HW238097   3.483   0.255  13.097 -0.4378  0.5287 -2.3148
 8880SOL     OW38098   1.974   0.078   6.803  0.2717  0.4271  0.1715
 8880SOL    HW138099   2.005   4.723   6.848  1.9524 -0.2837 -2.1997
 8880SOL    HW238100   2.048   0.139   6.806  0.0979  0.6975 -0.9818
 8881SOL     OW38101   4.446   0.360   3.322  0.3046  0.0350  0.2759
 8881SOL    HW138102   4.517   0.423   3.332  0.6227  0.0823 -2.3303
 8881SOL    HW238103   4.470   0.287   3.379 -0.3867  1.3427  2.2746
 8882SOL     OW38104   1.264   3.307   2.943 -0.0928 -0.6318  0.2838
 8882SOL    HW138105   1.341   3.344   2.987 -1.1013  0.8632  0.7930
 8882SOL    HW238106   1.198   3.308   3.012 -2.1040 -0.7732 -1.6694
 8883SOL     OW38107   3.958   1.419  11.103 -0.6915 -0.3091 -0.2111
 8883SOL    HW138108   4.036   1.374  11.135  0.8368  1.5358 -1.3644
 8883SOL    HW238109   3.976   1.512  11.117 -0.8243 -0.6600  2.3308
 8884SOL     OW38110   3.586   2.562  15.560 -0.1912 -0.0686 -0.2992
 8884SOL    HW138111   3.515   2.612  15.520  0.1465 -0.0142 -0.8329
 8884SOL    HW238112   3.604   2.614  15.638  0.9042  0.4440 -0.9066
 8885SOL     OW38113   3.958   3.629   6.344 -0.5483 -0.1113 -0.4306
 8885SOL    HW138114   3.980   3.632   6.251 -1.0656  0.1354 -0.5438
 8885SOL    HW238115   4.046   3.648   6.377  0.3616 -2.7952 -1.3326
 8886SOL     OW38116   3.740   0.325   0.828  0.1207 -0.1017 -0.3517
 8886SOL    HW138117   3.736   0.265   0.754 -0.3400  0.1785 -0.5536
 8886SOL    HW238118   3.748   0.408   0.779 -0.6893 -1.5762 -2.9866
 8887SOL     OW38119   4.414   3.056   1.785  0.0716  0.3152  0.4242
 8887SOL    HW138120   4.456   2.999   1.720  0.4371  0.4212  0.5684
 8887SOL    HW238121   4.489   3.111   1.806 -1.1335  1.6852  1.0919
 8888SOL     OW38122   1.897   3.671   5.610 -0.2307  0.1076 -0.2033
 8888SOL    HW138123   1.957   3.736   5.645 -0.1347  1.3517 -2.7016
 8888SOL    HW238124   1.931   3.676   5.520 -0.6175  4.4313 -0.0887
 8889SOL     OW38125   0.107   4.630   9.002  0.2244  0.1909 -0.5816
 8889SOL    HW138126   0.117   4.563   8.935 -0.5251 -0.7290  0.2329
 8889SOL    HW238127   0.191   4.607   9.041  0.4512  2.0205  0.0404
 8890SOL     OW38128   3.031   1.503   7.770 -0.2527 -0.7686 -0.4060
 8890SOL    HW138129   3.041   1.414   7.805 -0.1857 -1.3373 -1.8888
 8890SOL    HW238130   3.034   1.544   7.856  0.1410 -2.6828  0.4955
 8891SOL     OW38131   2.005   3.897  10.426  0.4481 -0.4018  0.3971
 8891SOL    HW138132   1.982   3.974  10.478  0.4970  0.5477 -0.9829
 8891SOL    HW238133   2.090   3.925  10.392  0.1027  1.6859  1.2633
 8892SOL     OW38134   1.389   1.078   6.886  0.0419 -0.1271  0.8338
 8892SOL    HW138135   1.414   1.143   6.951 -0.0959 -0.5856  1.3413
 8892SOL    HW238136   1.472   1.065   6.839 -0.5090  1.1572 -0.5058
 8893SOL     OW38137   1.517   0.145  10.386 -0.1911 -0.6322  0.1588
 8893SOL    HW138138   1.509   0.230  10.343 -1.7147 -0.2568  1.1896
 8893SOL    HW238139   1.484   0.161  10.474 -1.9808  2.1937 -1.0456
 8894SOL     OW38140   0.884   0.405   2.352  0.3756 -0.3028 -0.2437
 8894SOL    HW138141   0.804   0.356   2.331 -0.5094  1.1631 -0.2505
 8894SOL    HW238142   0.853   0.488   2.317  0.5512  0.6439  1.8546
 8895SOL     OW38143   0.758   3.655   5.101  0.0886  0.3282  0.4903
 8895SOL    HW138144   0.748   3.710   5.179 -0.7191 -0.0812  0.6697
 8895SOL    HW238145   0.818   3.710   5.050 -2.7251  2.1802 -0.8157
 8896SOL     OW38146   2.171   2.435   7.209 -0.2802 -0.6378 -0.0382
 8896SOL    HW138147   2.120   2.357   7.233  0.3230 -0.9747  0.1484
 8896SOL    HW238148   2.139   2.486   7.283 -1.8536  0.4592 -1.4753
 8897SOL     OW38149   3.630   2.830   6.920 -0.0169 -0.2870  0.3309
 8897SOL    HW138150   3.584   2.764   6.971  1.3713 -0.2786  1.6165
 8897SOL    HW238151   3.712   2.829   6.970  1.3618 -1.4770 -1.9862
 8898SOL     OW38152   4.652   2.939   5.680 -0.3401 -0.2044  0.3413
 8898SOL    HW138153   4.620   2.868   5.623 -1.1238  2.0067 -1.9878
 8898SOL    HW238154   0.023   2.921   5.677 -0.4433 -0.7515  0.4358
 8899SOL     OW38155   2.061   1.988   5.128  0.0392  0.3382 -0.3644
 8899SOL    HW138156   2.113   2.009   5.205 -0.7661 -0.5006  0.4066
 8899SOL    HW238157   1.987   2.048   5.141 -1.3066 -1.2332 -0.7286
 8900SOL     OW38158   4.188   3.386   7.756  0.5048 -0.6820 -0.3105
 8900SOL    HW138159   4.238   3.467   7.766 -0.0172 -0.2162 -1.5761
 8900SOL    HW238160   4.102   3.428   7.752  2.0495  2.4465 -0.8089
 8901SOL     OW38161   4.616   0.590  10.601 -0.4515 -0.7069 -0.0308
 8901SOL    HW138162   4.525   0.617  10.594 -0.3185 -0.8822 -2.3976
 8901SOL    HW238163   4.657   0.650  10.539 -0.4923 -1.6068 -0.9353
 8902SOL     OW38164   0.672   0.694   9.868 -0.9536 -0.1251  0.3847
 8902SOL    HW138165   0.744   0.638   9.899 -1.4794 -1.1388 -0.2132
 8902SOL    HW238166   0.662   0.754   9.942 -1.5289 -0.3729  0.5093
 8903SOL     OW38167   0.758   0.833   4.885  0.7348  0.7627 -0.1998
 8903SOL    HW138168   0.755   0.792   4.971 -0.0921 -0.3025 -0.7375
 8903SOL    HW238169   0.827   0.892   4.916 -0.9458  2.2568  0.7021
 8904SOL     OW38170   2.978   1.819   2.625  0.2237  0.0949  0.0349
 8904SOL    HW138171   2.887   1.830   2.599 -0.4643 -0.6068  2.1641
 8904SOL    HW238172   2.988   1.725   2.641  1.2232 -0.2170 -2.4206
 8905SOL     OW38173   3.200   3.858   9.743  0.3398  0.2949 -0.7245
 8905SOL    HW138174   3.168   3.910   9.669  2.8795  3.0263  0.0890
 8905SOL    HW238175   3.270   3.913   9.779 -0.3985  0.4188  0.5208
 8906SOL     OW38176   1.443   4.260   0.243  0.1132 -0.7604 -0.3259
 8906SOL    HW138177   1.502   4.219   0.306 -0.2299 -1.5865 -0.5357
 8906SOL    HW238178   1.387   4.185   0.220  1.2570 -1.2258 -1.6413
 8907SOL     OW38179   0.676   3.198   5.104 -0.4080  0.4599 -0.3910
 8907SOL    HW138180   0.645   3.178   5.192  0.8932  1.8832  0.3964
 8907SOL    HW238181   0.738   3.127   5.087 -1.0211  0.2006 -1.5089
 8908SOL     OW38182   4.268   0.815   2.059 -0.4916  0.7803 -0.0838
 8908SOL    HW138183   4.260   0.894   2.006 -0.2538  0.2245 -0.9327
 8908SOL    HW238184   4.342   0.773   2.016  0.0589 -0.7859  2.4030
 8909SOL     OW38185   3.536   3.063  14.897  0.4103  0.2600  0.6306
 8909SOL    HW138186   3.452   3.024  14.871  1.6564 -1.5064 -0.7772
 8909SOL    HW238187   3.582   2.992  14.942  2.6766  0.8273 -0.7649
 8910SOL     OW38188   2.869   0.596  16.535  0.2726 -0.2820 -0.1904
 8910SOL    HW138189   2.796   0.594  16.473 -0.8885 -0.9029  1.1689
 8910SOL    HW238190   2.892   0.503  16.540 -0.3375 -0.4657 -0.7680
 8911SOL     OW38191   1.515   2.714   1.542  0.4547 -0.1442 -0.2502
 8911SOL    HW138192   1.548   2.756   1.621 -4.3797  0.1019  1.6434
 8911SOL    HW238193   1.433   2.764   1.543 -0.3414 -1.4491  2.0036
 8912SOL     OW38194   1.272   0.465   8.800 -0.1228 -0.1555  0.5004
 8912SOL    HW138195   1.193   0.496   8.756  0.5681 -0.3489 -0.8563
 8912SOL    HW238196   1.302   0.398   8.739 -1.4486 -0.1925 -0.0977
 8913SOL     OW38197   1.601   2.267  10.514 -0.1299  0.1970  0.1887
 8913SOL    HW138198   1.532   2.222  10.465  1.0628 -0.9407 -0.4497
 8913SOL    HW238199   1.660   2.272  10.439 -1.2691  1.1487 -0.6319
 8914SOL     OW38200   2.101   2.453  13.759  0.0586  0.2151 -0.1888
 8914SOL    HW138201   2.173   2.389  13.763  1.1337  1.5249  1.3657
 8914SOL    HW238202   2.037   2.400  13.712  1.5374 -0.6023 -1.3071
 8915SOL     OW38203   0.631   3.168   2.272  0.0774  0.3021  0.2321
 8915SOL    HW138204   0.598   3.215   2.196  0.8033  0.1225 -0.1916
 8915SOL    HW238205   0.720   3.145   2.244  0.8426  0.6485  2.3857
 8916SOL     OW38206   0.578   1.486   5.841 -0.0005  0.1469  0.4165
 8916SOL    HW138207   0.620   1.405   5.813 -0.3319 -0.4805  1.7895
 8916SOL    HW238208   0.652   1.544   5.858  0.4127  0.1991 -1.4788
 8917SOL     OW38209   2.192   0.305   9.069 -0.1765 -0.3882 -0.4996
 8917SOL    HW138210   2.252   0.277   9.000  0.0773  4.2100 -2.1108
 8917SOL    HW238211   2.254   0.280   9.137 -0.6144 -2.3916 -0.8173
 8918SOL     OW38212   1.906   0.020   2.180  0.3258  0.3839  0.4062
 8918SOL    HW138213   1.819   0.061   2.179 -0.4354 -1.3134 -2.1000
 8918SOL    HW238214   1.885   4.652   2.200 -0.5285  1.1467  3.0046
 8919SOL     OW38215   0.166   1.971   7.263 -0.0758  0.1453  0.6877
 8919SOL    HW138216   0.160   1.876   7.270  2.5892 -0.0858 -0.3393
 8919SOL    HW238217   0.101   1.993   7.330 -0.4513  0.9604  0.0539
 8920SOL     OW38218   1.353   1.802   3.940 -0.2771 -0.4112 -0.1830
 8920SOL    HW138219   1.346   1.879   3.884  2.4584 -0.6514 -0.8526
 8920SOL    HW238220   1.399   1.744   3.878  0.3612  0.5974 -0.6508
 8921SOL     OW38221   2.637   2.083  14.744 -0.1433  0.1713 -0.1379
 8921SOL    HW138222   2.721   2.064  14.701  0.9420 -1.1975  2.6017
 8921SOL    HW238223   2.660   2.098  14.835 -1.4523 -0.7956  0.3419
 8922SOL     OW38224   1.251   0.954  13.104 -0.0485  0.3438 -0.1508
 8922SOL    HW138225   1.312   1.015  13.144 -1.6772  2.5889 -1.0498
 8922SOL    HW238226   1.305   0.878  13.123  1.2553  1.6850  1.4245
 8923SOL     OW38227   4.710   2.875  14.579 -0.6046  0.3031  0.1512
 8923SOL    HW138228   0.020   2.832  14.658 -1.4052 -0.3930  0.1031
 8923SOL    HW238229   4.673   2.799  14.533  0.7552 -0.7054  0.7342
 8924SOL     OW38230   4.546   1.356   2.818 -0.4696 -0.3867 -0.4540
 8924SOL    HW138231   4.457   1.390   2.820  0.1004  1.1253 -1.1774
 8924SOL    HW238232   4.559   1.358   2.913  1.0001  1.9012 -0.7208
 8925SOL     OW38233   0.791   3.570   3.581  0.9888  0.2794  0.2316
 8925SOL    HW138234   0.876   3.584   3.540  0.5422 -2.6870 -1.7060
 8925SOL    HW238235   0.760   3.500   3.524  3.0541  0.4022 -1.0672
 8926SOL     OW38236   4.368   1.311   8.769 -0.3899  0.2257  0.5995
 8926SOL    HW138237   4.365   1.275   8.858  1.6831  1.8968  1.3588
 8926SOL    HW238238   4.276   1.301   8.743 -0.8789  4.5777  0.5813
 8927SOL     OW38239   0.808   0.844   2.523  0.0217 -0.5816  0.6461
 8927SOL    HW138240   0.845   0.756   2.526  1.5707  0.0502  0.1485
 8927SOL    HW238241   0.800   0.869   2.615  1.5035 -0.4036  0.7178
 8928SOL     OW38242   1.973   1.111   2.361  0.0840  0.1087 -0.0571
 8928SOL    HW138243   2.023   1.082   2.285  1.8001 -1.9962  1.8424
 8928SOL    HW238244   1.887   1.097   2.322  0.4976 -2.7571  0.0445
 8929SOL     OW38245   1.683   1.405   8.161  0.0276  0.6316  0.4606
 8929SOL    HW138246   1.600   1.441   8.131  0.4338  1.6748  0.5923
 8929SOL    HW238247   1.694   1.319   8.120 -2.1701  0.6547 -0.1478
 8930SOL     OW38248   2.659   0.335   6.009  0.2510  0.4307  0.3071
 8930SOL    HW138249   2.712   0.256   5.999  2.3081  1.8358  0.2819
 8930SOL    HW238250   2.720   0.397   6.048  1.7647 -1.3386  0.7418
 8931SOL     OW38251   1.237   2.670   1.823  0.7323 -0.1140 -0.4342
 8931SOL    HW138252   1.222   2.629   1.908  1.0837 -2.7636 -1.6421
 8931SOL    HW238253   1.333   2.660   1.824  0.8865  1.3751  2.2810
 8932SOL     OW38254   3.949   2.665   7.320 -0.3015  0.0898 -0.2936
 8932SOL    HW138255   3.910   2.682   7.406 -0.9713  0.0526 -0.5905
 8932SOL    HW238256   3.876   2.630   7.269 -0.5158 -0.2020  0.2145
 8933SOL     OW38257   3.283   3.448   0.846 -0.2091 -0.1835  0.1948
 8933SOL    HW138258   3.366   3.415   0.811 -0.7381 -0.2286 -1.0224
 8933SOL    HW238259   3.245   3.503   0.777  0.1691  0.0955  0.2064
 8934SOL     OW38260   3.460   3.604  12.083  0.0476  0.4405 -0.7745
 8934SOL    HW138261   3.493   3.683  12.042 -1.1128  0.9662 -0.6884
 8934SOL    HW238262   3.366   3.621  12.086 -0.1705 -0.6874 -1.0181
 8935SOL     OW38263   0.633   1.328   8.521  0.3824 -0.1587  0.6458
 8935SOL    HW138264   0.697   1.397   8.501  0.2958  0.3196  1.9915
 8935SOL    HW238265   0.617   1.352   8.612 -1.1672  0.4888  0.2137
 8936SOL     OW38266   0.924   4.609   1.638 -0.7621 -0.2427  0.1838
 8936SOL    HW138267   0.920   4.513   1.635  1.0500 -0.3003 -1.0256
 8936SOL    HW238268   0.915   4.629   1.731 -0.4287  1.4002 -0.1376
 8937SOL     OW38269   1.617   2.409   6.525 -0.0101  0.2266  0.1358
 8937SOL    HW138270   1.611   2.463   6.604 -2.8046 -1.1743  0.8691
 8937SOL    HW238271   1.593   2.322   6.558  0.9152 -0.1324 -0.1348
 8938SOL     OW38272   1.764   1.194   6.276  0.1835  0.3069  0.1758
 8938SOL    HW138273   1.688   1.243   6.306 -0.5209 -0.1622 -0.8408
 8938SOL    HW238274   1.832   1.261   6.284  0.1477  0.0551  2.4534
 8939SOL     OW38275   1.793   3.080   1.417  0.0063 -0.0586  0.3394
 8939SOL    HW138276   1.758   2.993   1.437 -1.2188  0.2579 -0.3714
 8939SOL    HW238277   1.885   3.058   1.410 -0.1645 -0.0229 -1.9810
 8940SOL     OW38278   1.931   2.819   7.437 -0.0593  0.4628  0.0794
 8940SOL    HW138279   2.025   2.804   7.436  0.0889  1.4607 -1.0571
 8940SOL    HW238280   1.925   2.901   7.389  1.2984  0.5923  0.1457
 8941SOL     OW38281   2.432   3.471  12.425  0.6047  0.1462 -0.3009
 8941SOL    HW138282   2.459   3.457  12.516  1.7135 -1.6608 -0.9217
 8941SOL    HW238283   2.427   3.382  12.391  4.3282  0.1925 -0.8662
 8942SOL     OW38284   1.433   3.091   6.202 -0.5349 -0.0585 -0.2449
 8942SOL    HW138285   1.388   3.173   6.221 -0.1856  0.1670 -0.3915
 8942SOL    HW238286   1.389   3.029   6.259  2.4186 -1.2639  0.6919
 8943SOL     OW38287   2.974   0.202   8.835 -0.1498  0.0739  0.0046
 8943SOL    HW138288   2.909   0.231   8.899 -0.4991 -0.8574  0.0662
 8943SOL    HW238289   3.059   0.242   8.852  0.5836 -0.7529 -1.6323
 8944SOL     OW38290   0.126   0.421  14.241  0.3548 -0.2514  0.7168
 8944SOL    HW138291   0.103   0.332  14.213  2.2524 -0.4220 -0.3123
 8944SOL    HW238292   0.130   0.417  14.336 -1.1372 -0.0607  0.7842
 8945SOL     OW38293   3.847   2.744  10.941 -0.3920  0.1542 -0.1160
 8945SOL    HW138294   3.934   2.703  10.932 -1.0267 -1.1551 -0.3791
 8945SOL    HW238295   3.829   2.773  10.851  2.4832 -0.8853 -1.0457
 8946SOL     OW38296   4.435   2.803   3.798  0.0477 -0.4855  0.1611
 8946SOL    HW138297   4.367   2.742   3.766 -0.5696  0.6395 -0.6534
 8946SOL    HW238298   4.384   2.871   3.840 -0.1837  1.1372 -2.7332
 8947SOL     OW38299   2.121   1.041   8.242  0.2988 -1.1494 -0.5465
 8947SOL    HW138300   2.155   0.969   8.188 -1.4385 -0.9835 -1.8805
 8947SOL    HW238301   2.176   1.116   8.219  1.3633 -0.9646  2.6064
 8948SOL     OW38302   0.772   1.333   6.485 -0.1977  0.0448 -0.0887
 8948SOL    HW138303   0.851   1.282   6.503 -0.3269 -0.8071 -1.9337
 8948SOL    HW238304   0.742   1.297   6.401  1.5555  0.0222 -0.7192
 8949SOL     OW38305   3.262   4.313   8.513 -0.5962  0.1866  0.0320
 8949SOL    HW138306   3.262   4.370   8.436 -2.3986  0.6596  0.3729
 8949SOL    HW238307   3.277   4.385   8.575  3.2515 -3.2492  3.0603
 8950SOL     OW38308   1.055   2.813  12.036 -0.3723  0.2296 -0.6503
 8950SOL    HW138309   1.143   2.778  12.051 -0.3041  1.6422  2.3167
 8950SOL    HW238310   1.033   2.846  12.123 -0.2681 -0.8276 -0.2197
 8951SOL     OW38311   3.859   1.500   2.726  0.3619  0.2224 -0.1740
 8951SOL    HW138312   3.818   1.565   2.670  0.3153  0.4445  0.1169
 8951SOL    HW238313   3.790   1.483   2.792  0.5022 -0.1432 -0.1186
 8952SOL     OW38314   0.310   1.333   8.399  0.0266  0.0660  0.1959
 8952SOL    HW138315   0.392   1.372   8.367  0.3571 -0.6767  0.1371
 8952SOL    HW238316   0.255   1.397   8.353  1.1012 -0.0452 -1.2395
 8953SOL     OW38317   1.941   4.231  15.539  0.0079  0.0901  0.1469
 8953SOL    HW138318   1.931   4.168  15.467  0.9635 -1.1184  1.0863
 8953SOL    HW238319   1.864   4.209  15.591 -0.7250 -0.4339 -1.1454
 8954SOL     OW38320   0.819   1.696   4.397  0.0632 -0.1786 -0.5895
 8954SOL    HW138321   0.778   1.723   4.314  1.4135  2.0783 -0.5401
 8954SOL    HW238322   0.792   1.770   4.451  1.2029 -0.4670  0.3519
 8955SOL     OW38323   3.112   0.465   4.592 -0.6238  0.3133  0.2427
 8955SOL    HW138324   3.072   0.525   4.655  0.5056  1.2743  0.0311
 8955SOL    HW238325   3.034   0.436   4.546 -0.2606  1.8186 -1.3066
 8956SOL     OW38326   3.838   2.377   5.186 -0.0716 -0.4038  0.0876
 8956SOL    HW138327   3.933   2.384   5.172  0.2279 -2.3422  1.1345
 8956SOL    HW238328   3.818   2.299   5.134 -1.1591 -0.1532  0.1406
 8957SOL     OW38329   4.424   2.722   3.493  0.5569 -0.2151 -0.3826
 8957SOL    HW138330   4.423   2.817   3.504  1.4961 -0.4247  1.4782
 8957SOL    HW238331   4.494   2.692   3.550 -0.0455  1.2993  1.1665
 8958SOL     OW38332   1.333   1.200   8.522  0.1934 -0.0843 -0.5239
 8958SOL    HW138333   1.244   1.228   8.501  0.3202 -2.2689 -3.9617
 8958SOL    HW238334   1.350   1.138   8.451 -0.2210 -1.6569  0.7275
 8959SOL     OW38335   3.593   0.647   6.015  0.1952  0.4986  0.4215
 8959SOL    HW138336   3.537   0.621   6.088  1.4833  1.2840  1.6823
 8959SOL    HW238337   3.651   0.708   6.061  1.6844 -0.2107 -0.5187
 8960SOL     OW38338   3.846   2.934   4.151  0.2239  0.1253  0.3257
 8960SOL    HW138339   3.794   2.860   4.182 -1.1681  0.6154 -0.8880
 8960SOL    HW238340   3.784   2.997   4.187 -1.3635 -0.8198 -0.7809
 8961SOL     OW38341   3.620   2.573  17.228  0.4024  0.5582 -0.3042
 8961SOL    HW138342   3.636   2.531  17.144 -1.2302  0.5624 -0.6103
 8961SOL    HW238343   3.626   2.496  17.284  1.3222 -0.6795 -2.1047
 8962SOL     OW38344   0.423   1.877   4.537 -0.3528 -0.0920  1.0971
 8962SOL    HW138345   0.374   1.916   4.610 -1.0995 -0.9617  1.0558
 8962SOL    HW238346   0.389   1.936   4.469 -1.4428  0.4112  2.0771
 8963SOL     OW38347   4.515   3.880   8.524 -0.4126  0.2187  0.0700
 8963SOL    HW138348   4.483   3.790   8.512 -0.4086  0.2104  0.1218
 8963SOL    HW238349   4.586   3.875   8.587  0.9321 -0.0327 -1.4476
 8964SOL     OW38350   2.206   4.457  15.929 -0.1581 -0.0271 -0.0498
 8964SOL    HW138351   2.271   4.387  15.934 -0.7124 -0.3667  2.2342
 8964SOL    HW238352   2.222   4.499  16.013 -1.7317 -0.8151  0.6514
 8965SOL     OW38353   0.875   2.214   4.435  0.1576  0.0770  0.0142
 8965SOL    HW138354   0.967   2.241   4.428  0.2945 -0.1571  0.9170
 8965SOL    HW238355   0.871   2.126   4.398  2.1068  0.4944 -1.1751
 8966SOL     OW38356   2.204   2.813   9.365  0.2159 -0.2660  0.0032
 8966SOL    HW138357   2.230   2.808   9.457  0.2300  1.2612  0.0954
 8966SOL    HW238358   2.277   2.869   9.337 -1.2628  1.9690  0.5771
 8967SOL     OW38359   3.163   4.142  17.332 -0.4007 -0.1763  0.2723
 8967SOL    HW138360   3.185   4.174  17.245  2.4978  0.4240  1.2258
 8967SOL    HW238361   3.187   4.222  17.379  0.3645 -1.0063  1.2929
 8968SOL     OW38362   2.246   3.520   5.689  0.4623 -0.5182  0.3022
 8968SOL    HW138363   2.185   3.530   5.761 -0.0945 -0.6380 -0.1521
 8968SOL    HW238364   2.271   3.429   5.672 -1.7674 -0.9930 -0.4149
 8969SOL     OW38365   2.993   3.603   3.837 -0.3019  0.5014  0.0657
 8969SOL    HW138366   2.903   3.592   3.867 -0.0990 -1.3450 -0.0302
 8969SOL    HW238367   3.001   3.529   3.777  0.2773  0.7454 -0.1636
 8970SOL     OW38368   3.176   3.212   7.857 -0.0119  0.8992  0.0795
 8970SOL    HW138369   3.145   3.249   7.939  3.2310  3.4022  0.1560
 8970SOL    HW238370   3.097   3.229   7.805 -1.5605  1.5991  2.6788
 8971SOL     OW38371   3.416   4.178   3.368  0.0777 -0.1345  0.1497
 8971SOL    HW138372   3.341   4.125   3.342  0.4584 -1.0092  0.8734
 8971SOL    HW238373   3.469   4.120   3.423  0.3361 -0.1296 -0.0897
 8972SOL     OW38374   1.967   3.062   0.929 -0.3434 -0.2740  0.5790
 8972SOL    HW138375   1.884   3.081   0.883 -1.3155 -3.5383  1.0149
 8972SOL    HW238376   1.973   3.140   0.984 -1.2701  0.9278 -1.0153
 8973SOL     OW38377   0.581   4.588  10.576 -0.1222 -0.8133  0.1497
 8973SOL    HW138378   0.529   4.643  10.518 -1.2213 -0.6123  1.3164
 8973SOL    HW238379   0.546   4.627  10.656 -1.1013 -0.9365 -0.2207
 8974SOL     OW38380   1.797   2.522   8.798  0.1529 -0.1822  0.0503
 8974SOL    HW138381   1.762   2.552   8.882 -0.5967  1.1577 -0.7328
 8974SOL    HW238382   1.882   2.566   8.792 -0.6374  1.1311 -1.8506
 8975SOL     OW38383   2.621   3.932   8.637 -0.1052 -0.4734 -0.6481
 8975SOL    HW138384   2.534   3.904   8.666  0.3454 -1.2534 -0.0041
 8975SOL    HW238385   2.668   3.848   8.636 -0.4039 -0.6338 -1.3618
 8976SOL     OW38386   1.664   0.420  14.581 -0.2494  0.1655 -0.3191
 8976SOL    HW138387   1.615   0.503  14.575 -0.4343  0.0980  0.2715
 8976SOL    HW238388   1.707   0.451  14.660  1.0342 -1.1079 -0.5291
 8977SOL     OW38389   1.719   0.536   7.272  0.1107 -1.2159 -0.0894
 8977SOL    HW138390   1.801   0.529   7.321 -0.0079 -1.2972  0.0996
 8977SOL    HW238391   1.687   0.446   7.285 -2.3798 -0.5372 -1.6955
 8978SOL     OW38392   4.148   0.884   9.832 -0.5501  0.0290  0.3662
 8978SOL    HW138393   4.091   0.945   9.879 -0.0717  0.9539 -0.2434
 8978SOL    HW238394   4.203   0.864   9.908 -0.7224 -0.5339  0.3360
 8979SOL     OW38395   1.745   2.842   3.215 -0.4950 -0.0350 -0.0686
 8979SOL    HW138396   1.806   2.916   3.208 -0.2429 -0.3038 -0.6790
 8979SOL    HW238397   1.805   2.768   3.206  0.8116  0.9595  0.4248
 8980SOL     OW38398   2.613   2.264   1.426 -0.1467 -0.1687  0.4635
 8980SOL    HW138399   2.582   2.338   1.374 -1.6139 -0.8558  0.3392
 8980SOL    HW238400   2.599   2.304   1.512 -1.4845 -0.0556  0.1962
 8981SOL     OW38401   1.750   2.094   5.335 -0.7649  0.4072 -0.1822
 8981SOL    HW138402   1.677   2.153   5.351 -2.4026 -0.6379 -3.7105
 8981SOL    HW238403   1.828   2.134   5.375 -1.8080  1.4152  0.8346
 8982SOL     OW38404   2.575   0.933  12.522  0.3997  0.7648  0.4563
 8982SOL    HW138405   2.627   0.903  12.597  2.8355  1.5004 -0.9414
 8982SOL    HW238406   2.647   0.981  12.481  1.6678 -0.6717  1.0017
 8983SOL     OW38407   0.374   0.528   4.611 -0.4817 -0.6787 -0.5687
 8983SOL    HW138408   0.321   0.450   4.593 -0.9348 -0.5372  0.1385
 8983SOL    HW238409   0.307   0.596   4.615  0.7722  0.4335  1.0002
 8984SOL     OW38410   1.454   3.099   1.691 -0.4267 -0.2636  0.2337
 8984SOL    HW138411   1.505   3.023   1.718 -0.1356  0.6120  2.1126
 8984SOL    HW238412   1.440   3.084   1.597  0.3585  0.1186  0.0584
 8985SOL     OW38413   2.057   0.236   3.809 -0.1195  0.3392  0.1581
 8985SOL    HW138414   2.034   0.195   3.725  0.0385 -0.1848  0.3719
 8985SOL    HW238415   1.989   0.303   3.819 -1.5770 -0.8058 -1.8481
 8986SOL     OW38416   3.703   0.367   9.075 -0.4660 -0.2818  0.0771
 8986SOL    HW138417   3.738   0.408   8.996  0.4393  0.3366  0.7962
 8986SOL    HW238418   3.776   0.316   9.110  0.6091  1.2500  0.0684
 8987SOL     OW38419   3.918   2.922   4.682 -0.7300 -0.3700  0.2390
 8987SOL    HW138420   3.848   2.984   4.705  0.5781  2.2253 -2.7390
 8987SOL    HW238421   3.976   2.975   4.626  1.0147 -1.3281  1.1489
 8988SOL     OW38422   3.457   0.656  10.680 -0.6270 -0.1291  0.3102
 8988SOL    HW138423   3.420   0.601  10.749  1.4067 -1.7114  0.1395
 8988SOL    HW238424   3.514   0.710  10.735  0.7177 -0.9720 -0.2578
 8989SOL     OW38425   2.159   0.214   8.184 -0.4590  0.2577  0.1960
 8989SOL    HW138426   2.139   0.196   8.276  1.4869  2.1216  1.0077
 8989SOL    HW238427   2.109   0.291   8.156  0.8496  1.6894  1.8412
 8990SOL     OW38428   0.284   3.866   9.079  0.1845  0.0073  0.7650
 8990SOL    HW138429   0.250   3.797   9.136  0.9476 -1.5412 -0.6427
 8990SOL    HW238430   0.366   3.824   9.050 -0.4964 -0.5978 -0.2806
 8991SOL     OW38431   3.819   0.589   5.416  0.6491 -0.0148 -0.5678
 8991SOL    HW138432   3.873   0.618   5.488  0.3760 -3.3029  0.9582
 8991SOL    HW238433   3.820   0.673   5.370 -1.0343  0.9900  1.2047
 8992SOL     OW38434   4.613   1.816   5.074  0.0393  0.6519  0.1782
 8992SOL    HW138435   4.528   1.859   5.082  0.8742  2.3468 -0.2687
 8992SOL    HW238436   4.626   1.791   5.166 -0.2059  0.4487  0.1602
 8993SOL     OW38437   0.288   3.650   6.120  0.2483  0.1604 -0.5354
 8993SOL    HW138438   0.332   3.726   6.082 -0.5825  0.9624  0.0776
 8993SOL    HW238439   0.352   3.592   6.160  0.8654 -0.2691 -2.1519
 8994SOL     OW38440   2.737   3.993  15.326 -0.0238  0.0204 -0.1668
 8994SOL    HW138441   2.790   4.004  15.247  0.0796 -0.7988 -0.2212
 8994SOL    HW238442   2.694   3.907  15.317  0.2357  0.0591 -1.6874
 8995SOL     OW38443   2.513   3.965   2.866  0.8675 -0.0016  0.3220
 8995SOL    HW138444   2.582   3.984   2.803  0.6303  0.5645  0.2314
 8995SOL    HW238445   2.561   3.974   2.949 -0.8089 -0.4380  1.3306
 8996SOL     OW38446   0.438   1.607   6.950  0.2074  0.0300 -0.3369
 8996SOL    HW138447   0.378   1.624   6.877  0.5849  0.0270 -0.6440
 8996SOL    HW238448   0.446   1.512   6.950 -1.4530 -0.1073  0.2216
 8997SOL     OW38449   1.745   0.175   3.649 -0.5248 -0.3175  0.0009
 8997SOL    HW138450   1.649   0.178   3.640 -0.5779  1.4464  1.2411
 8997SOL    HW238451   1.761   0.123   3.727 -2.7694 -0.4787  0.3667
 8998SOL     OW38452   0.031   0.871   2.843 -0.4016 -0.5240  0.3742
 8998SOL    HW138453   0.001   0.877   2.934  0.1912 -0.7071  0.5823
 8998SOL    HW238454   0.034   0.964   2.821 -1.2254 -0.4368  0.6096
 8999SOL     OW38455   0.526   0.843   0.756  0.2734  0.0905 -0.1958
 8999SOL    HW138456   0.580   0.921   0.740  1.3815 -0.0991  2.6285
 8999SOL    HW238457   0.597   0.779   0.755  0.0921 -0.0877 -1.6333
 9000SOL     OW38458   0.821   2.610   7.565 -0.3190 -0.0163 -0.1308
 9000SOL    HW138459   0.827   2.552   7.641 -1.7411 -0.6804 -0.5389
 9000SOL    HW238460   0.780   2.688   7.603 -1.0285 -0.5717  0.2273
 9001SOL     OW38461   1.307   2.939   5.205  0.3346 -0.1204  0.7608
 9001SOL    HW138462   1.271   3.020   5.241  0.3680  0.2481 -0.0381
 9001SOL    HW238463   1.246   2.909   5.137 -0.0192  0.4311  0.8381
 9002SOL     OW38464   1.348   3.888  16.869  0.4399  0.0722 -0.0625
 9002SOL    HW138465   1.320   3.947  16.798 -3.8608  0.2758  1.8611
 9002SOL    HW238466   1.440   3.912  16.855  0.5454  0.9604  2.1496
 9003SOL     OW38467   1.425   0.467  15.741 -0.0491 -0.2391  0.0420
 9003SOL    HW138468   1.359   0.440  15.677  1.4977  0.3140 -1.7893
 9003SOL    HW238469   1.481   0.524  15.688  1.5487 -0.7374  1.1888
 9004SOL     OW38470   1.495   4.695   3.316  0.1546 -0.2771  0.2989
 9004SOL    HW138471   1.526   4.640   3.388  1.1002 -1.2094 -0.8106
 9004SOL    HW238472   1.415   0.009   3.354  0.5589 -0.0046  0.8958
 9005SOL     OW38473   0.783   0.240   4.214  0.0108 -0.0711  0.7361
 9005SOL    HW138474   0.724   0.166   4.224 -0.4059  0.5480  2.9639
 9005SOL    HW238475   0.766   0.295   4.291 -2.8862 -1.3686  1.0077
 9006SOL     OW38476   4.007   3.699   4.273  0.4345  0.2905  0.1967
 9006SOL    HW138477   4.083   3.722   4.327  1.6979  0.3204 -1.6212
 9006SOL    HW238478   4.036   3.672   4.186  0.7880 -0.6723  0.6207
 9007SOL     OW38479   1.142   4.003   3.620 -0.1635 -0.0034 -0.3677
 9007SOL    HW138480   1.231   4.038   3.615  0.6218 -1.9725  0.1421
 9007SOL    HW238481   1.155   3.926   3.565  3.3409 -0.6702  1.4002
 9008SOL     OW38482   3.424   1.947   7.059 -0.2922 -0.0736 -0.0447
 9008SOL    HW138483   3.476   1.867   7.046 -1.2506 -0.4429 -1.6668
 9008SOL    HW238484   3.391   1.949   6.969 -0.1292 -0.8145 -0.1237
 9009SOL     OW38485   0.075   1.355   7.613  0.0462 -0.3474 -0.0483
 9009SOL    HW138486   4.709   1.385   7.632 -0.2535 -1.6143  0.5736
 9009SOL    HW238487   0.055   1.274   7.566 -0.4865 -0.7325  0.8473
 9010SOL     OW38488   1.249   2.874   2.203 -0.0965 -0.3437 -0.4904
 9010SOL    HW138489   1.232   2.930   2.279  0.0907  0.1706 -0.8270
 9010SOL    HW238490   1.194   2.800   2.229 -1.2207  0.6803  0.0561
 9011SOL     OW38491   0.016   2.628   2.029 -0.3486  0.5186  0.2264
 9011SOL    HW138492   0.050   2.617   1.941  0.6136  1.4676  0.4794
 9011SOL    HW238493   4.720   2.538   2.056 -1.8095  0.6383 -0.3913
 9012SOL     OW38494   3.768   0.031   4.505 -0.2096 -0.5777 -0.5304
 9012SOL    HW138495   3.678   0.020   4.474 -0.3943 -2.3035  0.6253
 9012SOL    HW238496   3.785   4.662   4.522 -1.4657 -1.1149 -2.1786
 9013SOL     OW38497   2.238   2.545   7.960  0.5909  0.3112  0.0412
 9013SOL    HW138498   2.208   2.517   7.874 -0.0098  1.8605 -0.2501
 9013SOL    HW238499   2.323   2.582   7.935  0.7881 -0.3900 -0.3467
 9014SOL     OW38500   1.484   1.106   2.110 -0.2932  0.0224  0.6989
 9014SOL    HW138501   1.417   1.174   2.106 -0.1048 -0.0793 -3.3807
 9014SOL    HW238502   1.503   1.087   2.019  0.0670 -0.6975  0.9266
 9015SOL     OW38503   3.095   3.541   7.767  0.0133 -0.7691 -0.1696
 9015SOL    HW138504   3.121   3.614   7.823 -1.3333  0.2564 -0.8608
 9015SOL    HW238505   3.031   3.492   7.817 -2.0938  1.1167 -1.0032
 9016SOL     OW38506   0.969   0.857   7.843 -0.3210 -0.5260 -0.1786
 9016SOL    HW138507   0.965   0.850   7.938 -0.2803  2.1701  0.0430
 9016SOL    HW238508   0.876   0.862   7.820  0.1016 -0.4087 -1.8333
 9017SOL     OW38509   1.396   3.482   9.048 -0.3421 -1.1483 -0.6424
 9017SOL    HW138510   1.375   3.491   9.141 -0.8320 -0.2982 -0.8417
 9017SOL    HW238511   1.320   3.437   9.011 -1.4179 -0.4979  0.7681
 9018SOL     OW38512   0.729   3.338   3.432 -0.7711  0.3383 -0.0441
 9018SOL    HW138513   0.746   3.286   3.353 -0.8577  0.3621 -0.0788
 9018SOL    HW238514   0.633   3.342   3.425 -0.6916  0.4272 -1.0520
 9019SOL     OW38515   0.677   4.527   6.851  0.2058  0.2006  0.1658
 9019SOL    HW138516   0.650   4.471   6.778 -1.8087 -1.6427  2.3447
 9019SOL    HW238517   0.602   4.511   6.907 -0.0532 -1.1125 -0.5422
 9020SOL     OW38518   3.557   4.534  10.032  0.1326  0.0148 -0.3918
 9020SOL    HW138519   3.524   4.621  10.010  0.0227 -0.2839 -1.3937
 9020SOL    HW238520   3.642   4.528   9.988 -0.7674 -2.5844 -1.7817
 9021SOL     OW38521   3.396   0.780   8.571  0.2211  0.0279  0.0680
 9021SOL    HW138522   3.337   0.849   8.602 -0.2469  0.3166 -1.4581
 9021SOL    HW238523   3.393   0.719   8.645 -0.4115 -1.7390 -1.4264
 9022SOL     OW38524   2.592   0.121   0.139 -0.1847 -0.0203 -0.0940
 9022SOL    HW138525   2.617   0.173   0.216 -2.8049  1.0837  0.0430
 9022SOL    HW238526   2.497   0.130   0.129 -0.2805 -0.8427  0.0625
 9023SOL     OW38527   1.246   0.902  12.836 -0.3011  0.2032 -0.3584
 9023SOL    HW138528   1.203   0.918  12.920  1.2700 -0.2221  0.5035
 9023SOL    HW238529   1.201   0.966  12.780 -0.7075 -0.0179 -0.2899
 9024SOL     OW38530   4.067   3.088  15.865 -0.0884 -0.2809  0.5228
 9024SOL    HW138531   4.114   3.161  15.904 -0.8269  0.1638  0.5910
 9024SOL    HW238532   4.134   3.034  15.824  0.2924  0.6564 -0.0610
 9025SOL     OW38533   1.859   2.616  16.351  1.0621 -0.5294  0.4244
 9025SOL    HW138534   1.863   2.627  16.256 -2.0031  0.6433  0.4309
 9025SOL    HW238535   1.951   2.628  16.374  0.9829  0.5963  0.1652
 9026SOL     OW38536   3.359   1.179   4.295  0.0371 -0.1623  0.6043
 9026SOL    HW138537   3.368   1.089   4.265 -0.7755  0.6465 -2.0584
 9026SOL    HW238538   3.264   1.178   4.286  0.2971  0.5570 -2.3157
 9027SOL     OW38539   1.179   2.079   8.105  0.2562  0.1294 -0.6093
 9027SOL    HW138540   1.242   2.013   8.132 -0.1830  0.7599  1.9188
 9027SOL    HW238541   1.123   2.024   8.050 -0.3470  0.8685 -0.7465
 9028SOL     OW38542   1.842   0.668  11.949  0.2871  0.4684  0.0787
 9028SOL    HW138543   1.882   0.754  11.958 -2.0127  1.5520  0.1640
 9028SOL    HW238544   1.814   0.682  11.859 -2.8616 -0.8899  0.8338
 9029SOL     OW38545   2.065   4.070   1.881 -0.4276  0.3354 -0.1265
 9029SOL    HW138546   1.983   4.109   1.909 -0.8939 -1.8042  1.4427
 9029SOL    HW238547   2.047   4.083   1.788 -1.9837 -0.0076  0.1376
 9030SOL     OW38548   4.426   0.774  13.363  0.0378 -0.0178 -0.0918
 9030SOL    HW138549   4.427   0.717  13.286 -1.5639  0.3528 -0.3812
 9030SOL    HW238550   4.346   0.824  13.346 -0.3717 -0.2979  1.0369
 9031SOL     OW38551   4.247   4.239  13.874 -0.0530  0.3133 -0.0092
 9031SOL    HW138552   4.193   4.175  13.920 -1.0962  2.5676  1.9281
 9031SOL    HW238553   4.316   4.178  13.848 -1.0035 -0.3758 -0.9246
 9032SOL     OW38554   2.993   4.411   4.589  0.1040  0.2550  0.3207
 9032SOL    HW138555   3.010   4.502   4.613  3.3742  0.0006 -0.9649
 9032SOL    HW238556   2.935   4.418   4.513 -0.0062 -1.7003  0.2033
 9033SOL     OW38557   0.271   0.645   7.163  0.8686 -0.0783  0.3375
 9033SOL    HW138558   0.303   0.718   7.110 -4.0155  1.2288 -0.8005
 9033SOL    HW238559   0.179   0.670   7.177  0.5238 -1.4875  0.5488
 9034SOL     OW38560   3.773   2.427  13.989  0.0278  0.1214 -0.3298
 9034SOL    HW138561   3.854   2.391  13.951  0.3609 -0.2950  0.7911
 9034SOL    HW238562   3.708   2.370  13.948 -0.4918  1.3829 -1.2719
 9035SOL     OW38563   2.456   1.664  15.214 -0.3056 -0.4615  0.3960
 9035SOL    HW138564   2.475   1.704  15.129  1.2340  0.1189  1.0058
 9035SOL    HW238565   2.410   1.738  15.253  1.2955  0.9866 -0.4334
 9036SOL     OW38566   1.814   1.654   8.467  0.1220 -0.3685 -0.1676
 9036SOL    HW138567   1.870   1.687   8.397  0.1123  1.2601  0.5792
 9036SOL    HW238568   1.848   1.710   8.537  1.7893 -2.2947  0.5400
 9037SOL     OW38569   2.606   1.564   3.166  0.1184 -0.1370 -0.1551
 9037SOL    HW138570   2.533   1.559   3.105 -0.9360  1.5357  0.9781
 9037SOL    HW238571   2.559   1.593   3.244  1.2780  1.5689 -0.0779
 9038SOL     OW38572   4.487   4.607  10.844  0.1310 -1.1821 -0.2011
 9038SOL    HW138573   4.501   4.588  10.937 -0.7991  1.5968  0.4916
 9038SOL    HW238574   4.572   4.611  10.801  1.4015 -3.0535  2.1520
 9039SOL     OW38575   1.679   0.298  13.513 -0.8592  0.4528 -0.0878
 9039SOL    HW138576   1.725   0.372  13.474 -0.4080  1.0605  1.6262
 9039SOL    HW238577   1.590   0.316  13.483 -1.4463  0.7213  1.8149
 9040SOL     OW38578   1.707   2.473  13.288  0.0724  0.5512 -0.3897
 9040SOL    HW138579   1.792   2.479  13.332 -1.0788  0.5603  1.8448
 9040SOL    HW238580   1.653   2.525  13.347 -0.1818 -1.3767  1.0964
 9041SOL     OW38581   0.603   3.816   7.023  0.0327 -0.4727  0.0856
 9041SOL    HW138582   0.583   3.731   7.063 -0.1990  0.2681  1.5523
 9041SOL    HW238583   0.573   3.806   6.933 -2.3543 -1.3738  0.9997
 9042SOL     OW38584   3.427   3.464   7.881  0.0064 -0.4261 -0.2956
 9042SOL    HW138585   3.343   3.434   7.916  0.2220 -0.6696  0.0109
 9042SOL    HW238586   3.416   3.459   7.786  0.7256  1.1016 -0.4710
 9043SOL     OW38587   0.479   1.579   0.828 -0.1716 -0.4713  0.0956
 9043SOL    HW138588   0.408   1.597   0.890 -1.3914 -1.8623 -0.9103
 9043SOL    HW238589   0.551   1.583   0.891 -0.7351  0.8412  0.6615
 9044SOL     OW38590   0.831   3.896   5.705 -0.1743 -0.1768 -0.1292
 9044SOL    HW138591   0.876   3.937   5.631  2.5020 -1.3073  0.8354
 9044SOL    HW238592   0.756   3.849   5.668 -0.3717 -0.8312  1.0905
 9045SOL     OW38593   0.149   2.989  14.045  0.1839 -0.6249  0.4076
 9045SOL    HW138594   0.111   2.901  14.040 -0.2949 -0.3810 -0.2552
 9045SOL    HW238595   0.071   3.035  14.012 -0.2033 -0.8544  1.0070
 9046SOL     OW38596   2.391   3.975   5.098 -0.0104 -0.0383 -0.1286
 9046SOL    HW138597   2.412   4.018   5.014  2.4070 -0.4983  0.2436
 9046SOL    HW238598   2.307   4.018   5.117  0.6869  1.0657  0.4466
 9047SOL     OW38599   2.020   1.847   5.829  0.3989 -0.6977  0.1408
 9047SOL    HW138600   2.055   1.888   5.750 -0.9317 -1.4526 -0.8374
 9047SOL    HW238601   1.960   1.915   5.859  1.7035  0.1053  0.9487
 9048SOL     OW38602   1.066   1.131  13.374  0.4170 -0.6894 -0.0208
 9048SOL    HW138603   1.149   1.177  13.383 -0.0630 -0.0215  1.0084
 9048SOL    HW238604   1.013   1.189  13.429 -0.3755 -1.3284 -0.1098
 9049SOL     OW38605   2.193   3.691   1.373 -0.3834  0.2125  0.4166
 9049SOL    HW138606   2.130   3.721   1.439  0.1956  0.4491  0.8577
 9049SOL    HW238607   2.135   3.662   1.302  0.5027 -1.8521  0.5482
 9050SOL     OW38608   0.945   2.141  13.872 -0.5160 -0.3971 -0.6881
 9050SOL    HW138609   0.973   2.101  13.789  0.2535 -0.9132 -0.1744
 9050SOL    HW238610   0.938   2.233  13.845  1.3733  0.0983  0.5475
 9051SOL     OW38611   1.259   3.538   2.338 -0.4282  0.5365  0.1725
 9051SOL    HW138612   1.166   3.517   2.344 -0.2253 -0.5519 -0.6338
 9051SOL    HW238613   1.265   3.515   2.245  2.0030 -0.1675  0.5112
 9052SOL     OW38614   2.715   0.135   0.689  0.4303 -0.1513 -0.3414
 9052SOL    HW138615   2.801   0.095   0.702  1.2474  1.5014 -0.6288
 9052SOL    HW238616   2.710   0.162   0.781  0.8736  0.3564 -0.4633
 9053SOL     OW38617   0.849   4.136  12.655  0.2593  0.3303  0.1182
 9053SOL    HW138618   0.784   4.202  12.633 -0.5572  0.3011  2.5036
 9053SOL    HW238619   0.886   4.170  12.737 -2.1097  1.3074  0.7916
 9054SOL     OW38620   4.143   0.087  13.726 -0.1749  0.1536  0.4443
 9054SOL    HW138621   4.227   0.114  13.763 -0.0969  1.3092 -0.5958
 9054SOL    HW238622   4.104   0.033  13.795  1.3408 -2.4612 -0.7379
 9055SOL     OW38623   1.145   0.928   6.228 -0.0710  0.0485  0.3496
 9055SOL    HW138624   1.125   0.937   6.135 -1.0722  2.0422  0.7814
 9055SOL    HW238625   1.165   0.834   6.227  2.0278  0.4679  3.5654
 9056SOL     OW38626   0.278   2.248  12.226 -0.0131  0.8509 -0.8793
 9056SOL    HW138627   0.295   2.156  12.204 -0.3850  0.3819  0.8328
 9056SOL    HW238628   0.366   2.283  12.211  0.7075  0.0391  1.4556
 9057SOL     OW38629   4.411   3.090   7.294  0.2990 -0.1780 -0.3766
 9057SOL    HW138630   4.422   2.997   7.275 -0.9332 -0.5895  0.9232
 9057SOL    HW238631   4.504   3.112   7.307 -0.1899  1.0066  1.1099
 9058SOL     OW38632   3.134   4.274   1.862  0.5326  0.4464 -0.4176
 9058SOL    HW138633   3.186   4.305   1.936  0.1765  0.9765 -0.3934
 9058SOL    HW238634   3.047   4.305   1.886  0.5522  1.0230 -1.0988
 9059SOL     OW38635   1.610   2.587   6.315 -0.5379 -0.2407 -0.0022
 9059SOL    HW138636   1.598   2.530   6.391  0.5086 -1.1540 -0.5136
 9059SOL    HW238637   1.666   2.660   6.341 -0.2894 -0.5315  0.2751
 9060SOL     OW38638   2.368   4.379  16.243  0.7644 -0.2507  0.4577
 9060SOL    HW138639   2.398   4.413  16.328  0.3131 -0.0749  0.5467
 9060SOL    HW238640   2.290   4.434  16.239  0.8919 -0.1417 -0.6232
 9061SOL     OW38641   0.223   0.213  12.848 -0.1491  0.5517  0.2970
 9061SOL    HW138642   0.129   0.197  12.841 -0.0324 -0.0444  0.1013
 9061SOL    HW238643   0.260   0.136  12.804 -1.5848  1.7253 -2.8981
 9062SOL     OW38644   4.096   2.830   1.941  0.1226 -0.2774  0.7581
 9062SOL    HW138645   4.041   2.901   1.972 -1.0915 -0.2708 -1.3812
 9062SOL    HW238646   4.034   2.811   1.870  1.1402  0.4897 -0.3532
 9063SOL     OW38647   2.124   0.320   0.021  0.4634  0.3685 -0.3612
 9063SOL    HW138648   2.072   0.366  17.649  2.5724  1.9064 -0.9496
 9063SOL    HW238649   2.063   0.251   0.046  0.4083  1.1539  1.7273
 9064SOL     OW38650   4.013   3.397   0.142 -0.6325 -0.2416 -0.0777
 9064SOL    HW138651   3.975   3.485   0.148 -1.1687 -0.3242 -2.0901
 9064SOL    HW238652   3.942   3.336   0.160  1.2820 -2.7670 -1.0592
 9065SOL     OW38653   0.387   4.484   7.279 -0.4701 -0.2997 -0.2998
 9065SOL    HW138654   0.436   4.405   7.303  0.7388  0.6297  0.2595
 9065SOL    HW238655   0.457   4.547   7.294 -2.4679  1.7756  0.3359
 9066SOL     OW38656   3.714   1.147  17.093 -0.4706 -0.0540 -0.4374
 9066SOL    HW138657   3.701   1.242  17.100  0.1714 -0.0874  1.2776
 9066SOL    HW238658   3.726   1.129  17.000 -0.2272 -2.3934  0.0619
 9067SOL     OW38659   1.938   1.058   9.798  0.2695 -0.1879 -0.3031
 9067SOL    HW138660   1.860   1.082   9.748  1.1670  0.6953 -1.3079
 9067SOL    HW238661   1.989   1.140   9.793 -1.8460  1.1052 -0.7129
 9068SOL     OW38662   4.323   4.619   7.216  0.6583  0.4200 -0.4912
 9068SOL    HW138663   4.414   4.590   7.212  0.5340 -0.0930  0.3089
 9068SOL    HW238664   4.336   4.695   7.273  0.4758  0.4650 -0.5083
 9069SOL     OW38665   0.625   3.209  17.316 -0.3069  0.6454  0.3997
 9069SOL    HW138666   0.691   3.259  17.268  1.3430  0.9023  2.9634
 9069SOL    HW238667   0.551   3.226  17.258  0.7199  1.3844 -0.6957
 9070SOL     OW38668   3.722   2.957   8.329 -0.0839 -0.3667  0.3663
 9070SOL    HW138669   3.654   2.963   8.263 -1.0952 -0.5239  1.3976
 9070SOL    HW238670   3.702   2.878   8.379  2.4662 -2.1367 -1.4052
 9071SOL     OW38671   2.047   1.153  14.560  0.9667  0.4430  0.4889
 9071SOL    HW138672   2.130   1.165  14.514  0.1691  0.8855 -0.8476
 9071SOL    HW238673   2.071   1.149  14.652 -1.2128 -1.8293  0.9421
 9072SOL     OW38674   0.798   3.589   7.116  0.3092  0.2750  0.5632
 9072SOL    HW138675   0.761   3.512   7.159  1.0736  0.3466  1.3373
 9072SOL    HW238676   0.793   3.554   7.027  0.8155  1.0895  0.2153
 9073SOL     OW38677   1.803   4.719   5.299  0.8643 -0.1154  0.0903
 9073SOL    HW138678   1.721   0.040   5.273  0.7231 -0.7582 -0.5635
 9073SOL    HW238679   1.770   4.630   5.310  3.0507 -1.0110 -0.8188
 9074SOL     OW38680   3.746   2.969   5.232 -0.1344 -0.1366 -0.3412
 9074SOL    HW138681   3.773   3.056   5.203 -0.0231  0.0618  0.3683
 9074SOL    HW238682   3.701   2.929   5.157 -1.4103  0.2117  0.2342
 9075SOL     OW38683   2.664   2.673  11.998  0.2251  0.8042  0.0362
 9075SOL    HW138684   2.735   2.737  12.000 -0.4245  1.5451 -0.5852
 9075SOL    HW238685   2.607   2.709  11.929 -3.4359  0.2484  2.7886
 9076SOL     OW38686   1.191   4.450   5.521 -0.0111 -0.3954 -0.2429
 9076SOL    HW138687   1.234   4.374   5.482  0.7463  0.1558 -0.4985
 9076SOL    HW238688   1.147   4.493   5.448  0.2282  2.2990  1.1714
 9077SOL     OW38689   1.436   1.719   1.366 -0.0423  0.0173  0.1919
 9077SOL    HW138690   1.488   1.665   1.426 -2.3329  0.4087  2.5160
 9077SOL    HW238691   1.469   1.802   1.402 -0.1408  0.1065  0.0735
 9078SOL     OW38692   1.854   2.685  17.183  0.7282 -0.0567 -0.0983
 9078SOL    HW138693   1.904   2.604  17.194 -0.1038 -0.5222  0.2565
 9078SOL    HW238694   1.856   2.688  17.087  0.5273 -1.0566 -0.1251
 9079SOL     OW38695   1.478   3.843   1.647  0.1931 -0.4374 -0.2383
 9079SOL    HW138696   1.398   3.895   1.652  1.2093  1.2940 -2.0292
 9079SOL    HW238697   1.520   3.869   1.729  0.6734 -0.9847 -0.3107
 9080SOL     OW38698   1.935   2.867  13.180  0.0732 -0.2335  0.5036
 9080SOL    HW138699   2.007   2.926  13.204  0.1948  0.1765 -0.8726
 9080SOL    HW238700   1.936   2.815  13.260  0.9331  0.0351  0.6615
 9081SOL     OW38701   1.765   1.892   2.749 -0.1867  0.3449 -0.4913
 9081SOL    HW138702   1.744   1.966   2.806 -0.0655  1.2554 -1.6286
 9081SOL    HW238703   1.690   1.832   2.747  1.0109 -1.2276  0.9682
 9082SOL     OW38704   2.785   2.305   5.387 -0.4777 -0.3948 -0.3034
 9082SOL    HW138705   2.769   2.390   5.347  2.8189  0.2288 -0.3344
 9082SOL    HW238706   2.719   2.254   5.342  0.1395  0.2886 -1.9633
 9083SOL     OW38707   3.374   1.398  17.380  0.2457 -0.2267  0.3480
 9083SOL    HW138708   3.369   1.343  17.302 -0.0654 -1.2969  1.1291
 9083SOL    HW238709   3.294   1.365  17.422  0.5626 -0.9828  0.3600
 9084SOL     OW38710   1.108   3.248   1.964  0.2079 -0.1160  0.2939
 9084SOL    HW138711   1.125   3.289   1.879  0.9885 -2.0470 -0.4735
 9084SOL    HW238712   1.152   3.165   1.944  0.3900 -0.7552  3.4075
 9085SOL     OW38713   2.610   0.578  10.107  0.3620  0.0319  0.2411
 9085SOL    HW138714   2.686   0.624  10.071  0.2061 -0.7288 -1.0861
 9085SOL    HW238715   2.555   0.649  10.141 -0.1047 -1.2886  2.2618
 9086SOL     OW38716   3.330   0.835   4.444  0.6736  0.1662  0.0556
 9086SOL    HW138717   3.361   0.879   4.365  0.1383  2.3416  1.0561
 9086SOL    HW238718   3.250   0.805   4.400  0.2479  0.6377  0.5053
 9087SOL     OW38719   3.469   3.820   6.163 -0.1975  0.2296 -0.5154
 9087SOL    HW138720   3.390   3.823   6.217  1.0956 -1.6656  1.4956
 9087SOL    HW238721   3.502   3.738   6.201 -0.5254 -1.0375 -2.9501
 9088SOL     OW38722   3.378   4.676  10.404  0.7406  0.1067 -0.1970
 9088SOL    HW138723   3.458   4.652  10.451  0.0678 -0.8818  0.4350
 9088SOL    HW238724   3.378   0.047  10.384  0.0935 -0.1880 -1.5843
 9089SOL     OW38725   1.561   3.956   1.887  0.1977  0.5830 -0.2995
 9089SOL    HW138726   1.527   3.881   1.935  3.1103 -0.5680  0.0052
 9089SOL    HW238727   1.636   3.980   1.942  2.1879 -2.1124 -1.8018
 9090SOL     OW38728   0.749   3.810   5.342  0.3920 -0.0045  0.3982
 9090SOL    HW138729   0.830   3.809   5.393 -0.5707 -1.9871  1.8884
 9090SOL    HW238730   0.724   3.902   5.334  0.2697  0.1227  2.0539
 9091SOL     OW38731   3.210   3.655   2.526  0.2282 -0.4803  0.0852
 9091SOL    HW138732   3.304   3.642   2.537  0.7575  1.6959 -1.9510
 9091SOL    HW238733   3.185   3.713   2.598  1.1830  0.6292 -0.4781
 9092SOL     OW38734   4.563   2.052   3.643 -0.1107 -0.0975  0.3120
 9092SOL    HW138735   4.591   2.044   3.734  2.0083 -1.1318 -0.4287
 9092SOL    HW238736   4.485   2.107   3.653  0.7096  0.7950  1.8168
 9093SOL     OW38737   1.589   3.273   2.259 -0.4815 -0.4414 -0.8683
 9093SOL    HW138738   1.631   3.338   2.203  1.2429 -2.8819 -2.4197
 9093SOL    HW238739   1.539   3.307   2.333 -0.2577  0.1493 -0.9892
 9094SOL     OW38740   4.231   1.523   4.724  0.3807 -0.2252  0.1759
 9094SOL    HW138741   4.274   1.571   4.654 -1.2011  1.7497  0.5717
 9094SOL    HW238742   4.139   1.533   4.700  0.3502 -1.1452 -0.1005
 9095SOL     OW38743   0.628   1.178   1.164 -0.2717  0.1899 -0.0091
 9095SOL    HW138744   0.693   1.243   1.138  1.4389 -1.9034 -0.9584
 9095SOL    HW238745   0.685   1.111   1.201  3.7957  2.8987 -1.3706
 9096SOL     OW38746   3.209   0.958   1.969  0.1298 -0.3408 -0.1425
 9096SOL    HW138747   3.256   0.877   1.950  0.7328 -0.3505  1.4186
 9096SOL    HW238748   3.160   0.969   1.887 -1.6513  1.5243  1.1750
 9097SOL     OW38749   2.993   1.502  10.440 -0.4361  0.5371  0.5384
 9097SOL    HW138750   2.917   1.455  10.473 -3.0108  2.7924 -2.2017
 9097SOL    HW238751   2.957   1.541  10.360 -0.9308 -1.8262 -0.3886
 9098SOL     OW38752   3.619   3.077  11.145  0.5547 -0.7170  0.0700
 9098SOL    HW138753   3.635   3.155  11.198  1.1418  0.0650 -1.2605
 9098SOL    HW238754   3.694   3.030  11.179  3.0524  2.4162 -1.0818
 9099SOL     OW38755   0.318   4.465   2.338 -0.5328  0.0786  0.0291
 9099SOL    HW138756   0.353   4.378   2.320 -2.5322 -0.2021 -2.5019
 9099SOL    HW238757   0.264   4.478   2.259  1.2046  1.3627 -0.9704
 9100SOL     OW38758   1.666   0.112   2.710  0.3343 -0.2072  0.0779
 9100SOL    HW138759   1.680   0.027   2.667  0.4636 -0.7685  1.2298
 9100SOL    HW238760   1.739   0.158   2.668 -0.9530  1.2206 -0.5678
 9101SOL     OW38761   4.476   0.188   2.503 -0.2247  0.6161 -0.0430
 9101SOL    HW138762   4.557   0.157   2.462 -0.2290 -0.1713  0.5484
 9101SOL    HW238763   4.509   0.228   2.583 -0.9187  0.3762  0.3604
 9102SOL     OW38764   3.366   1.734  12.120  0.1608 -0.0137  0.3852
 9102SOL    HW138765   3.301   1.797  12.150  0.5631  0.5044  0.1637
 9102SOL    HW238766   3.338   1.726  12.029 -1.0896  1.6126  0.6225
 9103SOL     OW38767   1.927   3.196  13.169  0.2061  0.5768  0.4097
 9103SOL    HW138768   1.862   3.156  13.227  0.8020 -3.2362 -1.6226
 9103SOL    HW238769   2.009   3.161  13.201 -0.7364 -1.9518  0.0107
 9104SOL     OW38770   0.916   3.684   0.712  0.4106 -0.6430  0.0016
 9104SOL    HW138771   0.832   3.693   0.668  2.1306 -1.0511 -3.3665
 9104SOL    HW238772   0.934   3.590   0.711 -1.1401 -0.9362  0.6141
 9105SOL     OW38773   2.998   0.877   5.893 -0.3184  0.2651  0.6632
 9105SOL    HW138774   3.012   0.784   5.873  1.3596  0.8752 -0.9975
 9105SOL    HW238775   2.903   0.875   5.879 -0.3192 -0.7986  0.7977
 9106SOL     OW38776   2.958   2.796   7.954 -0.2485  0.5732  0.0233
 9106SOL    HW138777   2.899   2.724   7.976  0.9990 -0.0143  1.5011
 9106SOL    HW238778   2.906   2.860   7.906 -1.7457 -1.5113 -1.1125
 9107SOL     OW38779   1.610   3.826   3.284 -0.2559  0.1737  0.3890
 9107SOL    HW138780   1.663   3.903   3.306  0.2419  0.3397 -1.3846
 9107SOL    HW238781   1.571   3.848   3.200 -0.8464  1.5915  1.0365
 9108SOL     OW38782   1.096   4.226   5.037 -0.0517  0.0261  0.2497
 9108SOL    HW138783   1.171   4.283   5.053 -0.0244 -0.3375  1.4812
 9108SOL    HW238784   1.133   4.154   4.986  1.1224  0.8816 -0.0869
 9109SOL     OW38785   1.055   2.136  15.713  0.2467 -0.2592  0.1029
 9109SOL    HW138786   1.106   2.135  15.795  0.2100 -2.7643  0.0812
 9109SOL    HW238787   1.052   2.041  15.701 -0.6763 -0.0812 -1.0332
 9110SOL     OW38788   2.955   1.441  16.585 -0.6472 -0.1977 -0.3733
 9110SOL    HW138789   2.942   1.535  16.591  1.6936 -0.0838  2.7848
 9110SOL    HW238790   3.007   1.422  16.507  2.6398  0.6953  1.5946
 9111SOL     OW38791   0.692   4.428   3.884  0.0450 -0.5677  0.7794
 9111SOL    HW138792   0.771   4.455   3.929  0.7741 -0.3536 -0.6205
 9111SOL    HW238793   0.675   4.344   3.926  1.7270 -1.2786  0.0262
 9112SOL     OW38794   0.574   2.595   9.207 -0.0084  0.5974  0.0663
 9112SOL    HW138795   0.538   2.639   9.129  0.4318  1.2180  0.2147
 9112SOL    HW238796   0.661   2.573   9.173  0.0614  1.1907 -0.1386
 9113SOL     OW38797   3.508   2.502   1.589 -0.5213 -0.1899  0.2165
 9113SOL    HW138798   3.585   2.471   1.637  1.3683  1.6538 -1.5738
 9113SOL    HW238799   3.438   2.442   1.612 -0.4212  0.3873  1.9982
 9114SOL     OW38800   2.189   3.608   6.386 -0.0180 -0.3015  0.1197
 9114SOL    HW138801   2.227   3.577   6.469 -1.6082 -1.0140  0.5874
 9114SOL    HW238802   2.250   3.678   6.364 -1.1942  0.5659 -0.3441
 9115SOL     OW38803   3.521   3.169   5.273 -0.0275  0.5963  0.4147
 9115SOL    HW138804   3.587   3.107   5.241 -0.5405  1.3394 -2.0819
 9115SOL    HW238805   3.445   3.163   5.215  0.9433  2.0641 -1.0043
 9116SOL     OW38806   0.771   3.108   9.232 -0.1407 -0.1647 -0.4596
 9116SOL    HW138807   0.741   3.139   9.317  0.9595  1.4763 -0.6770
 9116SOL    HW238808   0.774   3.012   9.237 -0.9893 -0.2043 -0.6728
 9117SOL     OW38809   2.681   0.302   9.667  0.7104  0.5877  0.2101
 9117SOL    HW138810   2.750   0.362   9.694  1.2768 -0.5324  1.2245
 9117SOL    HW238811   2.645   0.293   9.755  0.2132  1.1585  0.0605
 9118SOL     OW38812   0.012   0.986   6.960  0.1289 -0.3412 -0.5999
 9118SOL    HW138813   4.645   0.954   6.965  0.0758 -0.3899 -1.9487
 9118SOL    HW238814   0.047   0.970   7.048 -1.1578  2.1682  0.3546
 9119SOL     OW38815   0.635   2.605   4.469  0.1219 -0.0560  0.0681
 9119SOL    HW138816   0.552   2.561   4.482 -0.8077  1.2765 -1.3245
 9119SOL    HW238817   0.674   2.536   4.415 -1.6777 -0.0930 -1.1638
 9120SOL     OW38818   3.739   4.603  12.746  0.2162  0.1328  0.6290
 9120SOL    HW138819   3.679   4.538  12.711  0.3042  1.1881 -1.5064
 9120SOL    HW238820   3.685   4.660  12.801  1.0045  3.0435 -1.6041
 9121SOL     OW38821   4.380   1.413  11.910 -0.1027  0.5512 -0.1888
 9121SOL    HW138822   4.412   1.326  11.885  0.7811  0.9570 -0.4878
 9121SOL    HW238823   4.444   1.472  11.871 -0.8229  0.1609 -1.9611
 9122SOL     OW38824   0.576   1.195   6.014 -0.2154 -0.1794  0.6663
 9122SOL    HW138825   0.647   1.212   6.075 -0.2028  0.4485  0.4733
 9122SOL    HW238826   0.571   1.102   6.036  0.1878 -0.6730 -1.4151
 9123SOL     OW38827   0.248   1.507  11.533  0.0291  0.4577  0.3384
 9123SOL    HW138828   0.337   1.500  11.567  0.7873  4.5562 -0.7526
 9123SOL    HW238829   0.207   1.575  11.587 -1.0009  2.5839 -3.1077
 9124SOL     OW38830   4.471   4.493   5.512  0.2213 -0.2259 -0.3582
 9124SOL    HW138831   4.430   4.446   5.439  0.0653  1.5327 -1.3976
 9124SOL    HW238832   4.451   4.583   5.485  1.6533 -0.0311 -0.7772
 9125SOL     OW38833   4.100   4.286   6.342 -0.0592 -0.0075 -0.3137
 9125SOL    HW138834   4.063   4.201   6.365 -0.6259  0.0544 -0.9747
 9125SOL    HW238835   4.063   4.333   6.416  1.0473 -1.0540  0.8905
 9126SOL     OW38836   1.073   0.852  13.427  0.5122 -0.1537 -0.0012
 9126SOL    HW138837   0.982   0.826  13.446  0.6777  1.0363  2.4409
 9126SOL    HW238838   1.063   0.944  13.449 -0.8069 -0.1817 -0.4803
 9127SOL     OW38839   2.767   3.114   6.419 -0.0147 -0.0432 -0.5706
 9127SOL    HW138840   2.824   3.183   6.453 -1.6373  1.7495 -1.4641
 9127SOL    HW238841   2.813   3.081   6.342  0.1603 -0.7978 -0.1469
 9128SOL     OW38842   1.939   0.335   8.671  0.2489  0.5386 -0.3220
 9128SOL    HW138843   1.849   0.347   8.700  0.0212 -1.1951 -0.3467
 9128SOL    HW238844   1.979   0.411   8.714 -1.7638  0.1134  2.2808
 9129SOL     OW38845   3.889   4.015   8.222 -0.0641 -0.1117  0.7133
 9129SOL    HW138846   3.926   3.927   8.216 -3.7317 -1.5804 -0.2935
 9129SOL    HW238847   3.795   3.999   8.233 -0.1225 -0.8577 -0.7780
 9130SOL     OW38848   0.693   2.126  16.666  0.5759  0.0244 -0.0647
 9130SOL    HW138849   0.710   2.091  16.579  0.6251 -2.1230  0.8081
 9130SOL    HW238850   0.675   2.213  16.631 -2.1129 -0.2624  0.5484
 9131SOL     OW38851   0.581   1.421   2.892  0.4669  0.1091 -0.5907
 9131SOL    HW138852   0.644   1.451   2.826  0.2256  1.2906 -0.2787
 9131SOL    HW238853   0.602   1.475   2.968 -2.0025 -1.0613  0.9111
 9132SOL     OW38854   4.355   1.680   5.214  0.0052  0.0939  0.1218
 9132SOL    HW138855   4.280   1.737   5.229 -0.5611 -0.7417  0.4825
 9132SOL    HW238856   4.350   1.662   5.120 -1.5013  2.2935 -0.2143
 9133SOL     OW38857   0.570   0.840   9.145 -0.0821 -0.0011  0.5412
 9133SOL    HW138858   0.615   0.882   9.218  0.6103 -1.1550  0.7810
 9133SOL    HW238859   0.648   0.826   9.092  0.4945 -1.1369  1.7141
 9134SOL     OW38860   2.376   4.362   4.474 -0.0432  0.0727  0.3475
 9134SOL    HW138861   2.319   4.297   4.434  1.7266  0.2448 -2.4692
 9134SOL    HW238862   2.436   4.380   4.401  0.9224  0.8837  1.3166
 9135SOL     OW38863   3.495   4.478  13.605 -0.0604 -0.5036 -0.2977
 9135SOL    HW138864   3.574   4.488  13.658 -0.3794 -1.3585  0.3405
 9135SOL    HW238865   3.538   4.448  13.524  2.6168 -0.2893  1.0496
 9136SOL     OW38866   4.094   1.646   2.769 -0.1140 -0.3867 -0.1890
 9136SOL    HW138867   4.147   1.621   2.694  0.1656  1.1919 -0.5086
 9136SOL    HW238868   4.031   1.574   2.765  1.1301 -1.4615 -0.4320
 9137SOL     OW38869   1.396   0.226  15.468 -0.4731 -0.2751 -0.3399
 9137SOL    HW138870   1.325   0.286  15.492  0.5749  1.0426 -0.4922
 9137SOL    HW238871   1.359   0.138  15.473 -0.2741 -0.3601 -0.3728
 9138SOL     OW38872   1.106   1.803   8.285 -1.0247  0.3611  0.7834
 9138SOL    HW138873   1.098   1.709   8.303 -0.0828  0.1633  0.1469
 9138SOL    HW238874   1.014   1.819   8.263 -1.0769  0.6854  1.2180
 9139SOL     OW38875   1.837   1.835   3.954 -0.1441  0.0971  0.1436
 9139SOL    HW138876   1.800   1.889   4.024 -0.2657 -0.5855  0.5973
 9139SOL    HW238877   1.870   1.761   4.004  1.3099  1.1041  0.6949
 9140SOL     OW38878   0.401   3.006  10.415  0.1989 -0.9625 -0.2112
 9140SOL    HW138879   0.392   2.925  10.366 -2.4910 -0.2412 -0.9126
 9140SOL    HW238880   0.352   2.977  10.492  0.5793 -0.2343  0.3146
 9141SOL     OW38881   1.513   4.170   6.384  0.0330 -0.1751  0.0482
 9141SOL    HW138882   1.441   4.149   6.443  2.1163 -0.9959  2.3229
 9141SOL    HW238883   1.571   4.222   6.440  0.1848  1.0122 -1.2113
 9142SOL     OW38884   0.576   0.625  13.170  0.0393 -0.0285 -0.8578
 9142SOL    HW138885   0.524   0.690  13.123 -0.2526  0.1701 -0.2636
 9142SOL    HW238886   0.664   0.653  13.147 -0.3122  0.2639 -1.8245
 9143SOL     OW38887   3.379   4.611   1.932 -0.5799 -0.2983  0.3288
 9143SOL    HW138888   3.302   4.664   1.952 -0.0760  0.6447 -0.2285
 9143SOL    HW238889   3.441   4.683   1.923 -0.7090 -0.1237  0.8281
 9144SOL     OW38890   4.233   2.418   1.744  0.4418 -0.0199 -0.1498
 9144SOL    HW138891   4.290   2.466   1.684 -1.3287  2.2676 -0.0261
 9144SOL    HW238892   4.288   2.404   1.821 -0.9509  1.9785  1.2283
 9145SOL     OW38893   4.076   0.350   5.145  0.0769  0.2327  0.4313
 9145SOL    HW138894   4.143   0.326   5.081 -0.4958 -0.9026  0.2534
 9145SOL    HW238895   4.115   0.431   5.178 -0.4510  0.6574 -0.0033
 9146SOL     OW38896   3.955   3.065   8.131 -0.8131  0.2248  0.0129
 9146SOL    HW138897   3.912   3.150   8.140 -1.2274 -0.0369  0.4396
 9146SOL    HW238898   4.022   3.074   8.063 -1.9440 -1.5119 -1.3204
 9147SOL     OW38899   0.628   3.331   7.897 -0.1539  0.1135  0.6051
 9147SOL    HW138900   0.578   3.381   7.833  1.2846  0.8334  0.0444
 9147SOL    HW238901   0.657   3.408   7.945 -1.0364  0.7912  0.0578
 9148SOL     OW38902   2.135   0.891  11.792  0.8889  0.0954  0.7082
 9148SOL    HW138903   2.097   0.887  11.704 -0.9435  1.1000  1.4472
 9148SOL    HW238904   2.059   0.904  11.849  1.3151  4.0134  0.3514
 9149SOL     OW38905   3.471   4.028   2.645  0.0201 -0.6970  0.1038
 9149SOL    HW138906   3.379   4.041   2.624 -0.2683 -1.3314  0.9922
 9149SOL    HW238907   3.497   4.118   2.623  1.8479 -1.9863 -3.0706
 9150SOL     OW38908   0.153   0.139  13.188  0.1748  0.3713 -0.1569
 9150SOL    HW138909   0.110   0.225  13.183 -0.1804  0.1189 -1.6261
 9150SOL    HW238910   0.082   0.083  13.219  2.2640 -1.7320  0.8273
 9151SOL     OW38911   3.746   4.208  11.035  0.2169  0.1239 -0.6678
 9151SOL    HW138912   3.833   4.207  11.076 -0.2408  2.7205  0.3053
 9151SOL    HW238913   3.693   4.221  11.113 -1.4586 -2.1180 -1.4358
 9152SOL     OW38914   2.365   4.314   6.658  0.0610  0.4263  0.0764
 9152SOL    HW138915   2.278   4.344   6.633 -0.6683 -3.0232 -1.6031
 9152SOL    HW238916   2.378   4.356   6.743  0.2120 -1.9236  1.2178
 9153SOL     OW38917   0.398   0.404   5.082  0.0171 -0.1445  0.1014
 9153SOL    HW138918   0.311   0.376   5.055  0.2684 -0.0599 -0.7886
 9153SOL    HW238919   0.448   0.404   5.001  0.9908  0.4127  0.7020
 9154SOL     OW38920   4.490   3.580  17.691 -0.0216 -0.4741  0.2544
 9154SOL    HW138921   4.440   3.533   0.064 -0.6387  2.4187  1.8569
 9154SOL    HW238922   4.481   3.673   0.021 -1.5383 -0.1250 -1.6997
 9155SOL     OW38923   1.002   1.824  15.349 -0.0328 -0.2828  0.3224
 9155SOL    HW138924   0.931   1.809  15.287  0.0766  0.8639 -0.0785
 9155SOL    HW238925   1.034   1.909  15.319  1.3990 -0.7521  0.5173
 9156SOL     OW38926   2.424   2.927   2.097 -0.3967 -0.2051  0.1909
 9156SOL    HW138927   2.344   2.947   2.049 -1.1924  2.1118  2.4602
 9156SOL    HW238928   2.438   2.845   2.050 -1.4974  0.4765 -1.3229
 9157SOL     OW38929   2.846   0.700   0.312  0.6625  0.0489 -0.1780
 9157SOL    HW138930   2.827   0.781   0.264 -0.4988 -0.2691 -0.2622
 9157SOL    HW238931   2.932   0.718   0.349  0.2323  0.4255  0.6598
 9158SOL     OW38932   0.960   2.949   6.323  0.1704  0.2890  0.6345
 9158SOL    HW138933   0.987   3.003   6.249 -0.5493 -0.1725  0.0377
 9158SOL    HW238934   1.039   2.951   6.376 -1.5402  0.7977  3.1714
 9159SOL     OW38935   4.701   1.018   8.848 -0.0928  0.0490 -0.4767
 9159SOL    HW138936   0.072   1.027   8.834 -0.4676 -0.0368 -3.0239
 9159SOL    HW238937   4.695   0.977   8.935 -0.0676  1.3116  0.1136
 9160SOL     OW38938   2.619   1.870   1.214  0.5545 -0.2777  0.5674
 9160SOL    HW138939   2.667   1.946   1.181 -0.6559  0.1937 -0.0857
 9160SOL    HW238940   2.660   1.802   1.160  0.5300 -0.1541  0.3929
 9161SOL     OW38941   2.712   3.098   2.285 -0.4797  0.2427 -0.1731
 9161SOL    HW138942   2.713   3.022   2.227 -1.5541 -1.1291  1.6055
 9161SOL    HW238943   2.807   3.109   2.293 -0.3372 -0.5353 -0.8567
 9162SOL     OW38944   3.555   2.653  11.579  0.1374 -0.0160  0.3271
 9162SOL    HW138945   3.645   2.660  11.612  0.1659  0.8827  0.0830
 9162SOL    HW238946   3.517   2.595  11.645  1.0420 -1.3506 -0.3301
 9163SOL     OW38947   1.103   0.198   7.624 -0.0765 -0.4272 -0.1867
 9163SOL    HW138948   1.023   0.243   7.652 -0.2963  0.2242 -1.8851
 9163SOL    HW238949   1.091   0.218   7.532 -0.0322  2.4315  0.4232
 9164SOL     OW38950   3.961   0.993   2.222  0.0370 -0.2964 -0.5970
 9164SOL    HW138951   3.919   1.032   2.145 -4.2830  0.1068  1.9756
 9164SOL    HW238952   3.902   0.924   2.250  0.7305 -0.1506  1.2393
 9165SOL     OW38953   4.158   1.985   2.029  0.3536  0.5307 -0.7267
 9165SOL    HW138954   4.154   2.073   1.992  2.0046  1.1121  0.4785
 9165SOL    HW238955   4.124   1.937   1.954 -0.9395  0.2702  0.0305
 9166SOL     OW38956   1.852   2.840   9.102 -0.1707  0.2544 -0.2439
 9166SOL    HW138957   1.836   2.903   9.032  2.3532  0.5545 -0.5548
 9166SOL    HW238958   1.915   2.777   9.069  1.3350  2.2948 -1.2617
 9167SOL     OW38959   2.956   1.948   4.162 -0.5623  0.3573 -0.5511
 9167SOL    HW138960   2.926   2.019   4.107  1.0478  0.0700 -1.7988
 9167SOL    HW238961   3.031   1.915   4.113  0.4171  1.8060 -0.0138
 9168SOL     OW38962   4.677   2.348   4.338  0.2361  0.0999 -0.2413
 9168SOL    HW138963   4.651   2.404   4.411 -1.3151 -0.4664 -0.3740
 9168SOL    HW238964   0.002   2.278   4.382  1.7417  1.4433  0.2692
 9169SOL     OW38965   1.608   3.627  13.666  0.3047  0.1860 -0.7057
 9169SOL    HW138966   1.579   3.594  13.581 -0.0128 -0.9587 -0.1455
 9169SOL    HW238967   1.536   3.683  13.696 -1.7513 -2.2242 -1.1036
 9170SOL     OW38968   3.745   3.355   5.967  0.2906 -0.3576 -0.0671
 9170SOL    HW138969   3.770   3.306   5.889 -0.7345  0.3000 -0.8039
 9170SOL    HW238970   3.692   3.294   6.018 -0.4231 -0.0113 -0.3948
 9171SOL     OW38971   1.908   4.340  10.878  0.1169 -0.1804  0.3459
 9171SOL    HW138972   1.890   4.264  10.822 -1.2808  0.6562 -0.3693
 9171SOL    HW238973   1.826   4.387  10.862  1.1934  1.3882 -0.6251
 9172SOL     OW38974   4.182   2.005   5.881 -0.3805  0.0663 -0.9602
 9172SOL    HW138975   4.197   2.087   5.929 -1.3023 -0.8130  0.8159
 9172SOL    HW238976   4.126   2.037   5.810 -0.2904 -0.6036 -1.3255
 9173SOL     OW38977   2.886   2.834   1.182 -0.3185  0.8557 -0.1743
 9173SOL    HW138978   2.928   2.765   1.130  2.4060  0.3646  2.7528
 9173SOL    HW238979   2.865   2.899   1.114 -1.8521 -0.0719 -0.5922
 9174SOL     OW38980   4.354   2.737   8.252  0.5804 -0.1375  0.3532
 9174SOL    HW138981   4.317   2.826   8.249  0.6184 -0.0652  2.7693
 9174SOL    HW238982   4.307   2.697   8.179  1.8753 -1.6673  0.3748
 9175SOL     OW38983   3.708   3.396   7.811  0.1416  0.7351  0.1097
 9175SOL    HW138984   3.672   3.382   7.724 -1.4293  0.0450  0.8825
 9175SOL    HW238985   3.635   3.360   7.862 -0.7364  1.5168 -0.6029
 9176SOL     OW38986   3.493   4.113   5.417 -0.3866 -0.0034 -0.4839
 9176SOL    HW138987   3.519   4.201   5.388  1.3234  0.3752  2.2639
 9176SOL    HW238988   3.580   4.075   5.426 -0.3665 -0.2811 -1.8129
 9177SOL     OW38989   2.370   2.988  11.953  0.2307  0.0269 -0.6552
 9177SOL    HW138990   2.416   2.971  11.870 -0.9241 -3.1564 -0.6212
 9177SOL    HW238991   2.301   2.922  11.951  0.9984 -0.8023  0.8164
 9178SOL     OW38992   2.631   3.535   0.280 -0.3461 -0.2064  0.1170
 9178SOL    HW138993   2.572   3.592   0.232  1.1894  1.6856  0.5044
 9178SOL    HW238994   2.707   3.528   0.223 -0.7549  2.0810 -0.6924
 9179SOL     OW38995   3.430   1.190   7.225 -0.6301  0.2293 -0.2086
 9179SOL    HW138996   3.338   1.191   7.253 -0.2105 -1.2005  1.2146
 9179SOL    HW238997   3.416   1.166   7.133 -0.3743 -2.1102  0.3736
 9180SOL     OW38998   1.433   2.857  14.830  0.3639  0.3503  0.3560
 9180SOL    HW138999   1.480   2.799  14.770  0.0948  0.7147 -0.2134
 9180SOL    HW239000   1.509   2.888  14.880  0.5877  0.3497  0.0202
 9181SOL     OW39001   2.893   2.627   9.602  0.3161 -0.2391  0.5796
 9181SOL    HW139002   2.942   2.615   9.683 -1.7268  0.1729  1.8681
 9181SOL    HW239003   2.834   2.552   9.608 -3.5598  2.7641 -0.3030
 9182SOL     OW39004   1.461   0.768   2.724 -0.3198 -0.4446 -0.0839
 9182SOL    HW139005   1.440   0.718   2.645  1.4672 -1.1403 -0.1020
 9182SOL    HW239006   1.517   0.843   2.704  0.0932 -0.6951  0.1382
 9183SOL     OW39007   1.266   2.744   7.156 -0.1341  0.1723  0.3326
 9183SOL    HW139008   1.179   2.706   7.141  0.4631 -1.2455  0.4413
 9183SOL    HW239009   1.297   2.697   7.233 -0.7209 -0.4283  0.1994
 9184SOL     OW39010   2.620   3.709   6.614 -0.8287  0.4006 -0.2260
 9184SOL    HW139011   2.645   3.800   6.596  2.3272 -0.2039  0.9934
 9184SOL    HW239012   2.579   3.720   6.700  0.0685  0.7270  0.1679
 9185SOL     OW39013   0.704   4.506  16.196 -0.3414  0.6173  0.0715
 9185SOL    HW139014   0.722   4.494  16.290 -0.0131 -0.2979 -0.1095
 9185SOL    HW239015   0.745   4.589  16.172 -1.2813  1.2223  0.5598
 9186SOL     OW39016   2.084   2.826   5.311  0.0441  0.2782 -0.0107
 9186SOL    HW139017   2.058   2.736   5.333  0.8906 -0.0694 -0.4408
 9186SOL    HW239018   2.162   2.817   5.256  1.3397 -0.9484  2.0375
 9187SOL     OW39019   4.389   3.554  17.284  0.7152 -0.7308  0.2165
 9187SOL    HW139020   4.306   3.557  17.330 -0.6985  1.1038 -2.4765
 9187SOL    HW239021   4.381   3.473  17.232  1.1672 -1.0957  0.7082
 9188SOL     OW39022   4.152   0.352  10.669 -0.6058  0.2616 -0.0337
 9188SOL    HW139023   4.236   0.363  10.624 -1.5616  0.2515 -1.7879
 9188SOL    HW239024   4.103   0.318  10.594  0.4964 -1.0277 -0.1866
 9189SOL     OW39025   2.422   2.862  16.885  0.0951  0.2543 -0.0934
 9189SOL    HW139026   2.382   2.932  16.833  0.2448  1.1462  1.0059
 9189SOL    HW239027   2.488   2.829  16.824  0.8490  0.4833  0.5964
 9190SOL     OW39028   3.239   1.326  17.066  0.0198 -0.2362 -0.4186
 9190SOL    HW139029   3.164   1.295  17.117 -0.6959  1.0602 -0.6733
 9190SOL    HW239030   3.195   1.359  16.988 -0.6848  0.7901  0.4257
 9191SOL     OW39031   2.753   1.660   6.322  0.3108  0.5238  0.1221
 9191SOL    HW139032   2.719   1.681   6.409  1.2775 -2.0070  1.1133
 9191SOL    HW239033   2.757   1.747   6.282  0.6169 -0.5041 -2.0658
 9192SOL     OW39034   3.808   1.221   1.782 -0.0249 -0.1429 -0.2690
 9192SOL    HW139035   3.760   1.293   1.739 -0.0956  0.5395  0.9511
 9192SOL    HW239036   3.777   1.146   1.731  0.7901 -0.9809  0.5011
 9193SOL     OW39037   3.527   1.217   9.809 -0.2768 -0.0953  0.3432
 9193SOL    HW139038   3.591   1.260   9.753 -0.7487  1.1212  0.7420
 9193SOL    HW239039   3.459   1.285   9.805 -0.1385  0.1234  1.5278
 9194SOL     OW39040   1.334   2.928   4.537 -0.2012  0.0143  0.9391
 9194SOL    HW139041   1.380   3.008   4.510  0.5161 -0.4688  0.7161
 9194SOL    HW239042   1.402   2.861   4.546 -0.4709 -0.6042 -1.4545
 9195SOL     OW39043   1.243   3.969   6.221 -0.8216 -0.4744  0.7574
 9195SOL    HW139044   1.255   4.064   6.225 -2.4414 -0.3098  1.5274
 9195SOL    HW239045   1.277   3.957   6.132 -1.0478  1.3999  0.4180
 9196SOL     OW39046   0.525   1.171   0.920 -0.4526 -0.3934  0.3215
 9196SOL    HW139047   0.532   1.172   1.016 -0.7337  0.6729  0.3268
 9196SOL    HW239048   0.475   1.089   0.912  2.3741 -2.1305  0.7032
 9197SOL     OW39049   4.563   3.731   7.635 -0.8716  0.0894 -0.7019
 9197SOL    HW139050   4.548   3.666   7.703  0.4145  2.1628  1.5742
 9197SOL    HW239051   4.484   3.780   7.658 -0.4387  1.4678 -2.1467
 9198SOL     OW39052   3.279   2.671   6.568  0.3961  0.4021  0.6971
 9198SOL    HW139053   3.289   2.697   6.477  0.4848 -1.3183  0.2285
 9198SOL    HW239054   3.269   2.756   6.611  0.7913 -0.2076  2.0073
 9199SOL     OW39055   0.299   4.505   3.828  0.5741 -0.2720 -0.3930
 9199SOL    HW139056   0.283   4.420   3.870 -0.1785  0.4289  0.7400
 9199SOL    HW239057   0.227   4.549   3.873  2.7171  1.4567  1.3570
 9200SOL     OW39058   4.686   2.997   7.354  0.0899  0.3852 -0.3380
 9200SOL    HW139059   4.690   3.046   7.272 -0.4381  1.9697  0.5873
 9200SOL    HW239060   0.053   2.965   7.346 -0.6613 -1.1459 -2.7671
 9201SOL     OW39061   0.596   2.354  12.929  0.4429  0.1717 -0.5373
 9201SOL    HW139062   0.667   2.309  12.976 -0.8621 -0.7019  0.5848
 9201SOL    HW239063   0.539   2.381  13.001  1.1574 -0.4212  0.2531
 9202SOL     OW39064   3.602   1.136   2.812  0.2145 -0.0480 -0.1967
 9202SOL    HW139065   3.558   1.114   2.894  0.4990 -1.8465 -0.5268
 9202SOL    HW239066   3.680   1.080   2.814  0.5148  0.3647 -0.0524
 9203SOL     OW39067   3.516   3.419   1.513  0.3564  0.2405  0.2110
 9203SOL    HW139068   3.497   3.431   1.606 -2.1982  0.0984 -0.2955
 9203SOL    HW239069   3.445   3.468   1.472 -0.2766 -0.7012  0.1869
 9204SOL     OW39070   3.581   2.350   7.772 -0.1444  0.0891 -0.2136
 9204SOL    HW139071   3.561   2.272   7.721  0.1960  0.3029 -0.6700
 9204SOL    HW239072   3.503   2.361   7.826 -0.3593  0.7168 -0.6481
 9205SOL     OW39073   2.010   3.080   2.585  0.2640 -0.2262 -0.3949
 9205SOL    HW139074   2.001   3.110   2.494  2.2934 -1.3595 -0.9864
 9205SOL    HW239075   2.044   2.991   2.574 -0.8809 -0.4650 -2.0472
 9206SOL     OW39076   1.571   1.320   1.840 -0.1774 -0.0390  0.0997
 9206SOL    HW139077   1.547   1.331   1.748 -0.9695 -0.2657  0.2780
 9206SOL    HW239078   1.541   1.230   1.856  0.5230 -0.2329  0.3307
 9207SOL     OW39079   3.710   1.665   3.597  0.0889  0.0920 -0.1810
 9207SOL    HW139080   3.708   1.601   3.526 -0.3988 -1.1264  0.9265
 9207SOL    HW239081   3.638   1.727   3.588  0.2861  0.6650  2.1883
 9208SOL     OW39082   3.599   2.470   5.855 -0.4554 -0.5654 -0.2190
 9208SOL    HW139083   3.685   2.445   5.889  0.4515  3.0830  0.1296
 9208SOL    HW239084   3.582   2.538   5.920  2.0531  1.4762 -1.6777
 9209SOL     OW39085   0.634   2.145   3.362 -0.2330 -0.1787 -0.4146
 9209SOL    HW139086   0.541   2.134   3.383  0.0470  0.7815  1.3024
 9209SOL    HW239087   0.671   2.075   3.416  0.2801 -0.2053 -0.7934
 9210SOL     OW39088   4.210   2.529   5.967 -0.3045 -0.1311 -0.5543
 9210SOL    HW139089   4.252   2.612   5.989  1.8679  0.1441 -5.6790
 9210SOL    HW239090   4.134   2.559   5.918 -2.2667  1.2029  3.3447
 9211SOL     OW39091   2.183   2.507   5.064  0.3033  0.1972  0.0683
 9211SOL    HW139092   2.267   2.536   5.029  0.9540 -0.3558  1.1684
 9211SOL    HW239093   2.137   2.590   5.055 -3.1223 -1.8328 -1.3218
 9212SOL     OW39094   0.618   0.122   0.615  0.0064 -0.2712  0.1745
 9212SOL    HW139095   0.558   0.130   0.541 -0.2461 -0.2663  0.3806
 9212SOL    HW239096   0.590   0.034   0.639 -1.8741  0.8587  2.0450
 9213SOL     OW39097   2.340   0.716  12.690  0.2930 -0.4827 -0.2704
 9213SOL    HW139098   2.408   0.687  12.751  0.4623 -0.7301 -0.5780
 9213SOL    HW239099   2.382   0.706  12.605  0.7816  1.1907 -0.2267
 9214SOL     OW39100   4.147   3.000   2.258  0.7798 -0.1556  0.3117
 9214SOL    HW139101   4.194   3.047   2.189 -2.4605  0.2572 -1.6095
 9214SOL    HW239102   4.210   2.933   2.284 -0.1455 -1.9542 -2.0939
 9215SOL     OW39103   0.005   0.721   7.217 -0.3555 -0.1381 -0.0574
 9215SOL    HW139104   4.635   0.738   7.231 -0.3952  1.9568 -2.6934
 9215SOL    HW239105   0.050   0.779   7.279 -1.7893  0.8721  0.0269
 9216SOL     OW39106   0.129   0.377  17.047  0.0961 -0.2456 -0.2224
 9216SOL    HW139107   0.041   0.385  17.085  1.7292 -0.2443  3.5150
 9216SOL    HW239108   0.166   0.316  17.110  0.5951  2.0925  1.7242
 9217SOL     OW39109   4.442   1.234   4.727 -0.4632 -0.1583  0.3943
 9217SOL    HW139110   4.397   1.219   4.810  0.4613 -0.6998  0.7922
 9217SOL    HW239111   4.433   1.329   4.733  1.9573  0.0625  0.5689
 9218SOL     OW39112   1.983   2.417   2.160 -0.1697  0.1499  0.2147
 9218SOL    HW139113   1.948   2.459   2.081  1.3730  0.7178 -0.1617
 9218SOL    HW239114   2.025   2.336   2.129  1.7052  0.2725  2.4550
 9219SOL     OW39115   1.206   3.284  11.081 -0.0307  0.2015 -0.2153
 9219SOL    HW139116   1.207   3.210  11.142  2.6542  0.7220  0.3777
 9219SOL    HW239117   1.110   3.291  11.079  0.0087 -0.9667 -5.1493
 9220SOL     OW39118   1.072   1.525   1.204  0.4647  0.0199 -0.1938
 9220SOL    HW139119   1.050   1.576   1.282 -3.2836 -0.3178 -1.0475
 9220SOL    HW239120   1.101   1.584   1.134  0.7958  0.7291  0.5324
 9221SOL     OW39121   3.774   3.611   6.066  0.7992 -0.0622  0.0047
 9221SOL    HW139122   3.762   3.647   5.978 -0.5832 -0.1918  0.1366
 9221SOL    HW239123   3.751   3.519   6.052  2.4315  0.0203 -3.1216
 9222SOL     OW39124   3.116   2.422   2.985  0.7022 -0.1438 -0.3247
 9222SOL    HW139125   3.160   2.353   2.935 -0.2631 -0.2008 -1.1025
 9222SOL    HW239126   3.148   2.501   2.942 -1.3595  1.3870  0.9862
 9223SOL     OW39127   1.675   2.480   9.287 -0.3409  0.2079 -0.0671
 9223SOL    HW139128   1.739   2.466   9.357 -1.6500 -0.8888  0.8898
 9223SOL    HW239129   1.603   2.524   9.332 -1.4957 -0.2290 -1.5290
 9224SOL     OW39130   3.226   3.199   0.448  0.0002  1.0351 -0.0673
 9224SOL    HW139131   3.292   3.268   0.454 -0.7782  1.7875 -0.0866
 9224SOL    HW239132   3.275   3.133   0.399 -0.3482  1.3735 -0.8691
 9225SOL     OW39133   3.845   0.425   8.849  0.1043  0.0417 -0.1091
 9225SOL    HW139134   3.815   0.386   8.767  1.3729  0.9553 -1.0098
 9225SOL    HW239135   3.904   0.493   8.816 -0.7154  0.0219 -1.6048
 9226SOL     OW39136   2.187   4.277  16.940 -0.1768 -0.0164  0.4119
 9226SOL    HW139137   2.228   4.251  17.022  0.7966 -1.4108 -0.5021
 9226SOL    HW239138   2.093   4.269  16.953 -0.1470 -2.2253 -0.5614
 9227SOL     OW39139   0.916   1.940   3.775  0.3488 -0.3332  0.3107
 9227SOL    HW139140   1.007   1.956   3.750  0.1640 -0.8358 -0.6630
 9227SOL    HW239141   0.895   1.848   3.760 -0.7205 -0.6455  3.7085
 9228SOL     OW39142   0.981   3.817  14.245 -0.1603 -0.0514  0.0247
 9228SOL    HW139143   0.972   3.724  14.223 -0.5429 -0.0211  0.0466
 9228SOL    HW239144   1.074   3.836  14.242  0.2870 -2.2023  0.5073
 9229SOL     OW39145   0.085   3.283  17.029  0.1800 -0.0146 -0.3150
 9229SOL    HW139146   0.127   3.303  16.945 -2.0316 -1.6954 -1.8097
 9229SOL    HW239147   0.076   3.188  17.024 -0.7709  0.1131 -1.1580
 9230SOL     OW39148   1.346   0.127  12.875 -0.2114 -0.1522  0.3186
 9230SOL    HW139149   1.338   0.204  12.818  1.4537 -0.3127 -0.1306
 9230SOL    HW239150   1.258   0.120  12.914 -0.1913 -2.4992 -0.0448
 9231SOL     OW39151   2.479   0.964   9.013  0.8062 -0.1730  0.1018
 9231SOL    HW139152   2.474   0.902   9.085  0.7147 -0.7220 -0.3771
 9231SOL    HW239153   2.536   1.033   9.049 -0.7140  0.7741  0.6778
 9232SOL     OW39154   2.898   1.844   3.301 -0.3686  0.2282 -0.3529
 9232SOL    HW139155   2.865   1.887   3.380 -0.0772 -2.6228  1.3127
 9232SOL    HW239156   2.907   1.754   3.333  2.5212  0.7999  0.5246
 9233SOL     OW39157   4.025   0.083   2.403  0.0254  0.0142  0.5224
 9233SOL    HW139158   3.983   0.161   2.365 -0.8370 -0.8622 -0.3417
 9233SOL    HW239159   4.111   0.125   2.392  1.0701 -2.6673 -1.4728
 9234SOL     OW39160   3.044   2.627   2.382 -0.1809 -0.0491 -0.5722
 9234SOL    HW139161   3.004   2.658   2.301 -0.4848  0.2555 -0.3070
 9234SOL    HW239162   2.973   2.581   2.427  1.3149 -0.8878  0.9113
 9235SOL     OW39163   1.536   0.278  10.676  0.5438 -0.4104 -0.7149
 9235SOL    HW139164   1.508   0.368  10.690 -0.1787 -1.1799  2.7954
 9235SOL    HW239165   1.630   0.296  10.667  0.4055  0.3611 -0.6347
 9236SOL     OW39166   4.509   3.595   4.453  0.3850 -0.4301 -0.3812
 9236SOL    HW139167   4.577   3.662   4.443 -0.0646 -0.3410 -2.7740
 9236SOL    HW239168   4.535   3.553   4.535  1.2450  1.4237  0.2936
 9237SOL     OW39169   3.972   1.272   9.129 -0.3210 -0.1699 -0.6419
 9237SOL    HW139170   4.015   1.300   9.210  0.3764  0.2667 -1.1566
 9237SOL    HW239171   4.024   1.192   9.119  1.1669  0.8879 -1.3509
 9238SOL     OW39172   3.362   2.297  11.172 -0.8922  0.1832  0.6193
 9238SOL    HW139173   3.384   2.293  11.079  0.8331 -0.4219  1.0616
 9238SOL    HW239174   3.351   2.202  11.175  1.6063 -0.0217  2.5285
 9239SOL     OW39175   3.008   0.084   3.112  0.2449 -0.1683  0.5062
 9239SOL    HW139176   2.969   0.163   3.151 -1.0338  0.8909 -2.8690
 9239SOL    HW239177   2.970   0.099   3.025  3.0035 -0.6279 -0.7708
 9240SOL     OW39178   2.514   1.788   6.790  0.7267  0.5233 -0.3143
 9240SOL    HW139179   2.505   1.694   6.803 -0.6987  0.5489 -1.1445
 9240SOL    HW239180   2.566   1.811   6.867 -0.1188 -2.3385  1.1193
 9241SOL     OW39181   2.570   2.191  10.038  0.2458  0.4692  0.5008
 9241SOL    HW139182   2.535   2.137  10.109 -3.6259  0.4591 -1.4065
 9241SOL    HW239183   2.598   2.116   9.987 -0.0340  0.8853 -0.2595
 9242SOL     OW39184   2.442   3.565   8.082 -0.0297 -0.9565  0.2263
 9242SOL    HW139185   2.372   3.630   8.073  0.7221 -0.0138  1.1917
 9242SOL    HW239186   2.521   3.618   8.086 -0.3676 -0.2298 -2.4032
 9243SOL     OW39187   3.023   3.877   5.148  0.6608  0.2764 -0.0133
 9243SOL    HW139188   3.009   3.804   5.087 -0.3748 -1.3817  2.2189
 9243SOL    HW239189   3.106   3.916   5.120  0.6527  1.2142  1.2642
 9244SOL     OW39190   0.690   0.988   6.415  0.2333  0.2642 -0.6575
 9244SOL    HW139191   0.675   1.006   6.508 -1.0787  0.7021 -0.9467
 9244SOL    HW239192   0.747   0.912   6.425 -1.1658 -0.9563 -2.0316
 9245SOL     OW39193   3.146   0.441   6.367  0.6841  0.2375 -0.1634
 9245SOL    HW139194   3.175   0.466   6.279  1.1756 -0.8078 -0.2931
 9245SOL    HW239195   3.196   0.503   6.420  2.8372 -0.2838 -1.6038
 9246SOL     OW39196   0.337   1.274   6.127  0.3593  0.8699  0.5952
 9246SOL    HW139197   0.384   1.302   6.206 -0.5379 -0.1058  1.4681
 9246SOL    HW239198   0.405   1.255   6.062  0.8537  0.4379  1.2395
 9247SOL     OW39199   1.684   3.212   2.898 -0.5303  0.1979  0.3456
 9247SOL    HW139200   1.772   3.211   2.860  0.1722 -1.0635  2.0310
 9247SOL    HW239201   1.655   3.123   2.878  1.9185 -0.5846  0.3608
 9248SOL     OW39202   1.561   3.310   8.686  0.1900 -0.5903  0.3165
 9248SOL    HW139203   1.554   3.374   8.757 -0.0770  1.2258 -1.3329
 9248SOL    HW239204   1.469   3.284   8.689 -0.3314  0.9333 -1.9644
 9249SOL     OW39205   2.613   0.233   9.358 -1.5000  0.3103 -0.2746
 9249SOL    HW139206   2.682   0.291   9.324 -0.2242 -1.3909 -0.6098
 9249SOL    HW239207   2.629   0.248   9.451  2.3968 -0.6499 -0.7874
 9250SOL     OW39208   0.738   0.519   5.620  0.1344 -0.2190  0.0820
 9250SOL    HW139209   0.747   0.472   5.538  1.5974  0.8450 -0.3635
 9250SOL    HW239210   0.644   0.539   5.617 -0.2984 -2.7853 -3.2283
 9251SOL     OW39211   2.496   2.715   3.827  0.5082 -0.3020  0.1474
 9251SOL    HW139212   2.452   2.694   3.745 -0.9113 -1.9925  1.3457
 9251SOL    HW239213   2.435   2.780   3.864  0.5710 -1.1464  1.7479
 9252SOL     OW39214   4.364   2.164   8.473 -0.3280  0.4575 -0.2775
 9252SOL    HW139215   4.442   2.131   8.517 -0.1723  2.6320  1.0548
 9252SOL    HW239216   4.352   2.254   8.503 -0.4118  1.1844 -2.4771
 9253SOL     OW39217   3.283   0.133   8.584  0.2170 -0.0408 -0.0849
 9253SOL    HW139218   3.279   0.187   8.663  1.5837 -1.4418  0.9504
 9253SOL    HW239219   3.207   0.156   8.531 -0.3378 -2.2833 -0.2732
 9254SOL     OW39220   3.999   1.669   7.151  0.0607  0.3253 -0.0888
 9254SOL    HW139221   4.022   1.612   7.077  0.6764  0.2055  0.1936
 9254SOL    HW239222   3.989   1.745   7.094  0.4755 -2.0794 -3.4062
 9255SOL     OW39223   0.982   3.662   3.133 -0.4822 -0.0510 -0.6307
 9255SOL    HW139224   0.919   3.716   3.180  1.6204  0.3145  1.7825
 9255SOL    HW239225   0.924   3.614   3.074  2.0979 -2.0728 -1.5356
 9256SOL     OW39226   2.709   0.333   2.967  0.2788  0.0127  0.0955
 9256SOL    HW139227   2.618   0.311   2.947  0.4005 -1.4627  1.2063
 9256SOL    HW239228   2.713   0.424   2.937 -0.6204  0.9360  2.8310
 9257SOL     OW39229   2.072   2.392   4.154  0.7424  0.2562  0.1056
 9257SOL    HW139230   2.084   2.349   4.238 -2.2622  0.6227  0.7483
 9257SOL    HW239231   2.158   2.389   4.112  0.9133 -0.3617  0.5083
 9258SOL     OW39232   0.708   0.297   6.409 -0.4930  0.3372 -0.3070
 9258SOL    HW139233   0.699   0.264   6.319  0.3877 -0.6295 -0.0321
 9258SOL    HW239234   0.716   0.214   6.455 -0.4636  0.2876 -0.4024
 9259SOL     OW39235   2.454   3.618   1.990  0.0544 -0.1069 -0.1425
 9259SOL    HW139236   2.497   3.559   2.051 -0.9961 -0.5882  0.1421
 9259SOL    HW239237   2.524   3.677   1.962 -1.0471  1.3381  0.1545
 9260SOL     OW39238   4.634   0.634  13.578  0.2664  0.6182  0.2646
 9260SOL    HW139239   0.005   0.632  13.562  0.6743  0.2234  2.6177
 9260SOL    HW239240   4.594   0.587  13.505  0.8708  0.8212 -0.1901
 9261SOL     OW39241   1.268   4.660   8.775 -0.2721  0.2807 -0.0897
 9261SOL    HW139242   1.271   0.030   8.752 -0.1977  0.3858  0.3385
 9261SOL    HW239243   1.323   4.621   8.707 -0.6540  0.4434 -0.4945
 9262SOL     OW39244   2.942   1.429   4.187 -0.5019 -0.3406 -0.2508
 9262SOL    HW139245   2.993   1.442   4.268  2.5691 -2.0500 -1.9116
 9262SOL    HW239246   2.908   1.518   4.182 -0.3369 -0.2153  0.8502
 9263SOL     OW39247   2.997   3.843  16.468 -0.1660  0.8963  0.3807
 9263SOL    HW139248   3.041   3.765  16.502 -2.4125 -0.2946  0.5636
 9263SOL    HW239249   2.979   3.897  16.545  0.2966  2.9984 -0.9744
 9264SOL     OW39250   0.231   3.163  12.995  0.1049  0.7342 -0.6899
 9264SOL    HW139251   0.218   3.123  13.081 -0.3583  0.9172 -0.6781
 9264SOL    HW239252   0.323   3.145  12.975  0.4834 -0.2211  1.8964
 9265SOL     OW39253   4.699   2.936   3.827  0.0184 -0.0680  0.2984
 9265SOL    HW139254   4.631   2.871   3.846 -1.4952  1.0433 -1.3982
 9265SOL    HW239255   0.059   2.890   3.845  0.5647  0.5511 -0.6204
 9266SOL     OW39256   0.818   2.205  13.021 -0.3175  0.6121  0.3687
 9266SOL    HW139257   0.838   2.259  13.097 -0.2334  1.5302 -0.3076
 9266SOL    HW239258   0.884   2.222  12.954  0.6363 -0.0834  1.1204
 9267SOL     OW39259   3.124   1.379  10.693  0.0079 -0.0523 -0.8492
 9267SOL    HW139260   3.063   1.310  10.668 -0.6953  0.2973 -0.1109
 9267SOL    HW239261   3.090   1.451  10.641 -0.4308 -0.3900 -1.0255
 9268SOL     OW39262   2.451   3.677   2.893 -0.0677 -0.0436  0.3159
 9268SOL    HW139263   2.400   3.675   2.974  0.9612  1.5882  1.0106
 9268SOL    HW239264   2.483   3.767   2.883  0.4800 -0.2009  0.6406
 9269SOL     OW39265   0.216   2.340   4.486 -0.7690 -0.2095  0.0639
 9269SOL    HW139266   0.174   2.289   4.417  3.1214 -2.7827 -0.4539
 9269SOL    HW239267   0.187   2.291   4.563  1.1149  0.3876  1.1633
 9270SOL     OW39268   3.520   1.696   6.988  0.2207 -0.4127  0.0799
 9270SOL    HW139269   3.565   1.735   6.913  2.0335  0.0060  1.3835
 9270SOL    HW239270   3.592   1.638   7.010  0.2258  0.2062  1.7586
 9271SOL     OW39271   1.982   3.925   7.786 -0.2980 -0.0384 -0.6232
 9271SOL    HW139272   1.930   3.854   7.747 -0.1509 -0.5875  0.1734
 9271SOL    HW239273   1.967   3.912   7.880  3.6206 -1.5188 -0.2002
 9272SOL     OW39274   2.572   2.025   8.968 -0.4574 -0.1033  0.3644
 9272SOL    HW139275   2.652   2.077   8.981  0.5226 -1.7327  0.8579
 9272SOL    HW239276   2.565   2.026   8.873  0.2930 -0.8514  0.2975
 9273SOL     OW39277   2.807   0.714   7.584 -0.2793  0.6126 -0.4331
 9273SOL    HW139278   2.886   0.672   7.551 -0.7822 -0.1066 -0.6937
 9273SOL    HW239279   2.819   0.695   7.677  2.2016 -1.4289 -1.1668
 9274SOL     OW39280   1.824   4.043   3.229  0.4604  0.4905 -0.2100
 9274SOL    HW139281   1.872   4.126   3.232  1.2954 -0.0473  1.2144
 9274SOL    HW239282   1.828   4.017   3.137 -0.4357 -2.1495  0.4986
 9275SOL     OW39283   1.173   0.367   4.808 -0.5064 -0.7282 -0.1708
 9275SOL    HW139284   1.087   0.348   4.769 -0.7847  0.8847 -0.3164
 9275SOL    HW239285   1.183   0.456   4.776 -2.3469  0.8580  3.6751
 9276SOL     OW39286   0.372   2.366   1.992 -0.9079 -0.3678  0.9882
 9276SOL    HW139287   0.446   2.306   1.985  0.0794  0.9855 -0.1507
 9276SOL    HW239288   0.361   2.384   2.085  0.4445 -1.5792  1.3707
 9277SOL     OW39289   0.452   3.634   2.264 -0.2971  0.5024 -0.0645
 9277SOL    HW139290   0.485   3.680   2.341  1.4851  0.2534 -0.6724
 9277SOL    HW239291   0.490   3.679   2.189  0.0576  0.7722  0.2820
 9278SOL     OW39292   0.271   2.943   7.339  0.0601 -0.0265  0.0679
 9278SOL    HW139293   0.316   3.009   7.286 -2.9686  1.6553 -0.3903
 9278SOL    HW239294   0.299   2.962   7.429 -0.1324 -0.2677  0.1791
 9279SOL     OW39295   4.453   2.002   0.037  0.1319  0.6953  0.5142
 9279SOL    HW139296   4.487   1.961   0.117 -1.0239  1.0905  1.2034
 9279SOL    HW239297   4.406   2.073   0.079  1.9973  1.6096  1.0689
 9280SOL     OW39298   2.224   2.100   3.823  0.7806  0.3170 -0.3352
 9280SOL    HW139299   2.143   2.148   3.809 -0.5799 -1.6251  0.9065
 9280SOL    HW239300   2.186   2.018   3.854  0.3680  0.9086  0.7083
 9281SOL     OW39301   3.560   0.481   5.368 -0.4669 -0.1193 -0.3557
 9281SOL    HW139302   3.595   0.401   5.329 -0.4334  0.0119 -0.5891
 9281SOL    HW239303   3.642   0.522   5.394 -0.1273 -1.4388  0.6599
 9282SOL     OW39304   4.127   3.374   6.556 -0.1174 -0.2508  0.3610
 9282SOL    HW139305   4.043   3.419   6.565  1.1353  1.9408  1.1317
 9282SOL    HW239306   4.113   3.313   6.628 -1.5777  1.0499  1.1847
 9283SOL     OW39307   2.264   1.763   9.161 -0.3857  0.0489  0.2848
 9283SOL    HW139308   2.187   1.744   9.108 -0.8240 -0.3054  1.0503
 9283SOL    HW239309   2.290   1.853   9.139  2.1516 -0.7875 -0.0526
 9284SOL     OW39310   3.310   2.165   6.551 -0.3161  0.6119  0.0335
 9284SOL    HW139311   3.227   2.122   6.572  0.0359 -0.7433 -1.3767
 9284SOL    HW239312   3.281   2.213   6.474 -1.9888  1.6937  1.3230
 9285SOL     OW39313   0.637   2.535   8.665 -0.6845  0.0048 -0.5045
 9285SOL    HW139314   0.566   2.575   8.616  0.9628  1.5253 -1.6360
 9285SOL    HW239315   0.710   2.551   8.606  1.0356  1.8647  2.1215
 9286SOL     OW39316   0.065   2.999   4.137 -0.3670  0.0175 -0.1254
 9286SOL    HW139317   4.709   3.050   4.119  0.8027  1.8580  0.0016
 9286SOL    HW239318   0.074   3.003   4.232  0.0135 -0.1414 -0.1540
 9287SOL     OW39319   2.810   4.632  12.009  0.3484  0.1720 -0.1574
 9287SOL    HW139320   2.812   4.565  12.077  1.0516  0.4709  0.1098
 9287SOL    HW239321   2.830   4.581  11.930  0.5890 -2.1608  1.4064
 9288SOL     OW39322   4.304   1.359   9.071 -0.2530  0.4068 -0.7201
 9288SOL    HW139323   4.349   1.284   9.110 -0.4654 -0.2233 -1.6806
 9288SOL    HW239324   4.252   1.397   9.142  1.2710 -1.6639  1.4908
 9289SOL     OW39325   4.626   4.056   8.927 -0.6649  0.1721  0.2219
 9289SOL    HW139326   4.717   4.078   8.949 -0.1883 -0.4335 -1.1108
 9289SOL    HW239327   4.634   3.976   8.874  0.1392 -0.7177  1.7053
 9290SOL     OW39328   1.574   3.967   6.945  0.1608  0.1955  0.0087
 9290SOL    HW139329   1.524   3.941   7.023 -1.4998 -1.7349 -1.7143
 9290SOL    HW239330   1.504   3.992   6.885 -1.3554 -0.9430  1.2822
 9291SOL     OW39331   1.143   0.350   5.911  0.0257  0.0350 -0.1594
 9291SOL    HW139332   1.137   0.306   5.996 -2.3032  1.0563  0.2079
 9291SOL    HW239333   1.205   0.296   5.862  1.0624  1.3719 -0.3231
 9292SOL     OW39334   4.006   2.234   7.134 -0.1370 -0.6738 -0.2265
 9292SOL    HW139335   4.034   2.319   7.102 -3.2614 -0.5745 -2.6937
 9292SOL    HW239336   4.040   2.179   7.064 -1.2869 -3.2612  1.2220
 9293SOL     OW39337   3.622   1.260  17.536  0.2711 -0.1574  0.0026
 9293SOL    HW139338   3.695   1.202  17.556  1.8803  1.7812 -0.3483
 9293SOL    HW239339   3.584   1.273  17.623  1.3808 -1.4574  0.6835
 9294SOL     OW39340   0.449   4.238  13.572  0.0711  0.7669  0.2380
 9294SOL    HW139341   0.380   4.173  13.556  1.0575 -0.2255  0.0168
 9294SOL    HW239342   0.461   4.289  13.492 -0.0677  0.5633  0.0856
 9295SOL     OW39343   2.459   0.550   8.942  0.6014 -0.1181  0.0531
 9295SOL    HW139344   2.416   0.465   8.929  1.9980 -0.9552  0.8953
 9295SOL    HW239345   2.550   0.522   8.947  0.7577  0.1702 -1.2054
 9296SOL     OW39346   4.342   2.851   7.493 -0.2411  0.2697  0.0780
 9296SOL    HW139347   4.319   2.803   7.573  1.6649 -0.6144  0.0957
 9296SOL    HW239348   4.369   2.935   7.529 -0.5344 -0.5538  2.2350
 9297SOL     OW39349   1.954   4.345   7.227 -0.2545 -0.7317 -0.1478
 9297SOL    HW139350   2.006   4.417   7.263  1.4453 -1.4587 -1.1466
 9297SOL    HW239351   1.872   4.393   7.214 -0.9560 -1.4090  1.8735
 9298SOL     OW39352   4.373   0.986   7.702  0.0809  0.0895 -0.1476
 9298SOL    HW139353   4.315   0.943   7.765 -1.8622  0.0892 -1.9698
 9298SOL    HW239354   4.368   1.078   7.729 -1.4579 -0.2198  0.6060
 9299SOL     OW39355   0.759   0.492  13.837  0.1641  0.1497 -1.4046
 9299SOL    HW139356   0.838   0.483  13.784  1.3046  1.6444  0.0663
 9299SOL    HW239357   0.778   0.555  13.906  0.2279  0.8664 -2.0817
 9300SOL     OW39358   0.317   1.454   4.460  0.2720  0.2830  0.0904
 9300SOL    HW139359   0.252   1.389   4.485 -0.6739  1.9108  1.8084
 9300SOL    HW239360   0.320   1.513   4.535  1.0698  0.0177  0.2709
 9301SOL     OW39361   0.682   2.672   1.905  0.4355 -0.1320 -0.0260
 9301SOL    HW139362   0.744   2.711   1.967 -0.7577 -0.2098  1.2199
 9301SOL    HW239363   0.716   2.585   1.886  0.7263 -0.3822  1.5801
 9302SOL     OW39364   0.688   4.070  17.359 -0.3592 -0.4875  0.8317
 9302SOL    HW139365   0.661   4.049  17.270  3.9235  0.6281 -0.7516
 9302SOL    HW239366   0.748   3.997  17.373 -0.5286 -0.5956  0.9874
 9303SOL     OW39367   3.555   1.316  16.856  0.0204 -0.4718  0.4348
 9303SOL    HW139368   3.516   1.275  16.779  2.1779  3.6252 -2.8043
 9303SOL    HW239369   3.636   1.349  16.818 -0.7878 -1.4129 -2.1457
 9304SOL     OW39370   0.433   3.253   6.264 -0.5196  0.2477  0.3695
 9304SOL    HW139371   0.501   3.214   6.209 -0.9402 -0.5350  0.4124
 9304SOL    HW239372   0.433   3.198   6.341  0.3654 -0.8646 -0.4269
 9305SOL     OW39373   3.951   2.348   1.850  0.3238  0.0867 -0.3691
 9305SOL    HW139374   3.968   2.433   1.890 -1.7932  1.3497 -2.1842
 9305SOL    HW239375   4.036   2.327   1.810  1.3173  4.2030 -0.3950
 9306SOL     OW39376   4.496   1.429  11.188 -0.3016 -0.7924 -0.1694
 9306SOL    HW139377   4.409   1.410  11.153  0.1873 -1.0486 -1.2721
 9306SOL    HW239378   4.552   1.395  11.118 -0.5790  0.8780 -1.2276
 9307SOL     OW39379   3.032   1.409   4.495 -0.0101  0.5253 -0.4374
 9307SOL    HW139380   2.976   1.356   4.552  0.7753  0.6194  0.4234
 9307SOL    HW239381   3.116   1.364   4.502 -0.3423  0.2288  1.7300
 9308SOL     OW39382   1.791   3.960  16.658  0.1390 -0.4349  0.1789
 9308SOL    HW139383   1.853   3.888  16.664 -0.4075 -0.7271  1.9989
 9308SOL    HW239384   1.849   4.032  16.682 -0.5203 -0.3463  1.4662
 9309SOL     OW39385   0.003   3.771   7.387  0.2545 -0.2940 -0.5435
 9309SOL    HW139386   4.652   3.754   7.446  1.6985 -0.7006  1.1470
 9309SOL    HW239387   4.684   3.819   7.315 -1.8998  0.6455  1.3385
 9310SOL     OW39388   3.719   4.173   5.204 -0.2960 -0.4126 -0.8288
 9310SOL    HW139389   3.753   4.111   5.268  1.7217 -1.6304 -3.1130
 9310SOL    HW239390   3.700   4.244   5.265  0.5538 -1.0243  0.1512
 9311SOL     OW39391   4.707   4.257   5.829 -0.4550  0.0860  0.0553
 9311SOL    HW139392   0.025   4.257   5.743  0.9445 -3.1442  0.7329
 9311SOL    HW239393   4.665   4.171   5.832 -2.3346  0.9730 -0.4294
 9312SOL     OW39394   2.974   4.213   5.716  0.2506  0.3499 -0.6379
 9312SOL    HW139395   3.039   4.147   5.741 -0.6358  0.3796  1.6747
 9312SOL    HW239396   2.964   4.276   5.786  0.2557  0.3827 -0.6665
 9313SOL     OW39397   2.515   1.828   6.356 -0.0253  0.1441 -0.5748
 9313SOL    HW139398   2.488   1.742   6.388  4.4700 -0.8314  0.5841
 9313SOL    HW239399   2.469   1.839   6.273  1.7490  1.0942 -1.4408
 9314SOL     OW39400   4.691   3.531   4.919  0.4287 -0.1225 -0.7195
 9314SOL    HW139401   0.044   3.580   4.887 -0.3385  1.2575 -0.4605
 9314SOL    HW239402   0.014   3.461   4.965  0.4182 -0.7406 -1.6617
 9315SOL     OW39403   2.133   1.572  15.385 -0.7676 -0.1109 -0.2401
 9315SOL    HW139404   2.140   1.478  15.369 -0.3726 -0.0399 -0.4810
 9315SOL    HW239405   2.211   1.587  15.439 -0.7819  2.0519 -0.8060
 9316SOL     OW39406   0.748   1.453   8.025 -0.4918 -0.0477  0.1278
 9316SOL    HW139407   0.721   1.534   7.983  1.0587  0.1560 -0.4772
 9316SOL    HW239408   0.692   1.448   8.102 -1.4042 -2.6149 -0.6958
 9317SOL     OW39409   3.894   3.871   7.767  0.3245 -0.2363  0.1762
 9317SOL    HW139410   3.876   3.964   7.753 -0.2954 -0.3725  0.0713
 9317SOL    HW239411   3.810   3.825   7.766  0.4179 -0.4080  0.3209
 9318SOL     OW39412   1.634   1.245   9.239 -0.8332 -0.1600  0.4575
 9318SOL    HW139413   1.663   1.289   9.319  0.9125  0.9134 -0.7613
 9318SOL    HW239414   1.570   1.185   9.277  0.0372 -0.6556  1.1570
 9319SOL     OW39415   3.639   1.793   7.794  0.2490  0.4871  0.1094
 9319SOL    HW139416   3.670   1.709   7.758 -1.2072  0.6242 -1.5016
 9319SOL    HW239417   3.548   1.800   7.765  0.5337  2.6448 -0.2280
 9320SOL     OW39418   2.127   3.941   2.874  0.1057 -0.2789 -0.1564
 9320SOL    HW139419   2.079   3.970   2.952 -0.8448 -0.2991 -0.7396
 9320SOL    HW239420   2.191   4.009   2.854  1.6187 -1.5668  0.2670
 9321SOL     OW39421   4.120   2.791   0.695  0.3466 -0.2119 -0.0910
 9321SOL    HW139422   4.203   2.822   0.659  0.6294 -0.5698  0.2597
 9321SOL    HW239423   4.069   2.762   0.619 -0.1969  0.8954 -0.1658
 9322SOL     OW39424   0.388   0.667  15.502 -0.0771 -0.0485  0.0267
 9322SOL    HW139425   0.474   0.629  15.482  1.6037  3.3577  0.6460
 9322SOL    HW239426   0.334   0.623  15.436 -1.0262 -2.6866  2.6089
 9323SOL     OW39427   2.235   4.532   8.493  0.1831  0.4648  0.1705
 9323SOL    HW139428   2.282   4.455   8.524 -0.6839  0.2659  0.9792
 9323SOL    HW239429   2.156   4.508   8.541  0.2716 -1.6295 -0.7252
 9324SOL     OW39430   0.062   2.842  12.205 -0.3172  0.3829  0.0597
 9324SOL    HW139431   0.111   2.841  12.123 -0.4703 -2.7317  0.0366
 9324SOL    HW239432   0.120   2.803  12.270 -0.7643  0.1543  0.3247
 9325SOL     OW39433   1.509   0.297  11.052  0.0410 -0.1826  0.0310
 9325SOL    HW139434   1.538   0.223  10.999 -1.0422 -0.0278 -0.7812
 9325SOL    HW239435   1.574   0.355  11.013  1.7622 -1.0380  1.6100
 9326SOL     OW39436   2.137   1.683   6.630  0.7886 -0.2527 -0.1829
 9326SOL    HW139437   2.071   1.700   6.697  1.3913  2.9949 -0.4019
 9326SOL    HW239438   2.099   1.613   6.577  0.6513 -0.0071 -0.4087
 9327SOL     OW39439   3.205   4.048   8.684  0.0922 -0.3556 -0.4232
 9327SOL    HW139440   3.236   4.136   8.665  2.4137 -0.9681  0.5992
 9327SOL    HW239441   3.120   4.067   8.723 -1.2183 -1.4193 -2.7484
 9328SOL     OW39442   2.952   3.973   1.707 -0.6014 -0.5462  0.7077
 9328SOL    HW139443   2.985   4.063   1.703 -0.2948 -0.6739  0.3654
 9328SOL    HW239444   3.008   3.930   1.642  2.0876  1.8809  1.4173
 9329SOL     OW39445   3.827   0.532   6.763  0.4244  0.3181 -0.1855
 9329SOL    HW139446   3.859   0.499   6.679  1.7090  1.8509 -0.2979
 9329SOL    HW239447   3.799   0.619   6.733  0.9878  0.9015  1.0054
 9330SOL     OW39448   3.191   4.315  16.361 -0.1004  0.5955  0.3271
 9330SOL    HW139449   3.221   4.239  16.410  0.9084  0.6239 -0.2556
 9330SOL    HW239450   3.101   4.321  16.395  0.0897  0.0604  0.9335
 9331SOL     OW39451   2.637   3.731   8.139 -0.5651  0.7120  0.3606
 9331SOL    HW139452   2.651   3.778   8.057  0.3181  0.1817  0.2085
 9331SOL    HW239453   2.641   3.803   8.202 -0.9081  3.5232 -2.8535
 9332SOL     OW39454   1.430   4.717  10.177  0.2344 -0.0498  0.0529
 9332SOL    HW139455   1.354   4.661  10.186 -1.3906  2.0595 -0.6030
 9332SOL    HW239456   1.446   0.020  10.268 -1.4626  1.6036 -0.1085
 9333SOL     OW39457   3.459   1.746   1.978 -0.0684  0.3279 -0.2604
 9333SOL    HW139458   3.464   1.763   1.884 -2.4081 -1.0560 -0.6318
 9333SOL    HW239459   3.387   1.806   2.001  0.6875  1.6254 -1.2564
 9334SOL     OW39460   1.161   1.531   1.789  0.3991 -0.1259  0.3506
 9334SOL    HW139461   1.132   1.507   1.701 -0.0059  1.3682  0.0723
 9334SOL    HW239462   1.148   1.446   1.831  1.1065 -0.6495 -0.4682
 9335SOL     OW39463   4.563   1.616  10.295 -0.0655 -0.3066  0.1137
 9335SOL    HW139464   4.510   1.662  10.230  0.1333  0.0857  0.2292
 9335SOL    HW239465   4.510   1.543  10.327  1.6267 -0.3407  2.8962
 9336SOL     OW39466   3.988   4.055  16.764  0.5062 -0.4690 -0.3289
 9336SOL    HW139467   3.992   4.038  16.670  0.4705 -0.5712 -0.3112
 9336SOL    HW239468   3.900   4.036  16.798 -0.2404  1.4755 -1.1720
 9337SOL     OW39469   0.475   0.336  14.943 -0.0415  0.0694 -0.3032
 9337SOL    HW139470   0.389   0.296  14.949 -0.7122  1.4247 -0.7792
 9337SOL    HW239471   0.506   0.302  14.860  0.0787 -0.1407 -0.1733
 9338SOL     OW39472   2.465   3.609   6.158  0.5539 -0.1864 -0.1605
 9338SOL    HW139473   2.400   3.648   6.099  2.0084  1.6261 -0.5755
 9338SOL    HW239474   2.523   3.684   6.171  1.6813 -0.7628 -1.8248
 9339SOL     OW39475   3.431   4.120   4.087  0.5575 -0.1710 -0.2605
 9339SOL    HW139476   3.349   4.132   4.135  1.0447  0.4674  0.4075
 9339SOL    HW239477   3.488   4.091   4.158 -0.4807  0.9182  1.0384
 9340SOL     OW39478   2.423   4.186   4.093 -0.3910 -0.0242 -0.4790
 9340SOL    HW139479   2.494   4.232   4.137 -1.1435  0.2378  0.4553
 9340SOL    HW239480   2.347   4.244   4.104  0.6772  1.1947  0.3774
 9341SOL     OW39481   2.395   1.134   1.874 -0.2273  0.4279 -0.5135
 9341SOL    HW139482   2.447   1.055   1.884  1.1751  1.4056 -0.0684
 9341SOL    HW239483   2.315   1.102   1.915  0.3592 -0.0852  0.2319
 9342SOL     OW39484   4.080   2.947   3.344 -0.3569  0.4056 -0.3594
 9342SOL    HW139485   4.107   2.862   3.311  1.2520  0.5570  0.6021
 9342SOL    HW239486   4.158   2.994   3.316 -0.0756  0.8240  1.1572
 9343SOL     OW39487   3.671   0.282   7.908  0.2481  0.4590  0.7222
 9343SOL    HW139488   3.738   0.226   7.945 -0.2000 -0.5493  0.0161
 9343SOL    HW239489   3.593   0.258   7.958  1.1345 -0.1917  1.7754
 9344SOL     OW39490   0.974   4.193   6.149  0.2230 -0.0824  0.2670
 9344SOL    HW139491   1.016   4.264   6.197  1.2711  1.1828 -2.4820
 9344SOL    HW239492   0.941   4.129   6.212 -0.2453 -1.5333 -1.4254
 9345SOL     OW39493   1.143   2.622   7.779  0.0483 -0.1064 -0.2260
 9345SOL    HW139494   1.111   2.703   7.819  1.3553  0.8334 -1.0884
 9345SOL    HW239495   1.163   2.580   7.863  0.9385  2.1746  0.7016
 9346SOL     OW39496   4.270   3.804  11.661 -0.2128 -0.0378  0.4806
 9346SOL    HW139497   4.288   3.739  11.730  1.1927 -1.7480 -1.4959
 9346SOL    HW239498   4.361   3.816  11.632 -0.3975 -0.4599 -0.2764
 9347SOL     OW39499   3.594   3.159   6.100  0.8737  0.2727 -0.0521
 9347SOL    HW139500   3.547   3.120   6.027 -1.8044 -0.1558  1.9162
 9347SOL    HW239501   3.533   3.158   6.174  0.6695  0.6091 -0.2161
 9348SOL     OW39502   2.965   0.184   2.294  0.0205 -0.0744  0.4656
 9348SOL    HW139503   2.870   0.194   2.282 -0.0828 -1.1883  0.3957
 9348SOL    HW239504   2.998   0.251   2.233 -1.5791  0.8516  0.6209
 9349SOL     OW39505   1.730   4.113   2.206 -0.2741 -0.2331 -0.4971
 9349SOL    HW139506   1.702   4.024   2.186  0.7886 -0.7735  0.4445
 9349SOL    HW239507   1.770   4.147   2.126  0.7949 -1.1434 -0.3428
 9350SOL     OW39508   1.518   3.129  13.069  0.0298 -0.5354  1.0494
 9350SOL    HW139509   1.576   3.192  13.026 -1.2819  1.0355  1.6130
 9350SOL    HW239510   1.520   3.161  13.159 -2.3753  0.7106  0.6529
 9351SOL     OW39511   2.796   4.405   5.412  0.2765  0.0630 -0.1206
 9351SOL    HW139512   2.870   4.347   5.396  0.7199  0.3973  0.7159
 9351SOL    HW239513   2.754   4.336   5.463  2.0280 -0.8002  0.1400
 9352SOL     OW39514   4.434   3.037   6.255  0.0842  0.1941  0.0207
 9352SOL    HW139515   4.402   2.949   6.276  1.9505 -0.5706 -0.2591
 9352SOL    HW239516   4.357   3.075   6.214  0.1212  0.5337  0.2675
 9353SOL     OW39517   2.887   0.355   4.482 -0.6484 -0.4208  0.2157
 9353SOL    HW139518   2.840   0.383   4.404 -0.2963  1.2583  0.6105
 9353SOL    HW239519   2.893   0.262   4.459 -2.2684  0.0044 -1.9467
 9354SOL     OW39520   1.420   4.230  10.995 -0.4163 -0.0250  0.4068
 9354SOL    HW139521   1.479   4.228  11.070  0.1324 -1.1423 -0.0620
 9354SOL    HW239522   1.472   4.226  10.915 -2.7195  1.0416 -1.1574
 9355SOL     OW39523   3.311   0.048   8.986 -0.9592 -1.0193 -0.4254
 9355SOL    HW139524   3.289   0.046   9.079 -0.3189 -0.5245 -0.2698
 9355SOL    HW239525   3.406   0.044   8.987 -0.8361  1.4155 -2.8897
 9356SOL     OW39526   0.032   0.854   9.437 -0.0828  0.3532 -0.0818
 9356SOL    HW139527   0.083   0.784   9.479 -0.5256  1.4291  2.2720
 9356SOL    HW239528   0.013   0.811   9.354 -1.7985  0.1044  0.4266
 9357SOL     OW39529   2.427   1.652  13.560 -1.2231 -0.0376 -0.0929
 9357SOL    HW139530   2.507   1.704  13.566 -0.1820 -1.4857 -1.4361
 9357SOL    HW239531   2.409   1.641  13.654 -0.5654 -3.5500 -0.3581
 9358SOL     OW39532   0.848   1.046   7.237  0.1508 -0.8456  0.3010
 9358SOL    HW139533   0.936   1.051   7.200 -0.1265 -2.3725 -0.5629
 9358SOL    HW239534   0.876   1.025   7.327 -0.8712 -1.6186  0.4358
 9359SOL     OW39535   0.592   4.334   6.650  0.5293 -0.3952  0.1273
 9359SOL    HW139536   0.512   4.327   6.597  1.3834 -0.0830 -1.2195
 9359SOL    HW239537   0.663   4.347   6.586  0.2686  0.7537  0.0701
 9360SOL     OW39538   2.245   0.307   3.993  0.2124 -0.0713  0.1997
 9360SOL    HW139539   2.187   0.260   3.933  0.7976 -1.0857  0.4392
 9360SOL    HW239540   2.203   0.297   4.078  1.4968 -1.2500  0.6909
 9361SOL     OW39541   0.415   4.535   6.970 -0.4194 -0.5315 -0.2932
 9361SOL    HW139542   0.393   4.622   7.003  0.0195  0.3564 -2.3460
 9361SOL    HW239543   0.330   4.496   6.990 -0.6621  0.7362  1.1967
 9362SOL     OW39544   0.612   4.295  13.349  0.1168  0.3589 -0.4992
 9362SOL    HW139545   0.626   4.226  13.414  1.1547  1.6602  0.6690
 9362SOL    HW239546   0.704   4.315  13.334 -0.1270  0.1466 -2.2191
 9363SOL     OW39547   2.647   1.080   6.134  0.1978 -0.0792 -0.2675
 9363SOL    HW139548   2.725   1.053   6.085  0.9326  0.7909  0.4130
 9363SOL    HW239549   2.586   1.113   6.068  1.1093  1.1073 -0.5187
 9364SOL     OW39550   2.834   2.819   4.067 -0.4675 -0.6231 -0.1332
 9364SOL    HW139551   2.839   2.881   3.993  0.3169  0.3517  0.7404
 9364SOL    HW239552   2.787   2.751   4.018  0.7687 -0.4426 -1.5687
 9365SOL     OW39553   3.968   0.465  13.477  0.7951  0.0917 -0.6476
 9365SOL    HW139554   3.995   0.392  13.534 -1.9839 -0.6819 -0.2927
 9365SOL    HW239555   3.907   0.416  13.422 -1.4095  2.2786 -0.1256
 9366SOL     OW39556   3.688   1.325  11.201 -0.0143 -0.0259  0.1218
 9366SOL    HW139557   3.636   1.250  11.172  0.9971 -0.4605 -0.5809
 9366SOL    HW239558   3.775   1.308  11.165 -0.2101 -1.3224  0.2645
 9367SOL     OW39559   3.560   4.590  13.282 -0.1640 -0.5767 -0.1662
 9367SOL    HW139560   3.601   4.520  13.333  0.2250  0.6824  1.2376
 9367SOL    HW239561   3.499   4.550  13.220  0.0457  0.7268 -1.2400
 9368SOL     OW39562   0.010   2.419  15.635 -0.2898 -0.5875 -0.4287
 9368SOL    HW139563   0.040   2.462  15.715  2.1821 -2.1473 -0.5249
 9368SOL    HW239564   0.080   2.427  15.569  0.6239  1.4595  0.7704
 9369SOL     OW39565   1.560   0.449   7.695  0.3195 -0.4231  0.0930
 9369SOL    HW139566   1.604   0.364   7.683 -1.0480 -0.9639 -1.0610
 9369SOL    HW239567   1.626   0.514   7.671  0.2404 -0.4248 -0.1291
 9370SOL     OW39568   3.654   1.171   3.328 -0.3651 -0.0463 -0.3163
 9370SOL    HW139569   3.698   1.112   3.267  0.0820  0.8805 -0.8865
 9370SOL    HW239570   3.719   1.214   3.383 -0.8524  0.6310 -0.2707
 9371SOL     OW39571   4.265   3.560   5.386 -0.3080 -0.2131 -0.1596
 9371SOL    HW139572   4.288   3.525   5.300 -0.9538 -0.6340 -0.1615
 9371SOL    HW239573   4.250   3.653   5.371 -1.2246 -0.3232  0.0986
 9372SOL     OW39574   3.595   1.089   6.142 -0.2683 -0.0286 -0.8996
 9372SOL    HW139575   3.516   1.035   6.132 -1.1718  1.2783 -0.9112
 9372SOL    HW239576   3.573   1.122   6.229  1.5273  0.7940 -0.7624
 9373SOL     OW39577   4.469   3.523   5.566 -0.0489 -0.8719  0.0099
 9373SOL    HW139578   4.424   3.561   5.491  0.7554 -0.8101 -0.4389
 9373SOL    HW239579   4.557   3.510   5.531  0.1727  0.4585  0.0795
 9374SOL     OW39580   2.586   4.249   7.116  0.8209 -0.3823 -0.1365
 9374SOL    HW139581   2.508   4.244   7.170  0.4266  0.5066 -0.6255
 9374SOL    HW239582   2.649   4.301   7.166  0.6991 -0.0383 -0.3431
 9375SOL     OW39583   2.316   2.524   5.828 -0.6491 -0.0112 -0.2687
 9375SOL    HW139584   2.312   2.436   5.790  0.1827 -0.5773  0.9407
 9375SOL    HW239585   2.349   2.504   5.916  0.8802  1.0822 -0.5967
 9376SOL     OW39586   3.324   4.141   5.639  0.0491 -0.1928 -0.3083
 9376SOL    HW139587   3.378   4.145   5.560  1.4618 -2.2390  0.5472
 9376SOL    HW239588   3.257   4.076   5.618 -1.1444 -0.4822  4.4586
 9377SOL     OW39589   3.470   3.179  16.976 -0.0506 -0.3065  0.1205
 9377SOL    HW139590   3.522   3.099  16.962 -1.7009 -1.4388  0.4963
 9377SOL    HW239591   3.431   3.189  16.889  1.8136 -1.3273 -0.8278
 9378SOL     OW39592   4.010   2.726   1.468  0.0103 -0.2150  0.1389
 9378SOL    HW139593   4.070   2.687   1.405  0.4123  0.9918 -0.2217
 9378SOL    HW239594   4.022   2.818   1.447 -2.5351  0.1866  0.5062
 9379SOL     OW39595   0.112   0.026   2.462 -0.5578 -0.0582  0.4096
 9379SOL    HW139596   0.051   4.678   2.440 -0.7705  0.4057 -0.5013
 9379SOL    HW239597   0.140   0.002   2.550  2.4990  0.8515 -0.3254
 9380SOL     OW39598   2.060   3.647   2.861  0.5737 -0.0839 -0.0268
 9380SOL    HW139599   1.979   3.675   2.820  0.4601  0.5813  0.6560
 9380SOL    HW239600   2.105   3.732   2.852  0.9284 -0.3578 -0.8198
 9381SOL     OW39601   3.572   2.209  17.598  0.1531 -0.2280  0.1940
 9381SOL    HW139602   3.554   2.132  17.653 -3.0208  1.3425  1.3207
 9381SOL    HW239603   3.642   2.182  17.538  1.4025  1.7535  0.7642
 9382SOL     OW39604   2.854   3.078   8.576 -0.0799  0.2031 -0.4179
 9382SOL    HW139605   2.944   3.045   8.565  0.1031  0.6921 -0.3782
 9382SOL    HW239606   2.873   3.163   8.616 -0.7877  0.7043 -1.1758
 9383SOL     OW39607   3.661   1.017   3.799  0.8175  0.5328  0.1856
 9383SOL    HW139608   3.736   0.960   3.782  0.0574  0.4877 -2.9098
 9383SOL    HW239609   3.592   0.967   3.756  1.8494 -1.1258  0.4532
 9384SOL     OW39610   2.505   0.328   9.880 -0.2752  0.6833 -0.4970
 9384SOL    HW139611   2.498   0.250   9.934 -1.6079  0.9517 -0.2897
 9384SOL    HW239612   2.461   0.387   9.940  0.0441 -0.6366  1.0414
 9385SOL     OW39613   4.127   1.968   0.206  0.4552 -0.0543 -0.5621
 9385SOL    HW139614   4.143   1.873   0.207  1.8859  0.1796 -0.7278
 9385SOL    HW239615   4.139   1.989   0.299  0.5366 -1.6830 -0.1890
 9386SOL     OW39616   2.189   2.042   7.330 -0.3368 -0.0803 -0.0328
 9386SOL    HW139617   2.143   1.982   7.389 -0.7381  1.3940  1.1744
 9386SOL    HW239618   2.236   1.979   7.275  0.5467 -0.6680  1.3933
 9387SOL     OW39619   0.316   0.832   6.025  0.5062  0.5389 -0.5647
 9387SOL    HW139620   0.279   0.909   6.068  1.8650  0.3591  0.9222
 9387SOL    HW239621   0.350   0.792   6.105 -1.3195 -0.8192 -0.4688
 9388SOL     OW39622   2.161   2.237   4.389  0.5906 -0.2611 -0.6249
 9388SOL    HW139623   2.256   2.238   4.397  0.5481  0.0811 -0.2018
 9388SOL    HW239624   2.150   2.256   4.482  0.0705 -0.5100 -0.6337
 9389SOL     OW39625   2.170   0.841   9.016  0.2311  0.4477 -0.0868
 9389SOL    HW139626   2.087   0.795   9.026  1.4019 -1.3578  1.3171
 9389SOL    HW239627   2.215   0.786   8.952  2.6494  1.8518  0.4071
 9390SOL     OW39628   4.482   0.194   8.307 -0.4139 -0.5150  0.0056
 9390SOL    HW139629   4.431   0.168   8.230 -0.0475 -0.3355 -0.2996
 9390SOL    HW239630   4.423   0.262   8.337 -0.5242 -0.2972 -0.6911
 9391SOL     OW39631   3.575   3.947   4.295 -0.3863 -0.5626  0.0697
 9391SOL    HW139632   3.551   3.962   4.386 -1.3550 -1.2857 -0.0577
 9391SOL    HW239633   3.597   3.855   4.313 -1.0395 -1.0653 -1.6415
 9392SOL     OW39634   4.098   4.635  13.158 -0.1221  0.3328  0.0664
 9392SOL    HW139635   4.110   0.006  13.174  0.6958  0.0019  1.3974
 9392SOL    HW239636   4.121   4.605  13.246 -0.2952 -0.0031 -0.0033
 9393SOL     OW39637   0.730   3.451   6.189 -0.0251  0.6456 -0.0064
 9393SOL    HW139638   0.775   3.535   6.197  1.6890 -0.2962  0.4089
 9393SOL    HW239639   0.803   3.390   6.198  0.5292  1.2705 -0.2478
 9394SOL     OW39640   2.842   3.387  11.076 -0.2746  0.0676 -0.4102
 9394SOL    HW139641   2.789   3.397  10.997 -1.8444  2.0453  0.8816
 9394SOL    HW239642   2.771   3.386  11.141 -2.2306 -0.2154 -2.5431
 9395SOL     OW39643   4.394   0.155  13.388 -0.0581 -0.2598  0.5762
 9395SOL    HW139644   4.326   0.219  13.408 -0.7692 -0.6717 -0.5264
 9395SOL    HW239645   4.341   0.078  13.409 -1.4194  0.2098 -1.0970
 9396SOL     OW39646   2.217   1.899  11.746  0.6989 -0.1958  0.1241
 9396SOL    HW139647   2.255   1.875  11.831  0.3004  2.2169  0.9800
 9396SOL    HW239648   2.286   1.951  11.705  0.9488 -0.0664  0.7033
 9397SOL     OW39649   3.401   3.228   7.130 -0.0045  0.0718 -0.1212
 9397SOL    HW139650   3.407   3.207   7.037  2.6366 -3.5752  0.8641
 9397SOL    HW239651   3.403   3.140   7.166  0.9406  0.6370  1.2265
 9398SOL     OW39652   1.747   0.176   5.057 -0.0190  0.1471 -0.2488
 9398SOL    HW139653   1.682   0.170   5.126  2.7722  0.7249  2.4245
 9398SOL    HW239654   1.804   0.241   5.098  2.6870 -1.5214 -1.3760
 9399SOL     OW39655   0.987   2.257   0.621  0.3242 -0.1170 -0.4037
 9399SOL    HW139656   0.999   2.342   0.578  0.4166  0.1927  0.2260
 9399SOL    HW239657   0.911   2.218   0.577 -0.9032  0.7790  0.8950
 9400SOL     OW39658   0.423   0.710  16.222 -0.6533  0.3407  0.2871
 9400SOL    HW139659   0.348   0.744  16.271  1.2324  0.4040  3.1174
 9400SOL    HW239660   0.503   0.745  16.261 -0.3621  0.9026 -0.8198
 9401SOL     OW39661   1.404   0.861   8.685 -0.1505 -0.4264 -0.0889
 9401SOL    HW139662   1.388   0.924   8.755  0.4866 -1.3958  0.9316
 9401SOL    HW239663   1.369   0.782   8.725  2.6085 -2.5161 -1.8219
 9402SOL     OW39664   0.765   3.702   2.251 -0.2896 -0.2269 -0.2229
 9402SOL    HW139665   0.750   3.685   2.344 -2.1983 -0.8492 -0.6491
 9402SOL    HW239666   0.809   3.623   2.222 -0.4176 -0.2850 -0.2587
 9403SOL     OW39667   3.028   0.883   2.205  0.0909  0.2195  0.3274
 9403SOL    HW139668   3.099   0.914   2.149  1.2543 -1.0302  1.1267
 9403SOL    HW239669   2.996   0.965   2.244  1.1033  0.7976 -0.0650
 9404SOL     OW39670   2.496   0.375   1.473  0.1683 -0.2980  0.5249
 9404SOL    HW139671   2.433   0.445   1.491 -1.4450 -1.5279 -0.2983
 9404SOL    HW239672   2.576   0.411   1.510 -0.5355  2.4197 -0.6481
 9405SOL     OW39673   1.545   0.056   5.916  0.1459 -0.8172  0.4470
 9405SOL    HW139674   1.615   4.714   5.916  1.9270  1.1172  0.7321
 9405SOL    HW239675   1.507   0.046   6.003  2.5883  0.5380  1.6669
 9406SOL     OW39676   0.958   1.955   8.809 -0.5463 -0.0840  0.5607
 9406SOL    HW139677   0.984   1.931   8.720  0.6696  0.8487  0.6567
 9406SOL    HW239678   1.020   2.025   8.832 -0.6771  1.4197 -3.6441
 9407SOL     OW39679   1.953   0.575   9.024  0.3860 -0.1767  0.0100
 9407SOL    HW139680   1.900   0.517   9.078  1.1928 -1.4038 -0.5033
 9407SOL    HW239681   1.885   0.639   9.004  2.5523  1.8657 -0.9478
 9408SOL     OW39682   1.009   4.656  16.833 -0.6845 -0.4505 -0.1345
 9408SOL    HW139683   1.056   4.672  16.915  0.1581  1.1222 -0.9162
 9408SOL    HW239684   1.071   4.696  16.772 -0.6000  0.8804  0.8170
 9409SOL     OW39685   1.514   2.910   8.134 -0.2326 -0.1104 -0.3446
 9409SOL    HW139686   1.490   2.990   8.180 -1.5303 -0.9653  0.4704
 9409SOL    HW239687   1.603   2.929   8.105  0.2431 -2.6835 -0.5975
 9410SOL     OW39688   1.000   1.336   5.483 -0.1999  0.1835 -0.4348
 9410SOL    HW139689   1.062   1.300   5.419  0.7748  1.6251 -0.3012
 9410SOL    HW239690   1.044   1.419   5.505  0.2523 -0.3769  0.7524
 9411SOL     OW39691   0.669   3.158   6.173 -0.2143 -0.4280 -0.4158
 9411SOL    HW139692   0.623   3.183   6.093 -1.2639 -0.3668  0.2083
 9411SOL    HW239693   0.760   3.186   6.162 -0.1527 -0.5154 -0.1379
 9412SOL     OW39694   1.241   2.559  13.560 -0.1715 -0.3877  0.0328
 9412SOL    HW139695   1.272   2.519  13.641 -0.8017 -1.6533 -0.3448
 9412SOL    HW239696   1.222   2.485  13.502 -4.6623 -1.3105  2.6817
 9413SOL     OW39697   4.243   2.557   4.649  0.1385  0.5565  0.0127
 9413SOL    HW139698   4.166   2.574   4.594  0.2254 -2.5021 -1.0598
 9413SOL    HW239699   4.294   2.636   4.634 -0.0481  0.9461  1.4618
 9414SOL     OW39700   2.143   3.924  15.543 -0.5789  0.1148  0.6338
 9414SOL    HW139701   2.223   3.879  15.570  0.0375  0.6923 -0.2465
 9414SOL    HW239702   2.161   4.017  15.553 -0.0033  0.1232 -0.4582
 9415SOL     OW39703   1.488   4.612  17.431  0.2805  0.2054  0.1030
 9415SOL    HW139704   1.526   4.682  17.484  1.7571 -0.3809 -0.1780
 9415SOL    HW239705   1.459   4.654  17.350  1.2974 -0.1429 -0.4367
 9416SOL     OW39706   1.056   3.394   8.707 -0.0457 -0.1572  0.0549
 9416SOL    HW139707   0.997   3.415   8.780 -0.0285  2.2815 -0.6453
 9416SOL    HW239708   1.045   3.468   8.647 -0.1048 -0.3374 -0.1548
 9417SOL     OW39709   3.965   4.549  10.122 -0.6104  0.4433 -0.5524
 9417SOL    HW139710   3.930   4.471  10.080  2.1880  1.3906 -4.6314
 9417SOL    HW239711   3.907   4.615  10.084  0.2726  1.8784  0.5710
 9418SOL     OW39712   1.086   0.304  14.744  0.4373 -0.6800 -0.4780
 9418SOL    HW139713   1.155   0.326  14.807 -1.1886  0.4152  0.8983
 9418SOL    HW239714   1.080   0.208  14.747  1.3498 -0.7723 -1.6753
 9419SOL     OW39715   2.956   3.504  17.471  0.3188 -0.0443  0.3971
 9419SOL    HW139716   3.037   3.553  17.468 -0.1563  0.8158  1.4158
 9419SOL    HW239717   2.986   3.413  17.479  0.1352 -0.0422  1.1946
 9420SOL     OW39718   3.282   4.219   6.547 -0.1891 -0.0870 -0.3238
 9420SOL    HW139719   3.308   4.263   6.628 -0.4107 -0.6253  0.0435
 9420SOL    HW239720   3.233   4.293   6.512 -1.2611 -0.1275  1.1030
 9421SOL     OW39721   2.469   0.834   6.839 -0.1258 -0.3952  0.2352
 9421SOL    HW139722   2.516   0.753   6.821 -0.6238 -0.1670 -2.0619
 9421SOL    HW239723   2.417   0.805   6.914 -1.4139 -0.8416 -0.8368
 9422SOL     OW39724   1.427   0.269  14.542  0.1475 -0.2869  0.3154
 9422SOL    HW139725   1.513   0.308  14.530 -0.3613  0.4197 -1.0091
 9422SOL    HW239726   1.380   0.320  14.476  3.3587  0.9615 -0.9888
 9423SOL     OW39727   1.609   4.522   5.189 -0.1958 -0.4369  0.3411
 9423SOL    HW139728   1.653   4.546   5.108 -1.6290 -0.7933 -0.5325
 9423SOL    HW239729   1.627   4.428   5.187 -1.4675 -0.6263 -1.2227
 9424SOL     OW39730   3.697   0.857  13.399 -0.1652 -0.4779  0.0361
 9424SOL    HW139731   3.634   0.847  13.328 -2.4011  0.3571  1.9078
 9424SOL    HW239732   3.761   0.789  13.378 -2.1779 -2.5604  0.6923
 9425SOL     OW39733   0.155   2.923   2.246  0.3406  0.0652  0.1114
 9425SOL    HW139734   0.246   2.918   2.274  0.8184  1.7771 -1.1706
 9425SOL    HW239735   0.119   2.990   2.305  0.1429  1.4673 -1.6198
 9426SOL     OW39736   1.780   0.989   1.691 -0.3174  0.2199  0.4861
 9426SOL    HW139737   1.765   0.972   1.598  1.0539  2.5186 -0.1525
 9426SOL    HW239738   1.865   1.033   1.693  0.0109 -0.3765 -0.1652
 9427SOL     OW39739   3.705   1.088  13.757  0.6717 -0.1896 -0.0299
 9427SOL    HW139740   3.651   1.167  13.765 -0.5102 -1.1144  1.0758
 9427SOL    HW239741   3.651   1.047  13.689  0.4397 -1.0676  0.6836
 9428SOL     OW39742   3.579   1.193   6.886  0.1180  0.0257  0.4628
 9428SOL    HW139743   3.624   1.196   6.970  1.3541 -0.3374 -0.1958
 9428SOL    HW239744   3.650   1.206   6.823 -0.2517  0.3831  0.1105
 9429SOL     OW39745   0.032   2.384   6.863 -0.3134  0.3865 -0.1559
 9429SOL    HW139746   0.027   2.437   6.943  0.7626  1.0262 -0.5169
 9429SOL    HW239747   0.046   2.298   6.904 -1.9015  0.4922  0.5886
 9430SOL     OW39748   0.115   3.567   7.765  0.6420 -0.6726  0.5461
 9430SOL    HW139749   0.110   3.497   7.830  3.2144 -0.3182  1.0957
 9430SOL    HW239750   0.053   3.542   7.696 -1.5182 -0.8940  2.5645
 9431SOL     OW39751   2.466   2.729   1.734  0.2096 -0.8123 -0.1919
 9431SOL    HW139752   2.383   2.716   1.688 -1.0752  2.3610  1.1954
 9431SOL    HW239753   2.510   2.792   1.676  1.3561 -0.9199  0.5732
 9432SOL     OW39754   0.836   3.699  13.484  0.3687 -0.1029  0.8199
 9432SOL    HW139755   0.807   3.644  13.411  0.8783 -0.2088  0.6988
 9432SOL    HW239756   0.834   3.778  13.431  2.4486 -0.2094  0.5956
 9433SOL     OW39757   2.732   2.735   9.354 -0.0831 -0.4137  0.0536
 9433SOL    HW139758   2.770   2.650   9.334  1.6933  0.3306  0.2586
 9433SOL    HW239759   2.703   2.716   9.443 -0.5662  0.2681  0.0421
 9434SOL     OW39760   0.948   3.239   4.637  0.6537  0.3189 -0.2509
 9434SOL    HW139761   0.882   3.280   4.693 -0.4491 -2.9784  0.8757
 9434SOL    HW239762   0.973   3.164   4.693  0.4258  0.1564 -0.3694
 9435SOL     OW39763   3.692   2.637   2.571  0.0556  0.4244 -0.0010
 9435SOL    HW139764   3.776   2.679   2.589 -0.2278  0.5698  0.9549
 9435SOL    HW239765   3.693   2.616   2.477 -0.2253 -1.1505  0.3399
 9436SOL     OW39766   4.035   4.591   1.611  0.5564  0.2573 -0.1551
 9436SOL    HW139767   4.074   4.652   1.549 -1.2828  1.9913  0.4029
 9436SOL    HW239768   4.096   4.586   1.685 -0.2846  0.0038  0.5281
 9437SOL     OW39769   3.565   2.146   2.122  0.3748  0.1807 -0.4975
 9437SOL    HW139770   3.523   2.188   2.047 -2.1331 -2.3855 -0.5220
 9437SOL    HW239771   3.656   2.151   2.094 -0.0919 -1.4127 -2.2862
 9438SOL     OW39772   3.657   4.670  10.251 -0.2003 -0.0567  0.1975
 9438SOL    HW139773   3.616   4.617  10.182  0.6620 -2.4033  1.5160
 9438SOL    HW239774   3.589   4.671  10.319 -0.2729 -1.8367  0.1405
 9439SOL     OW39775   0.940   1.946  10.418  0.3914  0.0324  0.4759
 9439SOL    HW139776   0.920   2.039  10.424 -0.8915 -0.0582 -2.1221
 9439SOL    HW239777   1.034   1.963  10.412  0.6476 -0.7930  2.0861
 9440SOL     OW39778   4.162   3.547   6.880 -0.2620 -0.1636  0.9143
 9440SOL    HW139779   4.228   3.543   6.949 -0.8563  1.0052  1.5466
 9440SOL    HW239780   4.112   3.471   6.910 -2.2716  0.8577  0.1306
 9441SOL     OW39781   3.004   0.827   5.474 -0.4141 -0.4315  0.4690
 9441SOL    HW139782   2.939   0.896   5.491  1.9065  1.7973  0.2714
 9441SOL    HW239783   2.977   0.790   5.390  2.5859  0.9687 -1.1177
 9442SOL     OW39784   1.021   1.250   4.563  0.0262  0.0048  0.1561
 9442SOL    HW139785   0.933   1.287   4.569  0.7417  1.3093  2.7250
 9442SOL    HW239786   1.051   1.273   4.475 -2.1925  0.5000 -0.4676
 9443SOL     OW39787   1.524   0.432   0.924  0.1404 -0.3300 -0.2359
 9443SOL    HW139788   1.501   0.458   1.014 -0.3571  4.4743 -1.7515
 9443SOL    HW239789   1.459   0.363   0.909  0.8357 -1.3643  1.5309
 9444SOL     OW39790   0.821   0.998   1.480 -0.0369  0.0813 -0.3135
 9444SOL    HW139791   0.846   1.090   1.467  1.4170 -0.4421 -1.2129
 9444SOL    HW239792   0.785   0.967   1.397  1.1287  0.2484 -0.8807
 9445SOL     OW39793   0.983   0.388  12.368  0.0374  0.2967  0.0766
 9445SOL    HW139794   0.918   0.425  12.308  0.8151  0.6450 -0.5572
 9445SOL    HW239795   0.971   0.296  12.345 -0.1787  0.3545 -0.0419
 9446SOL     OW39796   4.647   2.475   1.734 -0.2909 -0.2360  0.0765
 9446SOL    HW139797   0.005   2.447   1.777 -2.0780 -1.1707  2.8871
 9446SOL    HW239798   4.680   2.546   1.680 -0.0256 -2.2429 -2.3786
 9447SOL     OW39799   1.937   2.560   5.248  0.0097 -0.0105  0.5141
 9447SOL    HW139800   1.865   2.612   5.284 -2.4400 -0.8446 -3.3040
 9447SOL    HW239801   1.919   2.557   5.154  0.0202 -0.9220  0.5379
 9448SOL     OW39802   0.489   4.054   2.880 -0.0462  0.0864  1.0328
 9448SOL    HW139803   0.401   4.018   2.896 -0.1413 -0.1842 -0.1399
 9448SOL    HW239804   0.543   3.978   2.860 -0.1114 -0.1201  1.6295
 9449SOL     OW39805   1.098   1.889  15.625 -0.2075  0.0804 -0.2612
 9449SOL    HW139806   1.186   1.902  15.590  0.4425 -0.5987  1.1014
 9449SOL    HW239807   1.056   1.890  15.540  2.2947 -2.5627 -1.5410
 9450SOL     OW39808   4.163   0.053   5.246 -0.2101  0.5011  0.0203
 9450SOL    HW139809   4.219   0.088   5.315 -1.3702 -1.9337  2.1769
 9450SOL    HW239810   4.130   0.130   5.199  0.8246  0.2798 -1.0719
 9451SOL     OW39811   2.594   0.634   5.202 -0.3565  0.1490 -0.6524
 9451SOL    HW139812   2.609   0.721   5.165 -2.9490  1.3150  0.9971
 9451SOL    HW239813   2.558   0.655   5.289 -3.0134  1.3603 -2.0372
 9452SOL     OW39814   3.672   0.549   7.830 -0.1228 -0.3736 -0.6233
 9452SOL    HW139815   3.652   0.471   7.882  0.1321 -0.5894 -0.8476
 9452SOL    HW239816   3.722   0.508   7.759 -0.2464  0.0588 -0.9627
 9453SOL     OW39817   2.453   0.636   4.808 -0.3964  0.2015 -0.1501
 9453SOL    HW139818   2.507   0.627   4.886 -0.3709  0.4791 -0.1345
 9453SOL    HW239819   2.512   0.693   4.759  2.0648 -2.1572  0.0923
 9454SOL     OW39820   1.920   1.993   9.325  0.3919  0.1814  0.3641
 9454SOL    HW139821   1.998   2.028   9.281 -0.1467  0.1686 -0.5787
 9454SOL    HW239822   1.932   2.021   9.416  1.3311  0.8059  0.0537
 9455SOL     OW39823   1.800   4.685   7.801 -0.3178  0.0689 -0.4324
 9455SOL    HW139824   1.872   4.672   7.740 -0.2734 -0.1003 -0.3423
 9455SOL    HW239825   1.839   4.717   7.882  1.5845  0.0131 -1.3369
 9456SOL     OW39826   3.880   2.644   5.598 -0.4655  0.4254 -0.0476
 9456SOL    HW139827   3.901   2.551   5.608  2.6266  1.0641 -0.4939
 9456SOL    HW239828   3.916   2.666   5.512 -1.5801  1.1252 -0.3330
 9457SOL     OW39829   2.514   2.568   3.504 -0.4138 -0.2403  0.3816
 9457SOL    HW139830   2.570   2.496   3.474  0.5489  0.5071  0.3520
 9457SOL    HW239831   2.428   2.560   3.463 -0.6958  1.8221  0.5694
 9458SOL     OW39832   3.645   3.875   5.714 -0.0719  0.1930  0.5173
 9458SOL    HW139833   3.691   3.791   5.710 -1.7074 -0.7593  1.8447
 9458SOL    HW239834   3.574   3.848   5.772 -0.5994  1.2114  0.3355
 9459SOL     OW39835   0.065   1.827  17.477 -0.0053 -0.2279 -0.4611
 9459SOL    HW139836   0.098   1.769  17.409 -0.3449 -0.1938 -0.6519
 9459SOL    HW239837   0.058   1.768  17.552  2.3947 -0.4989 -0.4471
 9460SOL     OW39838   0.843   3.905   3.804  0.6702 -0.0757 -0.1748
 9460SOL    HW139839   0.791   3.826   3.817  0.6020 -0.5179 -3.0106
 9460SOL    HW239840   0.792   3.944   3.733 -1.0759 -0.6996  0.7359
 9461SOL     OW39841   3.141   3.053   6.387 -0.1218  1.0566 -0.0221
 9461SOL    HW139842   3.067   3.070   6.329  1.0192  0.0388 -1.7466
 9461SOL    HW239843   3.105   3.084   6.471  0.7769 -0.9908  1.1030
 9462SOL     OW39844   3.544   1.453   0.280  0.3817  0.2651 -0.3917
 9462SOL    HW139845   3.496   1.420   0.203 -0.4181  0.5700 -0.0293
 9462SOL    HW239846   3.574   1.368   0.312 -0.5909  0.0664 -0.0020
 9463SOL     OW39847   0.681   1.231   5.768  0.5251  0.3719  0.3694
 9463SOL    HW139848   0.770   1.234   5.802  0.7149  1.2740 -0.2199
 9463SOL    HW239849   0.637   1.201   5.848  0.8622 -0.5603  0.2029
 9464SOL     OW39850   1.108   2.484   5.232 -0.3028  0.1127  0.4168
 9464SOL    HW139851   1.052   2.437   5.294  1.0180 -1.3381  0.5134
 9464SOL    HW239852   1.078   2.572   5.256 -3.3971 -0.1057 -2.6284
 9465SOL     OW39853   4.104   0.682  13.607  0.9086  0.7019 -0.4394
 9465SOL    HW139854   4.054   0.612  13.564  0.5152  0.4829  0.3716
 9465SOL    HW239855   4.192   0.678  13.571 -0.1446  0.4030 -3.0516
 9466SOL     OW39856   1.199   0.256   8.964  0.2077  0.4623  0.2237
 9466SOL    HW139857   1.291   0.240   8.984  0.5819 -0.4851 -2.2437
 9466SOL    HW239858   1.205   0.341   8.919  1.7578  1.1724  1.7839
 9467SOL     OW39859   4.255   1.458   7.601  0.3754 -0.2843 -0.2990
 9467SOL    HW139860   4.234   1.537   7.553  0.6519 -0.9682 -1.5301
 9467SOL    HW239861   4.181   1.467   7.662 -0.5773 -1.5515 -1.2690
 9468SOL     OW39862   2.012   2.170   2.990  0.0862  0.1329 -0.1846
 9468SOL    HW139863   2.033   2.077   3.003 -0.5179  0.1491  0.8835
 9468SOL    HW239864   2.044   2.178   2.900  1.3475 -0.6630  0.1842
 9469SOL     OW39865   3.984   1.166  12.188  0.1665  0.3609  0.0079
 9469SOL    HW139866   3.931   1.173  12.108 -1.7466 -0.1820  1.2229
 9469SOL    HW239867   4.055   1.224  12.161  0.3039  1.2539  2.2887
 9470SOL     OW39868   3.022   4.719   1.309 -0.2073  0.6745 -0.1877
 9470SOL    HW139869   3.039   0.072   1.365 -0.7752  0.6679 -0.0066
 9470SOL    HW239870   3.078   4.653   1.349  0.1853  1.4730  0.5746
 9471SOL     OW39871   2.237   4.466   6.058 -0.0234 -0.0058  0.0336
 9471SOL    HW139872   2.303   4.436   5.995 -0.0356  2.7578 -1.3273
 9471SOL    HW239873   2.253   4.395   6.119 -1.8834 -1.6343 -1.3756
 9472SOL     OW39874   3.170   3.345   1.992 -0.0451  0.0232 -0.4966
 9472SOL    HW139875   3.167   3.250   1.999  1.4160 -0.0777 -1.1526
 9472SOL    HW239876   3.091   3.369   2.041 -0.5004 -1.1522 -0.6519
 9473SOL     OW39877   0.886   1.103  17.427  0.0371  0.6729  0.4413
 9473SOL    HW139878   0.968   1.072  17.465 -1.3894 -2.4848  0.9502
 9473SOL    HW239879   0.831   1.126  17.502 -0.9281  2.9490 -0.9657
 9474SOL     OW39880   4.151   1.237   6.609 -0.1106 -0.0814  0.5130
 9474SOL    HW139881   4.095   1.160   6.614  1.7789 -1.5485 -1.3179
 9474SOL    HW239882   4.230   1.217   6.659  0.7822  1.1217 -0.4172
 9475SOL     OW39883   0.177   0.719  11.531 -0.0481  0.8841  0.3575
 9475SOL    HW139884   0.220   0.802  11.508  3.4069 -0.5951  1.3968
 9475SOL    HW239885   0.173   0.669  11.450  0.5773 -1.2260  1.6142
 9476SOL     OW39886   0.583   4.610   4.146 -0.0852 -0.3216  0.0719
 9476SOL    HW139887   0.576   4.684   4.206  1.9467  1.9783 -2.5168
 9476SOL    HW239888   0.489   4.592   4.141 -0.6635  2.2024  2.1460
 9477SOL     OW39889   1.904   3.073   3.857 -0.0883 -0.5327  0.2856
 9477SOL    HW139890   1.955   3.100   3.780  0.0119  2.9896  1.5984
 9477SOL    HW239891   1.910   2.978   3.845  2.4798 -0.3495  0.1916
 9478SOL     OW39892   4.099   0.050   6.258 -0.1747 -0.2745 -0.2021
 9478SOL    HW139893   4.188   0.078   6.238  0.2490 -0.0365  2.0940
 9478SOL    HW239894   4.103   0.040   6.353  0.4513 -0.5747 -0.2652
 9479SOL     OW39895   3.635   4.370   3.926 -0.0871 -0.1648 -0.1602
 9479SOL    HW139896   3.574   4.413   3.986  0.8317  0.3130  0.4359
 9479SOL    HW239897   3.681   4.321   3.994 -3.6014  0.1582  2.4466
 9480SOL     OW39898   0.272   1.573   6.148 -0.5257 -0.3752 -0.5194
 9480SOL    HW139899   0.305   1.610   6.230 -0.5550  0.8333 -1.0501
 9480SOL    HW239900   0.265   1.479   6.168  0.5894 -0.6761 -1.5953
 9481SOL     OW39901   1.640   0.491   2.577  0.1206 -0.3009 -0.5747
 9481SOL    HW139902   1.674   0.573   2.542 -0.3493  0.6379  1.1936
 9481SOL    HW239903   1.665   0.424   2.513  1.2184  0.1395 -0.6106
 9482SOL     OW39904   1.819   2.370   5.424 -0.2364  0.1250 -0.0293
 9482SOL    HW139905   1.857   2.427   5.358 -1.3976  2.4021  1.2857
 9482SOL    HW239906   1.757   2.425   5.470  1.1622  0.7228  1.1259
 9483SOL     OW39907   2.567   2.644   2.644  0.4003  0.3708 -0.3324
 9483SOL    HW139908   2.655   2.671   2.672 -0.6040  1.1837  2.0210
 9483SOL    HW239909   2.576   2.549   2.654 -0.1024  0.4699  1.0564
 9484SOL     OW39910   1.524   1.698  15.734  0.3857  0.4721 -0.5773
 9484SOL    HW139911   1.546   1.784  15.698 -3.8254  1.4779 -0.7817
 9484SOL    HW239912   1.532   1.636  15.662  0.8930  0.0591 -0.1639
 9485SOL     OW39913   0.798   3.413   7.482  0.6411 -0.1290  0.4521
 9485SOL    HW139914   0.809   3.384   7.573  1.6759  0.7365  0.5942
 9485SOL    HW239915   0.755   3.335   7.446 -1.1067  0.8822  0.3600
 9486SOL     OW39916   4.375   1.952   9.693  0.2585 -0.0740  0.3829
 9486SOL    HW139917   4.413   2.003   9.622 -0.3334 -0.2308 -0.0438
 9486SOL    HW239918   4.447   1.890   9.699  0.0444 -0.3666 -0.1576
 9487SOL     OW39919   0.757   4.158   9.328  0.0193 -0.0817  0.6137
 9487SOL    HW139920   0.840   4.162   9.375  1.4472 -0.0163 -1.8696
 9487SOL    HW239921   0.711   4.088   9.374  0.6610 -1.1642 -0.3747
 9488SOL     OW39922   2.098   3.862   3.840  0.1685  0.1965 -0.2233
 9488SOL    HW139923   2.012   3.848   3.800 -0.6339 -0.0459  1.5729
 9488SOL    HW239924   2.123   3.940   3.791 -0.3860 -1.1454 -2.6239
 9489SOL     OW39925   2.715   3.914   0.658  0.3054 -0.2933  0.0152
 9489SOL    HW139926   2.766   3.836   0.637  0.9763  0.5971 -1.6739
 9489SOL    HW239927   2.774   3.987   0.641 -1.4927  1.3241  0.6447
 9490SOL     OW39928   4.070   3.325   7.025 -0.1263  0.3565  0.0974
 9490SOL    HW139929   4.020   3.378   7.088  0.3472 -0.6081  1.2691
 9490SOL    HW239930   4.087   3.244   7.073  2.0526  0.6354 -0.2031
 9491SOL     OW39931   2.428   0.054   1.660 -0.1431 -0.5343  0.3298
 9491SOL    HW139932   2.354   4.720   1.684 -0.7044  1.3395  3.1015
 9491SOL    HW239933   2.494   4.709   1.645  1.0578  0.5495  0.7583
 9492SOL     OW39934   1.306   2.123   9.588  0.6585  0.1365 -0.3964
 9492SOL    HW139935   1.238   2.066   9.552  0.7142 -0.1800  0.0104
 9492SOL    HW239936   1.326   2.173   9.509  1.0098 -1.6518 -1.4409
 9493SOL     OW39937   3.429   1.259   5.233 -0.4895  0.3181 -0.6252
 9493SOL    HW139938   3.522   1.247   5.213 -0.3506  1.4186 -0.6327
 9493SOL    HW239939   3.435   1.298   5.320 -1.1305 -0.3776 -0.2697
 9494SOL     OW39940   0.520   3.848   3.559  0.2271 -0.0683 -0.1171
 9494SOL    HW139941   0.566   3.783   3.612  0.0526  0.5162  0.7438
 9494SOL    HW239942   0.489   3.800   3.481  0.9080  0.4199 -0.6914
 9495SOL     OW39943   3.161   2.311   3.401 -0.2691 -0.3121 -0.3823
 9495SOL    HW139944   3.235   2.317   3.341  1.0897  1.0237  1.4456
 9495SOL    HW239945   3.171   2.228   3.449  1.3863  0.9164  1.4202
 9496SOL     OW39946   4.250   1.263   3.141 -0.1175 -0.3783 -0.0297
 9496SOL    HW139947   4.305   1.239   3.215  0.3131 -1.1937 -0.6069
 9496SOL    HW239948   4.301   1.338   3.112 -0.6411  0.0086  0.0511
 9497SOL     OW39949   4.200   3.625   5.657 -0.0341  0.1433  0.8956
 9497SOL    HW139950   4.149   3.595   5.581  1.2593  2.1285 -0.7578
 9497SOL    HW239951   4.285   3.648   5.620  0.0141  0.3442  1.1349
 9498SOL     OW39952   4.100   3.481  16.953 -0.3243 -0.8640 -0.4592
 9498SOL    HW139953   4.023   3.482  16.896  0.1963  0.9967 -1.1168
 9498SOL    HW239954   4.091   3.562  17.002 -2.0913 -0.7866 -0.9261
 9499SOL     OW39955   2.500   1.994   4.820  0.6154  0.2622 -0.0670
 9499SOL    HW139956   2.433   1.965   4.882  0.0595 -1.0775 -1.3015
 9499SOL    HW239957   2.526   1.913   4.776 -3.8188 -0.7673 -0.8229
 9500SOL     OW39958   3.790   2.077  17.482 -0.1583  0.3462  0.2719
 9500SOL    HW139959   3.860   2.093  17.546  1.6456  4.0067 -2.6094
 9500SOL    HW239960   3.802   1.982  17.480  0.6242  0.4781 -0.9211
 9501SOL     OW39961   2.105   4.265   2.948 -0.0044 -0.3371  0.1293
 9501SOL    HW139962   2.167   4.219   2.892  0.3063 -1.1945  1.1671
 9501SOL    HW239963   2.066   4.332   2.892  0.9286  0.5482  0.5472
 9502SOL     OW39964   2.581   0.172   7.871  0.3740 -0.2222 -0.0642
 9502SOL    HW139965   2.500   0.131   7.901 -2.0413  2.8055 -2.5595
 9502SOL    HW239966   2.559   0.263   7.891 -1.8759 -0.6375 -0.6842
 9503SOL     OW39967   1.246   3.376   7.281  0.2263 -0.1979  0.2401
 9503SOL    HW139968   1.168   3.400   7.330 -0.4540  1.2158 -1.5084
 9503SOL    HW239969   1.228   3.285   7.258  1.1084 -0.5432  0.9253
 9504SOL     OW39970   2.305   3.753  16.647 -0.2078 -0.6364  0.4848
 9504SOL    HW139971   2.273   3.664  16.629 -0.9974 -0.4500  0.9648
 9504SOL    HW239972   2.277   3.801  16.569 -2.3861  0.0461  1.6619
 9505SOL     OW39973   1.789   4.187  10.657 -0.0062  0.0241  0.1724
 9505SOL    HW139974   1.769   4.170  10.565  1.9185 -1.1022 -0.0319
 9505SOL    HW239975   1.882   4.167  10.656  0.0135  0.1453 -0.4309
 9506SOL     OW39976   2.677   1.852   6.994  0.0136  0.1920 -0.8889
 9506SOL    HW139977   2.749   1.808   7.041  0.2667  3.7491  2.1084
 9506SOL    HW239978   2.625   1.883   7.068 -0.0496  1.7139 -1.5703
 9507SOL     OW39979   2.100   3.287   0.677  0.6509  0.3904 -0.4279
 9507SOL    HW139980   2.042   3.277   0.602  1.1745 -0.0644 -0.7686
 9507SOL    HW239981   2.025   3.307   0.733  0.7101 -2.8281  0.8065
 9508SOL     OW39982   4.174   0.989   4.232  0.2020  0.1163 -0.3809
 9508SOL    HW139983   4.104   0.965   4.173  0.6079 -2.1457  0.0575
 9508SOL    HW239984   4.169   1.085   4.236 -2.0856  0.0990 -2.9823
 9509SOL     OW39985   4.267   2.767   4.940 -0.2275 -0.2516 -0.0561
 9509SOL    HW139986   4.224   2.840   4.985  1.2267 -0.7722  2.2054
 9509SOL    HW239987   4.300   2.717   5.015 -1.2546  0.7169  1.0650
 9510SOL     OW39988   0.679   0.633   5.891  0.4117 -0.7922 -0.6673
 9510SOL    HW139989   0.631   0.616   5.810  1.8196 -1.9232 -1.2741
 9510SOL    HW239990   0.760   0.586   5.868  1.6919  1.7576 -1.3858
 9511SOL     OW39991   0.859   0.969   8.355 -0.1451 -0.1101  0.4248
 9511SOL    HW139992   0.782   0.992   8.407 -0.7711 -0.7624 -0.2030
 9511SOL    HW239993   0.930   0.955   8.417 -0.5484  0.8115  1.0867
 9512SOL     OW39994   4.014   1.622   6.070 -0.9281 -0.5385  0.8538
 9512SOL    HW139995   4.057   1.607   5.986  0.1665  2.3854  0.9047
 9512SOL    HW239996   3.989   1.713   6.060  0.5030 -0.2660 -0.2416
 9513SOL     OW39997   2.349   3.042  14.129 -0.5902  0.4358 -0.0921
 9513SOL    HW139998   2.280   3.104  14.104 -0.8897  1.3318  2.9850
 9513SOL    HW239999   2.297   2.963  14.114 -0.0282 -0.0902  0.7473
 9514SOL     OW40000   1.691   0.290   6.992  0.0738  0.0009 -0.5171
 9514SOL    HW140001   1.724   0.378   6.975  0.2797  0.2503  1.0961
 9514SOL    HW240002   1.718   0.284   7.084  1.6534  0.4314 -0.9634
 9515SOL     OW40003   0.459   1.220   2.376 -0.3141 -0.1111  0.3476
 9515SOL    HW140004   0.479   1.137   2.418  1.2410  0.7106  1.2346
 9515SOL    HW240005   0.528   1.264   2.426  0.3731  3.2462 -3.5503
 9516SOL     OW40006   3.030   0.196  12.843  0.3216 -0.4092 -0.4017
 9516SOL    HW140007   3.088   0.168  12.914  1.8254  0.4701 -1.2772
 9516SOL    HW240008   3.079   0.268  12.803  2.2537 -2.0976 -1.0489
 9517SOL     OW40009   0.956   4.502   1.372  0.4773  0.6049 -0.2697
 9517SOL    HW140010   0.981   4.468   1.458 -1.8343  2.3291  1.0715
 9517SOL    HW240011   1.002   4.435   1.321  0.5564  0.1281  0.4261
 9518SOL     OW40012   0.589   2.274   6.582  0.1424 -0.0336  0.0582
 9518SOL    HW140013   0.513   2.306   6.534  1.1801  2.3198 -0.0391
 9518SOL    HW240014   0.645   2.350   6.599 -0.5459  0.4860 -0.0133
 9519SOL     OW40015   0.661   0.905  13.287 -0.2853  0.3816  0.9420
 9519SOL    HW140016   0.708   0.889  13.369  0.7997  3.9005  1.0242
 9519SOL    HW240017   0.734   0.884  13.229  0.5828  3.6047  0.8336
 9520SOL     OW40018   2.876   0.821   6.607  0.2109  0.2387  0.8695
 9520SOL    HW140019   2.829   0.892   6.651  0.0508  0.9532 -0.4176
 9520SOL    HW240020   2.928   0.870   6.542  0.2414  0.3024  0.9418
 9521SOL     OW40021   0.151   0.287   5.032  0.2092  0.2230  0.5482
 9521SOL    HW140022   0.083   0.327   5.086 -2.4877 -1.0972 -1.8561
 9521SOL    HW240023   0.154   0.201   5.075  1.0940 -0.2580 -0.4627
 9522SOL     OW40024   2.200   4.067   3.699 -0.0837  0.0985 -0.2092
 9522SOL    HW140025   2.181   4.101   3.612 -2.8324  2.4125  1.3325
 9522SOL    HW240026   2.295   4.076   3.706 -0.2386  1.8829 -0.4653
 9523SOL     OW40027   1.099   1.305   6.931  0.1823 -0.8828  0.3279
 9523SOL    HW140028   1.012   1.341   6.946 -0.0135 -0.2329 -2.2971
 9523SOL    HW240029   1.148   1.386   6.918  0.3661 -1.4517 -2.7115
 9524SOL     OW40030   0.070   0.966   8.016 -0.6248  0.3027  0.0194
 9524SOL    HW140031   4.716   1.023   8.012 -1.6044 -1.0419 -0.6406
 9524SOL    HW240032   0.147   1.014   7.987  0.7172 -0.8825  1.5897
 9525SOL     OW40033   3.795   3.202  11.473  0.0799  0.3869 -0.2071
 9525SOL    HW140034   3.755   3.239  11.395 -0.0972  2.3742  0.8363
 9525SOL    HW240035   3.767   3.269  11.535  0.1688 -2.2410  2.6388
 9526SOL     OW40036   3.597   1.368   8.268 -0.1280  0.1634 -0.0879
 9526SOL    HW140037   3.601   1.279   8.232 -2.2158  1.0583 -2.5858
 9526SOL    HW240038   3.681   1.365   8.313  1.3550 -0.4310 -2.8463
 9527SOL     OW40039   2.571   3.590  10.136 -0.3735  0.1163 -0.4206
 9527SOL    HW140040   2.502   3.644  10.097  0.9691  0.3456 -2.5097
 9527SOL    HW240041   2.647   3.607  10.079 -0.4208  0.7388 -0.2935
 9528SOL     OW40042   1.518   1.148   2.528 -0.3524  0.3718 -0.5066
 9528SOL    HW140043   1.556   1.066   2.559  0.7456  0.9728 -0.2727
 9528SOL    HW240044   1.586   1.168   2.464 -0.0310  0.9819  0.0103
 9529SOL     OW40045   0.875   1.685  16.242 -0.3237 -0.1581  0.3155
 9529SOL    HW140046   0.943   1.648  16.298  0.7729 -0.0141 -0.9333
 9529SOL    HW240047   0.899   1.646  16.158 -1.4496 -1.9665  0.8182
 9530SOL     OW40048   2.012   3.602   0.999 -0.5577  0.5989 -0.0748
 9530SOL    HW140049   1.987   3.685   0.957  1.1575  1.4110  0.5119
 9530SOL    HW240050   2.107   3.605   0.986 -0.7321 -0.1835 -1.5401
 9531SOL     OW40051   4.515   3.583   3.304 -0.5682  0.1497 -0.1972
 9531SOL    HW140052   4.464   3.656   3.269 -1.7747 -1.2933 -1.4503
 9531SOL    HW240053   4.470   3.567   3.387  1.5152  3.3340  1.5306
 9532SOL     OW40054   2.812   3.589   9.967 -0.3457  0.3674  0.1901
 9532SOL    HW140055   2.768   3.551   9.890  1.3574 -2.8310  0.8084
 9532SOL    HW240056   2.904   3.573   9.949 -0.5240 -1.4101  0.9280
 9533SOL     OW40057   1.820   2.615  10.468 -0.1586  0.9496 -0.3569
 9533SOL    HW140058   1.746   2.569  10.506 -0.2518  1.5995  0.2517
 9533SOL    HW240059   1.790   2.706  10.475 -2.7817 -0.0418  1.0210
 9534SOL     OW40060   1.062   3.708   4.504  0.2475 -0.3899 -0.3702
 9534SOL    HW140061   1.078   3.745   4.590 -2.7978  0.4535 -0.1710
 9534SOL    HW240062   1.130   3.743   4.447 -0.6724  1.9211 -0.0529
 9535SOL     OW40063   3.776   3.795   1.714 -0.2129  0.3156 -0.2570
 9535SOL    HW140064   3.681   3.806   1.718 -0.1118  0.9473  0.4812
 9535SOL    HW240065   3.791   3.745   1.633  0.1792 -0.1274  0.0840
 9536SOL     OW40066   2.897   0.331   0.012 -0.4351 -0.0957 -0.6279
 9536SOL    HW140067   2.976   0.360  17.659 -0.9791  1.3322 -0.6749
 9536SOL    HW240068   2.876   0.403   0.072 -1.1675  0.1805 -1.2248
 9537SOL     OW40069   4.427   3.115   7.925 -0.2429  0.2983  0.2288
 9537SOL    HW140070   4.355   3.053   7.918 -0.1790  0.0222  1.9988
 9537SOL    HW240071   4.400   3.196   7.882 -0.2622 -0.0256 -0.3695
 9538SOL     OW40072   2.098   4.634   3.356 -0.1924  0.1305 -0.1456
 9538SOL    HW140073   2.115   4.612   3.264  2.4569 -1.1539  0.6311
 9538SOL    HW240074   2.159   4.709   3.356  0.6316 -0.5326 -1.9502
 9539SOL     OW40075   1.512   3.260   1.906 -0.9010  0.5168 -0.1984
 9539SOL    HW140076   1.519   3.335   1.847  1.7311  2.2269  2.2900
 9539SOL    HW240077   1.485   3.196   1.841  1.5754 -0.0561 -0.6630
 9540SOL     OW40078   1.266   2.634  15.341 -0.0795  0.4451  0.1534
 9540SOL    HW140079   1.257   2.593  15.255  1.5920  1.8264 -0.6789
 9540SOL    HW240080   1.211   2.708  15.317 -1.8874 -0.1005  2.5730
 9541SOL     OW40081   3.998   2.784  15.935 -0.1527 -0.1735 -0.2204
 9541SOL    HW140082   3.966   2.874  15.933  0.1595 -0.0723 -0.5020
 9541SOL    HW240083   3.991   2.769  16.030  1.9740  2.5665  0.3553
 9542SOL     OW40084   1.041   1.496   3.825  0.2132  0.8017  0.2607
 9542SOL    HW140085   1.122   1.522   3.869  1.5501 -0.1534 -1.6112
 9542SOL    HW240086   1.068   1.430   3.761  1.6193  2.1029 -0.4771
 9543SOL     OW40087   4.198   3.876  15.497 -0.0304 -0.2209 -0.1218
 9543SOL    HW140088   4.116   3.867  15.449  1.3186  0.4786 -2.5441
 9543SOL    HW240089   4.164   3.872  15.586  2.9980 -1.3071  0.9695
 9544SOL     OW40090   2.812   0.514   5.417  0.0090  0.7222 -0.2492
 9544SOL    HW140091   2.901   0.503   5.450 -0.5810 -1.6856  0.5570
 9544SOL    HW240092   2.824   0.585   5.354  1.3916  1.5892  0.9968
 9545SOL     OW40093   3.467   0.475   8.522 -0.3614 -0.0100  0.2844
 9545SOL    HW140094   3.508   0.401   8.566  1.3559  1.7699  1.6468
 9545SOL    HW240095   3.530   0.496   8.453 -1.2936  0.6137 -0.3789
 9546SOL     OW40096   0.774   0.003   8.866  0.5881  0.3602 -0.2640
 9546SOL    HW140097   0.842   0.070   8.860 -1.3747  2.4479  0.9871
 9546SOL    HW240098   0.770   4.709   8.961  0.5443 -1.8841 -0.6549
 9547SOL     OW40099   3.024   2.659   7.537 -0.0574 -0.0910 -0.2705
 9547SOL    HW140100   3.033   2.587   7.474 -1.7119 -0.4633 -0.0735
 9547SOL    HW240101   2.976   2.605   7.599  0.0683 -0.2282 -0.2932
 9548SOL     OW40102   0.047   0.628  11.299 -0.2672 -0.1771  0.2312
 9548SOL    HW140103   4.676   0.649  11.296 -0.2634 -0.0074  1.3739
 9548SOL    HW240104   0.064   0.548  11.250  0.5137  0.3547 -0.3696
 9549SOL     OW40105   3.982   1.488   7.386 -0.0810  0.5362  0.2487
 9549SOL    HW140106   4.036   1.412   7.363 -0.2339 -0.4982  3.2288
 9549SOL    HW240107   4.005   1.562   7.330 -1.5572  0.2704 -0.7005
 9550SOL     OW40108   1.703   3.400   7.096 -0.9014 -0.3319 -0.0702
 9550SOL    HW140109   1.652   3.466   7.048  0.5482  0.7123 -0.1888
 9550SOL    HW240110   1.661   3.415   7.182  0.1708 -0.5758  0.4883
 9551SOL     OW40111   2.644   3.699   4.841  0.3665  0.2478  0.2019
 9551SOL    HW140112   2.710   3.639   4.808  2.2570  1.5381  1.6219
 9551SOL    HW240113   2.698   3.770   4.876  0.6125  0.4460 -0.5792
 9552SOL     OW40114   2.858   2.940   8.916  0.2852  0.0282 -0.3568
 9552SOL    HW140115   2.829   2.985   8.836 -1.7091  1.3495  1.1209
 9552SOL    HW240116   2.937   2.990   8.934  1.3186 -2.4496  1.9409
 9553SOL     OW40117   2.819   4.279   1.646 -0.2226 -0.0724 -0.0760
 9553SOL    HW140118   2.776   4.216   1.588 -2.3455  2.0127 -0.7417
 9553SOL    HW240119   2.858   4.349   1.594  1.1838 -2.7471 -2.5873
 9554SOL     OW40120   3.476   3.988   8.658 -0.4873  0.2356  0.7611
 9554SOL    HW140121   3.382   3.995   8.675 -1.2279 -0.7349 -2.9874
 9554SOL    HW240122   3.503   4.077   8.680 -1.3431  0.0056  2.8327
 9555SOL     OW40123   1.298   2.409   6.799  0.3939 -0.5063 -0.4331
 9555SOL    HW140124   1.273   2.380   6.886 -0.3660 -1.6617 -1.0359
 9555SOL    HW240125   1.381   2.364   6.784  0.7414  0.3784 -1.2039
 9556SOL     OW40126   0.354   3.496   1.834  0.0595  0.0379  0.3022
 9556SOL    HW140127   0.304   3.566   1.876  0.5424  2.4355 -3.1072
 9556SOL    HW240128   0.439   3.532   1.810 -0.0595 -1.8035 -2.8954
 9557SOL     OW40129   3.371   0.739  11.858  0.2250  0.0475 -0.1987
 9557SOL    HW140130   3.412   0.653  11.862 -1.3229 -0.6710  0.2240
 9557SOL    HW240131   3.381   0.749  11.764  0.5431  0.5148 -0.1190
 9558SOL     OW40132   4.483   4.538   6.117 -0.5566  0.1806 -0.0100
 9558SOL    HW140133   4.502   4.569   6.206  0.0361  0.3191 -0.1871
 9558SOL    HW240134   4.404   4.485   6.127  0.8063 -1.7584  0.2472
 9559SOL     OW40135   2.605   2.276   6.035 -0.1290 -0.5068  0.3312
 9559SOL    HW140136   2.649   2.223   6.102  0.9452  1.1905  0.9804
 9559SOL    HW240137   2.665   2.260   5.962  1.4500  0.4293  1.4301
 9560SOL     OW40138   1.510   2.267   5.986 -0.8318  0.1648 -0.6779
 9560SOL    HW140139   1.524   2.189   6.039  0.1977  0.5372 -0.4048
 9560SOL    HW240140   1.434   2.307   6.029  0.3353  0.7792  0.8298
 9561SOL     OW40141   3.368   2.482  16.218 -0.3821 -0.2856  0.3810
 9561SOL    HW140142   3.302   2.415  16.200  0.3728 -0.9198 -0.0244
 9561SOL    HW240143   3.433   2.427  16.262  2.4145  1.4324 -1.5967
 9562SOL     OW40144   1.795   3.131   6.833  0.2304  0.0974 -0.3417
 9562SOL    HW140145   1.866   3.073   6.806  0.1924  0.2127 -0.6988
 9562SOL    HW240146   1.780   3.085   6.915 -1.9137  0.0077 -0.7913
 9563SOL     OW40147   3.439   0.986   6.811 -0.5416 -0.3427 -0.0232
 9563SOL    HW140148   3.365   0.982   6.871  0.4764  2.5659  1.4603
 9563SOL    HW240149   3.488   1.056   6.855 -0.8668 -1.8953  2.7759
 9564SOL     OW40150   2.210   2.410   7.685  0.1014 -0.0375 -0.1216
 9564SOL    HW140151   2.252   2.492   7.659 -0.2617  0.1519 -0.1079
 9564SOL    HW240152   2.124   2.446   7.705  0.9592  0.1758  3.0961
 9565SOL     OW40153   1.386   4.617   5.317  0.1462  0.1069  0.4040
 9565SOL    HW140154   1.401   4.557   5.390 -0.9798 -2.5715 -1.5528
 9565SOL    HW240155   1.444   4.579   5.251  2.3334  1.1240  1.7707
   4.72281   4.72281  17.69324
