Membrane in water
40155
    1TCq1    O1    1   1.079   1.585  11.009  0.4301 -0.3097 -0.0613
    1TCq1    C1    2   1.183   1.629  11.086 -0.2185 -0.0240 -0.9004
    1TCq1    O2    3   1.302   1.614  11.063  0.1484  0.0761  0.0895
    1TCq1    C2    4   1.132   1.644  11.221 -0.3579  0.3372  0.8033
    1TCq1    C3    5   1.028   1.725  11.246 -0.1125 -0.2594  0.0975
    1TCq1    C4    6   0.995   1.763  11.374 -0.6992 -0.2507 -0.0139
    1TCq1    C5    7   1.074   1.718  11.476  0.4266 -0.9666  0.3297
    1TCq1    C6    8   1.180   1.639  11.444 -0.1286 -0.4868  0.6015
    1TCq1    C7    9   1.214   1.597  11.317  0.5336 -0.5773  0.3098
    1TCq1    C8   10   1.266   1.594  11.551  0.1732  0.5123 -0.5571
    1TCq1    O4   11   1.267   1.654  11.657  0.2752  0.5954 -0.1736
    1TCq1    C9   12   0.875   1.845  11.395  0.4034  0.0439  0.2919
    1TCq1    O5   13   0.821   1.829  11.508  0.2305  0.2878 -0.4607
    1TCq1    O6   14   0.824   1.914  11.298 -0.7430  0.0090 -0.3092
    1TCq1    H1   15   0.999   1.572  11.065  0.2965  2.4110  0.3734
    1TCq1    H2   16   0.964   1.760  11.165 -1.5554  0.2435  1.4400
    1TCq1    H3   17   1.051   1.738  11.580  2.6445 -1.0838  0.8520
    1TCq1    H4   18   1.310   1.549  11.301  1.1394  1.0476 -0.9106
    2MPD2     C   19   1.490   1.179  11.760 -0.0608 -0.1855  0.1684
    2MPD2    C1   20   1.477   1.305  11.816 -0.1665 -0.4469 -0.2689
    2MPD2    C2   21   1.429   1.407  11.729 -0.2921  0.4859 -0.7456
    2MPD2    C3   22   1.395   1.375  11.600 -0.0524  0.3616  0.0290
    2MPD2    C4   23   1.423   1.257  11.541 -0.6300  0.7681  0.1545
    2MPD2    C5   24   1.468   1.159  11.625 -0.8340  0.5921 -0.1304
    2MPD2     H   25   1.411   1.507  11.768 -0.9760  0.4563 -0.9826
    2MPD2    H1   26   1.418   1.242  11.433  0.1421  1.2245  0.0519
    2MPD2    H2   27   1.537   1.095  11.809  0.3541 -0.6995 -1.1145
    2MPD2    H3   28   1.513   1.069  11.586  0.0255  1.9049 -2.1275
    2MPD2     N   29   1.321   1.467  11.518 -0.5166 -0.2830 -0.7524
    2MPD2    H5   30   1.298   1.427  11.427  1.5495 -1.6028 -0.6984
    2MPD2    N1   31   1.502   1.343  11.951 -0.4811 -0.0920  0.2230
    2MPD2    H7   32   1.477   1.438  11.977  0.2883 -0.4248  2.1847
    3TCq1    O1   33   0.915   2.807  10.462 -0.5746 -0.2808 -0.4114
    3TCq1    C1   34   0.823   2.815  10.557  0.0278 -0.0623 -0.1820
    3TCq1    O2   35   0.703   2.807  10.538  0.7885 -0.7354  0.4536
    3TCq1    C2   36   0.878   2.907  10.662  0.0248 -0.3263  0.0688
    3TCq1    C3   37   0.988   2.987  10.634  0.1321 -0.6058 -0.2214
    3TCq1    C4   38   1.024   3.076  10.726 -0.4935  0.0224 -0.1188
    3TCq1    C5   39   0.947   3.092  10.838  0.4311 -0.5623  0.4389
    3TCq1    C6   40   0.828   3.021  10.860 -0.0509 -0.9435  0.5814
    3TCq1    C7   41   0.796   2.917  10.774  0.5951  0.7072 -1.0317
    3TCq1    C8   42   0.747   3.045  10.973  0.2337 -0.0524 -0.2623
    3TCq1    O4   43   0.683   2.951  11.015 -0.1890 -0.2597  0.4088
    3TCq1    C9   44   1.127   3.169  10.700  0.0438  0.0761  0.4174
    3TCq1    O5   45   1.201   3.151  10.597  0.0351  0.4225 -0.3471
    3TCq1    O6   46   1.116   3.278  10.760 -0.0476  0.1891  0.4167
    3TCq1    H1   47   1.003   2.816  10.504 -1.6735  0.6600  1.6776
    3TCq1    H2   48   1.026   2.982  10.533  0.8970  3.1035 -0.1066
    3TCq1    H3   49   0.978   3.156  10.920  2.2417  1.3653 -1.7658
    3TCq1    H4   50   0.717   2.844  10.792  1.4091  0.0383 -0.1655
    4MPD2     C   51   0.492   3.345  11.300  0.2311  1.1265 -0.1964
    4MPD2    C1   52   0.553   3.431  11.215 -0.9481 -0.1844 -0.4884
    4MPD2    C2   53   0.641   3.370  11.123  0.2832  0.1122 -0.2877
    4MPD2    C3   54   0.653   3.229  11.105  0.3035 -0.0330 -0.0885
    4MPD2    C4   55   0.593   3.151  11.195  0.4848  0.1137  0.3759
    4MPD2    C5   56   0.512   3.211  11.289 -0.2688  0.1153 -0.4741
    4MPD2     H   57   0.700   3.432  11.057 -1.4147  2.5429  0.4591
    4MPD2    H1   58   0.595   3.043  11.191  0.9949  0.1142  0.6307
    4MPD2    H2   59   0.420   3.382  11.372 -1.2658 -1.1149 -0.5386
    4MPD2    H3   60   0.446   3.142  11.340  0.9867 -0.1960  0.7146
    4MPD2     N   61   0.741   3.179  11.003  0.7902  0.5378  0.7834
    4MPD2    H5   62   0.798   3.246  10.953  2.1597  1.7318  3.9423
    4MPD2    N1   63   0.551   3.579  11.218 -0.0446 -0.1895  0.0521
    4MPD2    H7   64   0.615   3.632  11.159  1.1723 -2.9326 -1.0745
    5TCq1    O1   65   0.937   0.101  10.604 -0.1717  0.7210 -0.2177
    5TCq1    C1   66   0.871   0.020  10.694  0.3954  0.2489  1.1221
    5TCq1    O2   67   0.758   0.046  10.731  0.2220  0.5596 -0.3967
    5TCq1    C2   68   0.911   4.604  10.674 -0.0434  0.3956 -0.0592
    5TCq1    C3   69   0.823   4.504  10.700 -0.4709  0.2252  0.0076
    5TCq1    C4   70   0.860   4.378  10.700 -0.0902 -0.5288  0.2404
    5TCq1    C5   71   0.986   4.336  10.678 -0.1453 -0.9578  0.8994
    5TCq1    C6   72   1.082   4.436  10.655 -1.1585  1.0222 -1.4878
    5TCq1    C7   73   1.042   4.568  10.651  0.0453  0.0269  0.4738
    5TCq1    C8   74   1.204   4.396  10.589  0.4874  0.8680 -0.1512
    5TCq1    O4   75   1.220   4.274  10.595  0.8490 -0.1559  0.2290
    5TCq1    C9   76   0.749   4.279  10.718 -0.5186 -0.8899  0.1050
    5TCq1    O5   77   0.634   4.322  10.737 -0.1974 -0.3577 -0.1453
    5TCq1    O6   78   0.788   4.154  10.729 -0.1763 -0.3277  0.0264
    5TCq1    H1   79   1.025   0.077  10.568 -0.6784 -0.4097 -0.7148
    5TCq1    H2   80   0.719   4.527  10.723 -0.4053 -0.1384  0.6711
    5TCq1    H3   81   1.013   4.231  10.677  2.4123 -0.2768 -1.0853
    5TCq1    H4   82   1.123   4.639  10.652  0.2117 -0.1528 -0.4432
    6MPD2     C   83   1.436   4.597  10.398  0.2459  0.0093 -0.1072
    6MPD2    C1   84   1.388   4.480  10.453  0.8040 -0.2428 -0.7613
    6MPD2    C2   85   1.463   4.362  10.450  0.1799  0.0051  0.2487
    6MPD2    C3   86   1.589   4.359  10.391 -1.1201  0.3357 -0.5033
    6MPD2    C4   87   1.644   4.476  10.344 -0.7471 -0.1765  0.0536
    6MPD2    C5   88   1.564   4.592  10.347  0.1544 -0.8279 -0.0573
    6MPD2     H   89   1.419   4.273  10.494 -1.2499  1.3030  1.4206
    6MPD2    H1   90   1.746   4.476  10.306 -1.0255 -3.0737 -0.6975
    6MPD2    H2   91   1.371   4.683  10.386  0.9526  0.7016  1.1321
    6MPD2    H3   92   1.605   4.682  10.303 -0.8125 -0.5063 -0.2976
    6MPD2     N   93   1.663   4.246  10.421  0.0844  0.3875  0.6547
    6MPD2    H5   94   1.633   4.178  10.491 -0.9833 -2.0076 -2.1259
    6MPD2    N1   95   1.265   4.494  10.514 -0.5711 -0.2272  0.6999
    6MPD2    H7   96   1.225   4.587  10.506  0.1871  0.1438  1.2572
    7TCq1    O1   97   3.045   4.420  12.592  0.5140 -0.3582 -0.2115
    7TCq1    C1   98   3.135   4.383  12.681  0.0182 -0.0812  0.3110
    7TCq1    O2   99   3.242   4.438  12.709  0.0380  0.0491 -0.5261
    7TCq1    C2  100   3.091   4.268  12.755 -0.0272  0.1297  0.0515
    7TCq1    C3  101   2.965   4.269  12.800 -0.0711 -0.1712  0.1837
    7TCq1    C4  102   2.925   4.168  12.880 -0.0307  1.0012 -0.8111
    7TCq1    C5  103   3.010   4.066  12.916  0.0524 -0.6205 -0.0946
    7TCq1    C6  104   3.138   4.080  12.874 -0.4117 -0.7658  0.3057
    7TCq1    C7  105   3.184   4.182  12.796 -0.0979 -0.0460 -0.0450
    7TCq1    C8  106   3.226   3.978  12.915  0.6266 -0.1178 -0.0157
    7TCq1    O4  107   3.192   3.861  12.931  0.1531  0.0466 -0.5719
    7TCq1    C9  108   2.795   4.163  12.942 -0.2895 -0.0395  0.6568
    7TCq1    O5  109   2.778   4.092  13.049 -0.5010  0.1393  0.1703
    7TCq1    O6  110   2.704   4.226  12.888  0.2647 -0.3868  0.0496
    7TCq1    H1  111   2.988   4.340  12.586 -1.0469  0.8659 -2.0348
    7TCq1    H2  112   2.898   4.352  12.781 -0.2072 -0.4587 -0.6031
    7TCq1    H3  113   2.977   3.984  12.979  0.0115 -0.9368 -0.5267
    7TCq1    H4  114   3.283   4.191  12.753 -1.1150 -2.5448 -2.9531
    8MPD2     C  115   3.689   3.863  13.134  0.3131  0.0823  0.2688
    8MPD2    C1  116   3.581   3.782  13.095  0.4786  0.0012  0.6653
    8MPD2    C2  117   3.469   3.828  13.024  0.2120 -0.5153  0.8377
    8MPD2    C3  118   3.462   3.964  12.993 -0.1951  0.8428 -0.3768
    8MPD2    C4  119   3.563   4.046  13.041  0.4295  0.0103 -0.5135
    8MPD2    C5  120   3.669   3.994  13.104  0.0415 -0.6023 -0.2742
    8MPD2     H  121   3.398   3.751  12.995 -1.9801  1.5756  0.6148
    8MPD2    H1  122   3.558   4.154  13.034 -0.2348  0.0984  1.3522
    8MPD2    H2  123   3.775   3.826  13.189  0.0148  0.6389  1.1211
    8MPD2    H3  124   3.740   4.066  13.145  0.9794 -0.4954 -2.0761
    8MPD2     N  125   3.351   4.032  12.936  0.0565  0.4656  0.1664
    8MPD2    H5  126   3.360   4.133  12.929 -1.6101  0.6996  1.6190
    8MPD2    N1  127   3.599   3.648  13.128 -0.1897 -0.7262  0.0735
    8MPD2    H7  128   3.681   3.634  13.187  0.2418  0.7686 -0.1659
    9TCq1    O1  129   2.211   2.160  11.044 -0.1011  0.4863  0.1126
    9TCq1    C1  130   2.311   2.070  11.065 -0.3532 -0.3520  0.3671
    9TCq1    O2  131   2.322   1.960  11.015  0.7433  0.1281  0.2634
    9TCq1    C2  132   2.299   2.080  11.210 -0.8802 -0.7780  0.3196
    9TCq1    C3  133   2.322   2.205  11.270 -0.3553 -0.2716 -0.0459
    9TCq1    C4  134   2.270   2.229  11.393  0.0131 -0.1948  0.2162
    9TCq1    C5  135   2.195   2.139  11.455  0.3933 -0.0053  1.1302
    9TCq1    C6  136   2.159   2.026  11.392 -0.1725  0.0852 -0.1695
    9TCq1    C7  137   2.213   1.989  11.269  0.5227 -0.1308  0.5652
    9TCq1    C8  138   2.052   1.942  11.445  0.6282 -0.0186  0.6586
    9TCq1    O4  139   2.043   1.827  11.409 -0.4581  0.3642  0.2769
    9TCq1    C9  140   2.295   2.357  11.458 -0.1908  0.1631  0.5919
    9TCq1    O5  141   2.393   2.428  11.426  0.7371  0.5534 -0.6082
    9TCq1    O6  142   2.232   2.372  11.564 -0.6795  0.1307  0.2214
    9TCq1    H1  143   2.190   2.234  11.105 -2.6613 -1.0349  1.1060
    9TCq1    H2  144   2.396   2.274  11.230 -1.1988 -1.2149 -3.2291
    9TCq1    H3  145   2.162   2.159  11.556  1.3776  1.9739  1.0524
    9TCq1    H4  146   2.183   1.896  11.223  0.6632  0.1772 -0.1533
   10MPD2     C  147   1.781   1.855  11.534 -0.0115 -0.7708 -0.0655
   10MPD2    C1  148   1.842   1.976  11.563 -0.3425 -0.0508  0.7390
   10MPD2    C2  149   1.770   2.068  11.639  0.4828  0.2342  0.1152
   10MPD2    C3  150   1.644   2.040  11.678  0.1832 -0.1896  0.0771
   10MPD2    C4  151   1.586   1.917  11.646 -0.5250 -0.2373 -0.0202
   10MPD2    C5  152   1.653   1.825  11.572 -0.3854 -0.2293  0.4454
   10MPD2     H  153   1.816   2.164  11.664  1.5264  0.4380 -2.5784
   10MPD2    H1  154   1.484   1.894  11.673 -0.9493 -1.7748 -2.9512
   10MPD2    H2  155   1.822   1.781  11.467 -0.7059 -0.6320 -0.6417
   10MPD2    H3  156   1.604   1.729  11.557  0.0482 -0.3974  0.1093
   10MPD2     N  157   1.569   2.142  11.749  0.2951  0.3431  0.5749
   10MPD2    H5  158   1.470   2.124  11.764  0.3811  0.6536  1.5407
   10MPD2    N1  159   1.967   2.022  11.519  0.0516 -0.8821 -0.2037
   10MPD2    H7  160   2.001   2.116  11.537 -2.8162  0.2333 -0.6370
   11TCq1    O1  161   2.779   2.466  13.714 -0.5781 -0.0011  0.3091
   11TCq1    C1  162   2.657   2.411  13.692  0.0538 -0.2072  0.6181
   11TCq1    O2  163   2.619   2.327  13.608  1.1264  0.0475  0.0665
   11TCq1    C2  164   2.565   2.434  13.798 -0.2905 -0.1055 -0.1048
   11TCq1    C3  165   2.599   2.487  13.917 -0.5229 -0.0649 -0.4665
   11TCq1    C4  166   2.502   2.495  14.018  0.4657  0.2863  0.0820
   11TCq1    C5  167   2.371   2.461  13.999 -0.0750  0.4331 -0.5039
   11TCq1    C6  168   2.350   2.413  13.875  0.0716  0.4141 -0.0466
   11TCq1    C7  169   2.438   2.393  13.773 -0.1171 -0.4073  0.4403
   11TCq1    C8  170   2.211   2.371  13.859  0.0934 -0.3741  0.2847
   11TCq1    O4  171   2.133   2.400  13.946 -0.1554 -0.1083  0.2597
   11TCq1    C9  172   2.532   2.558  14.140 -0.3978  0.7950 -0.0158
   11TCq1    O5  173   2.436   2.583  14.221 -0.4259 -0.3370 -0.7743
   11TCq1    O6  174   2.650   2.580  14.165  0.1377  0.6290 -0.0401
   11TCq1    H1  175   2.774   2.545  13.771  1.9848 -1.7341  2.9175
   11TCq1    H2  176   2.700   2.512  13.945 -0.3827 -2.2349  0.9828
   11TCq1    H3  177   2.299   2.478  14.077  1.7969  2.3802  0.8137
   11TCq1    H4  178   2.415   2.336  13.683 -2.3253  0.8532  0.2253
   12MPD2     C  179   1.954   2.263  13.771 -0.3121  0.6453 -0.2720
   12MPD2    C1  180   2.081   2.207  13.741 -0.2617  0.1135  0.0956
   12MPD2    C2  181   2.088   2.086  13.672  0.3582  0.7352 -0.5936
   12MPD2    C3  182   1.967   2.032  13.630  0.2224 -0.8713  0.0633
   12MPD2    C4  183   1.846   2.100  13.648 -0.3382  0.5375  0.3440
   12MPD2    C5  184   1.838   2.215  13.721  0.1374  0.6235 -0.1567
   12MPD2     H  185   2.183   2.036  13.659 -1.0358 -2.2629  0.6345
   12MPD2    H1  186   1.751   2.061  13.612  1.4659 -3.3161 -0.2345
   12MPD2    H2  187   1.940   2.352  13.832  0.5163  0.2504  0.4976
   12MPD2    H3  188   1.743   2.264  13.734 -0.3009  0.0177 -1.0589
   12MPD2     N  189   1.959   1.912  13.563  0.6628 -0.2557  0.0267
   12MPD2    H5  190   1.866   1.880  13.536  0.9602 -0.8568 -0.2916
   12MPD2    N1  191   2.200   2.271  13.766  0.7081 -0.3167 -0.9549
   12MPD2    H7  192   2.282   2.227  13.723 -0.3961 -3.3290  0.0276
   13TCq1    O1  193   1.801   1.873  10.673 -0.0473  0.6127  0.6335
   13TCq1    C1  194   1.777   1.957  10.569  0.4611  0.9448  0.6955
   13TCq1    O2  195   1.852   1.975  10.477  0.0921  0.0052 -0.5420
   13TCq1    C2  196   1.681   2.053  10.615 -0.4129 -0.3400 -0.0505
   13TCq1    C3  197   1.701   2.177  10.558 -0.9878  0.4202 -0.2503
   13TCq1    C4  198   1.627   2.283  10.598 -0.1551 -0.2275  0.5441
   13TCq1    C5  199   1.553   2.269  10.711 -0.5417 -0.3163 -0.1759
   13TCq1    C6  200   1.530   2.144  10.770 -0.4688 -0.3121 -0.3329
   13TCq1    C7  201   1.589   2.032  10.716  0.5595 -0.8653 -0.2184
   13TCq1    C8  202   1.463   2.152  10.897  0.3797 -0.1394 -0.2760
   13TCq1    O4  203   1.393   2.249  10.923 -0.5146  0.3231 -0.1419
   13TCq1    C9  204   1.643   2.422  10.548  0.7936  1.1001  0.3305
   13TCq1    O5  205   1.545   2.502  10.555  0.4262  0.1580 -0.1285
   13TCq1    O6  206   1.733   2.426  10.459 -0.0659 -0.0494 -0.3905
   13TCq1    H1  207   1.752   1.908  10.750 -0.8416  0.8180  0.0319
   13TCq1    H2  208   1.775   2.209  10.485 -1.5597 -0.5190 -1.2403
   13TCq1    H3  209   1.506   2.355  10.756 -0.2752 -0.2237 -0.0793
   13TCq1    H4  210   1.556   1.935  10.752 -2.3170  0.4483  0.7348
   14MPD2     C  211   1.501   1.921  11.183 -0.6329 -0.7968  0.3030
   14MPD2    C1  212   1.448   2.026  11.112  0.6424 -0.0422  0.5225
   14MPD2    C2  213   1.341   2.090  11.165  0.1672  1.1606  0.1227
   14MPD2    C3  214   1.297   2.071  11.290  0.7575  0.0422 -0.2873
   14MPD2    C4  215   1.344   1.959  11.360 -0.4437  0.4197 -0.0079
   14MPD2    C5  216   1.449   1.894  11.308  0.6260 -0.0852  0.0615
   14MPD2     H  217   1.292   2.165  11.103  0.0994  0.5165 -0.5946
   14MPD2    H1  218   1.320   1.941  11.464  1.0952  1.6341  0.5585
   14MPD2    H2  219   1.591   1.868  11.151  0.2525  0.9578 -0.1257
   14MPD2    H3  220   1.495   1.816  11.367  0.8859  0.4150  0.5207
   14MPD2     N  221   1.205   2.162  11.345 -0.2649  0.1492 -0.2478
   14MPD2    H5  222   1.183   2.244  11.289 -0.9707 -1.2688 -2.0339
   14MPD2    N1  223   1.509   2.058  10.987  0.3875  0.3859  0.5625
   14MPD2    H7  224   1.584   2.001  10.951  0.7801  1.0954  0.2477
   15TCq1    O1  225   2.836   2.006   1.425 -0.5052 -0.4267 -0.1645
   15TCq1    C1  226   2.850   1.882   1.361  0.3500 -0.1383 -0.5079
   15TCq1    O2  227   2.776   1.819   1.280  0.7285 -0.9080  0.1993
   15TCq1    C2  228   2.964   1.818   1.414 -0.1989 -0.4253 -0.3660
   15TCq1    C3  229   2.982   1.828   1.544 -0.8501 -0.2038 -0.3668
   15TCq1    C4  230   3.081   1.749   1.613 -0.0632  0.2457  0.5508
   15TCq1    C5  231   3.150   1.654   1.538 -0.3009 -0.2583 -0.6253
   15TCq1    C6  232   3.111   1.631   1.408  0.1377  0.0037  0.3896
   15TCq1    C7  233   3.021   1.712   1.343  0.3557  0.1994 -0.4656
   15TCq1    C8  234   3.206   1.558   1.332 -0.5989  0.6623  0.0185
   15TCq1    O4  235   3.317   1.561   1.378 -0.5992  0.1419 -0.2047
   15TCq1    C9  236   3.102   1.746   1.759  0.5988  0.0601  0.2078
   15TCq1    O5  237   3.201   1.683   1.806  0.8509 -0.2745 -0.1966
   15TCq1    O6  238   3.005   1.782   1.830  0.3228 -0.6225  0.8044
   15TCq1    H1  239   2.909   2.017   1.490  1.1992 -1.9702 -1.8429
   15TCq1    H2  240   2.923   1.884   1.616 -0.1732 -0.6562  0.5508
   15TCq1    H3  241   3.214   1.579   1.584  0.4835  0.9307  0.2150
   15TCq1    H4  242   2.990   1.703   1.240 -0.9675 -1.5712  0.0826
   16MPD2     C  243   3.149   1.349   1.031 -0.1264  0.3405  0.5937
   16MPD2    C1  244   3.221   1.410   1.136  0.3432  0.3345 -0.3462
   16MPD2    C2  245   3.360   1.408   1.122 -0.2889 -0.2679  0.4151
   16MPD2    C3  246   3.424   1.353   1.012  0.1930 -0.2084 -0.3812
   16MPD2    C4  247   3.348   1.299   0.912 -0.3583  0.0074  0.4198
   16MPD2    C5  248   3.210   1.303   0.924 -0.2342  0.6971 -0.0121
   16MPD2     H  249   3.417   1.447   1.206 -0.9465  0.7429  0.3973
   16MPD2    H1  250   3.387   1.260   0.819 -2.0562 -0.0004 -0.3019
   16MPD2    H2  251   3.042   1.356   1.017 -0.1992 -0.3888  0.7599
   16MPD2    H3  252   3.161   1.273   0.832 -0.4202 -1.4051  0.7661
   16MPD2     N  253   3.563   1.360   0.997  0.0393 -0.1378 -0.4652
   16MPD2    H5  254   3.620   1.417   1.059 -0.2699  0.5580 -0.8212
   16MPD2    N1  255   3.155   1.486   1.228  0.5228 -0.1556 -0.0295
   16MPD2    H7  256   3.054   1.475   1.224  0.5832 -0.9418  0.6187
   17TCq1    O1  257   1.088   2.135  10.554  0.3249  0.1615 -0.3663
   17TCq1    C1  258   1.207   2.084  10.578  0.6149 -0.1729  0.2069
   17TCq1    O2  259   1.248   2.063  10.691  0.0625 -0.1679  0.0306
   17TCq1    C2  260   1.265   2.034  10.447 -0.6313  0.5030  0.2924
   17TCq1    C3  261   1.264   2.114  10.339  0.4618 -0.3194  0.3425
   17TCq1    C4  262   1.342   2.074  10.231  0.0322 -0.5440  0.2523
   17TCq1    C5  263   1.411   1.957  10.233  0.2312  0.9671  0.2408
   17TCq1    C6  264   1.434   1.898  10.353  0.1898 -1.1737  0.2450
   17TCq1    C7  265   1.352   1.927  10.457  0.0737  0.7243  0.0450
   17TCq1    C8  266   1.515   1.776  10.358 -0.4286  0.3954 -0.0202
   17TCq1    O4  267   1.476   1.696  10.439 -0.0918 -0.0966 -0.3098
   17TCq1    C9  268   1.332   2.140  10.103 -0.1213 -0.0769  0.2687
   17TCq1    O5  269   1.295   2.261  10.103  0.0593 -0.1140 -0.3806
   17TCq1    O6  270   1.348   2.073   9.996  0.5375 -0.3231 -0.2866
   17TCq1    H1  271   1.065   2.145  10.459  3.0315 -2.0912 -1.2469
   17TCq1    H2  272   1.198   2.200  10.333 -0.8491 -1.3199  0.4693
   17TCq1    H3  273   1.462   1.924  10.143 -1.1663 -3.1243  0.9726
   17TCq1    H4  274   1.364   1.881  10.554  0.8389 -0.9370 -0.8422
   18MPD2     C  275   1.707   1.542  10.328  0.8067  0.2724  0.0018
   18MPD2    C1  276   1.731   1.671  10.283  0.1110  0.1744  1.1310
   18MPD2    C2  277   1.856   1.703  10.245 -0.1359 -0.6815  0.1377
   18MPD2    C3  278   1.963   1.621  10.258  0.5635  0.1743 -0.4889
   18MPD2    C4  279   1.942   1.488  10.303 -1.1126 -0.4008 -0.2466
   18MPD2    C5  280   1.812   1.454  10.340 -0.6721  0.1701  0.0800
   18MPD2     H  281   1.871   1.807  10.216 -1.5320 -0.8013 -1.0504
   18MPD2    H1  282   2.020   1.417  10.327  0.0678  1.2665  0.8152
   18MPD2    H2  283   1.610   1.501  10.352  0.4602 -0.0882 -2.0234
   18MPD2    H3  284   1.780   1.353  10.362 -0.0158  0.0254  0.3661
   18MPD2     N  285   2.093   1.671  10.229  0.1663  0.2397 -0.1007
   18MPD2    H5  286   2.109   1.770  10.209 -1.5067  1.0198  2.3875
   18MPD2    N1  287   1.626   1.770  10.278  0.2668  0.1910 -0.5393
   18MPD2    H7  288   1.653   1.857  10.234 -0.2919  0.9538  0.6036
   19TMC2    C1  289   2.298   1.801  14.018  0.5747 -0.3624  0.7246
   19TMC2    C2  290   2.183   1.816  13.947 -0.0999  0.3750 -0.1997
   19TMC2    C3  291   2.097   1.713  13.935 -0.2436  0.4938 -0.4703
   19TMC2    C4  292   2.319   1.690  14.095 -0.9582  0.0361  0.4611
   19TMC2    C5  293   2.232   1.586  14.072 -0.0630  0.1130  0.1776
   19TMC2    C6  294   2.123   1.592  13.989 -0.0715 -0.6590 -0.5925
   19TMC2     C  295   2.400   1.915  14.018 -0.3218  0.1645  0.3674
   19TMC2     O  296   2.363   2.010  13.947  0.5936 -0.3022  0.3364
   19TMC2     H  297   2.168   1.908  13.892 -1.1341  0.7436  0.6995
   19TMC2    H1  298   2.423   1.675  14.120 -1.2990 -1.8913  0.7481
   19TMC2    H2  299   2.053   1.511  13.973 -0.1217 -0.7248 -0.0499
   19TMC2    C7  300   2.276   1.452  14.070 -0.3535 -0.0569  0.5157
   19TMC2    C8  301   1.988   1.727  13.849  0.0945  0.7837 -0.0248
   19TMC2    O1  302   2.248   1.378  13.974  0.1833  0.1991 -0.3182
   19TMC2    O2  303   1.939   1.633  13.798  0.2984 -0.1363  0.4987
   19TMC2    O5  304   1.918   1.835  13.889  0.3971 -0.4775 -0.2870
   19TMC2    H5  305   1.955   1.908  13.943  1.9079 -0.5135 -1.2701
   20MPD2     C  306   2.632   2.093  14.014  0.0671 -0.1212  0.7199
   20MPD2    C1  307   2.615   1.986  14.104  0.7331 -0.3753 -0.0616
   20MPD2    C2  308   2.728   1.963  14.186  0.7227 -0.3158  0.5134
   20MPD2    C3  309   2.846   2.043  14.172 -0.4770 -0.7892  0.3250
   20MPD2    C4  310   2.854   2.149  14.093  1.3596  0.5424  0.4082
   20MPD2    C5  311   2.748   2.170  14.008  0.2043 -0.6027  0.0468
   20MPD2     H  312   2.713   1.887  14.262 -0.3894  1.5318  2.1281
   20MPD2    H1  313   2.940   2.215  14.093  1.7990 -0.0322  0.1401
   20MPD2    H2  314   2.560   2.119  13.937  2.5999  2.5403 -0.7315
   20MPD2    H3  315   2.752   2.249  13.934  1.6597 -0.5534  0.1843
   20MPD2     N  316   2.961   2.019  14.255 -0.0091 -0.2583  0.7518
   20MPD2    H5  317   3.030   2.093  14.250  1.4171 -1.6284  0.1469
   20MPD2    N1  318   2.505   1.893  14.105 -0.7783  0.5217  0.0700
   20MPD2    H7  319   2.518   1.821  14.175  1.2963 -0.3032 -1.1555
   21MPD2     C  320   0.764   2.974  14.398  0.0032 -0.4668 -0.9992
   21MPD2    C1  321   0.812   2.849  14.389 -0.3489  0.0472  0.6680
   21MPD2    C2  322   0.726   2.740  14.399  0.4830 -0.0756 -0.0225
   21MPD2    C3  323   0.593   2.759  14.434 -0.2252  0.4799  1.3435
   21MPD2    C4  324   0.544   2.887  14.436  0.5671 -0.6084 -0.1673
   21MPD2    C5  325   0.630   2.987  14.417  0.3849  0.2968  0.5447
   21MPD2     H  326   0.765   2.639  14.403  3.2423  1.0001  0.2528
   21MPD2    H1  327   0.440   2.900  14.463  0.4984 -0.6921 -0.3856
   21MPD2    H2  328   0.832   3.057  14.383 -0.2504  0.0555  0.7350
   21MPD2    H3  329   0.596   3.089  14.426  0.7085  0.3569  1.1016
   21MPD2     N  330   0.513   2.646  14.473  0.2897 -0.0460 -0.5117
   21MPD2    H5  331   0.428   2.671  14.523  0.6988 -2.6115  1.4038
   21MPD2    N1  332   0.942   2.821  14.365  0.2939 -0.3883 -0.1083
   21MPD2    H7  333   0.973   2.728  14.338  0.0785 -0.9476  1.5273
   22TCq2    C1  334   0.529   2.512  14.446 -0.7163 -0.7364 -0.0115
   22TCq2    O2  335   0.622   2.465  14.385 -0.0310  0.1463  0.5017
   22TCq2    C2  336   0.447   2.433  14.526 -0.5804 -0.5444  0.1224
   22TCq2    C3  337   0.498   2.310  14.560  0.2746 -0.1577  0.1954
   22TCq2    C4  338   0.422   2.218  14.632 -0.0850 -0.0141  0.0894
   22TCq2    C5  339   0.290   2.251  14.664  0.3542 -0.4959 -0.3759
   22TCq2    C6  340   0.245   2.375  14.626 -0.1542  0.1459  0.6099
   22TCq2    C7  341   0.318   2.469  14.556 -0.5678  0.5678 -0.4436
   22TCq2    C8  342   0.104   2.405  14.647 -0.3028  0.6833 -0.7947
   22TCq2    O4  343   0.042   2.330  14.724  0.1352  0.2687 -0.0171
   22TCq2    C9  344   0.485   2.106  14.697  0.0891 -0.1844  0.0102
   22TCq2    O5  345   0.612   2.108  14.693 -0.2943  0.4027 -0.5912
   22TCq2    O6  346   0.410   2.014  14.732  0.1243 -0.7310 -0.4275
   22TCq2    H2  347   0.602   2.300  14.534 -0.6438 -1.0041 -3.1541
   22TCq2    H3  348   0.229   2.181  14.720 -0.5741 -0.2188 -1.0377
   22TCq2    H4  349   0.284   2.562  14.513  0.6205  0.2770 -2.0455
   23MPD2     C  350   1.937   3.396  14.517  0.2297 -0.0361  0.0579
   23MPD2    C1  351   1.822   3.378  14.595  0.5026 -0.2024 -0.4989
   23MPD2    C2  352   1.696   3.406  14.529  0.1436  0.3963 -0.0543
   23MPD2    C3  353   1.690   3.439  14.393  0.1110 -0.2268  0.2159
   23MPD2    C4  354   1.808   3.461  14.323  0.6301 -0.0710  0.0974
   23MPD2    C5  355   1.930   3.441  14.382  0.6012 -0.2050 -0.5602
   23MPD2     H  356   1.601   3.386  14.577 -1.0413  1.2715 -2.0353
   23MPD2    H1  357   1.809   3.490  14.218 -2.4449  0.9065  0.3501
   23MPD2    H2  358   2.036   3.381  14.558  0.3458 -4.0944 -1.7321
   23MPD2    H3  359   2.025   3.466  14.336  1.1207 -0.6946  0.2294
   23MPD2     N  360   1.565   3.439  14.324  0.5677 -0.1957 -0.0915
   23MPD2    H5  361   1.562   3.480  14.231  1.7240 -0.6899 -0.3493
   23MPD2    N1  362   1.819   3.344  14.730 -0.1516 -0.6345  0.0631
   23MPD2    H7  363   1.729   3.340  14.777  0.4095 -0.9983  1.1211
   24TCq2    C1  364   1.449   3.383  14.364 -0.0761  0.8981  0.1522
   24TCq2    O2  365   1.428   3.303  14.456 -0.0123 -0.3379  0.1871
   24TCq2    C2  366   1.337   3.416  14.279 -0.4196 -0.5579  0.3280
   24TCq2    C3  367   1.322   3.543  14.226 -0.1876  0.0532 -0.5027
   24TCq2    C4  368   1.197   3.601  14.196 -0.2272 -0.2029  0.9671
   24TCq2    C5  369   1.085   3.522  14.206 -0.5930 -0.2871 -0.9187
   24TCq2    C6  370   1.096   3.399  14.267 -0.4026 -0.6462  1.4097
   24TCq2    C7  371   1.219   3.338  14.300 -0.0635  0.8295 -0.3387
   24TCq2    C8  372   0.988   3.306  14.250 -0.2204  0.4088 -0.6398
   24TCq2    O4  373   1.023   3.188  14.230 -0.0138 -0.0769  0.8342
   24TCq2    C9  374   1.197   3.725  14.122  0.6218  0.2144 -0.1616
   24TCq2    O5  375   1.309   3.764  14.077 -0.1441  0.1758  0.6975
   24TCq2    O6  376   1.089   3.752  14.071 -0.5492  0.2531  0.0564
   24TCq2    H2  377   1.412   3.596  14.198  0.6722 -1.2544 -0.2287
   24TCq2    H3  378   0.992   3.565  14.171 -1.0887 -0.5243  0.1101
   24TCq2    H4  379   1.206   3.237  14.339  1.2954  1.0532  0.7195
   25TMC2    C1  380   0.628   1.434  11.495 -0.1736 -0.0001 -0.1660
   25TMC2    C2  381   0.607   1.556  11.442 -0.1938 -0.3162 -0.4246
   25TMC2    C3  382   0.562   1.656  11.528  0.3602  0.7057  0.2140
   25TMC2    C4  383   0.587   1.405  11.624  0.3846 -0.2176 -0.3093
   25TMC2    C5  384   0.555   1.513  11.700 -0.4531 -0.0711 -0.1437
   25TMC2    C6  385   0.537   1.642  11.657 -0.1572 -0.3949  0.1353
   25TMC2     C  386   0.671   1.319  11.410  0.3491  0.3824 -0.1621
   25TMC2     O  387   0.754   1.349  11.323 -0.4026 -0.0939  0.2197
   25TMC2     H  388   0.643   1.594  11.347  0.8662 -1.6845 -0.5678
   25TMC2    H1  389   0.609   1.316  11.681  0.8755  0.8458  1.1678
   25TMC2    H2  390   0.470   1.708  11.712 -1.1996 -2.5666  1.5103
   25TMC2    C7  391   0.537   1.498  11.842 -0.4731  0.1128  0.0071
   25TMC2    C8  392   0.495   1.766  11.473  0.2282 -0.2386 -0.0862
   25TMC2    O1  393   0.483   1.402  11.903  0.0597  0.2676  0.2625
   25TMC2    O2  394   0.374   1.760  11.444  0.5959 -0.3776 -0.6321
   25TMC2    O5  395   0.556   1.869  11.527 -0.0241 -0.1145  0.5496
   25TMC2    H5  396   0.651   1.845  11.533 -0.0914 -0.8328 -1.3165
   26MPD2     C  397   0.573   0.874  11.173 -0.5915  0.4819  0.0582
   26MPD2    C1  398   0.491   0.883  11.283 -0.7665 -1.5228  0.4301
   26MPD2    C2  399   0.513   0.991  11.369 -0.0170 -0.2910  0.4151
   26MPD2    C3  400   0.587   1.100  11.328  0.5431 -0.3839  0.7851
   26MPD2    C4  401   0.662   1.085  11.217 -0.7763 -0.1048  0.7238
   26MPD2    C5  402   0.658   0.974  11.141  0.6748 -0.0029 -0.3408
   26MPD2     H  403   0.467   0.996  11.467 -0.6735  1.1940  0.0263
   26MPD2    H1  404   0.722   1.169  11.185  0.4281 -0.7196  1.3798
   26MPD2    H2  405   0.571   0.785  11.111 -0.7737  0.7371 -0.3016
   26MPD2    H3  406   0.726   0.965  11.057 -1.3539 -0.3165 -1.9289
   26MPD2     N  407   0.600   1.205  11.425  0.6262 -0.3151 -0.1000
   26MPD2    H5  408   0.536   1.208  11.504  0.7254 -2.8688  0.0761
   26MPD2    N1  409   0.392   0.777  11.291 -0.4415  0.1245  0.2199
   26MPD2    H7  410   0.401   0.713  11.213  0.8492  0.3895  0.1560
   27TMC2    C1  411   4.517   2.858  12.128  0.4541  0.2757  0.5639
   27TMC2    C2  412   4.521   2.782  12.018  0.1693 -0.1292  0.7817
   27TMC2    C3  413   4.503   2.838  11.897  0.1473  0.1432 -0.4500
   27TMC2    C4  414   4.502   2.997  12.126 -0.0345  0.2095  0.1661
   27TMC2    C5  415   4.490   3.053  11.997 -0.3272 -0.0769 -0.0223
   27TMC2    C6  416   4.480   2.972  11.884  0.3729  0.3880  0.0351
   27TMC2     C  417   4.525   2.800  12.257  0.2788 -0.1355  0.2826
   27TMC2     O  418   4.613   2.711  12.259  0.2145 -0.2209  0.3554
   27TMC2     H  419   4.537   2.674  12.019  1.5709  0.0769 -0.0107
   27TMC2    H1  420   4.512   3.064  12.211 -0.9402 -1.2519  1.4221
   27TMC2    H2  421   4.489   3.010  11.783  0.0116 -0.3861 -0.2915
   27TMC2    C7  422   4.496   3.198  11.988 -0.4653  0.0276 -0.1815
   27TMC2    C8  423   4.512   2.749  11.782  0.8463 -0.2090  0.1969
   27TMC2    O1  424   4.565   3.246  12.076 -0.3923 -0.7398  0.3630
   27TMC2    O2  425   4.571   2.645  11.780 -0.1787  0.1232 -0.1148
   27TMC2    O5  426   4.403   2.784  11.702  0.7104  0.0789  0.2338
   27TMC2    H5  427   4.359   2.867  11.729  0.3821  0.3202 -1.0086
   28MPD2     C  428   4.418   2.731  12.750 -0.4304  1.0352 -0.3903
   28MPD2    C1  429   4.345   2.838  12.714 -0.0093  0.3667  0.3623
   28MPD2    C2  430   4.362   2.877  12.577 -0.3267  0.5761 -0.1927
   28MPD2    C3  431   4.443   2.813  12.492 -0.2642 -0.8743  0.3789
   28MPD2    C4  432   4.514   2.707  12.537  0.5353  0.4913  0.2144
   28MPD2    C5  433   4.501   2.666  12.663 -0.5358  0.1751  0.8299
   28MPD2     H  434   4.305   2.962  12.540  1.2506  2.1190  0.8873
   28MPD2    H1  435   4.583   2.644  12.481 -0.9234 -1.3947  0.5592
   28MPD2    H2  436   4.396   2.683  12.845 -0.8267  1.0943 -0.4489
   28MPD2    H3  437   4.556   2.579  12.697 -2.7243 -1.3154  0.6138
   28MPD2     N  438   4.450   2.859  12.358  0.5204  0.3911  0.6009
   28MPD2    H5  439   4.405   2.947  12.338  0.2914  0.3139  0.7825
   28MPD2    N1  440   4.236   2.896  12.792  0.1939  0.2219  0.4366
   28MPD2    H7  441   4.203   2.847  12.874  1.7592  1.4738  1.7944
   29MPD2     C  442   3.867   0.839  13.847 -0.1894  0.0676 -0.2449
   29MPD2    C1  443   3.990   0.831  13.909  0.3001 -0.5248  0.7880
   29MPD2    C2  444   4.048   0.941  13.967  0.0685 -0.1288  0.2094
   29MPD2    C3  445   3.981   1.061  13.961 -0.3855  0.0474  0.0398
   29MPD2    C4  446   3.852   1.067  13.909 -0.0684  0.6922  0.1348
   29MPD2    C5  447   3.808   0.960  13.833 -0.1040  0.2070 -0.1291
   29MPD2     H  448   4.143   0.937  14.018  1.8769  1.0163 -3.0716
   29MPD2    H1  449   3.790   1.155  13.901 -0.2097  0.6799  1.1595
   29MPD2    H2  450   3.826   0.748  13.804  0.1241 -0.4729  0.5941
   29MPD2    H3  451   3.717   0.971  13.776 -1.8731  0.0198  2.6758
   29MPD2     N  452   4.020   1.178  14.033 -0.2224  0.9027 -0.0623
   29MPD2    H5  453   3.958   1.258  14.023  0.2416  1.6433  3.1372
   29MPD2    N1  454   4.058   0.703  13.919 -0.5367 -0.6915 -0.3416
   29MPD2    H7  455   4.149   0.709  13.963 -1.6818  0.8474  1.8349
   30TCq2    C1  456   4.119   1.190  14.127  0.5057  0.3582 -0.1047
   30TCq2    O2  457   4.197   1.103  14.163  0.2604 -0.1303 -0.3236
   30TCq2    C2  458   4.127   1.326  14.174  0.1768 -0.4700  0.6890
   30TCq2    C3  459   4.066   1.431  14.111  0.4022 -0.8526  0.2226
   30TCq2    C4  460   4.071   1.553  14.177  0.4858 -0.1102  0.0358
   30TCq2    C5  461   4.147   1.576  14.287 -0.0932  0.1092 -0.2543
   30TCq2    C6  462   4.206   1.467  14.344 -0.4521  0.4640  1.3117
   30TCq2    C7  463   4.193   1.337  14.295  1.3761  0.0640  0.7690
   30TCq2    C8  464   4.313   1.477  14.441 -0.2271  1.1061  0.1327
   30TCq2    O4  465   4.363   1.375  14.481 -0.1167 -0.1138 -0.3409
   30TCq2    C9  466   4.018   1.673  14.121  0.1660 -0.7041 -0.4801
   30TCq2    O5  467   3.958   1.667  14.014  0.1439 -0.4058  0.1262
   30TCq2    O6  468   4.018   1.775  14.193  0.3101 -0.3565  0.0366
   30TCq2    H2  469   4.017   1.423  14.015  0.2274 -1.2085  0.3398
   30TCq2    H3  470   4.147   1.676  14.330 -2.3754  0.0930 -0.1929
   30TCq2    H4  471   4.232   1.257  14.357  0.5138 -0.0223  1.1967
   31MPD2     C  472   1.310   0.102  14.745 -0.0426  0.1966 -0.1272
   31MPD2    C1  473   1.445   0.104  14.703 -0.5921  0.1693  0.5841
   31MPD2    C2  474   1.537   0.027  14.770 -0.3123  0.9626  0.1064
   31MPD2    C3  475   1.499   4.676  14.881  0.0372 -0.5103  0.1434
   31MPD2    C4  476   1.371   4.668  14.918  0.7674  0.4897  0.2945
   31MPD2    C5  477   1.282   0.026  14.849 -0.7595 -0.3138 -0.0306
   31MPD2     H  478   1.643   0.027  14.748 -1.1051  0.6079 -3.6796
   31MPD2    H1  479   1.345   4.599  14.998  1.0320  1.1562  0.9625
   31MPD2    H2  480   1.224   0.154  14.704  0.0593 -0.1548 -0.7922
   31MPD2    H3  481   1.175   0.018  14.868 -0.8712  1.2735 -0.0262
   31MPD2     N  482   1.591   4.587  14.948  0.6148  0.0516 -0.2519
   31MPD2    H5  483   1.549   4.539  15.027 -1.4441 -0.2577 -1.5407
   31MPD2    N1  484   1.488   0.190  14.591 -0.2304 -0.2238  0.0394
   31MPD2    H7  485   1.412   0.236  14.541 -0.7237 -0.0018  0.9875
   32TCq2    C1  486   1.714   4.552  14.903 -0.8286 -0.1372  0.1684
   32TCq2    O2  487   1.782   4.580  14.805 -0.0486 -0.2875 -0.0447
   32TCq2    C2  488   1.765   4.448  14.992 -0.6742 -0.4321 -0.2604
   32TCq2    C3  489   1.844   4.364  14.921  0.3335  0.4622  0.0842
   32TCq2    C4  490   1.908   4.267  14.991  0.2999 -0.6164 -0.2135
   32TCq2    C5  491   1.882   4.253  15.125 -0.1702  0.2859 -0.4476
   32TCq2    C6  492   1.817   4.350  15.195 -0.3718 -0.0095 -1.0190
   32TCq2    C7  493   1.751   4.442  15.126 -0.5429  0.1005 -0.3586
   32TCq2    C8  494   1.782   4.311  15.322  0.0629  0.4883 -0.2137
   32TCq2    O4  495   1.864   4.245  15.383 -0.5536  0.2505 -0.0211
   32TCq2    C9  496   1.970   4.168  14.909  0.0399 -0.1073 -0.2511
   32TCq2    O5  497   1.972   4.050  14.963 -0.4966 -0.6789  0.3983
   32TCq2    O6  498   2.004   4.208  14.791  0.3550  0.7609  0.5610
   32TCq2    H2  499   1.857   4.366  14.813  2.9344  0.8862  0.4141
   32TCq2    H3  500   1.933   4.177  15.183  0.7889  0.1366 -1.4981
   32TCq2    H4  501   1.690   4.514  15.179  0.1885  2.1588 -2.2671
   33MPD2     C  502   2.560   2.116   9.716 -0.2726 -0.5056  0.0815
   33MPD2    C1  503   2.451   2.069   9.778 -0.2894 -0.1049 -0.6309
   33MPD2    C2  504   2.326   2.104   9.729  0.2585  0.4351  0.4774
   33MPD2    C3  505   2.312   2.176   9.613  0.8620 -0.0148 -0.6201
   33MPD2    C4  506   2.427   2.218   9.551  0.4543  0.2672  0.3281
   33MPD2    C5  507   2.552   2.188   9.601 -0.1391  0.1890  0.1125
   33MPD2     H  508   2.242   2.073   9.790  0.1702  1.0383  0.6548
   33MPD2    H1  509   2.424   2.267   9.455 -0.7183  0.9347  0.7112
   33MPD2    H2  510   2.658   2.098   9.760 -0.2423  1.1086  0.6675
   33MPD2    H3  511   2.638   2.230   9.551  0.0097  0.4261  0.5630
   33MPD2     N  512   2.181   2.224   9.565  0.0919 -0.2584  0.3239
   33MPD2    H5  513   2.187   2.298   9.495 -0.8585  0.2251  0.7561
   33MPD2    N1  514   2.469   1.982   9.887 -0.0108 -0.4937  0.4404
   33MPD2    H7  515   2.563   1.950   9.907  0.8142  2.9105  2.0863
   34TCq2    C1  516   2.056   2.177   9.602 -0.0448 -0.0615 -0.6836
   34TCq2    O2  517   2.043   2.074   9.669 -0.3861  0.0389  0.1132
   34TCq2    C2  518   1.939   2.258   9.572  0.3115  0.2799 -0.2274
   34TCq2    C3  519   1.823   2.211   9.623 -0.5162 -1.0450 -0.2426
   34TCq2    C4  520   1.700   2.278   9.595  0.2351 -0.1588 -0.0547
   34TCq2    C5  521   1.707   2.400   9.542  0.1020  0.3840 -0.5993
   34TCq2    C6  522   1.835   2.447   9.506  0.2528 -0.4830 -0.1830
   34TCq2    C7  523   1.949   2.376   9.514  0.2854  0.4519  0.9591
   34TCq2    C8  524   1.847   2.591   9.500 -0.2907  0.1375  0.4596
   34TCq2    O4  525   1.960   2.635   9.521 -0.0488 -0.3765 -0.6297
   34TCq2    C9  526   1.575   2.236   9.663  0.3284  0.1963  0.8363
   34TCq2    O5  527   1.474   2.309   9.643  0.1871 -0.5575 -0.0049
   34TCq2    O6  528   1.573   2.140   9.742  0.6549  0.3285  0.5320
   34TCq2    H2  529   1.822   2.116   9.675  2.4471  0.5216  2.7021
   34TCq2    H3  530   1.618   2.461   9.549  2.1812  3.3700 -0.5478
   34TCq2    H4  531   2.043   2.422   9.488  0.7292 -0.2184  1.3563
   35MPD2     C  532   3.787   3.934  12.176  0.6060  0.7222  0.0036
   35MPD2    C1  533   3.804   3.796  12.199 -0.7000 -0.0085 -0.1484
   35MPD2    C2  534   3.759   3.701  12.105  0.2437 -0.0957  0.6239
   35MPD2    C3  535   3.695   3.746  11.987  0.1334 -0.3005  0.4328
   35MPD2    C4  536   3.705   3.886  11.961 -0.0258 -0.7790  0.5412
   35MPD2    C5  537   3.748   3.975  12.054 -1.1717 -0.1799 -0.8603
   35MPD2     H  538   3.780   3.595  12.107  0.4391 -0.0361  2.0967
   35MPD2    H1  539   3.664   3.933  11.873  2.6237  0.9975  0.2724
   35MPD2    H2  540   3.825   4.001  12.252  0.2028 -0.0942  0.9481
   35MPD2    H3  541   3.748   4.078  12.021  0.0354  0.7436  2.0689
   35MPD2     N  542   3.639   3.655  11.896 -0.4320  0.4216  0.0266
   35MPD2    H5  543   3.625   3.561  11.930 -0.5972  0.0686 -1.0179
   35MPD2    N1  544   3.880   3.756  12.313 -0.8609  0.2596  0.3452
   35MPD2    H7  545   3.935   3.831  12.354 -0.3361  1.6602 -2.8990
   36TCq2    C1  546   3.559   3.690  11.791  0.2935 -0.5633  0.0352
   36TCq2    O2  547   3.540   3.794  11.735 -0.4821  0.0118  0.2931
   36TCq2    C2  548   3.491   3.574  11.744  0.4863 -0.0112  0.2350
   36TCq2    C3  549   3.385   3.594  11.657  0.9065  0.3818  0.2820
   36TCq2    C4  550   3.316   3.491  11.610 -0.2135 -0.0168  0.0061
   36TCq2    C5  551   3.339   3.366  11.649  0.2051 -0.6385  0.5103
   36TCq2    C6  552   3.438   3.339  11.738 -0.1487  0.4972  0.3356
   36TCq2    C7  553   3.521   3.443  11.789  0.4025  0.1202  0.2914
   36TCq2    C8  554   3.457   3.201  11.775 -0.3499 -0.1141  0.1593
   36TCq2    O4  555   3.404   3.119  11.704  0.4668 -0.2257 -0.3405
   36TCq2    C9  556   3.193   3.514  11.532  0.0113  0.2193  0.2576
   36TCq2    O5  557   3.136   3.625  11.532 -0.0970 -0.1411 -0.2539
   36TCq2    O6  558   3.156   3.415  11.467 -0.3459 -0.0173 -0.3371
   36TCq2    H2  559   3.363   3.691  11.614 -2.0204 -0.7384 -0.7773
   36TCq2    H3  560   3.289   3.281  11.603 -0.2077  0.8119 -1.7616
   36TCq2    H4  561   3.617   3.418  11.832  0.2244 -0.9616  0.0657
   37TMC2    C1  562   0.941   4.249  11.301  0.1126 -0.5335  0.3369
   37TMC2    C2  563   0.946   4.345  11.204  0.0053  0.1932  0.4807
   37TMC2    C3  564   1.032   4.321  11.102  0.5113 -0.4934 -0.0169
   37TMC2    C4  565   1.026   4.146  11.309  0.5309 -1.4806  0.1889
   37TMC2    C5  566   1.118   4.130  11.207 -0.4318  0.2307  0.5769
   37TMC2    C6  567   1.123   4.214  11.103 -0.0745  0.5710 -0.8116
   37TMC2     C  568   0.825   4.250  11.389  0.5457  0.0447  0.4974
   37TMC2     O  569   0.764   4.359  11.405  0.8709 -0.7142 -0.0794
   37TMC2     H  570   0.878   4.428  11.218  0.1430 -0.2027  3.5613
   37TMC2    H1  571   1.025   4.081  11.396  0.1519 -1.6660  0.0436
   37TMC2    H2  572   1.188   4.199  11.018 -1.4390 -2.1280 -1.3943
   37TMC2    C7  573   1.188   4.005  11.205  0.3953 -1.0763 -0.1873
   37TMC2    C8  574   1.064   4.423  10.999 -0.4584  0.0250  0.0643
   37TMC2    O1  575   1.152   3.921  11.285  0.0822  0.0740 -0.1561
   37TMC2    O2  576   1.180   4.436  10.961  0.0204  0.0906  0.4121
   37TMC2    O5  577   0.980   4.527  11.008 -0.0120 -0.0251 -0.4439
   37TMC2    H5  578   0.889   4.494  11.023 -0.0931  0.8253  0.9683
   38MPD2     C  579   0.483   3.970  11.675 -0.1747 -0.4623  0.1089
   38MPD2    C1  580   0.590   3.895  11.635 -0.1080  0.0355 -0.5399
   38MPD2    C2  581   0.697   3.952  11.569  0.1951 -0.0245  0.0385
   38MPD2    C3  582   0.691   4.088  11.533 -0.1624 -0.2889  0.1464
   38MPD2    C4  583   0.589   4.166  11.576  0.1007 -0.1661  0.0947
   38MPD2    C5  584   0.488   4.105  11.651 -0.1935 -0.2011 -0.5366
   38MPD2     H  585   0.786   3.895  11.543 -0.3262 -1.3749  1.1903
   38MPD2    H1  586   0.582   4.273  11.564  0.1165 -0.3751 -1.7966
   38MPD2    H2  587   0.391   3.940  11.724 -0.1111  0.2219  0.6404
   38MPD2    H3  588   0.407   4.172  11.676  0.1348  0.3331 -0.9262
   38MPD2     N  589   0.798   4.129  11.448  0.0913 -0.6646 -0.3430
   38MPD2    H5  590   0.861   4.054  11.421 -0.3596 -0.8510 -0.8717
   38MPD2    N1  591   0.599   3.761  11.659 -0.4628 -0.1317 -0.1742
   38MPD2    H7  592   0.688   3.714  11.644 -0.5637 -0.1722 -0.6305
   39MPD2     C  593   4.091   1.136   1.234  0.2746  0.4113  0.4363
   39MPD2    C1  594   4.008   1.199   1.315 -0.4128  0.1087 -0.6762
   39MPD2    C2  595   3.873   1.169   1.318 -0.7106  0.2683  0.1913
   39MPD2    C3  596   3.820   1.071   1.234  0.3546 -0.0599  0.6749
   39MPD2    C4  597   3.914   1.013   1.144 -0.6704 -0.2127 -0.1597
   39MPD2    C5  598   4.048   1.047   1.146  0.0819  0.9366  0.2886
   39MPD2     H  599   3.803   1.230   1.375 -0.1276  2.3528 -1.3016
   39MPD2    H1  600   3.882   0.952   1.060  1.1681 -0.6798 -0.5057
   39MPD2    H2  601   4.198   1.155   1.232  0.6640 -1.6936  0.3621
   39MPD2    H3  602   4.121   1.005   1.077  0.4818  0.4649  1.0005
   39MPD2     N  603   3.688   1.037   1.227  0.4454 -0.3109 -0.1939
   39MPD2    H5  604   3.671   0.962   1.160 -1.6902 -0.5119  0.5860
   39MPD2    N1  605   4.064   1.313   1.379 -0.9499  0.1799 -0.4284
   39MPD2    H7  606   4.165   1.313   1.378 -0.9322 -0.6204  1.4450
   40TCq2    C1  607   3.992   1.415   1.436 -0.0718  0.0042  0.1197
   40TCq2    O2  608   3.878   1.445   1.427  0.2315  0.0636 -0.5539
   40TCq2    C2  609   4.070   1.518   1.501  0.4834 -0.0340  0.3440
   40TCq2    C3  610   4.041   1.653   1.485 -0.3175 -0.0573  0.4262
   40TCq2    C4  611   4.127   1.749   1.525  1.0920  0.1953  0.7714
   40TCq2    C5  612   4.250   1.720   1.572 -0.0998 -0.4573 -0.3055
   40TCq2    C6  613   4.288   1.590   1.580 -0.1170  0.4787  0.0928
   40TCq2    C7  614   4.200   1.488   1.546  0.2298 -1.3896 -0.5697
   40TCq2    C8  615   4.393   1.548   1.669 -0.4446  0.1412  1.2878
   40TCq2    O4  616   4.398   1.429   1.687 -0.3902  0.0568  0.8725
   40TCq2    C9  617   4.085   1.890   1.521  0.2257  0.1654  0.1404
   40TCq2    O5  618   4.166   1.973   1.581 -0.4308  0.2414  0.0444
   40TCq2    O6  619   3.966   1.915   1.477 -0.4161 -0.0580  0.4143
   40TCq2    H2  620   3.948   1.685   1.439 -1.0604 -1.8073  0.7085
   40TCq2    H3  621   4.313   1.803   1.603 -0.1823  0.2222 -2.0083
   40TCq2    H4  622   4.232   1.385   1.558 -1.0428 -1.7971 -0.6437
   41TMC2    C1  623   2.365   3.561  13.857  0.4337 -0.6090  0.9494
   41TMC2    C2  624   2.250   3.579  13.933  0.1255 -0.1766 -0.3922
   41TMC2    C3  625   2.132   3.535  13.876  0.2906  0.7369  0.3748
   41TMC2    C4  626   2.370   3.499  13.730  0.5005 -1.0146  0.1443
   41TMC2    C5  627   2.249   3.455  13.690 -0.8918  0.3415  0.1133
   41TMC2    C6  628   2.131   3.474  13.756 -0.2284 -0.1658  0.2922
   41TMC2     C  629   2.490   3.578  13.918 -0.6297 -0.1631  0.6874
   41TMC2     O  630   2.502   3.532  14.033 -0.4277 -0.1006  0.4527
   41TMC2     H  631   2.260   3.606  14.037  1.2856  0.1376 -0.5902
   41TMC2    H1  632   2.462   3.498  13.673 -0.2038  0.4774 -1.0118
   41TMC2    H2  633   2.039   3.426  13.723  0.0072  0.6153 -1.4860
   41TMC2    C7  634   2.238   3.402  13.555  0.3845  0.4771 -0.1704
   41TMC2    C8  635   2.017   3.533  13.966  0.0654 -0.5328  0.4108
   41TMC2    O1  636   2.122   3.402  13.507 -0.3508  0.3964  0.5259
   41TMC2    O2  637   2.022   3.538  14.088  0.1708 -0.4485 -0.2627
   41TMC2    O5  638   1.906   3.497  13.910 -0.1339 -0.2857 -0.0143
   41TMC2    H5  639   1.896   3.511  13.814 -2.9478 -0.4988  0.2474
   42MPD2     C  640   2.773   3.653  13.995 -0.2884  0.2109  0.1865
   42MPD2    C1  641   2.706   3.704  13.885  0.0346 -0.0433 -0.4549
   42MPD2    C2  642   2.762   3.805  13.807  0.5063 -0.2533  0.1372
   42MPD2    C3  643   2.881   3.862  13.840 -0.0074  0.6749  0.4790
   42MPD2    C4  644   2.949   3.799  13.942 -0.0706 -0.0202  0.0995
   42MPD2    C5  645   2.900   3.692  14.011 -0.3719  1.2000 -0.0535
   42MPD2     H  646   2.699   3.846  13.727  1.6879 -0.0615 -0.6930
   42MPD2    H1  647   3.040   3.841  13.983  0.0279 -0.0620 -0.0773
   42MPD2    H2  648   2.724   3.573  14.048  0.1859 -1.7332 -2.3032
   42MPD2    H3  649   2.966   3.643  14.082 -0.8272 -0.5938 -0.8766
   42MPD2     N  650   2.921   3.988  13.782  0.2209 -0.1727  0.7506
   42MPD2    H5  651   2.853   4.016  13.712  1.5357 -0.7059 -0.7246
   42MPD2    N1  652   2.580   3.663  13.850 -0.2351 -0.0014  0.0315
   42MPD2    H7  653   2.548   3.705  13.763 -0.3080  1.1386  0.6180
   43MPD2     C  654   0.122   2.530   0.871 -0.0379 -0.4215 -0.0474
   43MPD2    C1  655   0.114   2.576   1.001 -0.3546  0.7974  0.4152
   43MPD2    C2  656   0.025   2.682   1.024 -0.0307 -0.2263  0.3841
   43MPD2    C3  657   4.659   2.718   0.925  0.0185 -0.1517  0.1170
   43MPD2    C4  658   4.673   2.675   0.798  1.0911  0.0163  0.4099
   43MPD2    C5  659   0.041   2.581   0.773  0.4852  0.3896  0.5153
   43MPD2     H  660   0.022   2.723   1.124  1.9030  2.5273 -0.7023
   43MPD2    H1  661   4.609   2.717   0.720  1.5650  0.4726  0.2693
   43MPD2    H2  662   0.199   2.462   0.837 -0.4093 -0.2673 -1.2185
   43MPD2    H3  663   0.057   2.546   0.672 -1.3770  1.9006 -0.3046
   43MPD2     N  664   4.559   2.809   0.949 -0.0821  0.0774 -0.5368
   43MPD2    H5  665   4.499   2.832   0.871  1.2194  1.7598 -1.0447
   43MPD2    N1  666   0.191   2.514   1.093  0.4410  0.8041  0.4945
   43MPD2    H7  667   0.234   2.428   1.060 -1.0867 -0.0611  0.7235
   44TCq2    C1  668   4.326   3.266   1.253 -0.1291  0.2152  0.2621
   44TCq2    O2  669   4.343   3.382   1.243 -0.1783  0.2447  0.2339
   44TCq2    C2  670   4.354   3.180   1.140  0.2292 -0.8550  0.5160
   44TCq2    C3  671   4.355   3.247   1.020 -0.3599  0.1200  0.5418
   44TCq2    C4  672   4.403   3.181   0.912 -0.6340  0.5714 -0.5612
   44TCq2    C5  673   4.449   3.051   0.912 -0.8054 -0.1864 -0.8066
   44TCq2    C6  674   4.456   2.990   1.039  0.2958  0.6569  0.3525
   44TCq2    C7  675   4.405   3.054   1.149  0.3603  0.8956 -0.0933
   44TCq2    C8  676   4.541   2.874   1.061  0.6747  0.4327  0.2099
   44TCq2    O4  677   4.603   2.881   1.169 -0.4415 -0.2922  0.3550
   44TCq2    C9  678   4.384   3.245   0.788  0.3391 -0.8969  0.3084
   44TCq2    O5  679   4.412   3.179   0.686 -0.4784  0.3641  0.3283
   44TCq2    O6  680   4.342   3.364   0.798  0.2887  0.1706  0.5555
   44TCq2    H2  681   4.303   3.342   1.018 -0.1709  0.1914 -1.0857
   44TCq2    H3  682   4.476   3.007   0.816 -0.6091 -0.1585 -0.7651
   44TCq2    H4  683   4.416   3.004   1.245 -0.0836 -1.6702 -1.3902
   45TMC2    C1  684   0.202   4.610   9.232  0.5531  0.2719  0.1519
   45TMC2    C2  685   0.093   4.682   9.270  0.1807 -0.0069 -0.4162
   45TMC2    C3  686   0.105   0.040   9.375 -0.0072  0.5765  0.7488
   45TMC2    C4  687   0.326   4.629   9.284 -0.8004 -0.7115 -0.0141
   45TMC2    C5  688   0.337   4.720   9.388  0.3698  0.3773 -0.2979
   45TMC2    C6  689   0.224   0.067   9.438 -0.4806 -0.0487  0.5160
   45TMC2     C  690   0.189   4.497   9.131  0.1994  0.0220 -0.7913
   45TMC2     O  691   0.294   4.461   9.077 -0.3786  0.2010  0.3116
   45TMC2     H  692   4.725   4.677   9.217  0.4102  1.6450 -0.9921
   45TMC2    H1  693   0.411   4.574   9.245 -1.1376 -2.3802  1.6502
   45TMC2    H2  694   0.233   0.136   9.521 -1.5730 -3.0095  3.1112
   45TMC2    C7  695   0.465   0.003   9.457 -0.1202  0.0796 -0.1422
   45TMC2    C8  696   4.714   0.086   9.434 -0.3029 -0.2288  0.1846
   45TMC2    O1  697   0.567   0.005   9.391 -0.1027 -0.0129  0.3558
   45TMC2    O2  698   4.613   0.119   9.375  0.3367 -0.4200 -0.0758
   45TMC2    O5  699   4.717   0.061   9.566  0.0735  0.6762 -0.0566
   45TMC2    H5  700   0.071   0.030   9.614  1.2836  2.2851 -1.0377
   46MPD2     C  701   0.123   4.230   9.008 -0.0611 -0.1867  0.0588
   46MPD2    C1  702   0.044   4.296   9.095 -0.4484  0.3226 -0.5117
   46MPD2    C2  703   4.653   4.232   9.133 -0.0451 -0.5625  0.6452
   46MPD2    C3  704   4.621   4.104   9.082  0.1119  0.1486 -0.0056
   46MPD2    C4  705   4.708   4.042   8.998 -0.0573 -0.1771  0.0198
   46MPD2    C5  706   0.093   4.110   8.959  0.1150  0.0828 -0.3188
   46MPD2     H  707   4.593   4.270   9.215 -0.9996 -0.2013 -0.2205
   46MPD2    H1  708   4.685   3.948   8.950  1.8300  0.3329 -1.8886
   46MPD2    H2  709   0.208   4.283   8.965  0.4767 -0.6046  0.6087
   46MPD2    H3  710   0.165   4.057   8.898 -0.5965 -0.6256 -0.5488
   46MPD2     N  711   4.494   4.047   9.120 -0.3205 -0.1259 -0.4347
   46MPD2    H5  712   4.427   4.107   9.166 -0.0254 -0.8201  0.8880
   46MPD2    N1  713   0.070   4.425   9.149 -0.2072  0.1947 -0.2624
   46MPD2    H7  714   0.003   4.455   9.219 -0.8383 -2.0909  0.1133
   47TMC2    C1  715   2.176   0.198   8.868 -0.1724  0.3950  0.0180
   47TMC2    C2  716   2.187   0.109   8.763  0.8902 -0.6846 -0.0340
   47TMC2    C3  717   2.085   0.044   8.712  0.1078 -0.0355 -0.0930
   47TMC2    C4  718   2.048   0.218   8.918 -0.0260 -0.1044  0.3951
   47TMC2    C5  719   1.936   0.168   8.850  0.1048 -0.6531  0.2814
   47TMC2    C6  720   1.956   0.079   8.748 -0.8624 -0.3805 -0.4457
   47TMC2     C  721   2.289   0.228   8.944  0.1226 -0.3188  0.2890
   47TMC2     O  722   2.296   0.332   9.006 -0.4841 -0.2090  0.9032
   47TMC2     H  723   2.285   0.083   8.723  0.0148  0.2728 -2.7575
   47TMC2    H1  724   2.042   0.267   9.015  3.3823 -0.4710  0.8032
   47TMC2    H2  725   1.870   0.049   8.689  0.2216 -2.2606 -1.0465
   47TMC2    C7  726   1.802   0.205   8.875  0.1479 -0.1804  0.6135
   47TMC2    C8  727   2.114   0.003   8.574 -0.1925  0.1662 -0.3082
   47TMC2    O1  728   1.723   0.197   8.780 -0.1833 -0.1698  0.2755
   47TMC2    O2  729   2.182   0.066   8.495 -0.5224  0.2549 -0.1000
   47TMC2    O5  730   2.026   4.627   8.545 -0.3358  0.4554 -0.5012
   47TMC2    H5  731   1.992   4.575   8.622 -1.4066  1.8914 -0.0003
   48MPD2     C  732   2.530   0.208   9.112 -0.2954 -0.1214  0.0679
   48MPD2    C1  733   2.473   0.100   9.046 -0.5235 -0.7581 -0.6104
   48MPD2    C2  734   2.522   4.696   9.074 -0.3279 -0.2273 -0.7755
   48MPD2    C3  735   2.622   4.678   9.165 -0.5991 -0.8219  0.5956
   48MPD2    C4  736   2.690   0.060   9.218 -0.1139 -0.3644  0.0135
   48MPD2    C5  737   2.644   0.190   9.187  0.0460 -0.3193  0.7076
   48MPD2     H  738   2.479   4.612   9.020 -1.4147  0.0986 -0.4068
   48MPD2    H1  739   2.780   0.049   9.277 -0.6383 -1.4589  0.6128
   48MPD2    H2  740   2.503   0.313   9.114  1.3324  0.3136 -0.3243
   48MPD2    H3  741   2.698   0.270   9.235  0.2990 -0.2849  0.3668
   48MPD2     N  742   2.664   4.548   9.193 -0.7181 -0.1461 -0.1585
   48MPD2    H5  743   2.617   4.472   9.144  0.3632 -0.7085 -0.3130
   48MPD2    N1  744   2.364   0.114   8.959 -0.0528  0.2200 -0.1824
   48MPD2    H7  745   2.337   0.030   8.910  0.2957  1.1508 -1.9580
   49MPD2     C  746   0.536   1.539   9.727 -0.5381  0.1182 -0.6630
   49MPD2    C1  747   0.516   1.497   9.860 -0.9879 -0.3567 -0.9539
   49MPD2    C2  748   0.594   1.548   9.961 -0.0017 -1.3484 -0.1079
   49MPD2    C3  749   0.678   1.654   9.940 -0.0784  0.3098  0.0989
   49MPD2    C4  750   0.686   1.700   9.810 -0.1733 -0.3373  0.1553
   49MPD2    C5  751   0.622   1.641   9.711  0.2935 -0.1880  0.6662
   49MPD2     H  752   0.590   1.496  10.057  0.8418 -3.6429 -1.3104
   49MPD2    H1  753   0.758   1.777   9.784 -0.5854  0.4539  1.3032
   49MPD2    H2  754   0.480   1.483   9.653 -0.5831 -0.3286 -0.2908
   49MPD2    H3  755   0.643   1.676   9.610 -1.6060 -0.9637  0.0089
   49MPD2     N  756   0.745   1.719  10.050 -0.5301 -0.2533  0.1420
   49MPD2    H5  757   0.790   1.808  10.031 -1.2992  0.0877 -0.0793
   49MPD2    N1  758   0.452   1.380   9.904  0.1081  0.2656 -0.2163
   49MPD2    H7  759   0.471   1.360  10.002  0.6819  1.4791 -0.0721
   50TCq2    C1  760   0.362   1.307   9.834 -0.4360 -0.3169  0.5025
   50TCq2    O2  761   0.312   1.323   9.723 -0.1295 -0.5246 -0.2997
   50TCq2    C2  762   0.323   1.184   9.904  0.0947 -0.0290  0.4505
   50TCq2    C3  763   0.201   1.127   9.889 -0.2188  0.1382  0.2723
   50TCq2    C4  764   0.159   1.026   9.966 -0.3772 -0.1240 -0.1761
   50TCq2    C5  765   0.233   0.988  10.068  0.0461  0.3810 -1.0097
   50TCq2    C6  766   0.343   1.055  10.100  0.0416 -0.3855 -0.2062
   50TCq2    C7  767   0.400   1.147  10.013  0.2831 -0.0548 -0.5949
   50TCq2    C8  768   0.436   0.981  10.187  0.0452 -0.2961 -0.1258
   50TCq2    O4  769   0.406   0.873  10.231  0.5120 -0.2529  0.0006
   50TCq2    C9  770   0.035   0.957   9.934  0.0644  0.1917  0.1962
   50TCq2    O5  771   4.689   1.021   9.851  0.2240 -0.4917 -0.6238
   50TCq2    O6  772   4.710   0.877  10.012 -0.2478  0.1186 -0.1171
   50TCq2    H2  773   0.143   1.152   9.801  1.4105  0.4204 -0.7330
   50TCq2    H3  774   0.193   0.913  10.136 -1.1245  1.1508 -0.8556
   50TCq2    H4  775   0.505   1.170  10.021 -0.1511  1.2333  1.4504
   51MPD2     C  776   1.125   0.676   1.121 -0.5341  0.3825  0.0155
   51MPD2    C1  777   1.150   0.541   1.131 -0.8738 -0.8110 -0.0926
   51MPD2    C2  778   1.215   0.495   1.247 -0.0225  0.7691 -1.3772
   51MPD2    C3  779   1.260   0.580   1.350 -0.2380  0.4631  0.2701
   51MPD2    C4  780   1.243   0.715   1.329 -0.8405 -0.7858  0.1958
   51MPD2    C5  781   1.177   0.762   1.218  0.4333 -0.2510 -0.8850
   51MPD2     H  782   1.221   0.387   1.254 -3.0914  0.6666  0.1755
   51MPD2    H1  783   1.279   0.793   1.396  0.4394  1.1084 -2.6910
   51MPD2    H2  784   1.081   0.715   1.030 -1.4621 -0.5998  0.0425
   51MPD2    H3  785   1.170   0.869   1.198 -1.8109  0.1887  2.2584
   51MPD2     N  786   1.315   0.538   1.471 -0.1180  0.6727 -0.1743
   51MPD2    H5  787   1.315   0.616   1.535 -2.2661 -0.0469  0.7297
   51MPD2    N1  788   1.113   0.445   1.043 -0.2334 -0.3800  0.1299
   51MPD2    H7  789   1.127   0.348   1.068  1.8506 -1.0969 -3.8674
   52TCq2    C1  790   1.350   0.411   1.514  0.4417 -0.3840  0.2123
   52TCq2    O2  791   1.335   0.306   1.448 -0.0403 -0.2628  0.2790
   52TCq2    C2  792   1.400   0.402   1.647 -0.1923 -0.0359 -0.2716
   52TCq2    C3  793   1.406   0.274   1.695 -0.2007 -0.0039 -0.8671
   52TCq2    C4  794   1.506   0.239   1.785 -0.6125  0.2215  0.0794
   52TCq2    C5  795   1.586   0.338   1.835 -0.5630  0.2951  0.1645
   52TCq2    C6  796   1.584   0.461   1.784  0.0971  0.1397 -0.4063
   52TCq2    C7  797   1.493   0.498   1.688 -1.2822 -0.5471 -0.1666
   52TCq2    C8  798   1.622   0.570   1.875  0.4864 -0.2125 -0.7700
   52TCq2    O4  799   1.652   0.680   1.824 -0.3149 -0.1075 -0.5456
   52TCq2    C9  800   1.507   0.097   1.833  0.5297  0.3600 -0.3710
   52TCq2    O5  801   1.569   0.079   1.943  0.1975 -0.6343 -0.0459
   52TCq2    O6  802   1.407   0.032   1.800 -0.0084 -0.2908  0.1135
   52TCq2    H2  803   1.340   0.198   1.656 -0.0736 -0.4642 -0.1974
   52TCq2    H3  804   1.664   0.306   1.903  0.3940 -1.4089 -1.7362
   52TCq2    H4  805   1.492   0.600   1.650 -1.5115 -0.5908 -0.2796
   53TMC2    C1  806   1.537   3.450  11.526  0.2051  0.1736 -0.3165
   53TMC2    C2  807   1.628   3.390  11.609  0.8207  0.1788  0.3565
   53TMC2    C3  808   1.570   3.311  11.710  0.8342 -0.4783  0.3196
   53TMC2    C4  809   1.401   3.442  11.536  0.5268 -0.7765 -0.2056
   53TMC2    C5  810   1.348   3.370  11.638  0.3279 -0.2067  0.0688
   53TMC2    C6  811   1.430   3.306  11.726  0.4990 -0.8173 -0.0100
   53TMC2     C  812   1.589   3.530  11.412  0.4170 -0.0479 -0.0053
   53TMC2     O  813   1.699   3.496  11.368  0.0098  0.3189  0.6047
   53TMC2     H  814   1.735   3.405  11.599  1.2770 -3.3163  0.0615
   53TMC2    H1  815   1.331   3.492  11.469 -1.6480 -0.2666  2.4322
   53TMC2    H2  816   1.394   3.252  11.812 -2.4102  0.7065 -0.2555
   53TMC2    C7  817   1.206   3.399  11.676  0.2273  0.1676 -0.8805
   53TMC2    C8  818   1.653   3.265  11.819  0.2185 -0.1479  0.1416
   53TMC2    O1  819   1.163   3.504  11.637 -0.4758 -0.0329  0.6335
   53TMC2    O2  820   1.595   3.220  11.917 -0.0103  0.5454  0.5302
   53TMC2    O5  821   1.766   3.218  11.770 -0.1769  0.3989  0.5382
   53TMC2    H5  822   1.791   3.244  11.679  0.5355 -2.6039 -0.1265
   54MPD2     C  823   1.633   3.750  11.207 -0.2124  0.1151 -0.3079
   54MPD2    C1  824   1.523   3.739  11.287 -0.8831 -0.3814 -0.1524
   54MPD2    C2  825   1.417   3.825  11.266  0.3436 -0.3264  0.5360
   54MPD2    C3  826   1.421   3.931  11.179  0.1188 -0.0042  0.2903
   54MPD2    C4  827   1.530   3.943  11.096  0.8056 -0.0911 -0.4954
   54MPD2    C5  828   1.634   3.861  11.117 -0.0014  0.1562  0.2287
   54MPD2     H  829   1.326   3.806  11.323 -0.6466  0.1320 -0.8874
   54MPD2    H1  830   1.554   4.017  11.020 -1.6718  1.9033  0.6479
   54MPD2    H2  831   1.723   3.691  11.215 -1.0329 -1.1041 -0.1221
   54MPD2    H3  832   1.724   3.863  11.057 -0.3634 -0.6486 -0.3331
   54MPD2     N  833   1.313   4.020  11.154 -0.0897 -0.1779  0.1767
   54MPD2    H5  834   1.339   4.088  11.084  1.7225  0.9844  1.9793
   54MPD2    N1  835   1.509   3.638  11.388  0.2577 -0.6610 -0.0379
   54MPD2    H7  836   1.429   3.649  11.450  0.3105  2.1402 -0.4862
   55MPD2     C  837   1.727   2.793  17.592 -0.3058  0.0904 -0.1268
   55MPD2    C1  838   1.773   2.711  17.690  0.0985  0.3585  0.4226
   55MPD2    C2  839   1.733   2.724   0.122 -0.4173  0.0053  0.1834
   55MPD2    C3  840   1.632   2.820   0.152  0.1461 -0.6483 -0.3296
   55MPD2    C4  841   1.590   2.902   0.047  0.3303  0.4521  0.1405
   55MPD2    C5  842   1.639   2.894  17.625  0.0493  0.4574 -0.0751
   55MPD2     H  843   1.758   2.655   0.202 -1.0013 -0.7657 -0.3082
   55MPD2    H1  844   1.518   2.980   0.068  1.5776  1.1688  1.7694
   55MPD2    H2  845   1.776   2.783  17.495  2.3577  2.3065  0.9969
   55MPD2    H3  846   1.610   2.962  17.545  1.2646  1.8222  0.6490
   55MPD2     N  847   1.575   2.818   0.284 -0.6757  0.6584  0.2414
   55MPD2    H5  848   1.603   2.744   0.348 -0.4519 -2.2866 -3.2708
   55MPD2    N1  849   1.872   2.618  17.642  0.2617 -0.1910  0.2911
   55MPD2    H7  850   1.891   2.611  17.543 -0.7584 -1.3673  0.1686
   56TCq2    C1  851   1.923   2.518   0.013  0.0162 -0.1339  0.4397
   56TCq2    O2  852   1.925   2.509   0.132  0.4061 -0.1902  0.3459
   56TCq2    C2  853   1.997   2.419  17.646 -0.0366 -0.3427 -0.3804
   56TCq2    C3  854   2.037   2.444  17.517  0.1566 -0.2896  0.4008
   56TCq2    C4  855   2.076   2.341  17.442  0.7509  0.3446 -0.3048
   56TCq2    C5  856   2.086   2.214  17.491 -0.3095 -0.4171  0.2790
   56TCq2    C6  857   2.042   2.189  17.615  0.1244  0.9826 -0.8009
   56TCq2    C7  858   1.998   2.293  17.698  0.1816  0.6395  0.3542
   56TCq2    C8  859   2.065   2.045  17.665 -0.2927  0.8095  0.7286
   56TCq2    O4  860   2.075   1.953  17.583 -0.1062  0.0749  0.7054
   56TCq2    C9  861   2.114   2.370  17.305  0.6530  0.7449 -0.4458
   56TCq2    O5  862   2.131   2.494  17.278 -0.1627  0.3840 -0.6098
   56TCq2    O6  863   2.143   2.273  17.231  0.6556 -0.0441 -0.1832
   56TCq2    H2  864   2.043   2.547  17.484 -3.1712  0.0775  0.9478
   56TCq2    H3  865   2.133   2.136  17.433  1.8285  0.0517  1.3967
   56TCq2    H4  866   1.964   2.266   0.094  0.8559  0.3049  0.4921
   57TMC2    C1  867   1.100   2.254  13.322  1.0267 -0.2313 -0.5699
   57TMC2    C2  868   1.014   2.175  13.248 -0.3672 -0.0519  0.3220
   57TMC2    C3  869   1.073   2.108  13.149  0.4433  0.5544 -0.7655
   57TMC2    C4  870   1.225   2.289  13.274 -0.0612  0.2841  0.1151
   57TMC2    C5  871   1.273   2.221  13.166  0.5751  0.2325  0.7413
   57TMC2    C6  872   1.201   2.118  13.110 -0.1784 -0.5725 -0.7263
   57TMC2     C  873   1.060   2.293  13.451 -0.1689  0.0500 -0.3628
   57TMC2     O  874   1.111   2.391  13.508  0.0028  0.3351  0.0418
   57TMC2     H  875   0.906   2.169  13.256 -0.4136  1.4796  0.9385
   57TMC2    H1  876   1.286   2.357  13.333  0.5222  0.6080 -0.8633
   57TMC2    H2  877   1.224   2.080  13.011  0.3259 -0.9816 -0.4527
   57TMC2    C7  878   1.409   2.250  13.120  0.5649  0.1185  1.3007
   57TMC2    C8  879   0.974   2.072  13.046 -0.4563 -0.4639  0.5659
   57TMC2    O1  880   1.450   2.364  13.142  0.5882  0.5658 -0.2321
   57TMC2    O2  881   0.880   2.003  13.081  0.1288  0.2770 -0.5838
   57TMC2    O5  882   0.957   2.176  12.967  0.3259  0.0451 -0.1841
   57TMC2    H5  883   1.016   2.248  12.996  0.8196 -0.3741 -0.1424
   58MPD2     C  884   0.862   2.213  13.905 -0.1602  0.6061  0.1975
   58MPD2    C1  885   0.886   2.336  13.843  0.9986 -0.3860 -0.0509
   58MPD2    C2  886   0.925   2.332  13.712  0.1513 -0.2607  0.0064
   58MPD2    C3  887   0.927   2.211  13.641 -0.2835 -0.4880  0.3216
   58MPD2    C4  888   0.892   2.092  13.707 -0.3684 -0.4721  0.5903
   58MPD2    C5  889   0.866   2.092  13.841 -0.3143  0.1094  0.1699
   58MPD2     H  890   0.950   2.423  13.658 -2.0007  0.2724 -0.1118
   58MPD2    H1  891   0.910   1.997  13.656 -1.4847 -0.3367 -0.0559
   58MPD2    H2  892   0.842   2.204  14.011 -1.3796  1.5178  0.0491
   58MPD2    H3  893   0.868   1.997  13.893 -2.1901 -0.3534 -0.6130
   58MPD2     N  894   0.974   2.198  13.504 -0.3304  0.6083 -0.3954
   58MPD2    H5  895   0.959   2.108  13.459 -0.4511 -0.4646  1.7923
   58MPD2    N1  896   0.877   2.460  13.913  0.1731  0.5611 -0.2609
   58MPD2    H7  897   0.903   2.543  13.861 -2.0164  1.8450  0.6884
   59MPD2     C  898   3.808   2.657  13.249 -0.6216  0.4604  0.0175
   59MPD2    C1  899   3.908   2.676  13.153  0.1051  0.1439 -0.2712
   59MPD2    C2  900   3.963   2.806  13.142  0.3975 -0.2063 -0.5316
   59MPD2    C3  901   3.938   2.903  13.239 -0.2249 -0.0553  0.7952
   59MPD2    C4  902   3.839   2.872  13.330 -0.3586 -0.7931  0.0824
   59MPD2    C5  903   3.771   2.756  13.336 -0.5059  0.0449 -0.1276
   59MPD2     H  904   4.033   2.833  13.064  0.4432 -1.0044 -0.7620
   59MPD2    H1  905   3.804   2.942  13.405  1.7089 -1.6400  1.8307
   59MPD2    H2  906   3.768   2.560  13.273  0.3391 -0.8231 -3.4857
   59MPD2    H3  907   3.698   2.738  13.414 -0.4965  0.1317 -0.0986
   59MPD2     N  908   4.019   3.013  13.251  0.4666 -0.4104 -0.3858
   59MPD2    H5  909   3.994   3.065  13.334  0.2828 -0.2163 -0.5634
   59MPD2    N1  910   3.945   2.577  13.059 -0.2138  0.0489 -0.2370
   59MPD2    H7  911   3.883   2.496  13.054  0.3611 -0.5887  3.2793
   60TCq2    C1  912   4.052   2.587  12.970  0.1783 -0.8166  0.4171
   60TCq2    O2  913   4.140   2.669  12.972  0.0523  0.5176  0.0277
   60TCq2    C2  914   4.039   2.503  12.847 -0.4615  0.4979  0.0676
   60TCq2    C3  915   3.960   2.388  12.851  0.6960  0.4564 -0.4008
   60TCq2    C4  916   3.938   2.316  12.736  0.4928 -0.1513 -0.3234
   60TCq2    C5  917   3.977   2.377  12.619 -0.4052 -0.4599 -0.4026
   60TCq2    C6  918   4.058   2.491  12.617  0.3149  0.0554  0.4015
   60TCq2    C7  919   4.100   2.548  12.732  0.9044 -0.2973 -0.1171
   60TCq2    C8  920   4.067   2.564  12.492  0.4361  0.6432  0.8807
   60TCq2    O4  921   4.072   2.499  12.388 -0.1504 -0.4725  0.5534
   60TCq2    C9  922   3.876   2.185  12.738  0.9379 -0.2970  0.6195
   60TCq2    O5  923   3.830   2.127  12.634  0.6744  0.8172 -0.3223
   60TCq2    O6  924   3.875   2.139  12.855  0.3417  0.0015  0.1031
   60TCq2    H2  925   3.935   2.347  12.948  1.7920  0.7855  0.0221
   60TCq2    H3  926   3.940   2.342  12.523 -1.3786  0.8284 -0.4947
   60TCq2    H4  927   4.176   2.624  12.721 -0.0697  0.6808 -0.1265
   61MPD2     C  928   3.554   4.266  15.285  0.2047 -0.2386 -0.3089
   61MPD2    C1  929   3.483   4.382  15.304 -0.3047  0.4646  0.2169
   61MPD2    C2  930   3.446   4.461  15.196 -0.1703 -0.9506 -0.0690
   61MPD2    C3  931   3.478   4.427  15.070 -0.8493  0.1018 -0.1065
   61MPD2    C4  932   3.543   4.309  15.046 -0.4579 -0.1370  0.4874
   61MPD2    C5  933   3.576   4.233  15.153 -0.4773 -0.2077 -0.1022
   61MPD2     H  934   3.385   4.550  15.205 -0.0024 -0.8820  0.4084
   61MPD2    H1  935   3.583   4.290  14.947  1.0816 -0.3755  1.1532
   61MPD2    H2  936   3.585   4.197  15.362  1.5210 -1.2344 -1.7142
   61MPD2    H3  937   3.627   4.140  15.133 -0.3377 -0.3688  1.0436
   61MPD2     N  938   3.459   4.508  14.955 -0.1401 -0.1964 -0.0424
   61MPD2    H5  939   3.528   4.498  14.881 -0.2628  2.9399 -0.6040
   61MPD2    N1  940   3.465   4.438  15.433 -0.0730  0.3254  0.3994
   61MPD2    H7  941   3.418   4.528  15.439 -0.5307  0.0257  1.3572
   62TCq2    C1  942   3.522   4.399  15.552 -0.2233  0.1226  0.1716
   62TCq2    O2  943   3.576   4.290  15.578 -0.2817 -0.0153  0.4199
   62TCq2    C2  944   3.485   4.493  15.658  0.1567  0.2976  0.1253
   62TCq2    C3  945   3.505   4.458  15.784 -0.3397 -0.2199  0.1253
   62TCq2    C4  946   3.475   4.544  15.889  0.6204 -0.1077 -0.0110
   62TCq2    C5  947   3.406   4.660  15.867  0.3683  0.0381 -0.3941
   62TCq2    C6  948   3.398   4.698  15.735 -0.3797 -1.0482  1.0389
   62TCq2    C7  949   3.432   4.619  15.630 -0.3430 -0.5295 -0.0262
   62TCq2    C8  950   3.330   0.099  15.707 -0.0554  0.7609 -0.0104
   62TCq2    O4  951   3.365   0.161  15.607  0.4610 -0.2784  0.6101
   62TCq2    C9  952   3.489   4.496  16.025  0.1307 -0.0615 -0.0556
   62TCq2    O5  953   3.445   4.577  16.113 -0.2474 -0.0840  0.6188
   62TCq2    O6  954   3.521   4.378  16.048  0.4763  0.1556 -0.3121
   62TCq2    H2  955   3.550   4.360  15.801  1.4371  0.7438  1.0094
   62TCq2    H3  956   3.386   4.721  15.954 -0.1991 -0.1986 -0.3563
   62TCq2    H4  957   3.402   4.646  15.529  0.9505 -0.8243 -0.4916
   63TMC2    C1  958   3.045   4.137  11.042  0.2296  0.0481  0.3426
   63TMC2    C2  959   3.157   4.193  11.097  0.6117  0.3762  0.4903
   63TMC2    C3  960   3.244   4.269  11.031 -0.3351 -0.2034  0.1023
   63TMC2    C4  961   3.042   4.138  10.902  0.5949  0.1100  0.1271
   63TMC2    C5  962   3.132   4.211  10.837 -0.4816  0.1622  0.3805
   63TMC2    C6  963   3.226   4.293  10.894 -0.2743 -0.3271 -0.3172
   63TMC2     C  964   2.950   4.059  11.114  0.2713  0.1802 -0.4805
   63TMC2     O  965   2.931   4.090  11.232  0.0937 -0.0695 -0.2563
   63TMC2     H  966   3.161   4.165  11.201 -1.5287 -0.3607  0.3817
   63TMC2    H1  967   2.958   4.094  10.850 -1.2572  2.1781  1.3294
   63TMC2    H2  968   3.312   4.329  10.839 -0.1631 -0.6869 -0.3808
   63TMC2    C7  969   3.114   4.223  10.691 -0.0325  0.6817 -0.3553
   63TMC2    C8  970   3.365   4.312  11.087 -0.0257  0.1460 -0.1899
   63TMC2    O1  971   3.031   4.146  10.648  0.1084  0.2043  0.2035
   63TMC2    O2  972   3.424   4.415  11.057 -0.4343 -0.4387  0.8562
   63TMC2    O5  973   3.425   4.205  11.147 -0.6741 -0.1136 -0.6993
   63TMC2    H5  974   3.403   4.110  11.147 -0.6585 -0.1226 -1.7661
   64MPD2     C  975   2.631   3.644  11.153 -0.4984  0.3785  0.4807
   64MPD2    C1  976   2.730   3.628  11.046 -0.6035  0.1363 -0.3410
   64MPD2    C2  977   2.810   3.733  11.014 -0.1505 -0.7358 -0.2019
   64MPD2    C3  978   2.816   3.847  11.090  0.1835 -0.5928 -0.0907
   64MPD2    C4  979   2.728   3.869  11.188  0.6024 -0.4127  0.3413
   64MPD2    C5  980   2.639   3.768  11.226  0.3249  0.2479  0.1440
   64MPD2     H  981   2.876   3.732  10.927  0.8988  1.3042  0.5556
   64MPD2    H1  982   2.730   3.968  11.233 -1.8219  0.6664 -1.9312
   64MPD2    H2  983   2.561   3.567  11.184  0.7268 -0.7035  0.5260
   64MPD2    H3  984   2.565   3.781  11.304  1.0467  2.3961  0.4722
   64MPD2     N  985   2.907   3.946  11.048 -0.6868 -0.1381 -0.3574
   64MPD2    H5  986   2.961   3.934  10.964 -0.6776 -0.3533 -0.3210
   64MPD2    N1  987   2.737   3.506  10.975  0.2540  0.0609  1.1706
   64MPD2    H7  988   2.788   3.507  10.888 -2.0073  2.6450 -0.1188
   65MPD2     C  989   3.774   3.774  15.903 -0.3971  0.2726 -0.0102
   65MPD2    C1  990   3.781   3.740  15.770  0.6312  0.0307  0.4444
   65MPD2    C2  991   3.718   3.627  15.730 -0.2233  0.0957 -0.0045
   65MPD2    C3  992   3.654   3.539  15.813  0.1363 -0.4185  0.2635
   65MPD2    C4  993   3.635   3.582  15.941 -0.1539  0.1347 -0.2175
   65MPD2    C5  994   3.697   3.701  15.980  0.8413 -0.0350  0.2111
   65MPD2     H  995   3.729   3.606  15.624  0.7146 -1.8198  0.4619
   65MPD2    H1  996   3.566   3.538  16.011 -0.3426 -0.1398 -0.5760
   65MPD2    H2  997   3.818   3.866  15.939  0.9858 -0.5196  0.3149
   65MPD2    H3  998   3.690   3.742  16.080  1.2177 -0.5552  0.4547
   65MPD2     N  999   3.597   3.416  15.766 -0.0737 -0.7929  0.2213
   65MPD2    H5 1000   3.560   3.352  15.835  0.2224 -1.4992 -0.2783
   65MPD2    N1 1001   3.831   3.819  15.660 -0.1672 -0.3942  0.9496
   65MPD2    H7 1002   3.824   3.787  15.564  1.3178 -1.4737  1.1972
   66TCq2    C1 1003   3.885   3.948  15.675  0.1059  0.4149 -0.0870
   66TCq2    O2 1004   3.894   4.026  15.767  0.4752  0.4020 -0.0719
   66TCq2    C2 1005   3.904   4.007  15.542 -0.1691 -0.0994 -0.0404
   66TCq2    C3 1006   3.869   3.937  15.426 -0.5843  0.3677 -0.0830
   66TCq2    C4 1007   3.857   4.006  15.307  0.3975  1.0205 -0.5110
   66TCq2    C5 1008   3.888   4.137  15.294 -0.2256 -0.6683 -1.0974
   66TCq2    C6 1009   3.912   4.206  15.410 -0.4819  0.8168  0.5561
   66TCq2    C7 1010   3.924   4.146  15.538 -0.3115  0.3798  0.1405
   66TCq2    C8 1011   3.922   4.347  15.397 -0.0057 -0.8770  0.3465
   66TCq2    O4 1012   3.980   4.391  15.299  0.1406 -0.1773  0.0421
   66TCq2    C9 1013   3.824   3.930  15.192 -0.0973  0.6668 -0.6093
   66TCq2    O5 1014   3.835   3.986  15.083 -0.3676 -0.1034  0.2361
   66TCq2    O6 1015   3.821   3.805  15.210  0.9284  0.0932 -0.3146
   66TCq2    H2 1016   3.854   3.830  15.426  1.7185  0.0361  1.5271
   66TCq2    H3 1017   3.891   4.185  15.197  1.4045  1.4247 -0.0102
   66TCq2    H4 1018   3.946   4.199  15.630  1.5861 -0.3077  0.0709
   67MPD2     C 1019   3.905   2.934  13.904  0.3248  0.1070 -0.4773
   67MPD2    C1 1020   3.812   2.951  14.005  0.0038  0.0514  0.4378
   67MPD2    C2 1021   3.672   2.935  13.986  0.5989  0.5176  0.7811
   67MPD2    C3 1022   3.625   2.889  13.862  0.2096  0.6968  0.4126
   67MPD2    C4 1023   3.720   2.867  13.763  0.0618  0.0674 -0.3154
   67MPD2    C5 1024   3.852   2.888  13.788 -0.1940  0.2010 -0.0338
   67MPD2     H 1025   3.617   2.955  14.077 -0.1952  4.4665 -0.5839
   67MPD2    H1 1026   3.701   2.837  13.661 -0.4714  1.6796 -0.6785
   67MPD2    H2 1027   4.011   2.956  13.909  0.3800 -0.5822  1.4036
   67MPD2    H3 1028   3.926   2.863  13.713 -1.4781  1.2284 -1.6242
   67MPD2     N 1029   3.486   2.871  13.832 -0.1682  0.0728  0.5932
   67MPD2    H5 1030   3.459   2.850  13.737 -1.2319 -0.9340  1.1213
   67MPD2    N1 1031   3.855   2.991  14.135  0.2786 -0.0675  0.2359
   67MPD2    H7 1032   3.778   3.011  14.198  0.3464 -0.6104  0.4900
   68TCq2    C1 1033   3.984   3.018  14.176  0.0195  0.0279 -0.0885
   68TCq2    O2 1034   4.092   2.980  14.131 -0.3790  0.5376  0.8248
   68TCq2    C2 1035   3.973   3.074  14.304  0.5783 -0.2013  0.2179
   68TCq2    C3 1036   3.876   3.174  14.325 -0.8682  0.3831  0.0297
   68TCq2    C4 1037   3.853   3.212  14.459  0.1007  0.2504  0.2302
   68TCq2    C5 1038   3.930   3.156  14.558 -0.5056  0.5902  0.0199
   68TCq2    C6 1039   4.005   3.041  14.530 -0.0996  0.1736  0.4117
   68TCq2    C7 1040   4.026   2.999  14.404 -0.2296  0.2334  0.7067
   68TCq2    C8 1041   4.104   3.007  14.626  0.5569 -0.4714  0.1789
   68TCq2    O4 1042   4.208   2.956  14.583  0.0102 -0.1180 -0.6733
   68TCq2    C9 1043   3.768   3.325  14.487  0.7168  0.2681  0.0025
   68TCq2    O5 1044   3.687   3.356  14.393  0.5745 -0.0666 -0.3181
   68TCq2    O6 1045   3.776   3.377  14.602 -0.0940 -0.3501 -0.7068
   68TCq2    H2 1046   3.827   3.228  14.245  0.9631  1.4873 -0.3178
   68TCq2    H3 1047   3.924   3.205  14.655 -0.1987 -0.7779  0.7413
   68TCq2    H4 1048   4.100   2.923  14.381 -1.2164  0.1370 -2.0854
   69TMC2    C1 1049   1.160   4.204  12.061  0.4574 -0.0688  0.5272
   69TMC2    C2 1050   1.058   4.294  12.046  0.2453  0.6631  0.0354
   69TMC2    C3 1051   1.083   4.401  11.969 -0.1706  0.3789  0.2314
   69TMC2    C4 1052   1.283   4.210  11.987 -0.8093  0.0826  0.7449
   69TMC2    C5 1053   1.295   4.315  11.905  0.0827 -0.0526 -0.7662
   69TMC2    C6 1054   1.205   4.417  11.912 -0.5309 -0.1420  0.0025
   69TMC2     C 1055   1.127   4.087  12.142  0.6578  0.1968 -0.5239
   69TMC2     O 1056   1.011   4.066  12.167 -0.0023 -0.2984 -0.4892
   69TMC2     H 1057   0.959   4.276  12.087 -0.4197 -1.1576 -2.2813
   69TMC2    H1 1058   1.360   4.133  11.992  0.3071  1.0986 -0.6424
   69TMC2    H2 1059   1.212   4.508  11.854  2.2369  1.1706  2.4021
   69TMC2    C7 1060   1.416   4.326  11.832 -0.9016  0.1792  0.4292
   69TMC2    C8 1061   0.984   4.509  11.956 -0.5601  0.4792  0.7118
   69TMC2    O1 1062   1.506   4.257  11.875  0.1815  0.1715  0.1504
   69TMC2    O2 1063   1.007   4.619  11.999 -0.3177 -0.5046 -0.0794
   69TMC2    O5 1064   0.866   4.457  11.923  0.4158  0.2132 -0.0974
   69TMC2    H5 1065   0.858   4.381  11.862 -3.4149 -0.2635  1.0089
   70MPD2     C 1066   1.365   3.859  12.309  0.2860 -0.2650  0.4508
   70MPD2    C1 1067   1.249   3.896  12.254 -0.2265  0.6702 -0.0449
   70MPD2    C2 1068   1.148   3.808  12.280  0.2124 -0.6984 -0.4012
   70MPD2    C3 1069   1.162   3.691  12.354  0.4669 -0.3385 -0.2675
   70MPD2    C4 1070   1.284   3.658  12.406 -0.6692 -0.1356  0.5207
   70MPD2    C5 1071   1.385   3.745  12.384  0.4584 -0.4703 -0.2357
   70MPD2     H 1072   1.053   3.843  12.243 -0.2024 -1.3827  0.0263
   70MPD2    H1 1073   1.296   3.576  12.476  1.1846  1.0846  1.6397
   70MPD2    H2 1074   1.448   3.927  12.291  0.6162 -1.0861 -1.1226
   70MPD2    H3 1075   1.485   3.724  12.421  1.0612  0.7396 -1.2082
   70MPD2     N 1076   1.057   3.598  12.364  0.4185 -0.0734 -0.5956
   70MPD2    H5 1077   1.085   3.504  12.391  0.2914 -0.3543 -1.4417
   70MPD2    N1 1078   1.239   4.017  12.179 -0.1194  0.5640  0.2167
   70MPD2    H7 1079   1.330   4.054  12.150  0.9763 -4.0527 -2.1683
   71TMC2    C1 1080   3.553   0.303   1.371  0.0068  0.8093 -0.1832
   71TMC2    C2 1081   3.657   0.283   1.447 -0.0206  0.1240  0.2884
   71TMC2    C3 1082   3.639   0.271   1.581  0.4765 -0.1466  0.1429
   71TMC2    C4 1083   3.425   0.316   1.419  0.3124  0.0880 -0.5977
   71TMC2    C5 1084   3.416   0.303   1.553  0.0042 -0.4109  0.1973
   71TMC2    C6 1085   3.517   0.281   1.636 -0.5574 -0.0876  0.0874
   71TMC2     C 1086   3.583   0.312   1.225  0.1052  0.2433  1.1949
   71TMC2     O 1087   3.689   0.359   1.188 -0.0634 -0.4592  0.1532
   71TMC2     H 1088   3.757   0.286   1.405  0.2307  0.4191  0.9068
   71TMC2    H1 1089   3.343   0.335   1.352 -1.8953 -0.0037  2.0552
   71TMC2    H2 1090   3.504   0.281   1.743  0.5205  0.4480  0.2183
   71TMC2    C7 1091   3.289   0.311   1.631  0.4464  0.1257  0.3922
   71TMC2    C8 1092   3.744   0.242   1.675  0.0112  0.2119  0.5157
   71TMC2    O1 1093   3.284   0.319   1.749  0.0141  0.7461 -0.1505
   71TMC2    O2 1094   3.757   0.293   1.785  0.3853 -0.1788 -0.1680
   71TMC2    O5 1095   3.851   0.187   1.613  0.2158 -0.3309  0.0189
   71TMC2    H5 1096   3.833   0.155   1.522  0.9444 -3.1758  0.8730
   72MPD2     C 1097   3.471   0.223   0.731  0.1789 -0.4505 -0.0695
   72MPD2    C1 1098   3.593   0.269   0.782  0.2411 -0.5266 -0.4587
   72MPD2    C2 1099   3.604   0.297   0.920 -0.2490  1.1498 -0.8699
   72MPD2    C3 1100   3.488   0.273   0.998 -0.4211  0.3591  0.1330
   72MPD2    C4 1101   3.366   0.230   0.946 -0.2623 -0.5163  1.3491
   72MPD2    C5 1102   3.365   0.204   0.809 -0.0265 -0.5709  0.5252
   72MPD2     H 1103   3.698   0.340   0.952  0.0263 -2.1374  2.6676
   72MPD2    H1 1104   3.276   0.219   1.005  0.5093  0.4135  2.7079
   72MPD2    H2 1105   3.459   0.201   0.625 -1.7545 -2.2748  0.5393
   72MPD2    H3 1106   3.270   0.174   0.766 -0.5573  0.2291  1.1359
   72MPD2     N 1107   3.479   0.280   1.141  0.0366 -0.0175 -0.3020
   72MPD2    H5 1108   3.394   0.242   1.182  0.6625 -0.4466  0.6121
   72MPD2    N1 1109   3.708   0.297   0.702  0.6081  0.5655 -0.4043
   72MPD2    H7 1110   3.792   0.328   0.750  0.3245 -0.4858  0.7695
   73TMC2    C1 1111   2.830   1.535  14.029 -0.0253 -0.1356 -0.5789
   73TMC2    C2 1112   2.728   1.554  14.109  0.4528 -0.3903 -0.5494
   73TMC2    C3 1113   2.751   1.530  14.243 -0.5726 -1.0980  0.8017
   73TMC2    C4 1114   2.949   1.485  14.070 -0.5801  0.6411 -0.2045
   73TMC2    C5 1115   2.974   1.474  14.204  0.8372  0.2565 -0.0209
   73TMC2    C6 1116   2.872   1.495  14.291 -0.3495 -0.4236  0.1369
   73TMC2     C 1117   2.858   1.650  13.937  0.0118  0.9655 -0.3930
   73TMC2     O 1118   2.974   1.692  13.944  0.2241  0.3980 -0.1331
   73TMC2     H 1119   2.628   1.563  14.070  0.4081  0.4605 -0.2574
   73TMC2    H1 1120   3.031   1.467  14.001 -0.4105  3.5362 -0.7493
   73TMC2    H2 1121   2.894   1.482  14.397 -0.6143  1.4434  0.4206
   73TMC2    C7 1122   3.107   1.529  14.243  0.2659  0.1072 -0.4216
   73TMC2    C8 1123   2.666   1.604  14.338  0.1014  0.2339 -0.3989
   73TMC2    O1 1124   3.148   1.512  14.358  0.4387 -0.1278 -0.2095
   73TMC2    O2 1125   2.574   1.673  14.291 -0.1847 -0.0660  0.1524
   73TMC2    O5 1126   2.676   1.563  14.464 -0.0146  0.4342  0.5441
   73TMC2    H5 1127   2.723   1.479  14.476  1.0054  0.5104 -2.8280
   74MPD2     C 1128   2.793   2.036  13.619 -0.7878  0.0931  0.6808
   74MPD2    C1 1129   2.877   2.029  13.729  0.3086 -0.5496 -0.1129
   74MPD2    C2 1130   2.864   1.928  13.819  0.3209 -0.6850  0.3312
   74MPD2    C3 1131   2.767   1.826  13.794  0.6701  0.1379 -0.8862
   74MPD2    C4 1132   2.681   1.837  13.692  0.2135  0.4055  0.8441
   74MPD2    C5 1133   2.692   1.941  13.599 -0.3090  0.6413 -0.2499
   74MPD2     H 1134   2.929   1.922  13.906  0.5636 -1.5901  0.0858
   74MPD2    H1 1135   2.608   1.757  13.690  1.0295 -0.3966  2.4628
   74MPD2    H2 1136   2.797   2.115  13.545 -0.6270 -0.5169  0.0385
   74MPD2    H3 1137   2.621   1.948  13.516 -1.7841  1.1531  1.0568
   74MPD2     N 1138   2.750   1.712  13.876  0.6564 -0.1674 -0.5992
   74MPD2    H5 1139   2.667   1.655  13.857 -1.2715  2.8824 -1.2663
   74MPD2    N1 1140   2.977   2.126  13.739 -0.1890  0.0700  0.2787
   74MPD2    H7 1141   2.984   2.190  13.660 -0.5000  0.7824  0.8272
   75TCq2    C1 1142   3.388   2.860  13.929 -0.1709  0.1080  0.2888
   75TCq2    O2 1143   3.388   2.853  14.052 -0.1445 -0.5084 -0.6211
   75TCq2    C2 1144   3.258   2.849  13.870  0.0681  0.5871 -0.2775
   75TCq2    C3 1145   3.157   2.778  13.937  0.3158 -0.8567  0.2942
   75TCq2    C4 1146   3.044   2.741  13.870 -0.0490  0.0721  0.5922
   75TCq2    C5 1147   3.023   2.789  13.746  0.0981  0.7447  0.4673
   75TCq2    C6 1148   3.124   2.849  13.679 -0.1640 -0.4308  0.1137
   75TCq2    C7 1149   3.233   2.890  13.744 -0.6434 -0.4709 -0.8320
   75TCq2    C8 1150   3.089   2.911  13.550 -0.4304 -0.2761  0.3447
   75TCq2    O4 1151   2.990   2.854  13.500 -0.2195 -0.4008  0.7274
   75TCq2    C9 1152   2.928   2.685  13.932 -0.2009  0.6393 -0.7012
   75TCq2    O5 1153   2.821   2.672  13.861 -0.0343 -0.4287  0.3767
   75TCq2    O6 1154   2.939   2.665  14.054 -0.4856 -0.8129 -0.4797
   75TCq2    H2 1155   3.159   2.737  14.038 -0.6694 -2.2537 -0.2597
   75TCq2    H3 1156   2.934   2.750  13.697  0.0966  0.0149  1.0637
   75TCq2    H4 1157   3.304   2.965  13.710  0.1605 -1.5506 -1.5318
   76MPD2     C 1158   2.085   3.585  11.813  0.7613  1.0410  0.1218
   76MPD2    C1 1159   2.192   3.664  11.776 -0.5467 -0.0375 -0.0981
   76MPD2    C2 1160   2.321   3.631  11.822  0.4166 -0.2438  0.3883
   76MPD2    C3 1161   2.335   3.523  11.902  0.7459 -0.1814 -0.1549
   76MPD2    C4 1162   2.233   3.429  11.917 -0.1375  0.3925  0.0809
   76MPD2    C5 1163   2.102   3.463  11.872 -0.1251 -0.1409  0.6964
   76MPD2     H 1164   2.404   3.700  11.807  0.8544 -0.7407  0.5270
   76MPD2    H1 1165   2.254   3.332  11.959  1.1651  0.7168  0.1817
   76MPD2    H2 1166   1.986   3.598  11.771 -0.2651  3.0446  3.1746
   76MPD2    H3 1167   2.028   3.383  11.870 -0.3423  0.0603  0.8288
   76MPD2     N 1168   2.464   3.483  11.954  0.1331  0.3130 -0.3155
   76MPD2    H5 1169   2.483   3.393  11.997  0.4552  0.5869  0.1065
   76MPD2    N1 1170   2.158   3.781  11.706  0.3697  0.4034 -0.2764
   76MPD2    H7 1171   2.060   3.805  11.694  0.7403  0.4376 -3.2157
   77TCq2    C1 1172   2.571   3.567  11.962  0.5960 -0.0170 -0.7169
   77TCq2    O2 1173   2.588   3.686  11.944 -0.0042  0.0924 -0.2189
   77TCq2    C2 1174   2.692   3.484  12.001  0.1154 -0.0047 -0.4192
   77TCq2    C3 1175   2.693   3.354  11.964  0.2805 -0.0339 -0.7883
   77TCq2    C4 1176   2.805   3.282  12.002  1.2269 -0.8020 -0.6678
   77TCq2    C5 1177   2.897   3.342  12.083  0.2896 -0.2381  0.0503
   77TCq2    C6 1178   2.880   3.467  12.126 -0.3262  0.1794  0.1060
   77TCq2    C7 1179   2.782   3.549  12.073  0.3899  0.3121 -0.3576
   77TCq2    C8 1180   2.942   3.507  12.254 -0.5772  0.1028 -0.2582
   77TCq2    O4 1181   2.949   3.423  12.340  0.1268 -0.3216 -0.2325
   77TCq2    C9 1182   2.848   3.168  11.931  0.2758  0.0582 -0.4416
   77TCq2    O5 1183   2.801   3.154  11.815 -0.0913 -0.2631  0.3742
   77TCq2    O6 1184   2.952   3.117  11.971  1.0403 -0.3720 -0.8371
   77TCq2    H2 1185   2.629   3.313  11.888  0.7843 -0.2130 -1.1181
   77TCq2    H3 1186   2.978   3.285  12.127  0.7779 -1.3161 -2.2610
   77TCq2    H4 1187   2.764   3.650  12.107  2.1352  0.4621  0.1135
   78MPD1     C 1188   3.363   3.655   1.587  0.4041 -0.2368 -0.2140
   78MPD1    C1 1189   3.480   3.720   1.566 -0.8490  0.1022 -0.6914
   78MPD1    C2 1190   3.561   3.748   1.676 -0.2323 -0.0420  0.4149
   78MPD1    C3 1191   3.502   3.740   1.802 -0.2490  0.2374 -0.2386
   78MPD1    C4 1192   3.382   3.680   1.820  0.0579 -0.3853 -0.0058
   78MPD1    C5 1193   3.312   3.631   1.710  0.1942  0.5236 -1.0765
   78MPD1     H 1194   3.667   3.766   1.666 -0.2681  0.3087  0.6787
   78MPD1    H1 1195   3.350   3.661   1.921 -0.3822  2.4869  0.4104
   78MPD1    H2 1196   3.296   3.633   1.505 -0.1644 -0.5282  0.3295
   78MPD1    H3 1197   3.215   3.583   1.719 -0.4476  1.8913 -0.7185
   78MPD1     N 1198   3.570   3.768   1.923  0.3409  0.0326  0.1793
   78MPD1    H5 1199   3.522   3.742   2.009 -0.9971  0.7907 -0.3399
   78MPD1    N1 1200   3.527   3.734   1.438 -0.0858 -0.4059  0.0956
   78MPD1    H6 1201   3.455   3.754   1.369  1.5476  2.0202 -0.8951
   78MPD1    H7 1202   3.593   3.812   1.438 -2.3992  1.5599 -2.3841
   79TCq2    C1 1203   3.688   3.831   1.929 -0.1662  0.0483  0.2676
   79TCq2    O2 1204   3.754   3.886   1.844 -0.1295 -0.0888 -0.3248
   79TCq2    C2 1205   3.739   3.845   2.065 -0.6913  0.0973  0.3298
   79TCq2    C3 1206   3.676   3.798   2.182  0.3777  0.2666  0.3061
   79TCq2    C4 1207   3.728   3.847   2.307 -0.2943  0.1547 -0.2111
   79TCq2    C5 1208   3.842   3.923   2.314  0.0792  0.1762 -0.0164
   79TCq2    C6 1209   3.900   3.953   2.194  0.5544 -0.0142 -0.7400
   79TCq2    C7 1210   3.854   3.921   2.072 -0.6433 -0.1225  0.0529
   79TCq2    C8 1211   4.024   4.030   2.198 -0.1186 -0.7046  0.4332
   79TCq2    O4 1212   4.073   4.048   2.088 -0.4804  0.8318 -0.2991
   79TCq2    C9 1213   3.661   3.802   2.423  0.4829  0.2915 -0.7375
   79TCq2    O5 1214   3.567   3.723   2.410 -0.1779 -0.4045 -0.4124
   79TCq2    O6 1215   3.713   3.829   2.540  0.4144 -0.1201 -0.1685
   79TCq2    H2 1216   3.586   3.738   2.187  1.2918 -1.0179  1.3930
   79TCq2    H3 1217   3.861   3.956   2.416  1.9912 -0.9227 -0.0096
   79TCq2    H4 1218   3.902   3.950   1.979 -0.5167 -0.9598 -0.1360
   80MPD2     C 1219   1.202   3.402  11.264  0.3343  0.1005  0.3313
   80MPD2    C1 1220   1.162   3.298  11.340  0.5471 -0.3452 -0.1893
   80MPD2    C2 1221   1.031   3.291  11.379 -0.4958 -0.7178 -0.1713
   80MPD2    C3 1222   0.938   3.392  11.355 -0.4892  0.6374  0.8230
   80MPD2    C4 1223   0.988   3.506  11.289  0.4904 -0.5274  0.8521
   80MPD2    C5 1224   1.115   3.507  11.245  0.6151 -0.3851  0.3003
   80MPD2     H 1225   1.006   3.198  11.430  0.0132 -0.9753 -0.3942
   80MPD2    H1 1226   0.934   3.599  11.281  0.9480 -0.3807 -0.4901
   80MPD2    H2 1227   1.300   3.418  11.219  0.0454  0.0660 -0.3007
   80MPD2    H3 1228   1.140   3.591  11.182 -0.4343 -1.4999 -1.6052
   80MPD2     N 1229   0.817   3.403  11.422  0.3402 -0.0044 -0.0519
   80MPD2    H5 1230   0.758   3.480  11.392  1.1531  1.0728  1.1336
   80MPD2    N1 1231   1.252   3.193  11.376 -0.5347 -0.4047 -0.1868
   80MPD2    H7 1232   1.208   3.135  11.446 -1.1221  0.7223  0.3786
   81TCq2    C1 1233   1.392   3.182  11.342 -0.7781  0.1095 -0.6023
   81TCq2    O2 1234   1.447   3.251  11.255  0.0725 -0.1083  0.0769
   81TCq2    C2 1235   1.482   3.086  11.402  0.0317 -0.4338  0.9005
   81TCq2    C3 1236   1.610   3.074  11.351 -0.2675  0.1176  0.1755
   81TCq2    C4 1237   1.677   2.962  11.386  0.4199 -0.6847  0.2226
   81TCq2    C5 1238   1.622   2.861  11.465 -0.0082 -0.1208 -0.2163
   81TCq2    C6 1239   1.494   2.866  11.495 -0.3405 -0.2107 -0.0940
   81TCq2    C7 1240   1.427   2.981  11.477 -0.4346  0.3250  0.0478
   81TCq2    C8 1241   1.428   2.745  11.540 -0.2737  0.1498  0.1743
   81TCq2    O4 1242   1.484   2.640  11.512 -0.3956  0.0641 -0.1501
   81TCq2    C9 1243   1.824   2.973  11.377  0.2068  0.8694 -0.4808
   81TCq2    O5 1244   1.874   3.085  11.379 -0.7760  0.2729  0.1573
   81TCq2    O6 1245   1.887   2.879  11.432  0.3188  0.2267 -0.2932
   81TCq2    H2 1246   1.654   3.151  11.288  0.1826 -1.6842 -1.7049
   81TCq2    H3 1247   1.682   2.778  11.501  0.1119 -0.6076 -1.5640
   81TCq2    H4 1248   1.329   2.988  11.523 -0.6295 -2.7313  0.0651
   82MPD2     C 1249   4.288   3.274  10.655  0.6384  0.1863 -0.5932
   82MPD2    C1 1250   4.228   3.157  10.613  0.9535 -0.3057 -0.2291
   82MPD2    C2 1251   4.308   3.047  10.601 -0.1461 -0.1416  0.2663
   82MPD2    C3 1252   4.440   3.045  10.632  0.4097  0.0396  0.7302
   82MPD2    C4 1253   4.499   3.160  10.677  0.1613  0.0856 -0.0418
   82MPD2    C5 1254   4.422   3.272  10.683  0.9598  0.1177  0.7285
   82MPD2     H 1255   4.270   2.957  10.554 -1.4328  0.7761 -0.4292
   82MPD2    H1 1256   4.603   3.157  10.709  0.7607  2.1897 -1.8374
   82MPD2    H2 1257   4.232   3.366  10.669 -0.0184  0.0260 -2.2057
   82MPD2    H3 1258   4.478   3.361  10.708 -1.3439  1.2447  1.8335
   82MPD2     N 1259   4.521   2.929  10.614  0.0643  0.2613 -0.0020
   82MPD2    H5 1260   4.620   2.952  10.617  0.5178 -1.6360 -0.5778
   82MPD2    N1 1261   4.091   3.157  10.591 -0.1407  0.2467  0.6838
   82MPD2    H7 1262   4.043   3.246  10.598 -1.1407 -0.2820  0.4081
   83TCq2    C1 1263   4.475   2.801  10.590  0.5982 -0.4107 -0.4759
   83TCq2    O2 1264   4.360   2.761  10.578 -0.2689 -0.1233  0.5203
   83TCq2    C2 1265   4.575   2.701  10.573 -0.3384 -0.0428 -0.9780
   83TCq2    C3 1266   4.690   2.723  10.650  0.0915  0.0576 -0.2372
   83TCq2    C4 1267   0.029   2.624  10.711  0.3773  0.1156  0.0611
   83TCq2    C5 1268   4.696   2.500  10.717  0.8568 -0.8545  0.6986
   83TCq2    C6 1269   4.580   2.478  10.652 -0.0739  0.3659  0.6284
   83TCq2    C7 1270   4.524   2.574  10.578  0.6760  0.2628 -0.1992
   83TCq2    C8 1271   4.489   2.373  10.705  0.2218  0.7287  0.4289
   83TCq2    O4 1272   4.507   2.347  10.820 -0.4324  0.0978  0.0515
   83TCq2    C9 1273   0.148   2.651  10.790 -0.0924 -0.7325 -0.4114
   83TCq2    O5 1274   0.181   2.765  10.822 -0.1154 -0.5449  0.0184
   83TCq2    O6 1275   0.207   2.543  10.814 -0.0243 -0.5269 -0.4697
   83TCq2    H2 1276   0.002   2.822  10.671 -1.8058  0.4061  1.5040
   83TCq2    H3 1277   0.001   2.426  10.790  0.0308 -0.0228  1.8960
   83TCq2    H4 1278   4.432   2.548  10.528  0.8106 -0.2404 -0.1846
   84TCq2    C1 1279   0.723   1.693  10.184  0.5193  0.1092 -0.4543
   84TCq2    O2 1280   0.651   1.612  10.245 -0.3041 -0.5923 -0.2774
   84TCq2    C2 1281   0.768   1.805  10.262 -0.2174  0.6110 -0.1316
   84TCq2    C3 1282   0.826   1.915  10.204 -0.0495 -0.1593  0.3398
   84TCq2    C4 1283   0.834   2.032  10.271  0.1257 -0.1187  0.2249
   84TCq2    C5 1284   0.783   2.041  10.392 -0.5817 -0.1049 -0.1417
   84TCq2    C6 1285   0.713   1.935  10.446 -0.5323  0.0678 -0.4880
   84TCq2    C7 1286   0.703   1.818  10.383  0.2261 -0.6309 -0.2799
   84TCq2    C8 1287   0.626   1.966  10.561 -0.0591  0.5093 -0.0626
   84TCq2    O4 1288   0.650   2.066  10.630 -0.1473  0.0570 -0.6251
   84TCq2    C9 1289   0.926   2.135  10.236  0.1971  0.4827 -0.1478
   84TCq2    O5 1290   0.980   2.129  10.117  0.4900 -0.2135  0.4387
   84TCq2    O6 1291   0.968   2.203  10.335 -0.3629 -0.4359 -0.4133
   84TCq2    H2 1292   0.887   1.907  10.115 -0.3228 -0.5311  0.1882
   84TCq2    H3 1293   0.789   2.135  10.446  1.8336 -0.8207  0.8529
   84TCq2    H4 1294   0.669   1.728  10.434  0.8910  1.5251  3.9322
   85MPD2     C 1295   1.139   4.547  16.376 -0.4149 -0.4430  0.3971
   85MPD2    C1 1296   1.043   4.508  16.282 -0.1267  0.1849 -0.0974
   85MPD2    C2 1297   1.041   4.560  16.154 -0.1333  0.5445  0.0519
   85MPD2    C3 1298   1.142   4.652  16.122 -0.7121 -0.6381 -0.2054
   85MPD2    C4 1299   1.237   4.683  16.214  0.2483 -0.0692 -0.1812
   85MPD2    C5 1300   1.238   4.639  16.343  0.6147 -0.7154  0.3483
   85MPD2     H 1301   0.964   4.523  16.087  0.0651 -1.3702  0.8805
   85MPD2    H1 1302   1.320   0.022  16.186 -0.1675  0.6817  0.3053
   85MPD2    H2 1303   1.146   4.512  16.478 -0.8103 -1.2016  0.1637
   85MPD2    H3 1304   1.311   4.666  16.419  2.7995 -2.1926 -1.2032
   85MPD2     N 1305   1.152   4.692  15.985  0.0068 -0.0957 -0.5369
   85MPD2    H5 1306   1.065   4.678  15.934 -0.1467 -1.2063  0.0325
   85MPD2    N1 1307   0.945   4.412  16.305  0.2421 -0.0286 -0.6454
   85MPD2    H7 1308   0.889   4.384  16.226  2.9484  0.8782 -2.8652
   86TCq2    C1 1309   1.269   0.017  15.932 -0.0983 -0.0488 -0.4744
   86TCq2    O2 1310   1.380   0.025  15.981  0.0254  0.0185 -0.4824
   86TCq2    C2 1311   1.246   0.099  15.804  1.1456  0.2633  0.5651
   86TCq2    C3 1312   1.123   0.106  15.748  0.4351  0.4149  0.4582
   86TCq2    C4 1313   1.115   0.170  15.628 -0.0878  0.2069  0.2132
   86TCq2    C5 1314   1.222   0.223  15.562  0.6591  0.8917 -0.3199
   86TCq2    C6 1315   1.346   0.197  15.613 -0.4608  0.2673 -0.3159
   86TCq2    C7 1316   1.356   0.143  15.740 -0.0985 -0.3892 -0.2918
   86TCq2    C8 1317   1.468   0.250  15.554 -0.1023  0.5523 -0.0532
   86TCq2    O4 1318   1.577   0.218  15.609  0.3242 -0.4756  0.7417
   86TCq2    C9 1319   0.983   0.184  15.569 -0.0046 -0.0901  0.0919
   86TCq2    O5 1320   0.985   0.238  15.454 -0.2445  0.2309  0.1401
   86TCq2    O6 1321   0.882   0.144  15.632 -0.5783  0.5008  0.1888
   86TCq2    H2 1322   1.034   0.069  15.798  0.0501  0.0268 -0.5285
   86TCq2    H3 1323   1.210   0.269  15.465 -1.0447  2.3661  0.5794
   86TCq2    H4 1324   1.453   0.120  15.784  0.6410  1.5872 -0.8594
   87MPD2     C 1325   2.853   3.308   0.667 -0.5994  0.1445  0.5700
   87MPD2    C1 1326   2.879   3.404   0.764  0.6577 -0.4390 -0.3619
   87MPD2    C2 1327   2.798   3.519   0.774 -0.5636 -0.0088 -0.3976
   87MPD2    C3 1328   2.680   3.530   0.692 -0.3110  0.2546 -0.3174
   87MPD2    C4 1329   2.651   3.427   0.608  0.2996 -0.0530  0.3053
   87MPD2    C5 1330   2.732   3.312   0.602 -0.8203  0.5359 -0.0028
   87MPD2     H 1331   2.827   3.601   0.839  3.6194 -2.7449  1.2464
   87MPD2    H1 1332   2.568   3.432   0.538  1.2464  2.0864 -0.6525
   87MPD2    H2 1333   2.912   3.216   0.670 -0.1711  0.3544 -1.3088
   87MPD2    H3 1334   2.700   3.231   0.537  0.3537  0.6151 -0.6660
   87MPD2     N 1335   2.604   3.650   0.694  0.2654  0.7929 -0.0059
   87MPD2    H5 1336   2.522   3.639   0.635  0.7665 -1.5189 -0.2677
   87MPD2    N1 1337   2.995   3.388   0.845 -0.5457  0.1743  0.7291
   87MPD2    H7 1338   3.059   3.314   0.820 -1.0363  0.1181 -0.3739
   88TCq2    C1 1339   3.023   3.463   0.957 -0.6419  0.3874  0.1571
   88TCq2    O2 1340   2.966   3.564   1.007 -0.4164 -0.2314  0.1055
   88TCq2    C2 1341   3.135   3.408   1.036  0.0072  0.0607  0.2388
   88TCq2    C3 1342   3.120   3.410   1.175  0.3075  0.2918  0.3498
   88TCq2    C4 1343   3.198   3.320   1.246 -0.0271  0.1089  0.7209
   88TCq2    C5 1344   3.297   3.241   1.190  0.4615 -0.0768  0.4739
   88TCq2    C6 1345   3.292   3.232   1.052  1.0710  0.9652  0.3406
   88TCq2    C7 1346   3.217   3.317   0.975  0.2375  0.3000  0.0032
   88TCq2    C8 1347   3.381   3.148   0.974  0.5079  0.1271 -0.6826
   88TCq2    O4 1348   3.391   3.154   0.853 -0.0967  0.1758 -0.2014
   88TCq2    C9 1349   3.191   3.334   1.389 -0.0762  0.1446  0.4768
   88TCq2    O5 1350   3.136   3.435   1.440  0.3387 -0.6538 -0.5746
   88TCq2    O6 1351   3.242   3.245   1.463 -0.2940  0.0204  0.1405
   88TCq2    H2 1352   3.059   3.485   1.224 -0.3367  0.8945 -1.3779
   88TCq2    H3 1353   3.363   3.188   1.258 -1.0328 -0.1774  1.8518
   88TCq2    H4 1354   3.200   3.292   0.871 -1.5439 -1.2735  0.6791
   89MPD2     C 1355   4.608   1.514   1.870 -0.0955 -0.0649 -0.9301
   89MPD2    C1 1356   4.561   1.637   1.825 -0.2928 -0.4351  0.2652
   89MPD2    C2 1357   4.616   1.750   1.873  0.1212 -0.3672  0.1953
   89MPD2    C3 1358   4.702   1.746   1.977  0.6185  0.0343  0.2139
   89MPD2    C4 1359   0.011   1.628   2.026  0.2121  0.0071 -0.3166
   89MPD2    C5 1360   4.685   1.508   1.976 -0.6326  0.4370 -0.3133
   89MPD2     H 1361   4.600   1.850   1.835  0.8856 -0.4650 -0.3714
   89MPD2    H1 1362   0.066   1.622   2.120  1.4165  0.3059 -1.0069
   89MPD2    H2 1363   4.574   1.414   1.842  0.4540 -0.2476 -0.9421
   89MPD2    H3 1364   4.714   1.411   2.015  0.1050  0.2813 -1.2578
   89MPD2     N 1365   0.031   1.869   2.025  0.2336  0.2911 -0.2742
   89MPD2    H5 1366   0.007   1.958   1.982 -0.9890  0.8683  1.5716
   89MPD2    N1 1367   4.466   1.652   1.724 -0.3485 -0.4277  0.3277
   89MPD2    H7 1368   4.460   1.749   1.695 -2.1401 -1.1622 -1.7728
   90TCq2    C1 1369   0.125   1.882   2.126 -0.8175 -0.1411  0.3394
   90TCq2    O2 1370   0.172   1.806   2.210  0.1307 -0.6115 -0.1763
   90TCq2    C2 1371   0.154   2.019   2.154  0.1670 -0.0172 -0.7545
   90TCq2    C3 1372   0.281   2.037   2.174  0.2018  0.0810  1.0248
   90TCq2    C4 1373   0.349   2.139   2.116  0.7366 -0.0229 -0.2516
   90TCq2    C5 1374   0.289   2.233   2.046 -0.4876 -0.4588  0.3746
   90TCq2    C6 1375   0.154   2.212   2.039  0.2006  0.0921 -0.1756
   90TCq2    C7 1376   0.079   2.110   2.088  0.9652  0.9459 -0.0744
   90TCq2    C8 1377   0.077   2.318   1.972 -0.0954  0.4550 -0.7144
   90TCq2    O4 1378   4.680   2.309   1.958  0.0936 -0.0299  0.1959
   90TCq2    C9 1379   0.493   2.153   2.134  0.3177 -0.8087  0.4889
   90TCq2    O5 1380   0.561   2.060   2.192  0.1855 -0.2269 -0.0237
   90TCq2    O6 1381   0.545   2.263   2.108 -0.3305  0.5772 -0.0432
   90TCq2    H2 1382   0.345   1.960   2.216  0.5497  0.7151  1.6430
   90TCq2    H3 1383   0.347   2.320   2.019  1.7390 -1.2167  2.7044
   90TCq2    H4 1384   4.698   2.112   2.111  0.8545 -0.5316 -0.4573
   91TMC2    C1 1385   1.275   1.392  15.999  0.5253 -0.4904 -0.4488
   91TMC2    C2 1386   1.224   1.437  15.877 -0.9998  1.2648  0.5442
   91TMC2    C3 1387   1.110   1.391  15.826  0.6980  0.1986 -0.3034
   91TMC2    C4 1388   1.202   1.293  16.056 -0.2936  0.8064 -0.0456
   91TMC2    C5 1389   1.091   1.241  15.999  0.0796  0.0327  0.0415
   91TMC2    C6 1390   1.041   1.288  15.883 -0.1526 -0.4721 -0.3657
   91TMC2     C 1391   1.397   1.455  16.055 -0.4434  0.2656 -0.4597
   91TMC2     O 1392   1.427   1.558  16.000 -0.2466  0.3323  0.3838
   91TMC2     H 1393   1.266   1.520  15.821 -0.5877  1.1275  0.6503
   91TMC2    H1 1394   1.229   1.258  16.154 -1.2137  0.1343 -0.0293
   91TMC2    H2 1395   0.949   1.262  15.833  0.1480  0.3297 -1.3401
   91TMC2    C7 1396   1.028   1.130  16.072 -0.3355 -0.0357  0.4381
   91TMC2    C8 1397   1.027   1.478  15.746 -0.0071 -0.5520 -0.1240
   91TMC2    O1 1398   1.055   1.119  16.188 -0.8988 -0.4209 -0.0546
   91TMC2    O2 1399   0.955   1.562  15.798 -0.3356  0.5332  0.0550
   91TMC2    O5 1400   1.097   1.499  15.635  0.2845 -0.1121  0.1536
   91TMC2    H5 1401   1.171   1.436  15.623  1.8858  2.2925 -2.8327
   92MPD2     C 1402   1.674   1.522  16.134 -0.3247 -0.1029 -0.1991
   92MPD2    C1 1403   1.601   1.423  16.197 -0.0975  0.4425  0.7759
   92MPD2    C2 1404   1.658   1.369  16.313  0.7609 -0.0437  0.0864
   92MPD2    C3 1405   1.791   1.397  16.350 -0.0165  0.2098 -0.0060
   92MPD2    C4 1406   1.867   1.495  16.280 -0.4255  0.0773 -0.0890
   92MPD2    C5 1407   1.805   1.556  16.174  0.5927  0.2038  0.2597
   92MPD2     H 1408   1.607   1.300  16.380 -0.2687  2.3722  1.7752
   92MPD2    H1 1409   1.966   1.535  16.303 -0.8017  0.2131  1.2875
   92MPD2    H2 1410   1.643   1.573  16.043 -1.2989  2.1637  1.4202
   92MPD2    H3 1411   1.855   1.631  16.114  0.3702 -0.7993 -1.1867
   92MPD2     N 1412   1.842   1.331  16.466 -0.0923 -0.1839  0.6985
   92MPD2    H5 1413   1.780   1.269  16.516 -0.1440 -0.7831 -0.1078
   92MPD2    N1 1414   1.466   1.388  16.160 -0.4315 -0.2468 -0.1766
   92MPD2    H7 1415   1.417   1.315  16.212 -0.3408 -1.2770 -1.5633
   93MPD2     C 1416   2.987   0.422  13.394  0.4972 -0.2155 -0.1834
   93MPD2    C1 1417   2.927   0.547  13.363  0.4250 -0.6255 -0.6255
   93MPD2    C2 1418   2.791   0.547  13.335 -0.0486 -0.1507  0.5677
   93MPD2    C3 1419   2.713   0.432  13.321  0.0538  0.5157 -0.4454
   93MPD2    C4 1420   2.777   0.314  13.346  0.8681 -0.3802  0.2780
   93MPD2    C5 1421   2.908   0.310  13.389  0.2493  0.5278  0.5338
   93MPD2     H 1422   2.747   0.644  13.313 -0.9317 -1.1961 -2.2415
   93MPD2    H1 1423   2.717   0.224  13.348 -0.1549  0.3310  2.5308
   93MPD2    H2 1424   3.089   0.416  13.429  1.1540 -0.6531 -2.2354
   93MPD2    H3 1425   2.937   0.208  13.407  0.4318  0.8108  1.8290
   93MPD2     N 1426   2.588   0.443  13.270  0.0070 -0.0263 -0.0770
   93MPD2    H5 1427   2.552   0.535  13.244 -1.6771 -0.3082  1.2439
   93MPD2    N1 1428   2.988   0.675  13.378 -0.1756  0.2709  0.1334
   93MPD2    H7 1429   2.920   0.749  13.362 -0.8225  0.1246  2.3204
   94TCq2    C1 1430   3.120   0.700  13.407  0.2352 -0.5063 -0.7835
   94TCq2    O2 1431   3.213   0.619  13.412  0.3526  0.8911 -0.4375
   94TCq2    C2 1432   3.161   0.843  13.421  0.1741 -0.4982  0.4032
   94TCq2    C3 1433   3.059   0.933  13.421 -0.2001 -0.4923  0.6642
   94TCq2    C4 1434   3.088   1.059  13.463 -0.3266  0.2744  0.0110
   94TCq2    C5 1435   3.212   1.095  13.508 -0.2181 -0.4001  0.5789
   94TCq2    C6 1436   3.312   1.002  13.502  0.3731  0.3940  0.8806
   94TCq2    C7 1437   3.283   0.870  13.475  0.3461 -0.5227  0.5452
   94TCq2    C8 1438   3.453   1.040  13.519  0.3198  1.1719 -0.2928
   94TCq2    O4 1439   3.529   0.951  13.544  0.8550  0.3361  0.0637
   94TCq2    C9 1440   2.984   1.158  13.472  0.0038 -0.4365 -0.3748
   94TCq2    O5 1441   3.019   1.273  13.473  0.1136  0.5749  0.7546
   94TCq2    O6 1442   2.865   1.113  13.472  0.7710  0.0045 -0.0522
   94TCq2    H2 1443   2.961   0.911  13.380 -0.3256  1.0646  0.1160
   94TCq2    H3 1444   3.223   1.197  13.543 -0.8241 -0.2353  0.2976
   94TCq2    H4 1445   3.366   0.802  13.461  0.1523 -0.8526  0.9729
   95TMC2    C1 1446   2.772   2.895  16.159 -0.3143  0.2887 -0.6246
   95TMC2    C2 1447   2.778   2.759  16.132  0.2612 -0.2376  0.0264
   95TMC2    C3 1448   2.737   2.672  16.230 -0.0600  0.0262  0.4495
   95TMC2    C4 1449   2.736   2.950  16.279 -0.1895 -0.1151  0.2030
   95TMC2    C5 1450   2.724   2.857  16.377 -0.1500 -0.3183  0.3974
   95TMC2    C6 1451   2.715   2.724  16.355  0.3755 -0.2839 -0.2300
   95TMC2     C 1452   2.818   2.985  16.064  0.5574 -0.5801  0.3114
   95TMC2     O 1453   2.873   2.919  15.975  0.3237 -0.2451 -0.2867
   95TMC2     H 1454   2.819   2.728  16.036 -1.0667  1.4535 -1.0966
   95TMC2    H1 1455   2.756   3.052  16.308 -0.4274  0.2764 -1.0096
   95TMC2    H2 1456   2.696   2.650  16.431  1.8161 -0.4872 -0.0615
   95TMC2    C7 1457   2.668   2.899  16.509  0.6869  0.4448 -0.4289
   95TMC2    C8 1458   2.722   2.531  16.210 -0.4659  0.1540  0.1241
   95TMC2    O1 1459   2.648   2.809  16.590 -0.4098  0.3650 -0.1024
   95TMC2    O2 1460   2.782   2.440  16.264  0.3109  0.2520 -0.3292
   95TMC2    O5 1461   2.689   2.540  16.077 -0.2226  0.1915 -0.5140
   95TMC2    H5 1462   2.624   2.612  16.064 -0.0343  0.4235 -0.1493
   96MPD2     C 1463   2.971   3.429  15.860 -0.2640 -0.2158  0.0714
   96MPD2    C1 1464   3.013   3.300  15.828  0.1501  0.4010 -0.5362
   96MPD2    C2 1465   2.948   3.195  15.897 -0.1088  0.1975  0.1111
   96MPD2    C3 1466   2.860   3.221  15.999  0.1139  0.7281  0.2338
   96MPD2    C4 1467   2.821   3.348  16.024 -0.5078 -0.0823  0.2030
   96MPD2    C5 1468   2.881   3.455  15.957 -0.6951  0.1919 -0.0422
   96MPD2     H 1469   2.991   3.096  15.885 -0.5374  0.1406 -0.9299
   96MPD2    H1 1470   2.750   3.370  16.102  0.3292  1.4053  0.5446
   96MPD2    H2 1471   3.012   3.507  15.798 -2.5070 -0.2062 -1.3965
   96MPD2    H3 1472   2.837   3.551  15.980  0.3124  0.5225  0.4968
   96MPD2     N 1473   2.803   3.122  16.081  0.5435 -0.0469  0.0554
   96MPD2    H5 1474   2.739   3.156  16.153 -0.4103 -0.1188 -0.7640
   96MPD2    N1 1475   3.107   3.278  15.730  0.1516  0.5825 -0.2477
   96MPD2    H7 1476   3.158   3.362  15.702 -1.1941  1.7920  0.9337
   97MPD2     C 1477   0.610   0.290   0.945 -0.6142 -0.0180 -0.3012
   97MPD2    C1 1478   0.649   0.421   0.942  0.3633 -0.1324 -0.1857
   97MPD2    C2 1479   0.641   0.484   0.824 -0.3869 -0.1343  0.0753
   97MPD2    C3 1480   0.588   0.430   0.709 -0.0647  0.1407 -0.4438
   97MPD2    C4 1481   0.555   0.296   0.706 -1.1718  0.3430  0.2915
   97MPD2    C5 1482   0.566   0.231   0.828 -0.0527 -0.3589  0.3871
   97MPD2     H 1483   0.676   0.587   0.827 -1.4405  0.1787  1.7647
   97MPD2    H1 1484   0.520   0.243   0.618 -0.4529 -1.5351  1.1306
   97MPD2    H2 1485   0.603   0.236   1.039  1.8315 -0.4253 -0.3463
   97MPD2    H3 1486   0.541   0.126   0.839 -0.4011  0.0086  3.2085
   97MPD2     N 1487   0.570   0.511   0.589  0.4096  0.3999  0.0975
   97MPD2    H5 1488   0.543   0.468   0.502  3.1977 -0.8708 -0.1629
   97MPD2    N1 1489   0.690   0.478   1.067 -0.3283  0.2660  0.2229
   97MPD2    H7 1490   0.702   0.418   1.149  1.4458 -0.5339 -0.6303
   98TCq2    C1 1491   0.598   0.645   0.577  0.8169 -0.5810  0.7250
   98TCq2    O2 1492   0.640   0.730   0.651  0.1150 -0.0573 -0.5841
   98TCq2    C2 1493   0.579   0.692   0.442  0.3893 -0.5097 -0.1296
   98TCq2    C3 1494   0.480   0.636   0.357  0.4462 -0.6736 -0.3529
   98TCq2    C4 1495   0.438   0.709   0.246  0.2083 -0.3741 -0.6793
   98TCq2    C5 1496   0.482   0.836   0.223  0.2163  0.4305 -0.1906
   98TCq2    C6 1497   0.573   0.890   0.307  0.2101  0.7847  0.4421
   98TCq2    C7 1498   0.623   0.818   0.411 -0.6867  0.1458  0.4526
   98TCq2    C8 1499   0.604   1.034   0.308 -0.3391  0.2636 -0.1589
   98TCq2    O4 1500   0.707   1.068   0.363  1.6029 -0.0851  0.4833
   98TCq2    C9 1501   0.340   0.649   0.155  0.1487 -1.0420  0.1347
   98TCq2    O5 1502   0.301   0.530   0.181 -0.1977  0.4867  0.1065
   98TCq2    O6 1503   0.296   0.728   0.070 -0.0914  0.0809 -0.1964
   98TCq2    H2 1504   0.436   0.540   0.383 -0.5469  0.1314  0.9381
   98TCq2    H3 1505   0.451   0.890   0.135  0.6107  0.2383 -0.4507
   98TCq2    H4 1506   0.701   0.860   0.474 -1.6191  3.0171 -0.2706
   99MPD2     C 1507   4.108   3.284   1.725  0.4343 -0.2453 -0.5019
   99MPD2    C1 1508   4.132   3.152   1.694 -0.0748 -0.2275  0.4506
   99MPD2    C2 1509   4.197   3.125   1.577 -0.8612 -0.3567  0.1559
   99MPD2    C3 1510   4.248   3.228   1.492  0.1677  0.0421  0.8727
   99MPD2    C4 1511   4.230   3.356   1.525  0.3877 -0.3810  0.2951
   99MPD2    C5 1512   4.159   3.378   1.644 -0.0176 -0.0317 -0.2324
   99MPD2     H 1513   4.221   3.023   1.548 -0.4179 -0.1378 -0.2518
   99MPD2    H1 1514   4.260   3.435   1.457  0.2102 -0.5931 -0.0338
   99MPD2    H2 1515   4.049   3.322   1.808 -0.4505 -0.1196 -1.1842
   99MPD2    H3 1516   4.140   3.483   1.665 -1.3758 -0.1038 -1.1061
   99MPD2     N 1517   4.295   3.188   1.366 -0.8238 -0.0481 -0.5623
   99MPD2    H5 1518   4.300   3.087   1.362  2.0403  0.0442  0.9213
   99MPD2    N1 1519   4.068   3.043   1.761  0.3136 -0.2238  0.5832
   99MPD2    H7 1520   4.070   2.953   1.714 -2.2235 -0.4303  0.8532
  100TCq2    C1 1521   3.996   3.060   1.877  0.0106 -0.3338  0.3902
  100TCq2    O2 1522   3.983   3.159   1.945  0.2248  0.4588 -0.2009
  100TCq2    C2 1523   3.921   2.933   1.911 -0.6468 -0.3057 -0.7164
  100TCq2    C3 1524   3.975   2.813   1.879  0.3996  0.0540 -0.2383
  100TCq2    C4 1525   3.895   2.707   1.842 -0.0902  0.5919  0.3830
  100TCq2    C5 1526   3.757   2.720   1.853  0.9194 -0.2265  0.1709
  100TCq2    C6 1527   3.704   2.830   1.912 -0.2882 -0.4293 -0.6389
  100TCq2    C7 1528   3.783   2.942   1.935 -0.3954 -0.3657 -0.1419
  100TCq2    C8 1529   3.561   2.858   1.900 -0.2132 -0.0356 -0.0866
  100TCq2    O4 1530   3.516   2.968   1.933  0.3471 -0.0737  0.2193
  100TCq2    C9 1531   3.950   2.576   1.798  0.2637  0.3162 -0.3793
  100TCq2    O5 1532   4.072   2.570   1.812 -0.0252 -0.8051 -0.3765
  100TCq2    O6 1533   3.869   2.488   1.769  0.0881 -0.6950 -0.1251
  100TCq2    H2 1534   4.081   2.811   1.855  0.5216 -1.0001  0.3869
  100TCq2    H3 1535   3.694   2.632   1.844  1.5037 -0.4513 -1.7920
  100TCq2    H4 1536   3.733   3.031   1.973  0.0442  0.0737 -0.6002
  101MPD2     C 1537   4.701   3.722  12.869  0.3498 -0.7047  0.0352
  101MPD2    C1 1538   4.581   3.787  12.853  0.6308  0.2118  0.8658
  101MPD2    C2 1539   4.474   3.730  12.919  0.6144  0.5263 -0.3055
  101MPD2    C3 1540   4.480   3.608  12.988 -0.8946  0.0273  0.8698
  101MPD2    C4 1541   4.600   3.547  13.007 -0.7392  0.2457 -0.1325
  101MPD2    C5 1542   4.701   3.604  12.935  0.0858 -0.4625 -0.8977
  101MPD2     H 1543   4.379   3.782  12.910 -0.3510 -1.0758  0.7311
  101MPD2    H1 1544   4.613   3.456  13.063  0.9911  0.8274  0.4052
  101MPD2    H2 1545   0.065   3.763  12.824  1.5393 -1.0057  2.1466
  101MPD2    H3 1546   0.074   3.561  12.950 -0.5314 -1.0491  1.4732
  101MPD2     N 1547   4.368   3.545  13.046  0.5250 -0.0425  0.6236
  101MPD2    H5 1548   4.286   3.604  13.044 -1.0841 -2.3640 -1.1770
  101MPD2    N1 1549   4.582   3.906  12.777 -0.2906 -0.2278  0.2805
  101MPD2    H7 1550   4.673   3.939  12.745 -0.6060  3.0161  2.6297
  102TCq2    C1 1551   0.007   4.154  12.361  0.6100  0.4107 -0.0277
  102TCq2    O2 1552   0.100   4.082  12.396  0.2730 -0.0929 -0.7705
  102TCq2    C2 1553   4.616   4.169  12.452  0.1427  0.3545  0.2208
  102TCq2    C3 1554   4.527   4.267  12.442  0.5586  0.1239 -0.1676
  102TCq2    C4 1555   4.436   4.279  12.541  0.6712  0.1478  1.0654
  102TCq2    C5 1556   4.424   4.190  12.644  0.1238 -0.3639 -0.3889
  102TCq2    C6 1557   4.523   4.095  12.655 -0.0704 -0.1024 -0.1238
  102TCq2    C7 1558   4.619   4.077  12.554 -0.0806  0.3242 -0.6616
  102TCq2    C8 1559   4.479   3.981  12.741 -0.4572  0.1695  0.0603
  102TCq2    O4 1560   4.359   3.957  12.756  0.1397 -0.0557 -0.1739
  102TCq2    C9 1561   4.341   4.385  12.530  0.4615 -0.6024 -0.1965
  102TCq2    O5 1562   4.290   4.425  12.635 -0.0996  0.0453 -0.2010
  102TCq2    O6 1563   4.339   4.449  12.424  0.1512 -0.0921  0.6268
  102TCq2    H2 1564   4.533   4.344  12.366  0.7598  0.6929  0.4237
  102TCq2    H3 1565   4.336   4.183  12.706 -0.5763  1.5857 -1.1704
  102TCq2    H4 1566   4.675   3.984  12.553  0.8781  0.8784  2.7270
  103TMC2    C1 1567   2.999   3.542  12.935 -0.1722 -0.2559  0.4164
  103TMC2    C2 1568   3.111   3.590  13.002 -1.1451 -0.3113 -0.1376
  103TMC2    C3 1569   3.113   3.553  13.134  0.6054  0.0599 -0.4772
  103TMC2    C4 1570   2.894   3.485  12.996  0.2156 -0.2286 -0.5580
  103TMC2    C5 1571   2.899   3.455  13.131  0.2366 -0.2876  0.2044
  103TMC2    C6 1572   3.012   3.487  13.202 -0.1340 -0.4748  0.3556
  103TMC2     C 1573   2.985   3.576  12.798  0.2158 -0.0149 -0.7233
  103TMC2     O 1574   2.910   3.504  12.737 -0.1736 -0.5364 -0.2805
  103TMC2     H 1575   3.203   3.605  12.946 -1.2099  0.9822  0.0949
  103TMC2    H1 1576   2.804   3.446  12.949 -0.5158 -1.1325  1.5958
  103TMC2    H2 1577   3.018   3.464  13.308  1.3904  0.6940  0.5235
  103TMC2    C7 1578   2.792   3.396  13.211  0.1638  0.2904  0.4349
  103TMC2    C8 1579   3.218   3.601  13.215 -0.4535 -0.5412 -0.0994
  103TMC2    O1 1580   2.805   3.409  13.331 -0.5057  0.2923 -0.6558
  103TMC2    O2 1581   3.235   3.560  13.329  0.5352  0.6700  0.3914
  103TMC2    O5 1582   3.235   3.726  13.180  0.0392  0.7488 -0.0322
  103TMC2    H5 1583   3.201   3.748  13.090 -1.4889  0.5526  0.5001
  104MPD2     C 1584   3.167   3.821  12.587  0.0161  0.4430  0.1763
  104MPD2    C1 1585   3.085   3.713  12.618 -0.1174  0.6430  0.1509
  104MPD2    C2 1586   3.026   3.644  12.508 -0.3330 -0.2164  0.4032
  104MPD2    C3 1587   3.041   3.698  12.379  0.7806 -0.0765 -0.4708
  104MPD2    C4 1588   3.118   3.815  12.362  0.0642  0.4006 -0.3175
  104MPD2    C5 1589   3.189   3.866  12.464 -0.7805 -0.4540  0.4974
  104MPD2     H 1590   2.966   3.556  12.525 -0.6339  0.0169  0.5664
  104MPD2    H1 1591   3.134   3.867  12.269 -1.6345  0.3774 -0.6265
  104MPD2    H2 1592   3.241   3.855  12.659 -0.6558  2.4090 -0.0833
  104MPD2    H3 1593   3.248   3.956  12.449  0.7701 -1.0638  2.8976
  104MPD2     N 1594   2.982   3.637  12.264 -0.5207 -0.2607  0.1692
  104MPD2    H5 1595   2.996   3.685  12.176  2.0879 -2.1073 -0.4220
  104MPD2    N1 1596   3.069   3.681  12.753 -0.1925  0.2360 -0.3138
  104MPD2    H7 1597   3.107   3.741  12.826 -0.5014 -0.3438  0.3179
  105MPD2     C 1598   4.520   2.854  17.684 -0.7589  0.3009  0.1235
  105MPD2    C1 1599   4.451   2.975  17.696  0.2906  0.2319 -0.2497
  105MPD2    C2 1600   4.345   2.995   0.076 -0.6573 -0.4114 -0.0502
  105MPD2    C3 1601   4.317   2.896   0.169  0.5459  0.3041 -0.0778
  105MPD2    C4 1602   4.391   2.780   0.172  0.2350  0.1430  0.2994
  105MPD2    C5 1603   4.485   2.760   0.072  0.1595 -0.6947  0.5710
  105MPD2     H 1604   4.281   3.082   0.069  1.6770  1.5334  3.3381
  105MPD2    H1 1605   4.395   2.721   0.262  1.1456 -0.4023 -0.0958
  105MPD2    H2 1606   4.606   2.844  17.619 -1.8153 -2.8858 -0.7716
  105MPD2    H3 1607   4.560   2.685   0.094  1.9405  1.4997  1.9042
  105MPD2     N 1608   4.214   2.908   0.255  0.4509  0.3081  0.9469
  105MPD2    H5 1609   4.159   2.994   0.253  1.0883  0.7151  0.7005
  105MPD2    N1 1610   4.474   3.087  17.601 -0.4424 -0.4857  0.4874
  105MPD2    H7 1611   4.404   3.160  17.601 -0.5855 -0.6147 -0.3474
  106TCq2    C1 1612   4.167   2.818   0.345 -0.6332 -0.7563 -0.0654
  106TCq2    O2 1613   4.199   2.704   0.380  0.0049  0.4078  0.3123
  106TCq2    C2 1614   4.040   2.862   0.395  0.2411 -0.3383  0.3477
  106TCq2    C3 1615   3.961   2.950   0.323  0.4457  0.1771 -0.2708
  106TCq2    C4 1616   3.828   2.951   0.367  0.7732 -0.7930  0.1077
  106TCq2    C5 1617   3.775   2.882   0.472  0.1840  0.3790  0.6926
  106TCq2    C6 1618   3.861   2.804   0.537 -0.0382 -1.0889  0.0261
  106TCq2    C7 1619   3.989   2.786   0.494 -0.0558  0.1193  0.1663
  106TCq2    C8 1620   3.827   2.768   0.675 -0.2779  1.5573  0.1413
  106TCq2    O4 1621   3.889   2.676   0.726 -0.1829  0.6226  0.3864
  106TCq2    C9 1622   3.729   3.031   0.295 -0.1529  0.8925 -0.4972
  106TCq2    O5 1623   3.606   3.020   0.339 -0.7155 -0.5864 -0.2530
  106TCq2    O6 1624   3.773   3.131   0.226  0.4051 -0.2915  0.0577
  106TCq2    H2 1625   3.990   3.009   0.237  4.1130 -2.0499 -0.5398
  106TCq2    H3 1626   3.670   2.891   0.494 -0.2368  0.2190 -1.2825
  106TCq2    H4 1627   4.057   2.725   0.553  2.0303  0.8022 -1.5081
  107TMC2    C1 1628   0.410   2.156  11.500 -0.1728 -0.3730  0.4652
  107TMC2    C2 1629   0.539   2.201  11.492 -0.5211  0.5278  1.0932
  107TMC2    C3 1630   0.612   2.167  11.382  0.0100  0.2503  0.9357
  107TMC2    C4 1631   0.351   2.080  11.404  0.3415  0.6909 -0.7615
  107TMC2    C5 1632   0.426   2.067  11.292 -0.1652  0.3617 -0.3671
  107TMC2    C6 1633   0.561   2.090  11.288  0.1221 -1.0100 -0.6689
  107TMC2     C 1634   0.349   2.158  11.633 -0.3974  0.1313  0.5963
  107TMC2     O 1635   0.230   2.129  11.633 -0.2276  0.0166 -0.0098
  107TMC2     H 1636   0.590   2.251  11.573  0.6669  2.5652 -0.9234
  107TMC2    H1 1637   0.244   2.061  11.407  0.8260 -1.7357  1.4888
  107TMC2    H2 1638   0.614   2.060  11.198  1.9196  1.1060 -0.3342
  107TMC2    C7 1639   0.351   1.992  11.183 -0.2470 -0.5434 -0.1249
  107TMC2    C8 1640   0.730   2.245  11.358  0.1782 -0.5323  0.1327
  107TMC2    O1 1641   0.238   1.944  11.208 -0.0497  0.4133 -0.6059
  107TMC2    O2 1642   0.726   2.368  11.348 -0.4713  0.3435 -0.5819
  107TMC2    O5 1643   0.810   2.173  11.280  0.3022 -0.3079 -0.2874
  107TMC2    H5 1644   0.814   2.078  11.303 -0.2182  0.1056  1.4839
  108MPD2     C 1645   0.502   2.168  11.956 -1.1571 -0.4163  0.4490
  108MPD2    C1 1646   0.401   2.196  11.871 -0.2319  0.5836  0.2754
  108MPD2    C2 1647   0.273   2.230  11.912 -0.0400  0.4997  0.4751
  108MPD2    C3 1648   0.247   2.242  12.045 -0.3824  0.0762  0.5535
  108MPD2    C4 1649   0.352   2.216  12.133  0.4753  0.0938 -0.0721
  108MPD2    C5 1650   0.475   2.178  12.091 -0.0399 -0.3811 -0.7119
  108MPD2     H 1651   0.202   2.257  11.835  0.1012  0.6892  0.4118
  108MPD2    H1 1652   0.331   2.216  12.239 -0.3517 -0.2861 -0.2399
  108MPD2    H2 1653   0.605   2.150  11.927 -1.3573  0.6510 -0.9323
  108MPD2    H3 1654   0.555   2.162  12.163  0.4538  1.9865 -0.7297
  108MPD2     N 1655   0.123   2.297  12.096 -0.3050 -1.1580 -0.0925
  108MPD2    H5 1656   0.115   2.320  12.195  1.1623 -0.2800 -0.1787
  108MPD2    N1 1657   0.433   2.179  11.741 -0.0950 -0.2972  0.5154
  108MPD2    H7 1658   0.533   2.161  11.734 -0.1516 -0.7310  0.8109
  109MPD2     C 1659   0.380   4.371   2.403  0.5257 -0.1918 -0.1404
  109MPD2    C1 1660   0.363   4.423   2.278 -0.1463  0.3208 -0.5547
  109MPD2    C2 1661   0.481   4.464   2.214  0.2328 -0.2813  0.0501
  109MPD2    C3 1662   0.606   4.460   2.280  0.1410 -1.2016  0.2587
  109MPD2    C4 1663   0.610   4.409   2.410 -0.1405 -0.1370 -1.1477
  109MPD2    C5 1664   0.492   4.364   2.470 -0.4249  0.3302  0.3579
  109MPD2     H 1665   0.484   4.481   2.107 -3.3173  0.0255  0.0188
  109MPD2    H1 1666   0.700   4.400   2.470 -0.8884 -1.8383 -0.2893
  109MPD2    H2 1667   0.293   4.336   2.456  0.5871  0.1104  0.1605
  109MPD2    H3 1668   0.498   4.325   2.571  1.4059  2.4945  1.0784
  109MPD2     N 1669   0.728   4.499   2.220  0.7571 -0.1222  0.9779
  109MPD2    H5 1670   0.816   4.477   2.266  0.4095 -1.0829  1.1652
  109MPD2    N1 1671   0.237   4.428   2.210 -0.2016  0.4305  0.0758
  109MPD2    H7 1672   0.160   4.386   2.262  2.3221 -3.2897  0.7812
  110TCq2    C1 1673   0.737   4.567   2.102  0.9388  0.0411 -0.0164
  110TCq2    O2 1674   0.644   4.615   2.038 -0.8709 -0.1885 -0.1668
  110TCq2    C2 1675   0.875   4.606   2.061  0.2991 -0.1561 -0.4987
  110TCq2    C3 1676   0.984   4.578   2.138 -1.1353 -0.4351 -1.0301
  110TCq2    C4 1677   1.109   4.623   2.101 -0.4285  0.3766  0.1370
  110TCq2    C5 1678   1.123   4.710   1.999  0.0361 -0.2591  0.5408
  110TCq2    C6 1679   1.011   0.012   1.927 -0.4359  0.5818  0.9892
  110TCq2    C7 1680   0.890   4.676   1.945 -0.5299  0.2196 -0.1688
  110TCq2    C8 1681   1.017   0.142   1.854  0.4262 -0.3364 -0.2815
  110TCq2    O4 1682   0.936   0.165   1.767  0.5154 -0.4320  0.3097
  110TCq2    C9 1683   1.231   4.587   2.176 -0.1793 -0.2057 -0.2906
  110TCq2    O5 1684   1.342   4.640   2.139 -0.3795 -0.1761 -0.1545
  110TCq2    O6 1685   1.219   4.487   2.248 -0.2244 -0.8681 -0.4625
  110TCq2    H2 1686   0.972   4.521   2.229 -0.6267 -0.5955 -1.0628
  110TCq2    H3 1687   1.218   0.028   1.969  0.5722 -2.5235 -1.0087
  110TCq2    H4 1688   0.807   4.709   1.884  0.6613 -0.1316 -1.9814
  111TMC2    C1 1689   0.925   4.705  11.311 -0.2871 -0.1740  0.2052
  111TMC2    C2 1690   1.018   0.005  11.219 -0.1937 -0.7318 -0.0566
  111TMC2    C3 1691   1.149   4.684  11.247  0.0298 -0.7006  0.6144
  111TMC2    C4 1692   0.946   4.651  11.426  0.0379 -0.3775 -0.1802
  111TMC2    C5 1693   1.076   4.603  11.454 -0.0623 -0.0420 -0.3045
  111TMC2    C6 1694   1.184   4.616  11.364 -0.1527 -0.8174 -0.3547
  111TMC2     C 1695   0.781   0.014  11.290 -0.1554 -0.4162  0.1777
  111TMC2     O 1696   0.741   4.723  11.179  0.3126  0.1189 -0.1967
  111TMC2     H 1697   0.987   0.045  11.123  0.7704 -1.6283 -0.7410
  111TMC2    H1 1698   0.876   4.594  11.485 -1.2220  0.8032 -0.5354
  111TMC2    H2 1699   1.286   4.608  11.398  0.1682 -2.1510 -1.5996
  111TMC2    C7 1700   1.093   4.490  11.545 -0.2748  0.7305  0.2745
  111TMC2    C8 1701   1.258   0.003  11.169 -0.5137 -0.4748 -0.1943
  111TMC2    O1 1702   1.013   4.484  11.636  0.6558 -0.4878 -0.3767
  111TMC2    O2 1703   1.369   4.678  11.168  0.2098  0.2214  0.2349
  111TMC2    O5 1704   1.224   0.102  11.080 -0.6855 -0.0524 -0.6387
  111TMC2    H5 1705   1.127   0.108  11.089 -0.4284  1.1787  1.5050
  112MPD2     C 1706   0.310   0.022  11.520  0.0550 -1.5123 -0.3919
  112MPD2    C1 1707   0.346   0.002  11.386 -0.0125  0.0877  0.1118
  112MPD2    C2 1708   0.477   0.014  11.347 -0.8736 -0.2394  0.1612
  112MPD2    C3 1709   0.575   0.041  11.440  0.0921  0.3575  0.3531
  112MPD2    C4 1710   0.538   0.053  11.574 -0.2772 -0.3347 -0.0578
  112MPD2    C5 1711   0.409   0.041  11.614 -0.7470 -0.0051 -0.0713
  112MPD2     H 1712   0.510   0.019  11.243  0.4859  0.2130  0.6138
  112MPD2    H1 1713   0.612   0.076  11.650 -1.3255  1.3295  0.4706
  112MPD2    H2 1714   0.206   0.029  11.547  0.3473 -2.9541  1.1055
  112MPD2    H3 1715   0.381   0.059  11.717  0.8990  0.1953  0.3374
  112MPD2     N 1716   0.712   0.030  11.412 -0.8262  0.5221 -0.2126
  112MPD2    H5 1717   0.778   0.046  11.487 -1.1288 -1.3514  0.4531
  112MPD2    N1 1718   0.252   4.711  11.284 -0.5424 -0.0310 -0.1989
  112MPD2    H7 1719   0.293   4.701  11.192 -0.9720 -0.4518 -0.3436
  113MPD2     C 1720   2.910   2.679   1.248  0.0332 -0.2914  0.1492
  113MPD2    C1 1721   2.778   2.695   1.264 -0.4112  1.0716 -0.1791
  113MPD2    C2 1722   2.691   2.666   1.159 -0.5682  0.2016 -1.0742
  113MPD2    C3 1723   2.739   2.617   1.043 -0.1559 -0.0182 -0.1146
  113MPD2    C4 1724   2.878   2.591   1.030  0.5550 -0.3401  0.7752
  113MPD2    C5 1725   2.962   2.636   1.131 -0.1991  0.1400 -0.6800
  113MPD2     H 1726   2.586   2.691   1.172  0.0286 -0.2577  4.6474
  113MPD2    H1 1727   2.916   2.541   0.942 -0.6532 -0.1796  0.1756
  113MPD2    H2 1728   2.983   2.709   1.322  0.2653 -0.3768 -0.0467
  113MPD2    H3 1729   3.070   2.625   1.125 -0.3160 -1.5978  0.3253
  113MPD2     N 1730   2.656   2.573   0.935 -0.0915 -0.7293  1.3211
  113MPD2    H5 1731   2.701   2.518   0.863 -1.1559  1.7504 -1.2317
  113MPD2    N1 1732   2.723   2.747   1.383  0.1794 -0.0530 -0.8403
  113MPD2    H7 1733   2.623   2.761   1.378  0.0004 -1.4612 -1.0417
  114TCq2    C1 1734   2.519   2.585   0.934  0.4549  0.0903  0.0392
  114TCq2    O2 1735   2.439   2.642   1.005  0.5702  0.1224 -0.5739
  114TCq2    C2 1736   2.463   2.543   0.805 -0.1083  0.0203  0.0066
  114TCq2    C3 1737   2.352   2.604   0.753 -0.0732 -0.2809  0.5432
  114TCq2    C4 1738   2.290   2.555   0.640 -0.3584  0.2343  0.6812
  114TCq2    C5 1739   2.344   2.449   0.568 -0.2724 -0.0117 -0.2954
  114TCq2    C6 1740   2.450   2.392   0.628  0.0566  0.1753  0.3889
  114TCq2    C7 1741   2.517   2.434   0.737 -0.5396  0.3377 -0.2355
  114TCq2    C8 1742   2.479   2.262   0.590  0.0942  0.3010 -0.1104
  114TCq2    O4 1743   2.464   2.222   0.473  0.7124 -0.0542 -0.3018
  114TCq2    C9 1744   2.164   2.610   0.599  0.2394  0.7723 -0.4084
  114TCq2    O5 1745   2.115   2.582   0.487 -0.0765 -0.0834 -1.2490
  114TCq2    O6 1746   2.111   2.704   0.663 -0.1029 -0.1014  0.2561
  114TCq2    H2 1747   2.307   2.683   0.812 -2.3423 -1.7452  0.7659
  114TCq2    H3 1748   2.291   2.413   0.481  1.9312 -3.5904 -0.1806
  114TCq2    H4 1749   2.600   2.385   0.786 -1.0765 -1.1361 -0.7866
  115TMC2    C1 1750   3.561   1.028  17.240  0.0362  0.5310 -0.3137
  115TMC2    C2 1751   3.648   1.041  17.132  0.8856  0.2987  0.9603
  115TMC2    C3 1752   3.727   1.156  17.145  0.0630 -0.2343  0.6691
  115TMC2    C4 1753   3.548   1.118  17.345 -0.1508  0.3870  0.1878
  115TMC2    C5 1754   3.623   1.225  17.339 -1.4330 -0.1901  0.7988
  115TMC2    C6 1755   3.719   1.244  17.240  0.3058 -0.2974  0.2497
  115TMC2     C 1756   3.511   0.893  17.262 -0.4830 -0.2491 -1.1200
  115TMC2     O 1757   3.512   0.813  17.166  0.0216 -0.2335  0.2249
  115TMC2     H 1758   3.678   0.957  17.069 -1.5099  0.3249 -0.1990
  115TMC2    H1 1759   3.465   1.112  17.415  0.3073  1.1786  0.7997
  115TMC2    H2 1760   3.785   1.330  17.235 -0.9041  0.6851  0.8979
  115TMC2    C7 1761   3.615   1.323  17.449 -0.3735  0.6736  0.0985
  115TMC2    C8 1762   3.830   1.178  17.047  0.1866  0.6027 -0.2689
  115TMC2    O1 1763   3.505   1.342  17.496  0.3279  0.3810 -0.0649
  115TMC2    O2 1764   3.927   1.250  17.071  0.1753 -0.0938  0.6076
  115TMC2    O5 1765   3.771   1.137  16.928  0.0497 -0.1300 -0.4158
  115TMC2    H5 1766   3.674   1.132  16.941 -0.1795  0.1723 -2.0107
  116MPD2     C 1767   3.444   0.478  17.564  0.6049 -0.4085  0.0496
  116MPD2    C1 1768   3.470   0.489  17.433 -0.8891  0.6150  0.2107
  116MPD2    C2 1769   3.479   0.615  17.371  0.2580  0.2496 -0.2801
  116MPD2    C3 1770   3.473   0.729  17.451 -0.2997  0.6344  0.1527
  116MPD2    C4 1771   3.451   0.722  17.585  0.1843 -0.2950 -0.1060
  116MPD2    C5 1772   3.436   0.595  17.639 -0.3271  0.0823  0.0157
  116MPD2     H 1773   3.493   0.619  17.263  1.4116  0.9576 -0.0994
  116MPD2    H1 1774   3.462   0.805  17.654  2.2163  0.5994 -1.5181
  116MPD2    H2 1775   3.445   0.379  17.609 -0.0148  0.9114  2.9991
  116MPD2    H3 1776   3.410   0.595   0.041 -0.3364  2.3980  0.0291
  116MPD2     N 1777   3.493   0.860  17.400 -0.1309 -0.2758  0.1198
  116MPD2    H5 1778   3.507   0.931  17.472 -2.4831  0.3595 -0.0617
  116MPD2    N1 1779   3.492   0.377  17.347  0.4471 -0.4945 -0.2242
  116MPD2    H7 1780   3.512   0.394  17.249  2.8280 -0.3483  0.3013
  117TMC2    C1 1781   2.409   0.736  13.636 -0.4143  0.6164  0.7124
  117TMC2    C2 1782   2.530   0.668  13.628  0.0126 -0.0749 -0.5805
  117TMC2    C3 1783   2.627   0.705  13.724 -0.6519 -0.2018  0.0776
  117TMC2    C4 1784   2.384   0.836  13.726  0.2112 -0.0203 -0.1581
  117TMC2    C5 1785   2.475   0.868  13.816  0.0386  0.0200 -0.7549
  117TMC2    C6 1786   2.598   0.800  13.815 -0.4459  0.1238 -0.7714
  117TMC2     C 1787   2.336   0.754  13.515  0.1907  0.5444 -0.2654
  117TMC2     O 1788   2.327   0.654  13.446  1.0713 -0.2064  0.8482
  117TMC2     H 1789   2.560   0.602  13.548  0.0818 -1.6564  0.7428
  117TMC2    H1 1790   2.290   0.891  13.727  0.5608  0.5580  0.4748
  117TMC2    H2 1791   2.671   0.825  13.891 -1.3918 -0.8850  0.4773
  117TMC2    C7 1792   2.448   0.981  13.907 -0.1631 -0.1265 -0.6288
  117TMC2    C8 1793   2.758   0.652  13.711 -0.2590  0.1487  0.5334
  117TMC2    O1 1794   2.338   1.031  13.889  0.0114  0.2411  0.3729
  117TMC2    O2 1795   2.774   0.534  13.729  0.2517 -0.1068 -0.0288
  117TMC2    O5 1796   2.852   0.747  13.720  0.3045 -0.2308 -0.1797
  117TMC2    H5 1797   2.829   0.842  13.706  2.4526  0.3037 -0.0104
  118MPD2     C 1798   2.610   1.094  14.213 -0.3750 -0.7243 -0.0560
  118MPD2    C1 1799   2.535   1.109  14.102  0.1271 -0.1626 -0.0428
  118MPD2    C2 1800   2.460   1.220  14.085 -0.1960 -0.2330 -1.4215
  118MPD2    C3 1801   2.438   1.309  14.186 -0.3706 -0.0331  0.7301
  118MPD2    C4 1802   2.504   1.287  14.305 -0.0413 -0.3764 -0.9203
  118MPD2    C5 1803   2.595   1.183  14.317  0.2747  0.4958 -0.0235
  118MPD2     H 1804   2.421   1.232  13.985 -0.8732  0.4873 -1.0676
  118MPD2    H1 1805   2.501   1.357  14.387 -0.1433 -0.5682 -0.7621
  118MPD2    H2 1806   2.679   1.011  14.226 -0.9896 -1.3170 -0.5684
  118MPD2    H3 1807   2.660   1.184  14.404  0.6841 -0.5914 -0.3260
  118MPD2     N 1808   2.362   1.425  14.175  0.2229  0.0360  0.1476
  118MPD2    H5 1809   2.369   1.490  14.253  2.1353 -0.0292  0.0474
  118MPD2    N1 1810   2.539   1.007  14.009  0.2993 -0.2995 -0.1003
  118MPD2    H7 1811   2.605   0.931  14.022 -0.1401 -0.0776  3.5506
  119MPD2     C 1812   0.908   2.685  13.485 -0.7805 -0.0476 -0.4855
  119MPD2    C1 1813   0.788   2.661  13.554 -0.9752 -0.7913 -0.5197
  119MPD2    C2 1814   0.697   2.576  13.500  0.2024 -0.2769  0.2553
  119MPD2    C3 1815   0.721   2.508  13.380 -0.7202 -0.1798  0.0650
  119MPD2    C4 1816   0.833   2.541  13.311 -0.3861 -0.4567 -0.3174
  119MPD2    C5 1817   0.933   2.614  13.372 -0.2105 -0.1563 -0.3037
  119MPD2     H 1818   0.609   2.566  13.562  1.4396 -1.0517  1.8860
  119MPD2    H1 1819   0.846   2.491  13.215  0.0355 -1.4056  0.2343
  119MPD2    H2 1820   0.974   2.767  13.513 -0.3660 -0.6871  0.4025
  119MPD2    H3 1821   1.027   2.623  13.319  0.1641  1.1345  0.5988
  119MPD2     N 1822   0.625   2.424  13.327  0.2306 -0.4364 -0.3460
  119MPD2    H5 1823   0.632   2.398  13.229  0.3968  0.2163 -0.5064
  119MPD2    N1 1824   0.757   2.717  13.680  0.0309  0.3943  0.0667
  119MPD2    H7 1825   0.665   2.695  13.715 -0.1419 -0.2662 -0.8030
  120TCq2    C1 1826   0.510   2.402  13.396  0.3652  0.3937  0.3379
  120TCq2    O2 1827   0.483   2.405  13.514  0.2713 -0.7000 -0.0719
  120TCq2    C2 1828   0.394   2.375  13.317 -0.0240  0.9693  0.2899
  120TCq2    C3 1829   0.398   2.406  13.184  0.4711 -0.2132 -0.8326
  120TCq2    C4 1830   0.277   2.408  13.117  0.3080 -0.3062 -0.3467
  120TCq2    C5 1831   0.154   2.396  13.180  0.0807  0.4854  0.4718
  120TCq2    C6 1832   0.158   2.374  13.318 -0.4226 -0.4577  0.9530
  120TCq2    C7 1833   0.278   2.348  13.387  0.5398 -0.0574 -0.5952
  120TCq2    C8 1834   0.031   2.366  13.401  0.8567  0.0814 -0.0285
  120TCq2    O4 1835   4.658   2.401  13.337  0.0347 -0.1159  0.0021
  120TCq2    C9 1836   0.271   2.465  12.986 -0.2422  0.1457 -0.1364
  120TCq2    O5 1837   0.381   2.478  12.929 -0.4161 -0.1900 -0.2756
  120TCq2    O6 1838   0.164   2.519  12.952  0.9281 -0.0496  0.6012
  120TCq2    H2 1839   0.485   2.441  13.128  0.3703  1.6746  0.1802
  120TCq2    H3 1840   0.065   2.434  13.131  0.3751 -0.1488 -0.5508
  120TCq2    H4 1841   0.282   2.324  13.493 -1.5779  1.0296 -0.2583
  121TMC2    C1 1842   1.599   3.781  13.141 -0.0131  0.4417  0.0264
  121TMC2    C2 1843   1.672   3.665  13.163 -0.0486 -0.1751 -0.4532
  121TMC2    C3 1844   1.616   3.557  13.230 -0.0118 -0.2377 -0.2099
  121TMC2    C4 1845   1.475   3.793  13.196  0.2996 -0.5585  0.0197
  121TMC2    C5 1846   1.422   3.680  13.269  0.5537  0.8680 -0.1750
  121TMC2    C6 1847   1.488   3.560  13.287 -0.3580 -0.6387  0.3231
  121TMC2     C 1848   1.658   3.888  13.070 -0.2514  0.0612 -0.3759
  121TMC2     O 1849   1.780   3.890  13.072  0.6299  0.0184 -0.4547
  121TMC2     H 1850   1.773   3.664  13.125 -0.2445 -0.4929 -0.9657
  121TMC2    H1 1851   1.419   3.885  13.200 -0.7366 -1.1264 -1.3307
  121TMC2    H2 1852   1.458   3.483  13.357 -1.8570  0.7905  1.2460
  121TMC2    C7 1853   1.303   3.695  13.354  0.1315  0.7546  0.8980
  121TMC2    C8 1854   1.706   3.462  13.289  0.1635  0.0094 -0.0548
  121TMC2    O1 1855   1.241   3.588  13.366  0.4645 -0.6837  1.0159
  121TMC2    O2 1856   1.824   3.490  13.304  0.6038 -0.3341 -0.2788
  121TMC2    O5 1857   1.662   3.334  13.280  0.1593 -0.3529  0.1617
  121TMC2    H5 1858   1.571   3.335  13.242 -0.2938  0.5082  1.2468
  122MPD2     C 1859   1.449   4.172  12.956 -0.2024 -0.0362 -0.5155
  122MPD2    C1 1860   1.571   4.111  12.983 -0.0041 -0.1325  0.2587
  122MPD2    C2 1861   1.684   4.180  12.975 -0.3872 -0.0651 -0.5165
  122MPD2    C3 1862   1.679   4.310  12.933 -0.5819  0.4954 -0.4701
  122MPD2    C4 1863   1.554   4.380  12.932 -0.2326  0.3263 -0.8798
  122MPD2    C5 1864   1.436   4.305  12.945  0.2993  0.3231  0.1886
  122MPD2     H 1865   1.784   4.139  12.983  0.0611  1.3125  1.0040
  122MPD2    H1 1866   1.551   4.482  12.897 -2.7178  0.7256  0.4908
  122MPD2    H2 1867   1.357   4.115  12.956  0.1227 -0.5598 -0.6397
  122MPD2    H3 1868   1.341   4.356  12.935 -0.3394 -0.6678  1.3388
  122MPD2     N 1869   1.803   4.383  12.900  0.0840 -0.1768  0.5168
  122MPD2    H5 1870   1.802   4.485  12.896  0.7283 -0.2111 -0.6608
  122MPD2    N1 1871   1.557   3.977  13.033  0.3899  0.4729 -0.2503
  122MPD2    H7 1872   1.462   3.942  13.035  0.1969  1.0492  0.6305
  123MPD2     C 1873   0.030   3.354   8.771  0.2856 -0.2596  0.7502
  123MPD2    C1 1874   4.672   3.265   8.827 -0.6144 -0.0549  0.1815
  123MPD2    C2 1875   4.693   3.132   8.812  0.6636  0.1490  0.5525
  123MPD2    C3 1876   0.082   3.078   8.757  0.4563  0.6849  0.2965
  123MPD2    C4 1877   0.158   3.169   8.678  0.8996 -0.4103  0.1369
  123MPD2    C5 1878   0.136   3.307   8.694  0.0144 -0.5031 -0.0287
  123MPD2     H 1879   4.628   3.057   8.855 -0.4151  0.3114 -0.8192
  123MPD2    H1 1880   0.240   3.136   8.615  0.7349  0.2814 -0.4437
  123MPD2    H2 1881   0.014   3.461   8.785 -1.1572 -0.3057 -0.5105
  123MPD2    H3 1882   0.210   3.375   8.654 -0.6832  0.9137  1.0945
  123MPD2     N 1883   0.098   2.936   8.753  0.3563 -0.2914 -0.0696
  123MPD2    H5 1884   0.027   2.873   8.789 -0.8511  0.6031 -0.8950
  123MPD2    N1 1885   4.566   3.313   8.914  0.1704  0.9129  0.1295
  123MPD2    H7 1886   4.545   3.412   8.905  1.3565  1.2470  1.1237
  124TCq2    C1 1887   0.219   2.878   8.714  0.8179  1.2069 -0.8577
  124TCq2    O2 1888   0.312   2.935   8.665  0.8652 -1.0016 -0.3115
  124TCq2    C2 1889   0.234   2.743   8.759  0.4642  0.7770 -0.0308
  124TCq2    C3 1890   0.132   2.652   8.740 -0.2957  0.2197 -0.1562
  124TCq2    C4 1891   0.148   2.526   8.791  0.3207  0.1905 -0.9051
  124TCq2    C5 1892   0.262   2.497   8.855  0.3219 -0.0587 -0.7620
  124TCq2    C6 1893   0.362   2.587   8.867  0.0015  1.0004  0.0523
  124TCq2    C7 1894   0.350   2.712   8.822 -0.2214 -0.6802 -0.4733
  124TCq2    C8 1895   0.482   2.545   8.941 -0.0656  0.5819  0.2206
  124TCq2    O4 1896   0.487   2.434   8.989  0.1970  0.0461  0.0438
  124TCq2    C9 1897   0.051   2.422   8.771 -0.7459 -0.3681  0.9428
  124TCq2    O5 1898   4.654   2.453   8.779 -0.5281 -0.0233 -0.0775
  124TCq2    O6 1899   0.104   2.307   8.774 -0.5809  0.3938 -1.0599
  124TCq2    H2 1900   0.038   2.677   8.691  0.6762  1.8833 -1.1588
  124TCq2    H3 1901   0.271   2.399   8.900  1.8927  1.5602  2.5080
  124TCq2    H4 1902   0.427   2.787   8.818  0.0588 -1.0980 -3.1205
  125TMC2    C1 1903   0.927   0.542   8.757 -0.5999  0.0632 -0.2803
  125TMC2    C2 1904   0.983   0.591   8.638 -0.4191 -0.0307  0.5445
  125TMC2    C3 1905   1.125   0.601   8.639 -0.3190  0.3249  0.5515
  125TMC2    C4 1906   0.998   0.504   8.868  0.2852 -0.0986 -0.0829
  125TMC2    C5 1907   1.137   0.508   8.866  0.4280 -0.1603  0.3210
  125TMC2    C6 1908   1.200   0.548   8.745  0.6301 -0.1043  0.6617
  125TMC2     C 1909   0.779   0.548   8.761 -0.4466  0.3252  0.4173
  125TMC2     O 1910   0.733   0.558   8.648 -0.1931  0.0698  0.0771
  125TMC2     H 1911   0.930   0.630   8.552  1.4205 -0.9931 -1.0189
  125TMC2    H1 1912   0.943   0.460   8.951  0.7122  0.6667  0.6101
  125TMC2    H2 1913   1.307   0.554   8.728  0.5188  0.5090  0.1868
  125TMC2    C7 1914   1.202   0.443   8.979 -0.2151 -0.9850 -0.6533
  125TMC2    C8 1915   1.192   0.665   8.526  0.3238  0.2417 -0.7489
  125TMC2    O1 1916   1.146   0.459   9.084  0.1738 -0.5667 -0.7354
  125TMC2    O2 1917   1.168   0.631   8.407  0.0649 -0.3402 -0.6350
  125TMC2    O5 1918   1.316   0.711   8.558 -0.0270 -0.3653  0.5358
  125TMC2    H5 1919   1.315   0.743   8.650  2.0781  2.3701 -0.3814
  126MPD1     C 1920   0.307   0.578   8.963  1.6337 -0.0690 -0.2951
  126MPD1    C1 1921   0.404   0.601   9.063  0.2596 -0.3395  0.8312
  126MPD1    C2 1922   0.537   0.582   9.037 -0.4522  0.2887  0.1159
  126MPD1    C3 1923   0.577   0.548   8.907  0.3126 -0.5109  0.6957
  126MPD1    C4 1924   0.482   0.520   8.816 -0.4893  0.2255  0.3499
  126MPD1    C5 1925   0.348   0.536   8.843 -0.0507 -0.5470 -0.7277
  126MPD1     H 1926   0.611   0.612   9.110 -0.7048 -0.8339  0.8312
  126MPD1    H1 1927   0.517   0.484   8.720  0.6862 -2.6550  1.8789
  126MPD1    H2 1928   0.203   0.591   8.990  0.7326 -1.0789 -3.3048
  126MPD1    H3 1929   0.274   0.497   8.774 -2.1924 -0.6063  1.5743
  126MPD1     N 1930   0.716   0.544   8.882  0.2448  0.6723  0.0076
  126MPD1    H5 1931   0.773   0.548   8.966  1.3384 -1.2761 -0.6383
  126MPD1    N1 1932   0.361   0.644   9.188 -0.1452  0.2096  0.0576
  126MPD1    H6 1933   0.269   0.687   9.181  0.3332  1.2761  0.3054
  126MPD1    H7 1934   0.425   0.708   9.234  0.2104 -0.9975  1.2445
  127MPD2     C 1935   2.042   3.850   9.418  0.4966 -0.3828  0.7130
  127MPD2    C1 1936   2.144   3.789   9.478 -0.3751  0.4748 -0.7081
  127MPD2    C2 1937   2.264   3.854   9.489  0.1454 -0.0027  0.3834
  127MPD2    C3 1938   2.288   3.969   9.415 -0.6697 -1.0830  0.0974
  127MPD2    C4 1939   2.182   4.027   9.352  0.2957  0.1292  0.0723
  127MPD2    C5 1940   2.058   3.965   9.353  0.0372  0.3402  0.6393
  127MPD2     H 1941   2.344   3.814   9.550  0.8157 -0.3828 -0.7350
  127MPD2    H1 1942   2.182   4.122   9.300  1.2398  0.9016  1.4809
  127MPD2    H2 1943   1.946   3.800   9.429  0.7622 -1.4046 -1.7191
  127MPD2    H3 1944   1.969   4.004   9.305  2.3084  2.3116 -2.0078
  127MPD2     N 1945   2.418   4.033   9.425  0.1476  0.3213 -0.2079
  127MPD2    H5 1946   2.492   3.979   9.467  1.2186  1.8055 -0.1933
  127MPD2    N1 1947   2.119   3.657   9.531 -0.3203 -0.0810  0.3164
  127MPD2    H7 1948   2.022   3.628   9.524 -0.1495 -1.0140  1.7362
  128TCq2    C1 1949   2.210   3.579   9.600  0.6405 -1.1447 -0.2946
  128TCq2    O2 1950   2.318   3.606   9.655 -0.2044 -0.1201  0.0951
  128TCq2    C2 1951   2.154   3.449   9.630 -0.4287  0.2922  0.8465
  128TCq2    C3 1952   2.207   3.383   9.738 -0.3498 -0.3184 -0.4451
  128TCq2    C4 1953   2.141   3.271   9.791 -0.3054  0.3046  0.0881
  128TCq2    C5 1954   2.024   3.234   9.731 -0.1557  0.1776  0.5786
  128TCq2    C6 1955   1.965   3.313   9.634  0.1125 -0.1464  0.7972
  128TCq2    C7 1956   2.035   3.410   9.574  0.4195  0.2484  0.0949
  128TCq2    C8 1957   1.861   3.258   9.557 -0.3658 -0.3505  0.3903
  128TCq2    O4 1958   1.782   3.334   9.498 -0.0364 -0.2988  0.0751
  128TCq2    C9 1959   2.188   3.192   9.896  0.5680  0.1420 -0.7061
  128TCq2    O5 1960   2.309   3.212   9.929 -1.2640  0.2132  0.3281
  128TCq2    O6 1961   2.134   3.086   9.927 -0.5610 -0.0456 -0.3243
  128TCq2    H2 1962   2.297   3.417   9.787  1.4252 -1.9575 -2.5345
  128TCq2    H3 1963   1.970   3.152   9.776  0.8028 -1.1217 -0.6457
  128TCq2    H4 1964   2.005   3.445   9.476 -0.7763  0.3354  0.5000
  129MPD2     C 1965   0.518   4.601   1.262 -0.0299  0.9545 -0.4725
  129MPD2    C1 1966   0.640   4.625   1.319 -0.0071 -0.0939 -0.1994
  129MPD2    C2 1967   0.741   4.680   1.241  0.2232  0.1541 -0.4682
  129MPD2    C3 1968   0.725   4.690   1.105 -0.2264 -0.5629  0.2258
  129MPD2    C4 1969   0.603   4.659   1.045 -0.3993  0.2673  0.4887
  129MPD2    C5 1970   0.496   4.626   1.125  0.2272 -0.3949  0.2420
  129MPD2     H 1971   0.832   4.713   1.290  0.0381  2.2566 -1.5286
  129MPD2    H1 1972   0.599   4.657   0.937  1.4763 -2.5977  0.4786
  129MPD2    H2 1973   0.433   4.559   1.315  0.5602  2.6060  1.7599
  129MPD2    H3 1974   0.396   4.601   1.090 -0.2885  2.8779 -0.6460
  129MPD2     N 1975   0.824   0.033   1.035 -0.4137  0.0441 -0.1652
  129MPD2    H5 1976   0.902   0.069   1.088  0.9672 -1.4679 -1.1529
  129MPD2    N1 1977   0.669   4.592   1.453  0.0846 -0.2608  0.3277
  129MPD2    H7 1978   0.766   4.596   1.482  1.3753  0.0544 -4.0192
  130TCq2    C1 1979   0.574   4.566   1.548  0.0727 -0.1889  0.7230
  130TCq2    O2 1980   0.453   4.591   1.543 -0.6375  0.4275 -0.7125
  130TCq2    C2 1981   0.620   4.488   1.660 -0.0259  0.7752 -0.1157
  130TCq2    C3 1982   0.751   4.443   1.663  0.1998 -0.3596  0.4910
  130TCq2    C4 1983   0.785   4.354   1.762  0.6071 -0.0061  0.4691
  130TCq2    C5 1984   0.699   4.306   1.853  0.1999  0.0108 -0.4044
  130TCq2    C6 1985   0.565   4.346   1.839 -0.0861  0.3710  0.2778
  130TCq2    C7 1986   0.525   4.429   1.741  0.1920 -0.5742  0.2298
  130TCq2    C8 1987   0.462   4.260   1.894  0.6016 -0.2695 -0.0940
  130TCq2    O4 1988   0.356   4.263   1.833 -0.1429  0.2377  0.6823
  130TCq2    C9 1989   0.917   4.293   1.765 -0.2837  0.8709 -0.3448
  130TCq2    O5 1990   0.984   4.298   1.657  0.1805  0.2876 -0.1499
  130TCq2    O6 1991   0.939   4.217   1.862  0.6023  0.1268 -0.0803
  130TCq2    H2 1992   0.832   4.479   1.601 -0.3824  5.0890  2.8596
  130TCq2    H3 1993   0.733   4.235   1.926 -0.4148  0.2461  0.1106
  130TCq2    H4 1994   0.421   4.459   1.733  0.4280  0.3576  0.5948
  131MPD2     C 1995   4.142   4.023   8.787  0.1367 -0.1278 -1.5339
  131MPD2    C1 1996   4.269   3.970   8.789 -0.3612 -0.2089 -0.3899
  131MPD2    C2 1997   4.289   3.837   8.821  0.2555 -0.2412 -0.1681
  131MPD2    C3 1998   4.180   3.765   8.866 -1.2565  1.0619  0.1065
  131MPD2    C4 1999   4.059   3.828   8.876  0.2755 -0.5132 -0.7393
  131MPD2    C5 2000   4.037   3.952   8.834  0.8315  0.5646 -0.9713
  131MPD2     H 2001   4.382   3.782   8.829  0.6223  0.2140 -1.2921
  131MPD2    H1 2002   3.971   3.767   8.895 -1.1931  1.0040 -2.5466
  131MPD2    H2 2003   4.133   4.122   8.744  0.9324 -0.4445 -2.4145
  131MPD2    H3 2004   3.938   3.997   8.828  0.6205  0.3102  0.5033
  131MPD2     N 2005   4.194   3.640   8.917  0.1207 -0.0381  0.1216
  131MPD2    H5 2006   4.290   3.607   8.912  0.5249  1.1756 -0.1668
  131MPD2    N1 2007   4.374   4.052   8.746  0.0386 -0.4883  0.1256
  131MPD2    H7 2008   4.349   4.150   8.735 -0.2867 -0.4716  0.9626
  132TCq2    C1 2009   4.648   4.464   8.773 -0.1401 -0.4718 -0.2246
  132TCq2    O2 2010   4.537   4.489   8.813 -0.4855  0.0701 -1.1735
  132TCq2    C2 2011   4.658   4.346   8.692 -0.3042 -0.3306  0.3525
  132TCq2    C3 2012   0.035   4.333   8.600 -0.0210  0.9619 -0.2383
  132TCq2    C4 2013   0.036   4.215   8.535 -0.5256 -0.1276 -0.2423
  132TCq2    C5 2014   4.674   4.112   8.557  0.6668  0.1129  0.7868
  132TCq2    C6 2015   4.574   4.126   8.654 -0.0961  0.5303 -0.3047
  132TCq2    C7 2016   4.565   4.248   8.721  0.4152 -0.0799 -0.2103
  132TCq2    C8 2017   4.505   4.010   8.712 -0.2359  0.1718  0.3181
  132TCq2    O4 2018   4.565   3.902   8.705 -0.0927 -0.2588 -0.3449
  132TCq2    C9 2019   0.145   4.195   8.445  0.7016 -0.2632 -0.6446
  132TCq2    O5 2020   0.163   4.086   8.385 -0.5021 -0.1229  0.1444
  132TCq2    O6 2021   0.217   4.294   8.412 -0.3129 -0.5318 -0.5713
  132TCq2    H2 2022   0.106   4.414   8.584  0.8063  0.3155  0.1795
  132TCq2    H3 2023   4.681   4.029   8.488 -1.2195 -1.0888  2.0105
  132TCq2    H4 2024   4.495   4.263   8.802 -1.5142  2.4288 -2.3366
  133MPD2     C 2025   3.508   3.899   9.000  0.4339  0.1978 -0.2055
  133MPD2    C1 2026   3.570   4.017   9.025 -0.4857 -0.9437  0.0386
  133MPD2    C2 2027   3.696   4.024   9.070  0.2942 -0.6026 -0.2689
  133MPD2    C3 2028   3.767   3.901   9.087 -0.2763 -0.3364  0.2084
  133MPD2    C4 2029   3.706   3.785   9.063 -0.8078  0.1771  0.1160
  133MPD2    C5 2030   3.576   3.780   9.014 -0.0275  0.4452  0.9365
  133MPD2     H 2031   3.745   4.118   9.093  0.3421 -0.0331 -2.7035
  133MPD2    H1 2032   3.750   3.687   9.079 -2.5468 -0.5458  0.4955
  133MPD2    H2 2033   3.405   3.894   8.966  0.7662 -0.1919 -1.1498
  133MPD2    H3 2034   3.527   3.684   9.000 -0.7366  0.8944  0.3340
  133MPD2     N 2035   3.897   3.889   9.143 -0.2625 -0.8453  0.4320
  133MPD2    H5 2036   3.939   3.797   9.152  1.0482 -0.1997  0.7964
  133MPD2    N1 2037   3.495   4.127   8.989  0.5172 -0.5225 -0.2994
  133MPD2    H7 2038   3.407   4.123   8.937  0.6397  2.0780 -0.7342
  134TCq2    C1 2039   3.510   4.259   9.025  0.1180  0.1422  0.3092
  134TCq2    O2 2040   3.606   4.312   9.081  0.0201 -0.2368 -0.4377
  134TCq2    C2 2041   3.411   4.349   8.951 -0.6107  0.0745 -0.7522
  134TCq2    C3 2042   3.298   4.291   8.908  0.4334 -0.5503 -0.4098
  134TCq2    C4 2043   3.219   4.367   8.826 -0.3482  0.1797 -0.3713
  134TCq2    C5 2044   3.253   4.489   8.781 -0.3176 -0.1125 -0.2877
  134TCq2    C6 2045   3.376   4.536   8.829 -0.5684  0.1232  0.1701
  134TCq2    C7 2046   3.453   4.468   8.910 -0.0291  0.3334 -0.0311
  134TCq2    C8 2047   3.405   4.681   8.825 -0.0643 -0.4380 -0.2763
  134TCq2    O4 2048   3.519   4.708   8.869  0.3094 -0.3828 -0.6846
  134TCq2    C9 2049   3.102   4.297   8.774  0.5775  0.1511  0.1783
  134TCq2    O5 2050   3.046   4.220   8.857 -0.2678  0.4298 -0.0844
  134TCq2    O6 2051   3.033   4.343   8.679  0.5366  0.3618  0.2030
  134TCq2    H2 2052   3.266   4.190   8.929  0.0830 -0.2484  0.4900
  134TCq2    H3 2053   3.192   4.545   8.711 -1.1018 -0.6772 -0.0576
  134TCq2    H4 2054   3.551   4.499   8.945  0.8214 -1.2520 -0.9787
  135MPD2     C 2055   1.898   0.395   8.583  0.2400  0.7399 -0.0662
  135MPD2    C1 2056   1.925   0.475   8.693 -0.3870 -1.0830 -0.2695
  135MPD2    C2 2057   2.059   0.501   8.718 -0.3088  0.5176 -0.0090
  135MPD2    C3 2058   2.165   0.449   8.642  0.3246  0.4002  0.2093
  135MPD2    C4 2059   2.135   0.372   8.534  0.2119 -0.5595 -0.0275
  135MPD2    C5 2060   2.004   0.344   8.508 -0.6863 -0.3540  0.4967
  135MPD2     H 2061   2.082   0.563   8.804  0.8090 -0.0184  0.0792
  135MPD2    H1 2062   2.215   0.323   8.480  1.2065 -0.8033  1.6579
  135MPD2    H2 2063   1.797   0.362   8.560  0.1911  0.3245  0.7475
  135MPD2    H3 2064   1.991   0.268   8.431  0.0020  2.6907 -2.6345
  135MPD2     N 2065   2.301   0.470   8.670  0.9872 -0.4840  0.6972
  135MPD2    H5 2066   2.373   0.434   8.608 -0.5314  0.4887 -1.6554
  135MPD2    N1 2067   1.835   0.540   8.769  0.2006  0.2300  0.2967
  135MPD2    H7 2068   1.876   0.594   8.844  1.0268  2.7465 -1.9857
  136TCq2    C1 2069   1.701   0.550   8.751 -0.1912 -0.7319  0.2347
  136TCq2    O2 2070   1.638   0.522   8.649 -0.1507  0.1272 -0.2900
  136TCq2    C2 2071   1.636   0.619   8.862 -0.1312 -0.0073  0.6253
  136TCq2    C3 2072   1.520   0.687   8.838 -0.0428 -0.8329 -0.6933
  136TCq2    C4 2073   1.450   0.748   8.938  0.5249  0.4598 -0.5658
  136TCq2    C5 2074   1.489   0.727   9.068  0.3174 -0.6052 -0.1197
  136TCq2    C6 2075   1.599   0.656   9.091 -0.2167  0.8369 -0.1254
  136TCq2    C7 2076   1.675   0.605   8.989 -0.4361 -0.0457 -0.1959
  136TCq2    C8 2077   1.656   0.639   9.223 -0.4228 -0.0451 -0.0106
  136TCq2    O4 2078   1.778   0.615   9.233  0.1942 -0.5489 -0.3898
  136TCq2    C9 2079   1.339   0.832   8.908  0.1339  0.6878  0.4345
  136TCq2    O5 2080   1.298   0.824   8.796  0.3363 -0.2826 -0.1320
  136TCq2    O6 2081   1.279   0.890   9.002 -0.4404 -0.5016  0.5195
  136TCq2    H2 2082   1.484   0.699   8.737  0.4468  1.6151 -0.5702
  136TCq2    H3 2083   1.429   0.778   9.142 -0.6387 -1.0280 -0.5930
  136TCq2    H4 2084   1.762   0.545   9.014 -0.5990  0.0838  0.6774
  137MPD2     C 2085   1.925   4.694   9.500  0.4478 -0.4900 -0.2280
  137MPD2    C1 2086   1.813   4.640   9.449  0.6823  0.1733  0.6182
  137MPD2    C2 2087   1.729   4.562   9.527  0.0172 -0.5131 -0.3969
  137MPD2    C3 2088   1.761   4.544   9.660  0.0185  0.3936 -0.4019
  137MPD2    C4 2089   1.865   4.602   9.720 -0.0992  0.0493  0.0823
  137MPD2    C5 2090   1.946   4.676   9.637  0.4388  0.2663  0.1053
  137MPD2     H 2091   1.653   4.496   9.486 -0.2975 -0.0045 -0.6273
  137MPD2    H1 2092   1.888   4.591   9.825  1.1983  1.2335 -0.0788
  137MPD2    H2 2093   2.003   0.023   9.448 -0.1082  0.1781 -0.3530
  137MPD2    H3 2094   2.037   4.718   9.679  1.3858  1.2385 -2.9035
  137MPD2     N 2095   1.681   4.444   9.728 -0.1509  0.1309 -0.5535
  137MPD2    H5 2096   1.612   4.392   9.676  0.8792 -1.6407 -0.1538
  137MPD2    N1 2097   1.798   4.649   9.309  0.1250  0.5321 -0.5839
  137MPD2    H7 2098   1.866   4.705   9.258  0.7475  0.8048  0.5594
  138TCq2    C1 2099   1.682   4.614   9.236  0.3507  0.2291 -0.1672
  138TCq2    O2 2100   1.570   4.594   9.280  0.1939  0.4932  0.4366
  138TCq2    C2 2101   1.710   4.619   9.091  1.0364 -0.7213 -0.6150
  138TCq2    C3 2102   1.830   4.568   9.053  0.1345 -0.3553  0.5746
  138TCq2    C4 2103   1.844   4.554   8.916  0.7818 -0.4242  0.0655
  138TCq2    C5 2104   1.733   4.561   8.834  0.6848 -0.4124 -0.0572
  138TCq2    C6 2105   1.613   4.606   8.879  0.1021  0.6460 -0.0854
  138TCq2    C7 2106   1.604   4.635   9.012 -0.2571 -0.0752 -0.2603
  138TCq2    C8 2107   1.506   4.637   8.779 -0.0873 -0.5024 -0.4798
  138TCq2    O4 2108   1.524   4.608   8.663  0.0187 -0.0401 -0.2092
  138TCq2    C9 2109   1.962   4.505   8.861 -1.6558  0.2863 -0.7104
  138TCq2    O5 2110   2.059   4.489   8.942 -0.3184  0.4561 -0.3165
  138TCq2    O6 2111   1.971   4.485   8.736  0.2243 -0.3153  0.2133
  138TCq2    H2 2112   1.917   4.555   9.116 -1.6016  0.8051  3.2152
  138TCq2    H3 2113   1.733   4.531   8.730  2.0175  1.0885 -0.4779
  138TCq2    H4 2114   1.513   4.680   9.051  0.8294  0.4009  1.7056
  139TMC2    C1 2115   2.084   1.944  13.177 -0.0421  0.5764  0.1600
  139TMC2    C2 2116   2.168   2.047  13.164  0.0344 -0.1575 -0.8239
  139TMC2    C3 2117   2.120   2.172  13.199 -0.1960 -0.4929 -0.0002
  139TMC2    C4 2118   1.955   1.965  13.223  0.2792 -0.3506 -0.4223
  139TMC2    C5 2119   1.915   2.091  13.258  0.2797  0.4779  0.2635
  139TMC2    C6 2120   2.002   2.193  13.262  0.3420 -0.0710 -0.2416
  139TMC2     C 2121   2.136   1.807  13.158 -0.2960 -0.4652  0.0963
  139TMC2     O 2122   2.068   1.733  13.086 -0.6206  0.5510  0.3003
  139TMC2     H 2123   2.261   2.041  13.110  0.6193 -0.4852  0.2217
  139TMC2    H1 2124   1.878   1.890  13.210  1.6737 -1.8743  0.1547
  139TMC2    H2 2125   1.966   2.294  13.276  1.7084  0.2194  1.2557
  139TMC2    C7 2126   1.781   2.132  13.303  0.6671 -0.0585  0.2100
  139TMC2    C8 2127   2.222   2.270  13.234 -0.2071 -0.3141 -0.8581
  139TMC2    O1 2128   1.772   2.249  13.338  0.2034 -0.2771  0.2843
  139TMC2    O2 2129   2.237   2.321  13.344  0.3816 -0.5434 -0.5969
  139TMC2    O5 2130   2.297   2.305  13.121 -0.2625  0.0764 -0.5099
  139TMC2    H5 2131   2.261   2.252  13.046  0.1342  0.4611 -0.9739
  140MPD2     C 2132   2.450   1.676  13.284  0.1648 -0.7211 -0.0945
  140MPD2    C1 2133   2.350   1.703  13.192 -0.2869 -0.3062  0.8323
  140MPD2    C2 2134   2.350   1.641  13.067 -0.6975  0.4467  0.8031
  140MPD2    C3 2135   2.446   1.544  13.049 -0.3334 -0.1276 -0.0303
  140MPD2    C4 2136   2.548   1.517  13.135  0.2733 -0.6029  0.9233
  140MPD2    C5 2137   2.547   1.584  13.258 -0.3313 -0.6603 -0.2893
  140MPD2     H 2138   2.285   1.677  12.987  0.4244  1.7389  0.4761
  140MPD2    H1 2139   2.627   1.446  13.110  0.6059 -0.2356  0.9237
  140MPD2    H2 2140   2.461   1.725  13.381  1.4536  0.9440 -1.0826
  140MPD2    H3 2141   2.630   1.572  13.327  1.2302  0.7933 -1.9122
  140MPD2     N 2142   2.448   1.485  12.923 -0.5278  0.2579 -0.5385
  140MPD2    H5 2143   2.387   1.527  12.854 -2.9131  2.7830  3.0848
  140MPD2    N1 2144   2.247   1.786  13.232  0.1367  0.9319  0.1560
  140MPD2    H7 2145   2.260   1.842  13.316 -0.4731  0.5462  0.5102
  141TCq2    C1 2146   3.013   4.069  13.835 -0.8247  0.5906 -0.0803
  141TCq2    O2 2147   3.076   4.055  13.936  0.6366 -0.2692 -0.5415
  141TCq2    C2 2148   3.015   4.202  13.773 -1.2225  0.2942 -0.7081
  141TCq2    C3 2149   2.976   4.217  13.643  0.3042  0.3595  0.0869
  141TCq2    C4 2150   2.971   4.342  13.586 -0.0659 -0.3444  0.0169
  141TCq2    C5 2151   2.984   4.455  13.669  0.1490  0.2104 -0.1249
  141TCq2    C6 2152   3.028   4.428  13.794  0.7410  0.3844 -0.3357
  141TCq2    C7 2153   3.031   4.305  13.846 -0.2425  0.1108  0.2381
  141TCq2    C8 2154   2.972   4.531  13.886 -0.6663 -0.3368 -0.0340
  141TCq2    O4 2155   2.881   4.596  13.846 -0.3788 -0.0883 -0.1649
  141TCq2    C9 2156   2.925   4.363  13.452  0.3343 -0.0647  0.3953
  141TCq2    O5 2157   2.955   4.278  13.373  0.2678  0.0879  0.2926
  141TCq2    O6 2158   2.853   4.465  13.438  0.0946  0.3476  0.5307
  141TCq2    H2 2159   2.959   4.132  13.578  1.1190  0.3375 -0.0940
  141TCq2    H3 2160   2.968   4.556  13.633 -2.0351 -0.3954 -0.8366
  141TCq2    H4 2161   3.049   4.290  13.952 -1.0714  3.1037  0.8026
  142MPD2     C 2162   0.445   2.065  10.157 -0.2361  0.0324  0.5382
  142MPD2    C1 2163   0.441   1.993  10.038  0.2175  0.1738 -0.3889
  142MPD2    C2 2164   0.527   2.026   9.941  0.4679 -0.0463 -0.0643
  142MPD2    C3 2165   0.615   2.132   9.959 -0.3405 -0.0317  0.5435
  142MPD2    C4 2166   0.617   2.199  10.079 -0.8986  0.2602  0.0513
  142MPD2    C5 2167   0.532   2.166  10.179 -0.0719  0.0551 -0.4257
  142MPD2     H 2168   0.525   1.953   9.861  0.3668 -0.4495  0.3043
  142MPD2    H1 2169   0.697   2.268  10.105 -0.0890 -0.4148 -0.6438
  142MPD2    H2 2170   0.367   2.056  10.232 -1.2540  1.3750 -0.3683
  142MPD2    H3 2171   0.532   2.218  10.274 -1.7947 -2.8554  1.1540
  142MPD2     N 2172   0.702   2.169   9.861 -0.0582  0.1052 -0.5032
  142MPD2    H5 2173   0.770   2.242   9.882 -0.1492  0.0128  0.0942
  142MPD2    N1 2174   0.341   1.888  10.022  0.3294  0.1459  0.0954
  142MPD2    H7 2175   0.297   1.846  10.103 -2.3033  0.0484 -1.3713
  143TCq2    C1 2176   0.711   2.114   9.737 -0.0757  0.2288 -0.6104
  143TCq2    O2 2177   0.641   2.024   9.689  0.3212  0.1394  0.0675
  143TCq2    C2 2178   0.821   2.168   9.664 -0.2094  0.6161 -0.7793
  143TCq2    C3 2179   0.931   2.216   9.721 -0.0290  0.4228  0.2989
  143TCq2    C4 2180   1.009   2.292   9.633 -0.2105 -0.4131  0.0853
  143TCq2    C5 2181   0.974   2.322   9.510  0.4900  0.1348  0.0706
  143TCq2    C6 2182   0.862   2.271   9.457  0.0215 -0.7374  0.1123
  143TCq2    C7 2183   0.785   2.190   9.536 -0.6147  0.3435 -0.0668
  143TCq2    C8 2184   0.791   2.347   9.362  0.0075  0.5557 -0.2029
  143TCq2    O4 2185   0.675   2.325   9.334 -0.1881  0.2985 -0.0583
  143TCq2    C9 2186   1.136   2.341   9.687  0.1792  0.1633  0.2341
  143TCq2    O5 2187   1.206   2.426   9.622  0.3713 -0.3685 -0.5804
  143TCq2    O6 2188   1.174   2.282   9.796  0.6621 -1.0385  0.3302
  143TCq2    H2 2189   0.969   2.181   9.816 -0.6616 -1.9580 -0.3223
  143TCq2    H3 2190   1.047   2.381   9.456 -1.9005  1.7389 -1.3992
  143TCq2    H4 2191   0.692   2.146   9.501  0.0773 -1.8965  0.9241
  144MPD2     C 2192   2.827   1.596   0.602 -0.6529 -0.0559 -0.3310
  144MPD2    C1 2193   2.893   1.519   0.517  0.0505 -0.1720 -0.8228
  144MPD2    C2 2194   3.022   1.481   0.550  0.4333  0.9924 -0.2284
  144MPD2    C3 2195   3.093   1.544   0.656 -0.5301  0.2738 -0.7223
  144MPD2    C4 2196   3.016   1.611   0.744  0.0527 -0.9224  0.0675
  144MPD2    C5 2197   2.882   1.631   0.721 -0.2987 -0.4365  0.5083
  144MPD2     H 2198   3.074   1.418   0.478  2.2229  1.8157  0.3504
  144MPD2    H1 2199   3.065   1.652   0.832 -0.0861 -0.9483  0.1573
  144MPD2    H2 2200   2.723   1.621   0.586 -0.4185  0.7459 -0.5997
  144MPD2    H3 2201   2.822   1.692   0.787 -0.4458  0.8511 -0.8179
  144MPD2     N 2202   3.231   1.543   0.681 -0.1479  0.1317  0.3094
  144MPD2    H5 2203   3.264   1.600   0.757 -0.8165 -0.9365  1.3952
  144MPD2    N1 2204   2.838   1.477   0.401  0.6753  0.6474 -0.2275
  144MPD2    H7 2205   2.883   1.404   0.347  0.2513 -0.0496  0.3521
  145TCq2    C1 2206   3.334   1.486   0.601  0.6805 -0.0562  0.1601
  145TCq2    O2 2207   3.325   1.415   0.502 -0.1046  0.9102 -0.0049
  145TCq2    C2 2208   3.470   1.513   0.652 -0.3890  0.1703  0.1801
  145TCq2    C3 2209   3.572   1.441   0.596  0.0560  1.4350  0.5530
  145TCq2    C4 2210   3.699   1.478   0.636  0.6464  0.0693  0.7636
  145TCq2    C5 2211   3.722   1.582   0.729  0.2237  0.0361 -0.7681
  145TCq2    C6 2212   3.616   1.645   0.788 -0.1147  0.2220 -0.2011
  145TCq2    C7 2213   3.484   1.619   0.739  0.7130  0.4143  0.3333
  145TCq2    C8 2214   3.638   1.786   0.817 -0.3111  0.1127 -0.6792
  145TCq2    O4 2215   3.754   1.827   0.811 -0.3467  0.2131  0.3603
  145TCq2    C9 2216   3.816   1.425   0.573  0.2432 -0.3605 -0.4223
  145TCq2    O5 2217   3.802   1.325   0.494  0.5937 -0.1582 -0.1958
  145TCq2    O6 2218   3.925   1.474   0.604 -0.4860  0.1047  0.2629
  145TCq2    H2 2219   3.560   1.358   0.528  0.3464  1.6500  0.2370
  145TCq2    H3 2220   3.821   1.626   0.739 -0.4632  1.7075 -1.2468
  145TCq2    H4 2221   3.408   1.693   0.757 -0.5963 -0.8872  0.0998
  146TMC2    C1 2222   4.131   0.239  12.362  0.5793 -0.1985  0.0159
  146TMC2    C2 2223   4.001   0.234  12.319 -0.6361  0.8090 -0.9587
  146TMC2    C3 2224   3.956   0.131  12.240  0.2760  0.9596 -0.1893
  146TMC2    C4 2225   4.219   0.143  12.323  0.0345  0.0914 -0.2596
  146TMC2    C5 2226   4.177   0.045  12.239  0.2670  0.9079 -0.2548
  146TMC2    C6 2227   4.044   0.033  12.201  0.4864 -0.3635  0.6678
  146TMC2     C 2228   4.160   0.299  12.491  0.0028  1.3028 -0.1161
  146TMC2     O 2229   4.089   0.396  12.497 -0.3160 -0.0603 -0.5383
  146TMC2     H 2230   3.931   0.302  12.365 -0.4292  1.1681 -1.1704
  146TMC2    H1 2231   4.324   0.155  12.349  0.2069  0.8599 -1.2922
  146TMC2    H2 2232   4.012   4.686  12.127  0.2205 -2.0945  2.4505
  146TMC2    C7 2233   4.281   4.705  12.168 -0.9636 -0.7276  0.5195
  146TMC2    C8 2234   3.844   0.157  12.149  0.2569  0.5359 -0.6598
  146TMC2    O1 2235   4.244   4.667  12.058 -0.7355 -0.2210 -0.2811
  146TMC2    O2 2236   3.807   0.274  12.140 -0.4374  0.2828  0.1815
  146TMC2    O5 2237   3.763   0.052  12.172 -0.0982  0.0434 -0.2737
  146TMC2    H5 2238   3.806   4.690  12.183  0.1086  0.2050  0.1846
  147MPD2     C 2239   0.037   4.621  12.029  0.2508  0.8493 -0.3960
  147MPD2    C1 2240   0.033   4.616  12.164 -0.5417  0.4049 -0.1403
  147MPD2    C2 2241   4.637   4.642  12.232  0.1796 -0.0215 -0.2241
  147MPD2    C3 2242   4.526   4.663  12.154 -0.1206 -0.1896  0.4141
  147MPD2    C4 2243   4.538   4.664  12.018  0.0167  0.0490  0.1593
  147MPD2    C5 2244   4.655   4.641  11.956 -0.1580 -0.0391  0.0567
  147MPD2     H 2245   4.633   4.643  12.340  0.1644 -1.2099 -0.2124
  147MPD2    H1 2246   4.444   4.680  11.966  0.1549  2.2083  0.5598
  147MPD2    H2 2247   0.127   4.593  11.975  0.6577  2.3555 -0.5132
  147MPD2    H3 2248   4.676   4.646  11.850 -0.9594  0.8131 -0.0585
  147MPD2     N 2249   4.406   4.698  12.223 -0.2416 -0.0440  0.3753
  147MPD2    H5 2250   4.411   4.707  12.324 -0.1099  1.3554  0.2475
  147MPD2    N1 2251   0.144   4.571  12.235  0.0934 -0.1050 -0.2744
  147MPD2    H7 2252   0.229   4.564  12.181 -1.4896  0.9539 -2.9325
  148MPD2     C 2253   4.626   3.809  10.836 -0.6013  0.9555  0.1861
  148MPD2    C1 2254   4.691   3.700  10.787 -0.2812 -0.1920 -0.2263
  148MPD2    C2 2255   4.645   3.639  10.670 -0.5448 -0.3943  0.6785
  148MPD2    C3 2256   4.523   3.680  10.617 -0.3816 -0.8123 -0.2527
  148MPD2    C4 2257   4.462   3.790  10.666  0.4095  0.4772  0.3484
  148MPD2    C5 2258   4.514   3.853  10.778 -0.0335  0.4749  0.3297
  148MPD2     H 2259   4.705   3.557  10.632  0.7088  1.6308 -1.6910
  148MPD2    H1 2260   4.369   3.821  10.618  0.6543  0.1423 -0.3391
  148MPD2    H2 2261   4.661   3.861  10.925 -0.9777  0.8461  0.3993
  148MPD2    H3 2262   4.466   3.943  10.813 -1.9125 -0.6228  0.5434
  148MPD2     N 2263   4.465   3.603  10.514 -0.1216  0.2932 -0.1861
  148MPD2    H5 2264   4.364   3.610  10.506 -0.2602  0.5545  2.0233
  148MPD2    N1 2265   0.081   3.639  10.848  0.4788 -0.0314 -0.1593
  148MPD2    H7 2266   0.126   3.562  10.800  1.5236 -0.4819  1.5553
  149TCq2    C1 2267   0.158   3.708  10.939 -0.1327  0.2395  0.2052
  149TCq2    O2 2268   0.140   3.815  10.996  0.1085  0.0350 -0.2183
  149TCq2    C2 2269   0.292   3.645  10.937 -0.8543 -0.6228 -0.0077
  149TCq2    C3 2270   0.392   3.740  10.916  0.0940 -0.3643  0.0829
  149TCq2    C4 2271   0.514   3.706  10.869  0.3492 -0.8241  0.7738
  149TCq2    C5 2272   0.534   3.583  10.816 -0.3408  0.1154 -0.2815
  149TCq2    C6 2273   0.441   3.484  10.840  0.0567 -0.1389 -0.5242
  149TCq2    C7 2274   0.312   3.516  10.894 -0.7944 -0.9959 -0.1887
  149TCq2    C8 2275   0.457   3.353  10.775 -0.0912 -0.7793  0.0468
  149TCq2    O4 2276   0.368   3.268  10.788 -0.1160  0.3255 -0.1332
  149TCq2    C9 2277   0.604   3.810  10.821 -0.2476  0.1986 -0.1993
  149TCq2    O5 2278   0.717   3.774  10.781 -0.4751  0.5134  0.0124
  149TCq2    O6 2279   0.562   3.929  10.814 -0.7819  0.2175  0.8358
  149TCq2    H2 2280   0.374   3.845  10.935  0.6434  0.0733 -1.8624
  149TCq2    H3 2281   0.623   3.574  10.755  1.6819 -0.6339  2.7734
  149TCq2    H4 2282   0.251   3.428  10.912  0.7388 -1.9885  0.1778
  150MPD2     C 2283   1.579   2.852  12.312 -0.0524 -0.2150 -0.3462
  150MPD2    C1 2284   1.600   2.814  12.178 -0.6059  0.2844 -0.2462
  150MPD2    C2 2285   1.705   2.871  12.109 -0.2097  0.4436 -0.6928
  150MPD2    C3 2286   1.777   2.978  12.153 -0.2713 -0.1586  0.1469
  150MPD2    C4 2287   1.747   3.015  12.280  0.0649 -0.7793 -0.1671
  150MPD2    C5 2288   1.652   2.951  12.357 -0.0451  0.6871 -0.1355
  150MPD2     H 2289   1.738   2.834  12.012  2.0954  2.0282 -0.4908
  150MPD2    H1 2290   1.787   3.104  12.328 -2.2987  0.3080 -0.2010
  150MPD2    H2 2291   1.513   2.795  12.376  1.2985 -1.0647  0.2895
  150MPD2    H3 2292   1.634   2.982  12.459 -0.3117 -1.0660  0.3405
  150MPD2     N 2293   1.879   3.027  12.071  0.5253 -0.8090 -0.4737
  150MPD2    H5 2294   1.888   2.977  11.983  0.5918  0.7331 -1.3530
  150MPD2    N1 2295   1.531   2.710  12.120 -0.8344 -0.2417 -0.7774
  150MPD2    H7 2296   1.467   2.658  12.179  0.3750 -0.2269  0.5424
  151TCq2    C1 2297   1.978   3.119  12.103  0.0525 -0.0726  0.4529
  151TCq2    O2 2298   1.984   3.200  12.191  0.2033  0.1035  0.4536
  151TCq2    C2 2299   2.091   3.106  12.021 -0.2179  0.4714 -0.0134
  151TCq2    C3 2300   2.093   3.038  11.901  0.3363  0.3775 -0.5001
  151TCq2    C4 2301   2.207   2.973  11.866 -0.0785 -0.2430  0.2797
  151TCq2    C5 2302   2.320   2.979  11.947  0.2004 -0.8989 -0.1215
  151TCq2    C6 2303   2.318   3.050  12.062 -1.1022  0.1406 -0.0263
  151TCq2    C7 2304   2.201   3.117  12.098  0.3525  1.1342 -0.5222
  151TCq2    C8 2305   2.443   3.100  12.109 -0.6312  0.3194  0.0046
  151TCq2    O4 2306   2.445   3.221  12.137 -0.0639  0.0428 -0.0679
  151TCq2    C9 2307   2.210   2.897  11.740 -0.1803  0.8447  0.0422
  151TCq2    O5 2308   2.311   2.830  11.721  0.1394 -0.1216  0.1355
  151TCq2    O6 2309   2.128   2.942  11.653  0.3230  0.0626 -0.1335
  151TCq2    H2 2310   2.005   3.035  11.838  1.4266 -1.2194 -1.9703
  151TCq2    H3 2311   2.408   2.929  11.910 -0.2036 -0.1170 -2.1950
  151TCq2    H4 2312   2.201   3.165  12.196  1.4665  1.0500 -0.4786
  152MPD2     C 2313   1.368   2.212  12.684  0.1804 -0.4456 -0.0045
  152MPD2    C1 2314   1.416   2.295  12.586  0.5715  0.1348  0.5351
  152MPD2    C2 2315   1.323   2.371  12.514  0.0671  0.2112  0.2007
  152MPD2    C3 2316   1.186   2.368  12.545  0.1143  0.4565  0.6678
  152MPD2    C4 2317   1.137   2.293  12.649  0.0671  0.2278  0.1324
  152MPD2    C5 2318   1.229   2.216  12.712  0.8146  0.4142 -0.8632
  152MPD2     H 2319   1.354   2.447  12.443  1.1802 -0.4338 -0.0122
  152MPD2    H1 2320   1.039   2.301  12.694 -0.1544 -0.8309 -0.1432
  152MPD2    H2 2321   1.433   2.155  12.749 -2.5329 -1.1438  2.1054
  152MPD2    H3 2322   1.187   2.145  12.781 -0.5736  2.7947  0.7389
  152MPD2     N 2323   1.105   2.454  12.472 -0.0459  0.6105  0.2671
  152MPD2    H5 2324   1.143   2.510  12.397  0.8681 -0.7930 -0.3023
  152MPD2    N1 2325   1.559   2.311  12.583 -0.2901  0.8700 -0.6188
  152MPD2    H7 2326   1.599   2.260  12.661 -1.7344 -1.3520 -1.3326
  153TCq2    C1 2327   1.624   2.409  12.506  0.1979 -0.0631  0.7126
  153TCq2    O2 2328   1.572   2.490  12.433  0.1031 -0.0230  0.6688
  153TCq2    C2 2329   1.760   2.437  12.548  0.0819 -0.4657  0.1666
  153TCq2    C3 2330   1.837   2.331  12.588  0.3547 -0.1300 -0.5796
  153TCq2    C4 2331   1.973   2.343  12.591  0.0114  0.0743  0.4777
  153TCq2    C5 2332   2.032   2.463  12.559 -0.0834  0.2192  0.4742
  153TCq2    C6 2333   1.953   2.574  12.525 -0.2113 -0.2080 -0.1230
  153TCq2    C7 2334   1.815   2.560  12.519 -0.1339 -0.3141  0.5755
  153TCq2    C8 2335   2.014   2.704  12.487 -0.3443  0.2566 -0.2967
  153TCq2    O4 2336   1.936   2.786  12.444  0.3188  0.0079  0.1517
  153TCq2    C9 2337   2.049   2.226  12.624 -0.3930  0.5225 -0.6046
  153TCq2    O5 2338   2.172   2.248  12.620 -0.1127 -0.1642 -0.1455
  153TCq2    O6 2339   1.993   2.110  12.625 -0.6113 -0.1856 -0.3946
  153TCq2    H2 2340   1.791   2.237  12.618  0.0804  0.5106  1.0541
  153TCq2    H3 2341   2.140   2.466  12.556 -0.1601  0.7930 -2.0192
  153TCq2    H4 2342   1.750   2.647  12.513 -0.5561 -0.5129  2.2441
  154MPD2     C 2343   2.744   2.920   0.761 -0.5064 -0.3330  1.2030
  154MPD2    C1 2344   2.692   2.964   0.884 -0.5909  0.3889  0.0493
  154MPD2    C2 2345   2.564   2.978   0.896  0.6533  0.1259  0.1054
  154MPD2    C3 2346   2.482   2.972   0.789  0.2677 -0.2016 -0.3311
  154MPD2    C4 2347   2.529   2.938   0.668  0.2063 -0.0325  0.5039
  154MPD2    C5 2348   2.668   2.915   0.651  0.1846  0.2282  0.4147
  154MPD2     H 2349   2.517   2.991   0.993  0.7353  0.1646  0.1408
  154MPD2    H1 2350   2.481   2.941   0.570 -0.4292  1.5691  0.8553
  154MPD2    H2 2351   2.849   2.900   0.739 -0.1373 -0.4580  3.0950
  154MPD2    H3 2352   2.705   2.886   0.553  2.6096  1.6364  0.9303
  154MPD2     N 2353   2.345   2.989   0.813  0.3241 -0.3985 -0.0508
  154MPD2    H5 2354   2.321   3.008   0.911  0.9672  1.0193 -0.1639
  154MPD2    N1 2355   2.784   2.994   0.988  0.1707 -0.4787  0.0006
  154MPD2    H7 2356   2.881   2.968   0.970  1.4898  3.5317  1.3225
  155TCq2    C1 2357   2.752   3.051   1.107  0.8550 -0.2270 -0.4119
  155TCq2    O2 2358   2.641   3.094   1.145 -0.5657  0.4333  0.1151
  155TCq2    C2 2359   2.859   3.052   1.207  0.7042  0.5394  0.9233
  155TCq2    C3 2360   2.820   3.102   1.326  0.5158  0.7198 -0.2795
  155TCq2    C4 2361   2.918   3.111   1.426 -0.1805 -0.0586  0.5759
  155TCq2    C5 2362   3.024   3.029   1.421  0.5625  0.1624  0.6085
  155TCq2    C6 2363   3.060   2.981   1.299  0.2079  0.5123 -0.1670
  155TCq2    C7 2364   2.972   2.981   1.192  0.4588 -0.7782 -0.6215
  155TCq2    C8 2365   3.186   2.915   1.294 -0.3273  0.0020 -0.3012
  155TCq2    O4 2366   3.208   2.827   1.215 -0.8804 -0.1142  0.0731
  155TCq2    C9 2367   2.881   3.180   1.551 -0.6591 -0.9067  0.0773
  155TCq2    O5 2368   2.808   3.279   1.531 -0.2715  0.2370  0.1560
  155TCq2    O6 2369   2.959   3.165   1.647  0.1620  0.0712 -0.3860
  155TCq2    H2 2370   2.735   3.169   1.334  0.7254  0.8635  0.7584
  155TCq2    H3 2371   3.086   3.027   1.510 -0.1963  2.7330  1.2194
  155TCq2    H4 2372   2.984   2.923   1.101  2.8147  0.6085 -1.2239
  156MPD2     C 2373   2.158   0.102  11.127  0.0168 -0.6681 -0.3487
  156MPD2    C1 2374   2.025   0.118  11.074  0.1444 -0.1918 -0.0991
  156MPD2    C2 2375   1.920   0.116  11.172 -0.2096 -0.2869 -0.1748
  156MPD2    C3 2376   1.937   0.090  11.308  0.1610  0.0291 -0.4158
  156MPD2    C4 2377   2.061   0.043  11.347 -0.4615 -1.0776 -0.5247
  156MPD2    C5 2378   2.169   0.059  11.259 -0.3447  0.2723  0.1468
  156MPD2     H 2379   1.820   0.148  11.144  0.3716  0.7042 -1.1192
  156MPD2    H1 2380   2.096   0.022  11.447 -3.8661 -2.5717  0.3735
  156MPD2    H2 2381   2.243   0.112  11.060  0.5559  0.8303  0.5578
  156MPD2    H3 2382   2.267   0.040  11.301 -0.3649  2.2892  1.0858
  156MPD2     N 2383   1.834   0.104  11.401 -0.0524  0.3805 -0.2617
  156MPD2    H5 2384   1.748   0.145  11.367 -0.5683  0.6810  1.3851
  156MPD2    N1 2385   2.007   0.171  10.946  0.5163 -0.5846  0.2748
  156MPD2    H7 2386   2.093   0.185  10.893  1.0771  0.0915  1.3637
  157TCq2    C1 2387   1.889   0.198  10.890  0.0328 -0.7183  0.7508
  157TCq2    O2 2388   1.779   0.155  10.926 -0.4165 -0.4345  0.2749
  157TCq2    C2 2389   1.902   0.296  10.790 -0.3463  0.0878 -0.1018
  157TCq2    C3 2390   2.023   0.335  10.737  0.4912 -0.5065 -0.5123
  157TCq2    C4 2391   2.040   0.455  10.675  0.2796 -0.0832 -0.1222
  157TCq2    C5 2392   1.924   0.531  10.659  0.0096 -0.2422  0.0316
  157TCq2    C6 2393   1.800   0.494  10.706  0.2828  0.2544  0.6485
  157TCq2    C7 2394   1.794   0.380  10.777 -0.0085 -0.0333  0.5183
  157TCq2    C8 2395   1.689   0.592  10.710  0.5802 -0.6550 -0.5647
  157TCq2    O4 2396   1.715   0.703  10.654 -0.3182 -0.2289  0.0946
  157TCq2    C9 2397   2.168   0.512  10.638 -0.2582  0.1073  0.4421
  157TCq2    O5 2398   2.163   0.633  10.600 -0.0535 -0.1446 -0.4349
  157TCq2    O6 2399   2.275   0.446  10.650  0.7230  0.5437  0.8699
  157TCq2    H2 2400   2.112   0.275  10.750  1.5978  1.6354  1.9694
  157TCq2    H3 2401   1.924   0.630  10.614  1.8416  0.8464  2.4147
  157TCq2    H4 2402   1.697   0.333  10.792 -0.0355 -1.4429 -3.8240
  158TMC2    C1 2403   2.330   2.974  13.369 -0.0208  0.4204 -0.1211
  158TMC2    C2 2404   2.425   2.949  13.274  0.2435 -0.0465 -0.3776
  158TMC2    C3 2405   2.393   2.939  13.140  0.4683 -0.2369 -0.1491
  158TMC2    C4 2406   2.198   2.983  13.340 -0.0904 -0.3372 -0.1256
  158TMC2    C5 2407   2.173   2.954  13.207 -0.1107 -0.8471 -0.0753
  158TMC2    C6 2408   2.261   2.933  13.107  0.6148  0.4875  0.0634
  158TMC2     C 2409   2.387   3.007  13.504 -0.0260  0.5541 -0.4486
  158TMC2     O 2410   2.509   2.987  13.520  0.2415 -0.0320 -0.0072
  158TMC2     H 2411   2.528   2.945  13.308  0.2584 -3.1202 -0.7748
  158TMC2    H1 2412   2.117   3.000  13.410 -3.2146 -1.8998 -3.3916
  158TMC2    H2 2413   2.227   2.923  13.004  0.2514 -0.0694  0.2390
  158TMC2    C7 2414   2.035   2.973  13.156  1.1160  0.6274  0.3224
  158TMC2    C8 2415   2.500   2.912  13.046 -0.7537  0.3036 -0.5747
  158TMC2    O1 2416   2.016   3.001  13.039  0.2934  0.1500 -0.4878
  158TMC2    O2 2417   2.608   2.864  13.076  0.6612  0.4770 -0.3923
  158TMC2    O5 2418   2.474   2.974  12.930  0.2069 -0.1476 -0.0875
  158TMC2    H5 2419   2.383   3.009  12.920 -0.6898 -1.7808  2.4191
  159MPD2     C 2420   2.357   3.218  13.964  0.3449 -0.7623  0.0854
  159MPD2    C1 2421   2.228   3.184  13.930 -0.2535 -0.4148  0.5825
  159MPD2    C2 2422   2.208   3.114  13.809  0.0100 -0.2175  0.5976
  159MPD2    C3 2423   2.317   3.095  13.725 -0.3931  0.4390 -0.5002
  159MPD2    C4 2424   2.444   3.143  13.755 -0.4047  0.5130 -0.1498
  159MPD2    C5 2425   2.468   3.199  13.880  0.2214  0.0779 -0.6949
  159MPD2     H 2426   2.109   3.081  13.783  0.1695 -0.2077 -0.0262
  159MPD2    H1 2427   2.528   3.124  13.689  0.3776  0.7109  0.7731
  159MPD2    H2 2428   2.370   3.280  14.052  1.5296  0.4299 -0.9202
  159MPD2    H3 2429   2.555   3.252  13.918  0.0513  0.7139 -1.1963
  159MPD2     N 2430   2.293   3.038  13.601 -0.1970  0.2673  0.4824
  159MPD2    H5 2431   2.196   3.017  13.582  0.1632 -3.1988  2.4334
  159MPD2    N1 2432   2.127   3.202  14.028 -0.0940  0.1886 -0.2988
  159MPD2    H7 2433   2.153   3.247  14.115 -1.4536 -1.7809  1.1030
  160TMC2    C1 2434   1.723   1.535   1.259 -0.4764  0.7994 -0.0123
  160TMC2    C2 2435   1.768   1.415   1.304  0.6473 -0.6508 -0.4757
  160TMC2    C3 2436   1.878   1.353   1.259 -0.1677 -0.0634 -0.3627
  160TMC2    C4 2437   1.801   1.603   1.167  0.4684 -0.7693 -0.1872
  160TMC2    C5 2438   1.910   1.539   1.117 -0.9221  0.3770  0.2372
  160TMC2    C6 2439   1.951   1.414   1.157  0.1217 -0.9364  0.5058
  160TMC2     C 2440   1.579   1.552   1.240 -0.4219 -0.7677 -0.8646
  160TMC2     O 2441   1.513   1.452   1.262 -0.0384 -0.1274  0.1137
  160TMC2     H 2442   1.707   1.351   1.367  1.8822 -0.6314  0.7382
  160TMC2    H1 2443   1.773   1.695   1.117  0.1405 -0.4498  0.5881
  160TMC2    H2 2444   2.040   1.369   1.114 -0.1026 -0.0277 -0.8988
  160TMC2    C7 2445   1.997   1.613   1.022  0.1063 -0.6191  0.0491
  160TMC2    C8 2446   1.885   1.204   1.277 -0.0025  0.1214 -0.3268
  160TMC2    O1 2447   2.060   1.542   0.946 -0.0677  0.2402 -0.3508
  160TMC2    O2 2448   1.838   1.148   1.376 -0.3778 -0.0107  0.0679
  160TMC2    O5 2449   1.889   1.153   1.149 -0.0994 -0.6279  0.2706
  160TMC2    H5 2450   1.869   1.230   1.092 -0.7059 -0.9009  0.1182
  161MPD2     C 2451   1.314   1.657   1.144 -0.5532  0.5055 -0.3520
  161MPD2    C1 2452   1.416   1.740   1.191  0.4408 -0.2415 -0.5016
  161MPD2    C2 2453   1.400   1.878   1.173  1.2818 -0.4904  0.4822
  161MPD2    C3 2454   1.278   1.925   1.137  0.0846 -0.2393 -0.7962
  161MPD2    C4 2455   1.182   1.844   1.094  0.3069 -0.1834 -0.2839
  161MPD2    C5 2456   1.197   1.708   1.095  0.3900  0.1482  0.5968
  161MPD2     H 2457   1.481   1.948   1.185  0.5411  0.3626  0.4886
  161MPD2    H1 2458   1.092   1.885   1.050  0.0190 -0.6204 -0.1143
  161MPD2    H2 2459   1.326   1.549   1.143 -0.0893  0.5893 -2.1548
  161MPD2    H3 2460   1.127   1.640   1.049  2.1572 -1.3149  0.0626
  161MPD2     N 2461   1.256   2.065   1.106  0.3744  0.2611  0.3291
  161MPD2    H5 2462   1.165   2.090   1.069  0.1265 -1.0324  0.0846
  161MPD2    N1 2463   1.541   1.688   1.231 -0.5129  0.1536 -0.6343
  161MPD2    H7 2464   1.610   1.762   1.239  0.7451 -1.0973  0.0967
  162TMC2    C1 2465   4.588   4.608   1.191  0.0241 -0.3295 -0.2555
  162TMC2    C2 2466   4.658   4.687   1.280  0.1560  0.3154  0.0384
  162TMC2    C3 2467   4.620   4.676   1.409 -0.0856  0.6679 -0.4668
  162TMC2    C4 2468   4.483   4.531   1.236 -0.1328 -0.7343  0.1856
  162TMC2    C5 2469   4.450   4.528   1.366 -0.0825  0.4843 -0.2055
  162TMC2    C6 2470   4.524   4.598   1.458  0.0496  0.4697  0.0427
  162TMC2     C 2471   4.647   4.591   1.061 -0.1724 -0.0365 -1.0460
  162TMC2     O 2472   4.624   4.483   1.006  0.5704 -0.3558 -0.1909
  162TMC2     H 2473   0.009   0.032   1.253  0.8013 -0.2849  0.3068
  162TMC2    H1 2474   4.413   4.479   1.172 -0.1025 -1.5067  0.7798
  162TMC2    H2 2475   4.496   4.589   1.562  0.2566 -0.6044  0.0039
  162TMC2    C7 2476   4.339   4.446   1.401  0.3711  0.4910  0.6180
  162TMC2    C8 2477   4.703   0.042   1.497  0.3425 -0.5349  0.1081
  162TMC2    O1 2478   4.255   4.425   1.310  0.0660  0.2665 -0.3608
  162TMC2    O2 2479   0.091   0.068   1.467 -0.4844 -0.3507  0.0851
  162TMC2    O5 2480   4.636   0.074   1.606 -0.0426 -0.1853 -0.2275
  162TMC2    H5 2481   4.544   0.043   1.614  0.0377 -0.5229 -0.6429
  163MPD2     C 2482   0.266   0.010   0.699 -0.2290 -0.0337 -0.5386
  163MPD2    C1 2483   0.197   4.617   0.719 -0.1766 -0.2622 -0.1905
  163MPD2    C2 2484   0.108   4.600   0.818  0.0412 -0.1611  0.4342
  163MPD2    C3 2485   0.085   4.704   0.910 -0.2564 -0.1382  0.5725
  163MPD2    C4 2486   0.157   0.092   0.893  0.3321 -0.6218  0.1439
  163MPD2    C5 2487   0.238   0.110   0.784  0.4192  1.1002  0.0877
  163MPD2     H 2488   0.048   4.510   0.821 -2.1726  1.3603  1.8463
  163MPD2    H1 2489   0.165   0.167   0.971  0.7812  0.8553 -1.3206
  163MPD2    H2 2490   0.342   0.028   0.623  2.6767 -0.8617  2.1678
  163MPD2    H3 2491   0.289   0.204   0.766  0.4216  0.9136 -0.8809
  163MPD2     N 2492   4.723   4.696   1.020 -0.7717 -0.1036  0.1029
  163MPD2    H5 2493   4.719   0.052   1.081 -1.8826  0.2633 -0.4506
  163MPD2    N1 2494   0.222   4.506   0.634  0.1395  0.8349 -0.0373
  163MPD2    H7 2495   0.284   4.512   0.554 -0.3625 -0.0797 -0.4915
  164TCq2    C1 2496   0.458   3.652  11.285 -1.0309  0.6197  0.3375
  164TCq2    O2 2497   0.364   3.612  11.347  0.2835  0.0703 -0.3883
  164TCq2    C2 2498   0.479   3.792  11.271 -0.7985 -0.2211 -0.4504
  164TCq2    C3 2499   0.592   3.842  11.214  0.7591  0.0800 -0.0785
  164TCq2    C4 2500   0.593   3.974  11.191 -1.0582 -0.6146 -0.5292
  164TCq2    C5 2501   0.492   4.065  11.227 -0.4643  0.1945  0.4451
  164TCq2    C6 2502   0.384   4.007  11.283 -0.6865  0.5701 -0.0067
  164TCq2    C7 2503   0.372   3.869  11.299 -0.0206 -0.4767  0.9007
  164TCq2    C8 2504   0.267   4.090  11.323  0.1588 -0.3266  0.7625
  164TCq2    O4 2505   0.157   4.034  11.333  0.3292  0.0979  0.5088
  164TCq2    C9 2506   0.702   4.028  11.108 -0.0858 -0.3859  0.3025
  164TCq2    O5 2507   0.806   3.961  11.088 -0.0185  0.1380  0.0864
  164TCq2    O6 2508   0.681   4.142  11.059  0.2019  0.1218  0.7103
  164TCq2    H2 2509   0.681   3.782  11.198 -0.0557 -0.9836 -0.6463
  164TCq2    H3 2510   0.499   4.168  11.194 -0.4744 -0.6951 -2.2896
  164TCq2    H4 2511   0.284   3.816  11.332  0.6490 -1.7634  0.6178
  165MPD2     C 2512   1.673   0.532   2.228 -0.0402 -0.3215 -1.0338
  165MPD2    C1 2513   1.654   0.602   2.111 -0.0894  0.0924  0.1650
  165MPD2    C2 2514   1.669   0.739   2.106 -0.0817  0.2338 -0.0375
  165MPD2    C3 2515   1.729   0.811   2.208 -0.3704 -1.0216 -0.2182
  165MPD2    C4 2516   1.749   0.741   2.330 -0.2990  0.7667 -0.0843
  165MPD2    C5 2517   1.730   0.603   2.333  0.0168  0.1431  0.1184
  165MPD2     H 2518   1.626   0.778   2.014 -2.2498 -1.1917  0.3781
  165MPD2    H1 2519   1.811   0.792   2.403  1.5349  0.1684 -1.1995
  165MPD2    H2 2520   1.648   0.427   2.240  1.7035 -0.8456 -1.9839
  165MPD2    H3 2521   1.762   0.547   2.420  0.5078  0.6457  0.2624
  165MPD2     N 2522   1.774   0.946   2.203  0.4274 -0.8334  0.3959
  165MPD2    H5 2523   1.810   0.986   2.289 -0.6689  1.0716 -0.0183
  165MPD2    N1 2524   1.615   0.521   2.002 -0.6051  0.0084 -0.4879
  165MPD2    H7 2525   1.602   0.421   2.013  0.1996  0.0551  1.0103
  166TCq2    C1 2526   1.792   1.010   2.086  0.0315 -0.2085 -0.9782
  166TCq2    O2 2527   1.794   0.956   1.977  0.5994 -0.0649 -0.6877
  166TCq2    C2 2528   1.814   1.146   2.102  0.0329 -0.0663 -0.1496
  166TCq2    C3 2529   1.786   1.204   2.221  0.3861 -0.1605  0.1195
  166TCq2    C4 2530   1.807   1.343   2.227 -0.3076 -0.3136  0.1142
  166TCq2    C5 2531   1.878   1.412   2.131 -0.3624  0.5355  0.1581
  166TCq2    C6 2532   1.932   1.333   2.028 -0.2295 -0.1650  0.0066
  166TCq2    C7 2533   1.888   1.206   2.007 -0.2941 -0.7589  0.1421
  166TCq2    C8 2534   1.968   1.404   1.904  0.0789 -0.2687  0.4478
  166TCq2    O4 2535   2.038   1.336   1.832  0.1998 -0.3322  0.1893
  166TCq2    C9 2536   1.756   1.421   2.334  0.0377  0.1112 -0.4805
  166TCq2    O5 2537   1.727   1.541   2.304  0.5928  0.1894  0.6398
  166TCq2    O6 2538   1.706   1.350   2.427  0.1329  0.3887 -0.3357
  166TCq2    H2 2539   1.732   1.158   2.302 -1.3707  0.6568 -0.5757
  166TCq2    H3 2540   1.899   1.518   2.140  1.8276  0.2447 -1.3707
  166TCq2    H4 2541   1.936   1.148   1.930  0.1624 -1.6075  1.0603
  167TMC2    C1 2542   4.319   3.789  12.295  0.4336 -0.0591 -0.0243
  167TMC2    C2 2543   4.230   3.875  12.354 -0.2032 -0.1675  0.9712
  167TMC2    C3 2544   4.208   3.865  12.490 -0.4805  0.0706  0.4324
  167TMC2    C4 2545   4.405   3.708  12.369 -0.0724 -0.1321 -1.0212
  167TMC2    C5 2546   4.379   3.690  12.502  0.2852  0.1138  0.1724
  167TMC2    C6 2547   4.274   3.763  12.557  0.0079  0.2667  0.4380
  167TMC2     C 2548   4.298   3.773  12.153  1.0141  0.1781 -0.1146
  167TMC2     O 2549   4.185   3.805  12.112 -0.0466 -0.4405 -0.5767
  167TMC2     H 2550   4.180   3.947  12.291  0.1292 -0.2061  0.6637
  167TMC2    H1 2551   4.475   3.642  12.319 -0.2758 -3.1172  2.6249
  167TMC2    H2 2552   4.245   3.749  12.660  1.8675  2.4344  1.2668
  167TMC2    C7 2553   4.398   3.565  12.570  0.0966 -0.3973 -0.1517
  167TMC2    C8 2554   4.088   3.921  12.539 -0.6203  0.1990 -0.3417
  167TMC2    O1 2555   4.310   3.517  12.642 -0.3332 -0.5306  0.2609
  167TMC2    O2 2556   3.995   3.942  12.465 -0.1272 -0.1692 -0.6018
  167TMC2    O5 2557   4.141   4.018  12.620  0.7182  0.6777 -0.5017
  167TMC2    H5 2558   4.224   4.004  12.670 -0.0964  1.3195  1.0232
  168MPD2     C 2559   4.224   3.612  11.923 -0.2700  0.0056 -0.6896
  168MPD2    C1 2560   4.334   3.590  11.999 -0.4996  0.1080  0.3260
  168MPD2    C2 2561   4.395   3.470  11.998 -0.1864  0.3093 -0.2340
  168MPD2    C3 2562   4.364   3.377  11.899  0.1585 -0.6486  0.2059
  168MPD2    C4 2563   4.251   3.396  11.823  0.4085 -0.6683  0.7512
  168MPD2    C5 2564   4.176   3.516  11.839  0.6190 -0.1804  0.4409
  168MPD2     H 2565   4.491   3.463  12.047 -0.5336 -0.5796  0.3208
  168MPD2    H1 2566   4.208   3.324  11.755 -1.2405 -0.0255  1.0904
  168MPD2    H2 2567   4.161   3.699  11.932  0.4460  0.5433 -0.8740
  168MPD2    H3 2568   4.084   3.532  11.784  1.0167 -0.0753 -0.2004
  168MPD2     N 2569   4.415   3.250  11.888  0.0138 -0.0707  0.3427
  168MPD2    H5 2570   4.370   3.183  11.827  2.0256 -1.2029  0.1093
  168MPD2    N1 2571   4.377   3.679  12.099  0.7988  0.2283  0.3975
  168MPD2    H7 2572   4.464   3.666  12.150  0.6335 -0.4731  0.4905
  169MPD1     C 2573   1.250   3.055   8.974  0.1986 -0.6439  0.4630
  169MPD1    C1 2574   1.340   3.145   8.928  0.6557  0.5593 -0.3719
  169MPD1    C2 2575   1.478   3.115   8.948 -0.4506  0.0748  0.4558
  169MPD1    C3 2576   1.519   2.989   9.002  0.3791 -0.5440 -0.3719
  169MPD1    C4 2577   1.418   2.901   9.042 -0.3179  0.2478 -0.0843
  169MPD1    C5 2578   1.290   2.935   9.026  0.3913  0.4085  0.2677
  169MPD1     H 2579   1.548   3.190   8.915 -1.2470  0.9874  0.8585
  169MPD1    H1 2580   1.438   2.802   9.082  0.0773 -0.1656 -1.2926
  169MPD1    H2 2581   1.142   3.071   8.979  0.1910 -0.5237 -0.1240
  169MPD1    H3 2582   1.214   2.865   9.060  0.9460  0.5313  1.7687
  169MPD1     N 2583   1.657   2.960   9.014  0.2191  0.3632  0.1870
  169MPD1    H5 2584   1.719   3.041   9.009 -0.0100  0.5625  0.5714
  169MPD1    N1 2585   1.297   3.275   8.896 -0.6742  0.1092  0.1690
  169MPD1    H6 2586   1.201   3.264   8.861 -0.5254 -1.5387  0.2810
  169MPD1    H7 2587   1.361   3.309   8.825 -0.1963 -2.5268 -0.6631
  170MPD1     C 2588   0.151   0.690  12.757  0.1181 -0.1393  0.4094
  170MPD1    C1 2589   0.114   0.801  12.826 -0.3244 -0.3885  0.3903
  170MPD1    C2 2590   0.159   0.802  12.961  0.2755  0.1319 -0.7833
  170MPD1    C3 2591   0.219   0.696  13.027  0.4599 -0.6184 -0.0240
  170MPD1    C4 2592   0.240   0.576  12.951 -0.0103  0.1369  0.0190
  170MPD1    C5 2593   0.208   0.577  12.815 -0.5245  0.0334  0.9904
  170MPD1     H 2594   0.135   0.885  13.027 -0.5123 -1.3018  0.7014
  170MPD1    H1 2595   0.290   0.486  12.983  0.1514 -0.1928 -1.1477
  170MPD1    H2 2596   0.130   0.690  12.651 -0.5406 -0.5972  0.5466
  170MPD1    H3 2597   0.223   0.494  12.748  0.0167 -0.2289  1.4406
  170MPD1     N 2598   0.245   0.700  13.166  0.4057 -0.3128  0.2169
  170MPD1    H5 2599   0.209   0.788  13.202 -2.6731 -1.3702 -0.2659
  170MPD1    N1 2600   0.063   0.911  12.764 -0.1050  0.8126 -0.1174
  170MPD1    H6 2601   0.032   0.888  12.669 -1.7363  1.8682  0.1615
  170MPD1    H7 2602   4.704   0.945  12.809  0.0953  0.1977  0.7061
  171MPD1     C 2603   3.488   2.175  15.204 -0.5969  0.8073  0.9377
  171MPD1    C1 2604   3.595   2.093  15.186  0.0960 -0.0053  0.1529
  171MPD1    C2 2605   3.675   2.062  15.295  0.6203 -0.8365 -0.9064
  171MPD1    C3 2606   3.626   2.096  15.423 -0.2075  0.3768  0.0467
  171MPD1    C4 2607   3.515   2.175  15.433  0.5136 -0.2845 -0.3737
  171MPD1    C5 2608   3.453   2.223  15.328 -0.4194 -0.5997 -0.0824
  171MPD1     H 2609   3.765   2.002  15.294  0.6779 -0.7971  0.7690
  171MPD1    H1 2610   3.480   2.202  15.532 -1.0601 -0.3120 -0.9261
  171MPD1    H2 2611   3.423   2.205  15.123 -0.4722 -2.0923 -0.2259
  171MPD1    H3 2612   3.364   2.285  15.338 -1.1038 -1.0748 -3.0866
  171MPD1     N 2613   3.685   2.052  15.546  0.2552  0.3858 -0.7225
  171MPD1    H5 2614   3.630   2.064  15.631 -2.0757 -0.7871 -2.0864
  171MPD1    N1 2615   3.636   2.064  15.050 -0.2117  0.3647  0.0246
  171MPD1    H6 2616   3.554   2.053  14.991 -1.0619 -0.5107  1.3876
  171MPD1    H7 2617   3.693   1.980  15.044  0.0904  0.6350 -0.9608
  172MPD1     C 2618   2.866   1.787  17.651 -0.3398  0.0532 -0.0519
  172MPD1    C1 2619   2.821   1.897   0.020 -0.0035  0.0189 -0.5692
  172MPD1    C2 2620   2.864   1.912   0.150  0.8533  0.3687 -0.1887
  172MPD1    C3 2621   2.956   1.824   0.211  0.1403  0.0140 -0.1887
  172MPD1    C4 2622   2.991   1.717   0.131  0.3697  0.1784  0.5837
  172MPD1    C5 2623   2.955   1.696   0.002 -0.6333 -0.2363  0.2542
  172MPD1     H 2624   2.835   2.004   0.201 -2.8655 -1.3494  0.7866
  172MPD1    H1 2625   3.060   1.648   0.178  0.1946 -0.4676 -0.1250
  172MPD1    H2 2626   2.835   1.777  17.547  2.4204  0.8200 -0.9361
  172MPD1    H3 2627   2.984   1.607  17.651  2.9019  2.0998 -1.6987
  172MPD1     N 2628   2.999   1.827   0.349 -0.4196 -0.0632  0.0050
  172MPD1    H5 2629   3.080   1.771   0.372  0.3547  1.3883  0.7775
  172MPD1    N1 2630   2.737   2.005  17.675 -0.1152 -0.4913 -0.1509
  172MPD1    H6 2631   2.699   1.987  17.582  0.0311 -2.5141  0.1846
  172MPD1    H7 2632   2.656   2.023   0.029 -0.6342 -1.4618 -0.5818
  173MPD1     C 2633   0.539   1.422  13.777  0.3270  0.4038  0.1177
  173MPD1    C1 2634   0.581   1.294  13.810  0.2382 -0.6792 -0.0043
  173MPD1    C2 2635   0.557   1.248  13.940 -0.0713  0.3649  0.3610
  173MPD1    C3 2636   0.480   1.323  14.028 -0.3479  0.3303 -0.0216
  173MPD1    C4 2637   0.441   1.459  13.995 -0.0554  0.4322 -0.1676
  173MPD1    C5 2638   0.468   1.501  13.867 -0.3369 -0.2219 -0.7613
  173MPD1     H 2639   0.600   1.152  13.965  1.1238  0.5645 -0.9005
  173MPD1    H1 2640   0.399   1.527  14.068  0.2319  0.1913  0.2229
  173MPD1    H2 2641   0.565   1.465  13.681  0.4101 -1.0573 -0.5120
  173MPD1    H3 2642   0.432   1.596  13.829 -2.2904 -1.1616 -1.2611
  173MPD1     N 2643   0.455   1.274  14.154 -0.0287 -1.2549 -0.0739
  173MPD1    H5 2644   0.497   1.185  14.176  1.8120 -0.2451  0.5437
  173MPD1    N1 2645   0.675   1.228  13.726  0.4867  0.4040  0.3993
  173MPD1    H6 2646   0.664   1.273  13.635 -1.1235 -0.8141 -0.0166
  173MPD1    H7 2647   0.653   1.129  13.720  0.7799  0.2559  1.9017
  174MPD1     C 2648   0.992   0.771  14.547  0.4787  0.2070  0.0556
  174MPD1    C1 2649   0.913   0.802  14.660  0.3752 -0.8787  0.2165
  174MPD1    C2 2650   0.786   0.848  14.637 -0.4213  0.2963  0.5739
  174MPD1    C3 2651   0.745   0.888  14.509  0.0532 -0.1197 -0.2602
  174MPD1    C4 2652   0.825   0.852  14.396 -0.9725 -0.5488 -0.4487
  174MPD1    C5 2653   0.940   0.791  14.420 -0.8336  0.2779  0.7385
  174MPD1     H 2654   0.719   0.856  14.723 -0.7200 -1.1635  0.4852
  174MPD1    H1 2655   0.791   0.879  14.296 -0.1349  0.0579 -0.5715
  174MPD1    H2 2656   1.084   0.718  14.563  0.6425 -0.2787 -2.5459
  174MPD1    H3 2657   1.003   0.764  14.335 -0.6217 -0.7323  1.2060
  174MPD1     N 2658   0.622   0.948  14.473 -0.2751 -0.3514 -0.5816
  174MPD1    H5 2659   0.607   0.980  14.378 -0.9635 -0.1138 -0.3949
  174MPD1    N1 2660   0.955   0.764  14.790 -0.7949 -0.3391 -0.2506
  174MPD1    H6 2661   1.054   0.778  14.810 -0.6305 -0.2357 -1.1307
  174MPD1    H7 2662   0.898   0.813  14.858 -0.7075 -1.0508  0.3280
  175MPD1     C 2663   2.898   2.195  15.587 -0.2359 -0.0248  0.0639
  175MPD1    C1 2664   2.769   2.158  15.625 -0.1409 -1.3256  0.3214
  175MPD1    C2 2665   2.734   2.136  15.755 -0.3142  1.1540 -0.1554
  175MPD1    C3 2666   2.818   2.157  15.857  0.4265  0.5505  0.1202
  175MPD1    C4 2667   2.952   2.189  15.823  0.2657  0.1019  0.2615
  175MPD1    C5 2668   2.986   2.214  15.689 -0.1126  0.3467 -0.2081
  175MPD1     H 2669   2.630   2.113  15.775 -0.4606  2.8683  1.0561
  175MPD1    H1 2670   3.028   2.202  15.899 -0.0431  1.7446  0.2885
  175MPD1    H2 2671   2.922   2.206  15.482 -0.2163  2.1446  0.2978
  175MPD1    H3 2672   3.090   2.236  15.668 -0.0534 -0.6091 -0.9362
  175MPD1     N 2673   2.789   2.146  16.000 -0.4414  0.1048 -0.5454
  175MPD1    H5 2674   2.866   2.156  16.066  0.3665  0.1809 -1.5023
  175MPD1    N1 2675   2.671   2.138  15.524  0.1318  0.0654 -0.3395
  175MPD1    H6 2676   2.579   2.173  15.549 -0.0646  0.7706 -2.0497
  175MPD1    H7 2677   2.706   2.187  15.442  1.0362  1.7372  1.0382
  176MPD1     C 2678   0.233   4.150  16.568 -0.1747 -0.6823 -0.5890
  176MPD1    C1 2679   0.097   4.150  16.593  0.2180 -0.4982 -0.6053
  176MPD1    C2 2680   0.042   4.250  16.667  0.3256  0.2692 -0.4264
  176MPD1    C3 2681   0.121   4.344  16.735  0.3176  0.0019  0.5378
  176MPD1    C4 2682   0.251   4.344  16.701  0.1148  0.2214 -0.3025
  176MPD1    C5 2683   0.306   4.252  16.619  0.0741  0.7937 -0.6813
  176MPD1     H 2684   4.660   4.252  16.681  0.5490 -1.4165  1.5891
  176MPD1    H1 2685   0.316   4.417  16.748  1.9963 -1.3668 -0.4284
  176MPD1    H2 2686   0.287   4.084  16.501  0.3107  0.0572 -0.9256
  176MPD1    H3 2687   0.409   4.272  16.592  0.8556 -0.8409  1.0946
  176MPD1     N 2688   0.056   4.435  16.823 -0.1731  0.8710  0.0382
  176MPD1    H5 2689   4.682   4.421  16.840  0.5264 -1.6109  1.9741
  176MPD1    N1 2690   0.012   4.066  16.514  0.9271 -0.2753 -0.2562
  176MPD1    H6 2691   0.062   3.981  16.489 -2.7825 -2.6741  0.5190
  176MPD1    H7 2692   4.653   4.032  16.559  0.3169 -1.2269 -2.0930
  177MPD1     C 2693   3.359   4.068   9.759 -0.5752  0.6536  0.1055
  177MPD1    C1 2694   3.312   4.197   9.774  1.1126 -0.1408 -0.1954
  177MPD1    C2 2695   3.193   4.232   9.707 -0.4263  0.5243 -0.7454
  177MPD1    C3 2696   3.119   4.145   9.627  0.7717 -0.6969 -0.4243
  177MPD1    C4 2697   3.161   4.015   9.618 -0.5109 -0.8180 -0.0224
  177MPD1    C5 2698   3.277   3.979   9.687  0.1474  0.6217  0.2339
  177MPD1     H 2699   3.159   4.333   9.725 -2.3271 -0.5327  1.5235
  177MPD1    H1 2700   3.099   3.938   9.573  0.9539 -1.3560 -1.1165
  177MPD1    H2 2701   3.446   4.027   9.808 -1.0601  2.2929  2.3411
  177MPD1    H3 2702   3.317   3.879   9.681  0.4480  0.7017  0.8905
  177MPD1     N 2703   3.001   4.193   9.573  0.2517  0.1560 -0.1633
  177MPD1    H5 2704   2.986   4.293   9.577 -3.3751 -0.2869 -2.1451
  177MPD1    N1 2705   3.373   4.278   9.869  0.2803 -0.7419  0.3248
  177MPD1    H6 2706   3.355   4.377   9.856  2.5658 -0.4387 -0.7039
  177MPD1    H7 2707   3.475   4.273   9.861  0.2224  0.0551 -1.0176
  178MPD1     C 2708   0.718   0.881  17.642 -0.0589  0.1476 -0.5359
  178MPD1    C1 2709   0.725   0.747  17.634  0.2270  1.1997 -0.5245
  178MPD1    C2 2710   0.803   0.684  17.537 -0.6730 -0.0985 -0.3988
  178MPD1    C3 2711   0.839   0.767  17.431  0.5959  0.1219 -0.3609
  178MPD1    C4 2712   0.820   0.902  17.437 -0.3519  0.3501  0.6176
  178MPD1    C5 2713   0.764   0.966  17.542 -0.0112  0.5828  0.1528
  178MPD1     H 2714   0.814   0.577  17.529  0.0557  0.2118 -3.5430
  178MPD1    H1 2715   0.840   0.973  17.357 -1.4426 -0.6220 -0.5362
  178MPD1    H2 2716   0.667   0.931   0.021  2.2524 -0.2996  1.1723
  178MPD1    H3 2717   0.767   1.075  17.551  0.6795  0.5860 -0.1582
  178MPD1     N 2718   0.911   0.707  17.322  0.6133 -0.0844  0.0032
  178MPD1    H5 2719   0.944   0.777  17.257 -1.0390  3.1587  2.6446
  178MPD1    N1 2720   0.657   0.659   0.021  0.3239 -0.0317  0.7349
  178MPD1    H6 2721   0.661   0.559   0.002 -0.4634 -0.2410  1.6565
  178MPD1    H7 2722   0.575   0.699   0.066  0.5545 -1.0682  2.0619
  179MPD1     C 2723   0.107   2.753  14.994  0.2053  1.0111  0.1076
  179MPD1    C1 2724   0.207   2.806  15.074  0.1725 -0.0664 -0.3835
  179MPD1    C2 2725   0.186   2.797  15.214 -0.3261  0.8661 -0.2708
  179MPD1    C3 2726   0.064   2.762  15.266  0.8379  0.7884  0.1233
  179MPD1    C4 2727   4.693   2.714  15.181  0.8065 -0.3935  0.0364
  179MPD1    C5 2728   4.714   2.704  15.046  0.8387  0.7856  0.2631
  179MPD1     H 2729   0.267   2.832  15.276  1.0407  0.0620 -1.5957
  179MPD1    H1 2730   4.601   2.678  15.226 -0.9363  0.3245 -2.9562
  179MPD1    H2 2731   0.121   2.750  14.887 -0.3290  1.5002  0.0270
  179MPD1    H3 2732   4.637   2.656  14.986 -0.7778  2.4763  1.0135
  179MPD1     N 2733   0.040   2.765  15.403 -0.1646  0.5336 -0.4952
  179MPD1    H5 2734   4.674   2.733  15.433 -0.5258 -0.9364 -3.1903
  179MPD1    N1 2735   0.316   2.878  15.028 -0.3852  0.0464 -0.5136
  179MPD1    H6 2736   0.352   2.839  14.941  0.5933 -0.5924  0.1675
  179MPD1    H7 2737   0.385   2.890  15.103  0.4926  1.6086 -1.5855
  180MPD1     C 2738   4.584   3.880  15.207  0.9783  0.2239  0.3400
  180MPD1    C1 2739   4.582   3.833  15.077 -0.1522  0.6843  0.2487
  180MPD1    C2 2740   4.591   3.924  14.972 -0.5284  0.1847  0.6009
  180MPD1    C3 2741   4.604   4.060  14.997 -0.6594 -0.5292 -0.7473
  180MPD1    C4 2742   4.610   4.111  15.125  0.4912 -0.4585 -0.5586
  180MPD1    C5 2743   4.602   4.015  15.228 -0.3355  0.1759 -0.2900
  180MPD1     H 2744   4.584   3.885  14.871  2.1247  2.0086 -0.2843
  180MPD1    H1 2745   4.624   4.215  15.150 -0.4407  0.3661 -3.4705
  180MPD1    H2 2746   4.555   3.817  15.291  1.9034 -2.0002 -1.0131
  180MPD1    H3 2747   4.584   4.056  15.327  1.7539  1.0824 -0.2909
  180MPD1     N 2748   4.605   4.144  14.890 -0.3277 -0.2345 -0.3304
  180MPD1    H5 2749   4.586   4.106  14.798  1.2457 -1.9256  0.0434
  180MPD1    N1 2750   4.550   3.700  15.059 -0.8292  0.0732 -0.0046
  180MPD1    H6 2751   4.589   3.660  14.974 -2.7317  0.4493 -1.0654
  180MPD1    H7 2752   4.594   3.652  15.138  1.1869  1.9274 -0.0114
  181MPD1     C 2753   1.604   1.392   9.335 -0.5491 -0.1769 -0.0351
  181MPD1    C1 2754   1.646   1.513   9.272  0.3989  0.4011 -0.1588
  181MPD1    C2 2755   1.779   1.551   9.296 -0.7235 -0.2127  0.1929
  181MPD1    C3 2756   1.858   1.495   9.397 -0.3254 -0.0902  0.7934
  181MPD1    C4 2757   1.806   1.385   9.468  0.8597 -0.7051 -0.4657
  181MPD1    C5 2758   1.688   1.335   9.431 -0.4304 -0.2216 -1.1368
  181MPD1     H 2759   1.826   1.623   9.230  1.1113 -1.9581 -0.4153
  181MPD1    H1 2760   1.863   1.343   9.549  0.6598 -2.4906 -1.2622
  181MPD1    H2 2761   1.504   1.352   9.320 -0.6992 -0.3277  1.3398
  181MPD1    H3 2762   1.659   1.245   9.484 -2.7518  0.6948 -0.8520
  181MPD1     N 2763   1.985   1.533   9.428  0.5448 -0.1294 -0.3120
  181MPD1    H5 2764   2.035   1.480   9.499 -0.1638  1.9729  1.7425
  181MPD1    N1 2765   1.565   1.566   9.166  0.5199 -0.1617 -0.5739
  181MPD1    H6 2766   1.467   1.564   9.192  1.0451  1.3251  1.4943
  181MPD1    H7 2767   1.591   1.664   9.156  0.8616 -0.1097  0.8191
  182MPD1     C 2768   3.822   0.666   0.905  0.1613  0.2373  0.0502
  182MPD1    C1 2769   3.807   0.671   1.032 -0.5705  0.5795  0.1114
  182MPD1    C2 2770   3.688   0.649   1.103  0.0965  0.3386 -0.1996
  182MPD1    C3 2771   3.571   0.621   1.028 -0.2613  0.0493 -0.2106
  182MPD1    C4 2772   3.589   0.616   0.893 -0.5158 -0.0216 -0.2853
  182MPD1    C5 2773   3.709   0.648   0.830  0.1327 -0.0467  0.2087
  182MPD1     H 2774   3.692   0.650   1.211  0.0777 -2.2420 -0.1786
  182MPD1    H1 2775   3.498   0.614   0.835  1.1132  1.5057 -2.9176
  182MPD1    H2 2776   3.916   0.679   0.852  0.3628  0.1073  0.3827
  182MPD1    H3 2777   3.704   0.637   0.722  0.1993 -2.8038  0.4830
  182MPD1     N 2778   3.437   0.606   1.086  0.2602  0.0875  0.5065
  182MPD1    H5 2779   3.372   0.564   1.020 -1.7667  1.1903  1.7982
  182MPD1    N1 2780   3.919   0.682   1.114  0.8936  0.3465  0.8136
  182MPD1    H6 2781   4.002   0.722   1.071 -0.3498  1.2139 -0.7925
  182MPD1    H7 2782   3.895   0.732   1.200 -0.8389  1.9617 -0.6048
  183MPD1     C 2783   4.136   1.804   9.941  0.5559  0.3432  0.6880
  183MPD1    C1 2784   4.105   1.718  10.040  0.5909  0.3071  0.7334
  183MPD1    C2 2785   4.016   1.617  10.013 -0.5938 -0.4313  0.0411
  183MPD1    C3 2786   3.954   1.616   9.888  0.5191  0.1790 -0.6889
  183MPD1    C4 2787   3.992   1.703   9.789  0.0866 -0.1229 -0.2767
  183MPD1    C5 2788   4.085   1.798   9.822  0.3584 -0.2759  0.9636
  183MPD1     H 2789   4.000   1.535  10.082 -0.5448 -0.8661 -0.4641
  183MPD1    H1 2790   3.947   1.718   9.692  2.7426  1.4515 -1.2423
  183MPD1    H2 2791   4.198   1.891   9.959  1.0964  0.6671 -2.6912
  183MPD1    H3 2792   4.127   1.861   9.746  0.5513  0.4914  1.7075
  183MPD1     N 2793   3.860   1.507   9.871  0.3537  0.0298  0.4079
  183MPD1    H5 2794   3.856   1.437   9.944  1.5732  0.5009  0.9320
  183MPD1    N1 2795   4.185   1.715  10.155  0.3919  0.0139 -0.7418
  183MPD1    H6 2796   4.224   1.804  10.184  0.6651 -1.0759  2.2495
  183MPD1    H7 2797   4.141   1.667  10.234  1.4805  1.7549  0.9083
  184MPD1     C 2798   2.027   3.344  10.271  0.3059  0.5279  0.3507
  184MPD1    C1 2799   2.151   3.385  10.286 -0.0134 -0.4921 -0.0395
  184MPD1    C2 2800   2.212   3.474  10.199  0.5366  0.3635 -0.1323
  184MPD1    C3 2801   2.137   3.526  10.092  0.5529  0.5622  0.3546
  184MPD1    C4 2802   2.009   3.474  10.067  0.4166 -0.0768 -0.1300
  184MPD1    C5 2803   1.954   3.382  10.160 -0.3508 -0.0970 -0.8414
  184MPD1     H 2804   2.318   3.493  10.215  0.3352 -0.6574  2.3774
  184MPD1    H1 2805   1.959   3.495   9.974 -0.3120 -0.4435  0.1734
  184MPD1    H2 2806   1.989   3.274  10.345  0.6533 -0.5113 -0.4539
  184MPD1    H3 2807   1.852   3.345  10.153  0.7121 -3.4106  0.9350
  184MPD1     N 2808   2.183   3.629  10.003  0.1159 -0.4170  0.6461
  184MPD1    H5 2809   2.120   3.665   9.931  0.7366  0.2246  0.4352
  184MPD1    N1 2810   2.228   3.322  10.386  0.0107 -0.2240  0.7034
  184MPD1    H6 2811   2.171   3.278  10.458  1.7900 -0.9242  1.6655
  184MPD1    H7 2812   2.289   3.391  10.429 -0.2183  0.6975 -0.4396
  185MPD1     C 2813   1.639   4.022   9.498 -0.7004 -0.2115  0.4209
  185MPD1    C1 2814   1.738   4.117   9.490 -0.5748  0.7002 -0.7453
  185MPD1    C2 2815   1.847   4.106   9.572  0.3451  0.0760  0.2122
  185MPD1    C3 2816   1.863   3.996   9.663 -0.2735 -0.0473  0.4920
  185MPD1    C4 2817   1.758   3.901   9.658 -0.1164  0.2237  0.1117
  185MPD1    C5 2818   1.655   3.909   9.569  0.5025  0.1477  0.1048
  185MPD1     H 2819   1.910   4.194   9.578 -1.2573  1.3453 -1.9804
  185MPD1    H1 2820   1.751   3.814   9.723 -0.3572  0.2025  0.0581
  185MPD1    H2 2821   1.560   4.031   9.425 -2.0123  0.9400  1.9849
  185MPD1    H3 2822   1.590   3.823   9.560 -1.0144  1.3504 -0.2957
  185MPD1     N 2823   1.978   3.969   9.736  0.1708  0.1294  0.4865
  185MPD1    H5 2824   1.990   3.880   9.782 -1.0873 -0.4476 -0.3026
  185MPD1    N1 2825   1.716   4.233   9.416 -0.4186 -0.2906  0.3009
  185MPD1    H6 2826   1.801   4.267   9.373 -1.6743  0.4464 -1.6319
  185MPD1    H7 2827   1.645   4.210   9.346  0.3268  0.7055 -0.7835
  186MPD1     C 2828   0.561   2.981  15.684  0.1196  0.1852  0.1660
  186MPD1    C1 2829   0.463   3.078  15.698 -0.5569  0.3608  0.3449
  186MPD1    C2 2830   0.472   3.168  15.803 -0.1418  0.4141 -0.0430
  186MPD1    C3 2831   0.565   3.144  15.903 -0.2692  0.0969  0.7817
  186MPD1    C4 2832   0.650   3.036  15.907 -0.7186 -0.3560 -0.5123
  186MPD1    C5 2833   0.648   2.960  15.789 -0.3154 -0.3635  0.1426
  186MPD1     H 2834   0.414   3.259  15.794 -1.4442 -0.3398  0.7739
  186MPD1    H1 2835   0.721   3.022  15.987 -0.7739 -0.1691 -0.4312
  186MPD1    H2 2836   0.575   2.919  15.596 -0.2797  2.8474 -1.7436
  186MPD1    H3 2837   0.730   2.888  15.786 -0.1268 -0.0155 -2.7582
  186MPD1     N 2838   0.573   3.228  16.018  0.0736  0.0902 -0.6119
  186MPD1    H5 2839   0.662   3.227  16.066 -0.4904  0.0079  0.4176
  186MPD1    N1 2840   0.380   3.106  15.588  0.2124  0.2946 -0.4878
  186MPD1    H6 2841   0.369   3.022  15.531 -0.7009 -0.5021  0.8743
  186MPD1    H7 2842   0.290   3.152  15.602  0.1767 -0.1057  0.5607
  187MPD1     C 2843   4.106   1.957   0.414 -0.5173 -0.1371 -0.8491
  187MPD1    C1 2844   4.055   1.899   0.302  0.1934  0.1505 -0.5052
  187MPD1    C2 2845   4.106   1.780   0.256 -0.6792  0.0176  0.4181
  187MPD1    C3 2846   4.205   1.717   0.332 -1.6615 -0.2374  0.2340
  187MPD1    C4 2847   4.236   1.771   0.454 -0.6511 -0.2876 -0.2117
  187MPD1    C5 2848   4.198   1.896   0.492  0.3634  0.4722 -0.7327
  187MPD1     H 2849   4.055   1.725   0.178  0.6061 -0.3726 -0.1530
  187MPD1    H1 2850   4.315   1.715   0.503 -1.4466 -0.6561  0.6641
  187MPD1    H2 2851   4.052   2.043   0.453 -0.2511 -0.7646  0.8577
  187MPD1    H3 2852   4.233   1.954   0.577 -1.7431 -0.5139  0.7907
  187MPD1     N 2853   4.261   1.587   0.299 -0.3106 -0.1503  0.1332
  187MPD1    H5 2854   4.315   1.547   0.374 -0.2256 -1.4684 -0.6361
  187MPD1    N1 2855   3.939   1.962   0.246 -0.1218 -0.5676 -0.8561
  187MPD1    H6 2856   3.920   2.059   0.272  0.1929  0.3198 -3.8519
  187MPD1    H7 2857   3.933   1.953   0.144 -0.2383 -1.4858 -0.7663
  188MPD1     C 2858   4.348   0.406  10.471  0.4556  0.3977  0.2828
  188MPD1    C1 2859   4.279   0.409  10.350 -0.2283  0.0088 -0.2955
  188MPD1    C2 2860   4.259   0.290  10.277 -0.2876  0.2350  0.2602
  188MPD1    C3 2861   4.310   0.172  10.319 -0.3697  0.0284 -1.0654
  188MPD1    C4 2862   4.386   0.170  10.437  0.6952  0.3149  0.3982
  188MPD1    C5 2863   4.403   0.290  10.504  0.0854 -0.0955  0.0611
  188MPD1     H 2864   4.195   0.293  10.190 -0.5187 -1.3737  0.3839
  188MPD1    H1 2865   4.419   0.079  10.485  2.9117  0.4712 -0.7802
  188MPD1    H2 2866   4.347   0.484  10.547  0.6961 -0.9570  1.6888
  188MPD1    H3 2867   4.468   0.286  10.591  1.4002  1.9229 -0.8264
  188MPD1     N 2868   4.307   0.049  10.247 -0.1934  0.0920 -0.0027
  188MPD1    H5 2869   4.334   4.689  10.294  1.3238  1.6099  1.9060
  188MPD1    N1 2870   4.222   0.531  10.314  0.4481  0.1473  0.5144
  188MPD1    H6 2871   4.284   0.608  10.339  0.9711 -0.4462  1.0232
  188MPD1    H7 2872   4.211   0.539  10.213 -2.0670  0.0737  0.7763
  189MPD1     C 2873   1.629   1.425   0.518  0.8432 -0.4356 -0.2371
  189MPD1    C1 2874   1.512   1.349   0.540  0.1847  0.3629 -0.4840
  189MPD1    C2 2875   1.390   1.408   0.508 -0.0859  1.3290 -0.2436
  189MPD1    C3 2876   1.378   1.543   0.471 -0.2902 -0.3961 -0.7986
  189MPD1    C4 2877   1.496   1.621   0.460  0.1916 -0.3138  0.5780
  189MPD1    C5 2878   1.618   1.564   0.487  0.1821  0.1101 -0.5559
  189MPD1     H 2879   1.301   1.348   0.499  0.5777  0.7325 -2.8741
  189MPD1    H1 2880   1.486   1.719   0.416  1.8310  0.7239  2.5492
  189MPD1    H2 2881   1.727   1.379   0.525  1.4828  1.0146  0.3955
  189MPD1    H3 2882   1.707   1.623   0.467 -0.1506  0.5705 -0.6847
  189MPD1     N 2883   1.252   1.602   0.449  0.6071  0.5001 -0.3220
  189MPD1    H5 2884   1.177   1.535   0.436  0.8512  0.1574  0.0481
  189MPD1    N1 2885   1.531   1.219   0.582  0.5186  0.2156  0.6372
  189MPD1    H6 2886   1.618   1.218   0.634 -0.3165 -0.6831  2.0278
  189MPD1    H7 2887   1.456   1.191   0.645 -0.8025 -0.1531 -1.0724
  190MPD1     C 2888   4.250   4.260  16.080 -0.6427  1.0633 -0.2368
  190MPD1    C1 2889   4.323   4.366  16.132  0.1897  0.3373  0.2587
  190MPD1    C2 2890   4.454   4.380  16.084  0.3460  0.4735  0.1504
  190MPD1    C3 2891   4.511   4.286  16.006 -0.1945  0.4619  0.3868
  190MPD1    C4 2892   4.440   4.183  15.958  0.0249  0.4699  0.5131
  190MPD1    C5 2893   4.306   4.170  15.991 -0.8137  0.1986  0.3655
  190MPD1     H 2894   4.505   4.473  16.108  0.5562  0.1288  1.0216
  190MPD1    H1 2895   4.482   4.107  15.893 -0.3574  3.1487 -2.8795
  190MPD1    H2 2896   4.148   4.244  16.113 -1.2100  0.3149 -2.3420
  190MPD1    H3 2897   4.260   4.075  15.963 -0.3617 -0.5237  2.0672
  190MPD1     N 2898   4.653   4.291  15.993 -0.3231  0.2047 -0.2293
  190MPD1    H5 2899   4.707   4.368  16.031  0.3252 -1.1334  1.5587
  190MPD1    N1 2900   4.251   4.470  16.201  0.4552  0.3894 -0.0557
  190MPD1    H6 2901   4.191   4.427  16.271  0.8571 -1.0655 -0.5997
  190MPD1    H7 2902   4.310   4.528  16.260  1.3112 -0.2873 -0.2380
  191MPD1     C 2903   4.480   1.030  13.298 -0.1022  0.3660  0.4753
  191MPD1    C1 2904   4.563   1.136  13.259 -0.1180 -0.9238 -0.2600
  191MPD1    C2 2905   4.503   1.242  13.190 -0.0618 -0.0117 -0.2399
  191MPD1    C3 2906   4.374   1.229  13.146  0.8405  0.5366 -0.5903
  191MPD1    C4 2907   4.293   1.120  13.187 -0.3838 -0.1771 -0.9450
  191MPD1    C5 2908   4.349   1.023  13.265 -0.0807 -0.0835  0.3088
  191MPD1     H 2909   4.565   1.326  13.158  1.3477 -0.3281  1.6716
  191MPD1    H1 2910   4.189   1.108  13.162 -0.8290 -0.2995  0.9918
  191MPD1    H2 2911   4.526   0.961  13.367 -1.0259 -0.7741 -0.0412
  191MPD1    H3 2912   4.283   0.944  13.300 -0.4158  0.0950  0.0730
  191MPD1     N 2913   4.317   1.332  13.072 -0.6065  0.3500  0.2308
  191MPD1    H5 2914   4.382   1.401  13.036 -1.5022  0.8079 -0.5015
  191MPD1    N1 2915   4.690   1.153  13.316  0.4276  0.1983 -0.2781
  191MPD1    H6 2916   4.677   1.188  13.410  0.4379  1.1237 -0.6252
  191MPD1    H7 2917   0.018   1.226  13.270  0.8978 -0.3817 -0.6636
  192MPD1     C 2918   3.415   1.727  13.181  0.0841  0.2255 -0.1311
  192MPD1    C1 2919   3.521   1.815  13.181 -0.6559  0.5537 -0.1289
  192MPD1    C2 2920   3.640   1.778  13.125  0.6062  0.6011 -0.3866
  192MPD1    C3 2921   3.657   1.651  13.065  0.3776  0.1035  0.5947
  192MPD1    C4 2922   3.553   1.563  13.068 -0.1587 -0.1571 -0.0083
  192MPD1    C5 2923   3.438   1.594  13.140 -0.8617  0.7987  0.0688
  192MPD1     H 2924   3.730   1.838  13.136  0.7098  0.5861 -1.1826
  192MPD1    H1 2925   3.556   1.465  13.022  1.9673 -0.7225  1.3277
  192MPD1    H2 2926   3.325   1.744  13.237 -0.0543  0.8830 -0.5568
  192MPD1    H3 2927   3.351   1.530  13.142  0.3844 -0.8944 -0.1116
  192MPD1     N 2928   3.775   1.607  12.999  0.2280  0.9751  0.5834
  192MPD1    H5 2929   3.781   1.513  12.962 -1.7690  1.4022 -0.8315
  192MPD1    N1 2930   3.515   1.935  13.253  0.1011 -0.7078 -0.7852
  192MPD1    H6 2931   3.422   1.977  13.243  0.0086 -0.9308 -0.8547
  192MPD1    H7 2932   3.584   2.002  13.221  0.1384 -1.3797 -2.0944
  193MPD1     C 2933   3.686   2.834  16.700  0.1417 -0.1552  0.4354
  193MPD1    C1 2934   3.719   2.707  16.686 -0.2457 -0.1090 -0.2219
  193MPD1    C2 2935   3.832   2.666  16.749  0.4057  0.1173 -0.5789
  193MPD1    C3 2936   3.908   2.751  16.828  0.3749  0.0374  0.0680
  193MPD1    C4 2937   3.855   2.876  16.854  0.2700  0.4362 -0.1675
  193MPD1    C5 2938   3.745   2.919  16.785 -0.0471  0.0099 -0.1531
  193MPD1     H 2939   3.867   2.566  16.726 -2.2640 -1.3129  1.5222
  193MPD1    H1 2940   3.891   2.942  16.931  1.5855 -1.2636  0.6606
  193MPD1    H2 2941   3.597   2.869  16.648  0.8369 -1.4537 -1.5859
  193MPD1    H3 2942   3.718   3.024  16.787 -0.0714  0.0291 -1.6526
  193MPD1     N 2943   4.013   2.707  16.907 -0.3883  0.2660  0.1262
  193MPD1    H5 2944   4.040   2.764  16.987  1.1575 -0.8950  0.4138
  193MPD1    N1 2945   3.661   2.640  16.582  0.3298  0.4057 -0.5389
  193MPD1    H6 2946   3.563   2.663  16.568 -0.2421 -1.4055  0.5946
  193MPD1    H7 2947   3.668   2.539  16.587 -0.2480  0.3262 -1.2660
  194MPD1     C 2948   3.235   4.259  17.041 -0.4542  0.1439  0.5863
  194MPD1    C1 2949   3.116   4.293  16.972 -0.5855 -0.0412 -0.3435
  194MPD1    C2 2950   2.999   4.217  17.001  0.0529 -0.2363  0.1284
  194MPD1    C3 2951   3.000   4.123  17.098 -0.0616 -0.2359  1.2070
  194MPD1    C4 2952   3.123   4.095  17.163 -0.7009 -0.5276 -0.1039
  194MPD1    C5 2953   3.235   4.160  17.137 -0.3332  0.1776 -0.2252
  194MPD1     H 2954   2.904   4.236  16.952  0.5024  0.0436 -0.6329
  194MPD1    H1 2955   3.124   4.003  17.219 -2.3495  0.0308  0.8462
  194MPD1    H2 2956   3.333   4.301  17.016  0.1659 -1.3720  0.4910
  194MPD1    H3 2957   3.331   4.132  17.180 -0.0642  0.9008 -0.3453
  194MPD1     N 2958   2.885   4.040  17.130  0.0855 -0.3777 -0.1264
  194MPD1    H5 2959   2.902   3.980  17.210  0.8624  2.7671  2.0612
  194MPD1    N1 2960   3.114   4.391  16.872  0.2939  0.0398  0.9839
  194MPD1    H6 2961   3.042   4.462  16.881  0.8355  0.7344 -0.1435
  194MPD1    H7 2962   3.203   4.441  16.876  0.5041 -0.1278 -1.4891
  195MPD1     C 2963   4.026   1.254  17.583 -0.2875 -0.7542  0.2909
  195MPD1    C1 2964   4.002   1.218  17.453 -0.8656 -0.1367  0.3042
  195MPD1    C2 2965   3.958   1.093  17.439 -0.2921 -0.6563 -0.0260
  195MPD1    C3 2966   3.944   0.999  17.542 -0.1338  0.2631 -0.9290
  195MPD1    C4 2967   3.969   1.041  17.672  0.2399 -0.0554  0.4700
  195MPD1    C5 2968   4.012   1.170  17.695  0.3608  0.4464 -0.3255
  195MPD1     H 2969   3.948   1.065  17.335  1.9790 -1.8694  0.0781
  195MPD1    H1 2970   3.976   0.970   0.050  2.3763  0.6008  0.8685
  195MPD1    H2 2971   4.057   1.353  17.615 -0.1634 -0.4923 -0.6374
  195MPD1    H3 2972   4.040   1.201   0.092 -0.7374  0.2273  0.0549
  195MPD1     N 2973   3.914   0.857  17.533 -0.0517 -0.0510 -0.0816
  195MPD1    H5 2974   3.907   0.802  17.617 -0.6932 -0.6950 -0.5543
  195MPD1    N1 2975   3.995   1.316  17.353 -0.0593 -0.5828 -0.2050
  195MPD1    H6 2976   4.018   1.277  17.262  1.3509 -1.8298  0.7053
  195MPD1    H7 2977   4.068   1.384  17.371 -0.0877 -0.5200 -0.3268
  196MPD1     C 2978   4.091   4.588  17.585  0.3194 -0.3080  0.9468
  196MPD1    C1 2979   4.096   4.724  17.559  0.8645  0.5640 -0.6851
  196MPD1    C2 2980   4.070   0.090  17.660 -0.1597 -0.6608  0.5613
  196MPD1    C3 2981   4.050   0.050   0.088 -0.4642  0.2311  0.1761
  196MPD1    C4 2982   4.048   4.638   0.111 -0.3552 -0.0267  0.3689
  196MPD1    C5 2983   4.063   4.547   0.012 -0.0508  0.7281  0.0151
  196MPD1     H 2984   4.066   0.195  17.632 -2.9324 -0.9899 -0.3060
  196MPD1    H1 2985   4.030   4.608   0.213  1.4034  1.1555  1.0319
  196MPD1    H2 2986   4.101   4.511  17.509 -0.9342 -1.5386  2.0271
  196MPD1    H3 2987   4.053   4.440   0.027  1.5890  0.5358 -0.2522
  196MPD1     N 2988   4.011   0.141   0.194 -0.3260  1.1568  0.1363
  196MPD1    H5 2989   3.974   0.094   0.276  2.0678 -0.3092  0.3627
  196MPD1    N1 2990   4.116   0.046  17.425  0.7457  0.6302  0.0129
  196MPD1    H6 2991   4.120   0.147  17.412  0.3919  0.5713 -0.5392
  196MPD1    H7 2992   4.194   4.725  17.379  1.1487  1.0159  0.3082
  197MPD1     C 2993   2.976   2.679   0.173  1.0482 -0.6611 -0.5313
  197MPD1    C1 2994   3.037   2.804   0.171  0.0664  0.7524 -0.2481
  197MPD1    C2 2995   3.000   2.882   0.061  0.0373 -0.3111  0.2612
  197MPD1    C3 2996   2.917   2.835  17.654 -0.3986 -0.6957  0.1931
  197MPD1    C4 2997   2.861   2.708  17.665 -0.3587 -0.3786  0.3960
  197MPD1    C5 2998   2.896   2.633   0.072  0.5805 -1.0952 -0.2251
  197MPD1     H 2999   3.038   2.984   0.053 -0.4956 -0.1774 -0.6317
  197MPD1    H1 3000   2.791   2.677  17.588  0.0950 -0.5933  0.0661
  197MPD1    H2 3001   2.983   2.610   0.256  0.2279  0.4223  0.4281
  197MPD1    H3 3002   2.856   2.533   0.080  0.3439 -1.1134 -1.5543
  197MPD1     N 3003   2.863   2.904  17.544 -0.3749  0.1304 -0.0109
  197MPD1    H5 3004   2.807   2.847  17.481  1.3919 -0.1156 -1.3787
  197MPD1    N1 3005   3.107   2.848   0.284 -1.2733 -0.0825  0.0456
  197MPD1    H6 3006   3.171   2.925   0.266 -2.2804  0.2090 -2.4286
  197MPD1    H7 3007   3.157   2.768   0.323  0.9378  0.0294 -2.5140
  198MPD1     C 3008   4.600   0.026  15.502  1.1866 -0.2564 -0.4464
  198MPD1    C1 3009   4.725   0.016  15.453 -0.5849  0.5343  0.3801
  198MPD1    C2 3010   0.084   0.125  15.471 -0.4127  0.3134  0.0061
  198MPD1    C3 3011   0.047   0.248  15.535  0.0212  0.8308 -0.0249
  198MPD1    C4 3012   4.651   0.251  15.583  0.4025  0.1706 -0.2726
  198MPD1    C5 3013   4.570   0.141  15.568 -0.2880 -0.5445  0.1859
  198MPD1     H 3014   0.186   0.124  15.433 -0.0093 -1.7355  1.1274
  198MPD1    H1 3015   4.608   0.340  15.629 -0.0988 -0.0632 -0.2862
  198MPD1    H2 3016   4.524   4.675  15.499  0.4101  0.5713 -1.5609
  198MPD1    H3 3017   4.468   0.148  15.605 -0.8868 -0.1038 -1.5221
  198MPD1     N 3018   0.139   0.356  15.541 -0.1234  0.1438 -0.4863
  198MPD1    H5 3019   0.225   0.348  15.487 -0.6207 -0.8514 -1.1337
  198MPD1    N1 3020   0.042   4.611  15.418 -0.1463 -0.4521 -0.1604
  198MPD1    H6 3021   0.114   4.623  15.346  0.8265  1.2310  1.0928
  198MPD1    H7 3022   4.689   4.563  15.375 -0.3297 -1.5185  1.3494
  199MPD1     C 3023   2.208   1.557   9.842 -0.5865 -1.1053  0.4938
  199MPD1    C1 3024   2.079   1.516   9.864 -0.5636 -0.5888  0.1705
  199MPD1    C2 3025   1.974   1.581   9.801 -0.8004 -0.0555  0.7403
  199MPD1    C3 3026   1.996   1.702   9.744 -1.2455 -0.1100 -0.3262
  199MPD1    C4 3027   2.130   1.750   9.734  0.8720  0.0410  0.2413
  199MPD1    C5 3028   2.239   1.676   9.776  0.2312  0.8301  0.4259
  199MPD1     H 3029   1.876   1.534   9.803 -1.0762  0.4492 -1.5158
  199MPD1    H1 3030   2.154   1.844   9.685  1.2161  0.6665  1.5928
  199MPD1    H2 3031   2.293   1.504   9.884  0.5236 -0.6327 -1.1597
  199MPD1    H3 3032   2.340   1.714   9.773  0.2885  0.5612 -1.2788
  199MPD1     N 3033   1.899   1.774   9.674  0.7919  0.1659 -0.2058
  199MPD1    H5 3034   1.932   1.866   9.644  1.4902 -0.2192 -0.6173
  199MPD1    N1 3035   2.050   1.387   9.908  0.2912 -0.1438 -0.3779
  199MPD1    H6 3036   1.962   1.382   9.959 -0.5340 -0.2531 -1.8155
  199MPD1    H7 3037   2.122   1.357   9.973  0.7525 -0.8166 -1.2035
  200MPD1     C 3038   1.085   1.893  15.055  0.5870  0.6133  0.3306
  200MPD1    C1 3039   1.050   1.871  14.925 -0.0981 -0.2254  0.7452
  200MPD1    C2 3040   1.157   1.864  14.837 -0.2681 -0.1004 -0.2036
  200MPD1    C3 3041   1.285   1.901  14.873 -0.1780 -0.1237  0.9474
  200MPD1    C4 3042   1.320   1.933  15.007 -0.0924 -0.9594 -0.6887
  200MPD1    C5 3043   1.216   1.924  15.094 -0.3992 -0.5766 -0.0613
  200MPD1     H 3044   1.151   1.837  14.732  0.0836 -0.7629 -0.0471
  200MPD1    H1 3045   1.421   1.943  15.043 -1.1504 -0.7340  2.2585
  200MPD1    H2 3046   1.003   1.907  15.125  1.4257 -0.7300  1.6061
  200MPD1    H3 3047   1.234   1.950  15.198 -0.2499  1.0277 -0.4970
  200MPD1     N 3048   1.382   1.880  14.770  0.1156  0.2401  0.1471
  200MPD1    H5 3049   1.345   1.834  14.687  1.8047  1.5063 -1.2984
  200MPD1    N1 3050   0.920   1.831  14.885  0.1633 -0.7456  0.2775
  200MPD1    H6 3051   0.849   1.867  14.948  0.2392 -2.7581  1.5025
  200MPD1    H7 3052   0.894   1.874  14.797  0.8134 -0.6145  0.1522
  201MPD1     C 3053   3.089   1.029  13.062  0.2872 -0.1816 -0.3900
  201MPD1    C1 3054   3.044   0.903  13.033  0.2737 -0.2709 -0.4618
  201MPD1    C2 3055   3.132   0.800  13.058 -0.2237  0.0949 -0.0170
  201MPD1    C3 3056   3.264   0.823  13.102 -0.2128  0.4501 -0.1806
  201MPD1    C4 3057   3.309   0.951  13.121 -0.3328 -0.3712 -0.4088
  201MPD1    C5 3058   3.213   1.050  13.106  0.1802 -0.7918  0.6207
  201MPD1     H 3059   3.101   0.698  13.041 -0.9146 -0.1545  2.6588
  201MPD1    H1 3060   3.407   0.977  13.159 -0.5675 -1.0671  0.6672
  201MPD1    H2 3061   3.034   1.118  13.033  0.0276 -0.3130 -0.2986
  201MPD1    H3 3062   3.243   1.148  13.140 -1.3503  0.5497 -1.9722
  201MPD1     N 3063   3.346   0.711  13.137 -0.2392 -0.2952 -0.4174
  201MPD1    H5 3064   3.304   0.619  13.147  1.0325 -1.0746 -2.1111
  201MPD1    N1 3065   2.910   0.883  13.000  0.1243 -0.5456  0.0757
  201MPD1    H6 3066   2.889   0.950  12.927  4.5738  2.0054  1.1409
  201MPD1    H7 3067   2.901   0.788  12.964 -0.0764 -1.0009  1.3183
  202MPD1     C 3068   3.408   0.155   9.209  0.3499 -0.4771 -0.5374
  202MPD1    C1 3069   3.372   0.265   9.293 -0.0290  0.0362  0.0806
  202MPD1    C2 3070   3.453   0.267   9.406  0.5494  0.3853 -0.2040
  202MPD1    C3 3071   3.524   0.158   9.459 -0.1571 -0.2130  0.7070
  202MPD1    C4 3072   3.523   0.046   9.385  0.1209  0.1898 -0.0443
  202MPD1    C5 3073   3.479   0.052   9.256 -0.6702 -0.8255  0.5416
  202MPD1     H 3074   3.448   0.357   9.466 -0.5888  0.7436 -0.8313
  202MPD1    H1 3075   3.558   4.679   9.430 -0.2347 -0.0561 -0.2722
  202MPD1    H2 3076   3.371   0.152   9.108 -2.3800 -0.1255  0.4436
  202MPD1    H3 3077   3.482   4.687   9.195 -1.6047 -0.6815  0.2766
  202MPD1     N 3078   3.595   0.160   9.580  0.3914 -1.0023 -0.1495
  202MPD1    H5 3079   3.639   0.073   9.607  1.5547 -0.2516  0.3941
  202MPD1    N1 3080   3.335   0.384   9.233 -0.1406 -0.3984  0.2198
  202MPD1    H6 3081   3.258   0.373   9.168 -1.7601 -1.4184  2.3001
  202MPD1    H7 3082   3.299   0.454   9.298 -1.3264 -0.2062 -0.6573
  203MPD1     C 3083   1.304   0.598  12.176 -0.2611  1.2217 -0.3377
  203MPD1    C1 3084   1.390   0.587  12.072  0.6786 -0.3722  0.1126
  203MPD1    C2 3085   1.520   0.560  12.099 -0.5695 -0.4975  0.1189
  203MPD1    C3 3086   1.564   0.552  12.227 -0.2181 -0.3615 -0.0819
  203MPD1    C4 3087   1.474   0.558  12.331 -0.0821 -0.4439 -0.2228
  203MPD1    C5 3088   1.350   0.577  12.303  0.0503  0.2949  0.0746
  203MPD1     H 3089   1.604   0.551  12.031  0.5994  0.2740  1.4599
  203MPD1    H1 3090   1.501   0.553  12.435  0.2568 -1.1134 -0.3439
  203MPD1    H2 3091   1.199   0.623  12.163 -0.9047 -0.7469  1.0076
  203MPD1    H3 3092   1.282   0.571  12.387  0.1760 -0.0707  0.1532
  203MPD1     N 3093   1.701   0.523  12.247  0.2486 -0.1698  0.2752
  203MPD1    H5 3094   1.748   0.497  12.161 -0.8888 -1.2753 -0.0125
  203MPD1    N1 3095   1.336   0.624  11.945  0.0178  0.1122 -0.0535
  203MPD1    H6 3096   1.234   0.629  11.948 -0.0090 -2.2482  1.9246
  203MPD1    H7 3097   1.368   0.562  11.870  2.7983 -0.3877  1.5487
  204MPD1     C 3098   0.958   2.945  17.651 -0.2576 -0.3763  0.2435
  204MPD1    C1 3099   1.001   2.971  17.521 -0.0961  0.5674 -0.2692
  204MPD1    C2 3100   1.117   2.919  17.479 -0.3428  0.3772  0.2005
  204MPD1    C3 3101   1.196   2.839  17.560  0.6154  0.1778  0.0831
  204MPD1    C4 3102   1.157   2.818  17.693  0.0390 -0.0511 -0.2873
  204MPD1    C5 3103   1.037   2.881   0.028  0.8648 -0.6615  0.3156
  204MPD1     H 3104   1.145   2.939  17.376  0.9024  1.9129  0.8337
  204MPD1    H1 3105   1.218   2.763   0.059  1.4534 -1.5731 -2.7298
  204MPD1    H2 3106   0.859   2.974  17.684 -0.5799 -1.7679  0.5259
  204MPD1    H3 3107   0.989   2.865   0.124  1.9053 -0.5769  0.8471
  204MPD1     N 3108   1.306   2.766  17.512  0.0955 -0.8567  0.7247
  204MPD1    H5 3109   1.345   2.700  17.578 -0.2176 -0.9946  0.7700
  204MPD1    N1 3110   0.926   3.035  17.426 -0.2592  0.2780  0.5425
  204MPD1    H6 3111   0.846   3.080  17.470  0.3046 -0.2200  2.0918
  204MPD1    H7 3112   0.980   3.103  17.373 -0.7444 -0.3330 -0.7192
  205MPD1     C 3113   2.357   1.331  17.015  0.1783 -0.5590  1.1167
  205MPD1    C1 3114   2.300   1.459  17.018  0.0478  0.0255  0.1852
  205MPD1    C2 3115   2.226   1.504  17.127 -0.1579 -0.7578 -0.5740
  205MPD1    C3 3116   2.219   1.423  17.240  0.1389 -0.2272  0.3379
  205MPD1    C4 3117   2.262   1.288  17.237 -0.1407 -0.0642 -0.2692
  205MPD1    C5 3118   2.328   1.246  17.122  0.1799 -0.2691 -0.1968
  205MPD1     H 3119   2.205   1.611  17.123  1.0894 -0.5260 -0.6995
  205MPD1    H1 3120   2.254   1.217  17.318 -0.3284  0.1560 -0.0960
  205MPD1    H2 3121   2.419   1.295  16.934  1.4382 -0.2582  1.9455
  205MPD1    H3 3122   2.362   1.143  17.122  1.1391  0.0480 -1.2786
  205MPD1     N 3123   2.141   1.454  17.355 -0.1085 -0.0695 -0.5592
  205MPD1    H5 3124   2.131   1.384  17.428 -1.1884  0.0716 -0.5749
  205MPD1    N1 3125   2.329   1.551  16.912 -0.0059 -0.0900 -0.2459
  205MPD1    H6 3126   2.357   1.514  16.822  0.4975  0.0693 -0.1533
  205MPD1    H7 3127   2.268   1.632  16.903  2.7526  2.0277  0.5084
  206MPD1     C 3128   2.426   4.677  16.326 -0.4143 -0.5155  0.0478
  206MPD1    C1 3129   2.286   4.698  16.333  0.5903  0.4441  0.4109
  206MPD1    C2 3130   2.209   4.599  16.279  0.3930 -0.4617  0.2027
  206MPD1    C3 3131   2.259   4.482  16.232 -0.1018 -0.4149 -0.1116
  206MPD1    C4 3132   2.392   4.460  16.237  0.2524  0.3158  0.5832
  206MPD1    C5 3133   2.477   4.555  16.282  0.5995  0.0821  0.5919
  206MPD1     H 3134   2.106   4.632  16.268  0.1614 -1.4294 -0.5964
  206MPD1    H1 3135   2.436   4.367  16.204 -0.1038  0.3944 -0.1133
  206MPD1    H2 3136   2.500   0.029  16.340 -0.5669 -0.8568  2.6455
  206MPD1    H3 3137   2.582   4.544  16.306  0.5747 -0.1153  0.6180
  206MPD1     N 3138   2.179   4.377  16.180  0.0758  0.1137 -0.3536
  206MPD1    H5 3139   2.226   4.302  16.131  0.4458  0.6103 -0.7579
  206MPD1    N1 3140   2.235   0.105  16.354 -0.1995  0.5238  0.6245
  206MPD1    H6 3141   2.289   0.161  16.419  0.1718 -1.5401  2.0888
  206MPD1    H7 3142   2.139   0.100  16.386 -1.0797  0.9105 -1.9531
  207MPD1     C 3143   4.445   1.448   9.291 -1.1438 -1.0614  0.9173
  207MPD1    C1 3144   4.418   1.404   9.418  0.8109 -0.2892 -0.5607
  207MPD1    C2 3145   4.504   1.436   9.517  0.4636  0.7894 -0.6375
  207MPD1    C3 3146   4.606   1.531   9.502  0.2317  0.7258 -0.1975
  207MPD1    C4 3147   4.616   1.585   9.380 -0.0004  0.7393  0.4123
  207MPD1    C5 3148   4.531   1.553   9.276  0.1437 -0.4103 -0.5769
  207MPD1     H 3149   4.497   1.393   9.616 -1.6102  1.8626 -0.3183
  207MPD1    H1 3150   4.694   1.660   9.371  0.8380 -0.1994 -0.0841
  207MPD1    H2 3151   4.370   1.436   9.214 -0.1884  0.4250 -0.2390
  207MPD1    H3 3152   4.544   1.608   9.184 -0.8979  0.0000 -0.4732
  207MPD1     N 3153   4.700   1.567   9.601  0.0143  0.1857  0.3105
  207MPD1    H5 3154   0.047   1.634   9.576  1.0736  0.5078  4.2818
  207MPD1    N1 3155   4.319   1.301   9.431 -0.1043 -0.7988 -0.2108
  207MPD1    H6 3156   4.242   1.311   9.365  0.3142  1.5902 -0.3634
  207MPD1    H7 3157   4.283   1.289   9.525  1.0474 -3.6896 -0.1447
  208MPD1     C 3158   2.883   0.568  17.499 -0.0286  0.2241  0.1143
  208MPD1    C1 3159   2.953   0.654  17.575 -0.4152 -0.6371  0.3613
  208MPD1    C2 3160   2.900   0.697  17.701  1.1769  0.2799 -0.0568
  208MPD1    C3 3161   2.769   0.662   0.030 -1.2820  0.4399  0.5047
  208MPD1    C4 3162   2.693   0.593  17.641 -0.0169 -1.2463  0.1575
  208MPD1    C5 3163   2.747   0.544  17.525 -0.3263  0.1846  0.7319
  208MPD1     H 3164   2.965   0.748   0.068  0.9803  1.3363 -0.6540
  208MPD1    H1 3165   2.598   0.544  17.659 -0.4577  0.2365  1.8142
  208MPD1    H2 3166   2.944   0.526  17.419  0.0097  2.6424 -1.1170
  208MPD1    H3 3167   2.699   0.472  17.460 -0.2215 -0.9925  1.9567
  208MPD1     N 3168   2.708   0.705   0.152  0.0258 -0.0365 -0.1911
  208MPD1    H5 3169   2.774   0.751   0.213 -0.8137  1.4332 -0.4074
  208MPD1    N1 3170   3.090   0.669  17.558  0.3358 -0.5936  0.2666
  208MPD1    H6 3171   3.123   0.689  17.464  0.4153 -0.1348  0.3925
  208MPD1    H7 3172   3.120   0.740  17.625 -0.6994 -0.2819  0.4056
  209MPD1     C 3173   0.201   1.257  11.638  0.3781 -0.2345 -0.5018
  209MPD1    C1 3174   0.231   1.384  11.601  0.3873 -0.2913 -0.5490
  209MPD1    C2 3175   0.249   1.406  11.465 -0.2950  0.5475  0.3502
  209MPD1    C3 3176   0.255   1.304  11.377 -0.5234 -0.0435  0.5166
  209MPD1    C4 3177   0.233   1.178  11.423 -0.2913  0.5419  0.6928
  209MPD1    C5 3178   0.210   1.154  11.555 -0.5171 -0.2609  0.3416
  209MPD1     H 3179   0.266   1.507  11.428 -0.9713  0.5265 -0.0334
  209MPD1    H1 3180   0.246   1.085  11.369 -1.4456  0.5746  0.3675
  209MPD1    H2 3181   0.186   1.235  11.743 -0.9525  1.6532 -0.2906
  209MPD1    H3 3182   0.205   1.052  11.590 -0.3699 -0.0176  1.0554
  209MPD1     N 3183   0.289   1.334  11.247 -0.4603 -0.0690 -0.0046
  209MPD1    H5 3184   0.313   1.430  11.223 -0.5644 -0.0090  0.1312
  209MPD1    N1 3185   0.199   1.498  11.689 -0.9596 -0.2761 -0.1041
  209MPD1    H6 3186   0.244   1.585  11.660  0.5325 -0.0927  2.7957
  209MPD1    H7 3187   0.208   1.484  11.789 -1.1430 -1.2950 -0.2343
  210MPD1     C 3188   0.929   1.885  10.829 -0.3649  0.3981  0.5427
  210MPD1    C1 3189   0.874   1.872  10.953 -0.0787  0.4547 -0.1449
  210MPD1    C2 3190   0.765   1.787  10.961  0.7154 -0.4871  1.0793
  210MPD1    C3 3191   0.734   1.699  10.856  0.3377  0.1354 -0.1831
  210MPD1    C4 3192   0.806   1.705  10.743  0.5056  0.7067 -1.0022
  210MPD1    C5 3193   0.895   1.802  10.729 -0.1246 -0.2314  0.0081
  210MPD1     H 3194   0.697   1.794  11.045 -0.9614 -0.9823 -0.2406
  210MPD1    H1 3195   0.788   1.636  10.661 -4.3992  0.3248  0.4138
  210MPD1    H2 3196   1.012   1.951  10.807 -0.5947  0.2128 -0.9095
  210MPD1    H3 3197   0.949   1.806  10.636 -0.1436  0.9363  0.0535
  210MPD1     N 3198   0.627   1.599  10.860  0.1894  0.1940  0.1261
  210MPD1    H5 3199   0.597   1.559  10.772  1.9234 -0.1124 -0.3213
  210MPD1    N1 3200   0.896   1.973  11.047  0.8018  0.3443  0.0975
  210MPD1    H6 3201   0.872   1.940  11.141  0.1766  0.9342  0.1445
  210MPD1    H7 3202   0.992   2.006  11.045  0.5887  0.8325 -1.3152
  211MPD1     C 3203   2.754   0.994  16.797 -1.2629  0.0213  0.2937
  211MPD1    C1 3204   2.726   1.107  16.722 -0.0459  0.2376 -0.4552
  211MPD1    C2 3205   2.592   1.128  16.689 -0.0681 -0.4031 -0.0904
  211MPD1    C3 3206   2.487   1.056  16.753  0.1872 -0.4051 -0.1753
  211MPD1    C4 3207   2.516   0.946  16.830 -0.5355 -0.6643  0.0832
  211MPD1    C5 3208   2.650   0.916  16.843  1.1539  0.1704  0.6875
  211MPD1     H 3209   2.558   1.211  16.629  0.4289  0.2652  0.5524
  211MPD1    H1 3210   2.439   0.875  16.860 -1.0149 -0.1161  0.1399
  211MPD1    H2 3211   2.858   0.974  16.818 -1.4993  1.9256  3.2762
  211MPD1    H3 3212   2.677   0.824  16.895  1.4491 -1.4962 -2.4315
  211MPD1     N 3213   2.353   1.101  16.733 -1.0623 -0.3523  0.0825
  211MPD1    H5 3214   2.342   1.186  16.678 -2.2136 -1.9531 -2.1602
  211MPD1    N1 3215   2.831   1.172  16.662 -0.3520  0.1235 -0.5377
  211MPD1    H6 3216   2.811   1.272  16.663  3.3887  0.8623 -1.6264
  211MPD1    H7 3217   2.918   1.151  16.710 -1.3643 -1.5880  0.5854
  212MPD1     C 3218   1.620   3.891  16.274 -0.2064 -0.7684  0.2954
  212MPD1    C1 3219   1.571   3.995  16.349  0.0216 -0.2793  0.5850
  212MPD1    C2 3220   1.486   3.965  16.458  0.7679  0.8630  0.4713
  212MPD1    C3 3221   1.454   3.832  16.492  0.6090 -0.6388  0.1724
  212MPD1    C4 3222   1.495   3.731  16.404 -0.1681  0.1032 -0.0227
  212MPD1    C5 3223   1.582   3.761  16.302 -0.2134  0.6020  0.0657
  212MPD1     H 3224   1.446   4.043  16.520 -1.9176  0.4649 -0.7707
  212MPD1    H1 3225   1.475   3.627  16.429  0.0658 -0.1095 -0.7154
  212MPD1    H2 3226   1.670   3.913  16.181 -0.0060 -1.0591  0.3348
  212MPD1    H3 3227   1.624   3.680  16.243 -1.1753 -0.2833  0.6103
  212MPD1     N 3228   1.367   3.795  16.606 -0.1834  0.1410  0.0294
  212MPD1    H5 3229   1.333   3.699  16.610 -0.5521  0.2529 -0.4123
  212MPD1    N1 3230   1.581   4.125  16.301  0.1229 -0.0496  0.5061
  212MPD1    H6 3231   1.587   4.191  16.378  0.4389  0.3999  0.1020
  212MPD1    H7 3232   1.657   4.143  16.235  1.4450  1.1948  2.3729
  213MPD1     C 3233   4.293   4.507  15.765  0.1251  0.4510 -0.1116
  213MPD1    C1 3234   4.237   4.429  15.663 -0.1096 -0.0200 -0.5349
  213MPD1    C2 3235   4.190   4.495  15.555  0.5179  0.3144 -0.0631
  213MPD1    C3 3236   4.199   4.636  15.538 -0.5172 -0.1180  0.2724
  213MPD1    C4 3237   4.259   4.710  15.639  0.3408  0.3564 -0.5163
  213MPD1    C5 3238   4.320   4.643  15.742  0.0599 -0.0399  0.4719
  213MPD1     H 3239   4.124   4.444  15.485 -3.5324  0.1322  3.8297
  213MPD1    H1 3240   4.262   0.093  15.640  1.6750  0.3015  1.2998
  213MPD1    H2 3241   4.346   4.451  15.841  1.5892  1.1937 -0.5981
  213MPD1    H3 3242   4.377   4.697  15.817  0.9194  0.8270 -0.7968
  213MPD1     N 3243   4.141   4.696  15.427  0.3974 -0.1106  0.3108
  213MPD1    H5 3244   4.097   4.626  15.369 -0.0675  0.6093 -0.2047
  213MPD1    N1 3245   4.181   4.305  15.697 -0.6898 -0.0948  0.3137
  213MPD1    H6 3246   4.177   4.240  15.618  1.7233 -1.1101  1.0290
  213MPD1    H7 3247   4.222   4.254  15.775  0.7155 -1.5518 -1.3798
  214MPD1     C 3248   3.806   4.434  14.535 -0.0250 -0.5137  0.3256
  214MPD1    C1 3249   3.768   4.409  14.661  0.0806 -0.1755  0.4696
  214MPD1    C2 3250   3.810   4.496  14.769  0.1497 -0.1246  0.0728
  214MPD1    C3 3251   3.912   4.590  14.736  0.0258  0.1713  0.3953
  214MPD1    C4 3252   3.957   4.599  14.610  0.0254 -0.0582  0.0657
  214MPD1    C5 3253   3.905   4.520  14.509 -0.0773  0.2599 -0.2732
  214MPD1     H 3254   3.771   4.492  14.870  0.3059  1.1625  0.1927
  214MPD1    H1 3255   4.027   4.673  14.573 -1.8382  1.3122 -0.7792
  214MPD1    H2 3256   3.767   4.372  14.455  0.9067 -0.2906 -0.3029
  214MPD1    H3 3257   3.952   4.529  14.412  1.3519 -0.8960  0.3219
  214MPD1     N 3258   3.970   4.684  14.830 -0.4356  0.2565 -0.4785
  214MPD1    H5 3259   4.042   0.024  14.801 -1.1586  0.5550 -1.5813
  214MPD1    N1 3260   3.671   4.311  14.688 -0.5236  0.0200  0.6522
  214MPD1    H6 3261   3.714   4.254  14.760 -2.1712  0.7693  2.2447
  214MPD1    H7 3262   3.665   4.246  14.610  2.2014 -0.1425  0.5929
  215MPD1     C 3263   0.146   0.643  10.874  0.4664 -0.0961  0.4218
  215MPD1    C1 3264   0.244   0.722  10.913  0.5054  0.0397  0.3706
  215MPD1    C2 3265   0.224   0.805  11.024 -0.6226  0.0081 -0.2647
  215MPD1    C3 3266   0.097   0.809  11.083  0.1518  0.0258 -0.7800
  215MPD1    C4 3267   4.724   0.719  11.045 -0.1142 -0.8107  0.4861
  215MPD1    C5 3268   0.028   0.633  10.942  0.8970 -0.2815 -0.2288
  215MPD1     H 3269   0.299   0.869  11.069 -1.4483  0.4970  0.4483
  215MPD1    H1 3270   4.624   0.722  11.088 -0.3420 -0.6080 -0.0540
  215MPD1    H2 3271   0.158   0.568  10.797 -1.5516  0.0086 -0.0183
  215MPD1    H3 3272   4.665   0.581  10.907  1.1394 -0.4337 -0.6083
  215MPD1     N 3273   0.062   0.905  11.175 -0.4483  0.2584 -0.4326
  215MPD1    H5 3274   0.126   0.984  11.175 -0.5060  0.2971  0.6844
  215MPD1    N1 3275   0.370   0.717  10.852  0.3593  0.0032  0.2172
  215MPD1    H6 3276   0.376   0.676  10.758  3.6367 -1.2824  0.9622
  215MPD1    H7 3277   0.420   0.804  10.869 -0.9069  0.4431  1.6452
  216MPD1     C 3278   1.596   3.952  16.911  0.0529  0.3555 -0.1850
  216MPD1    C1 3279   1.526   3.937  17.027  0.4178 -0.2151  0.0136
  216MPD1    C2 3280   1.482   3.812  17.049 -0.2601 -0.1693 -0.3293
  216MPD1    C3 3281   1.520   3.703  16.973  0.2877 -0.1322  0.1277
  216MPD1    C4 3282   1.589   3.715  16.862 -0.4896 -0.4337  0.2226
  216MPD1    C5 3283   1.632   3.845  16.841  0.3360 -0.4538  0.6898
  216MPD1     H 3284   1.419   3.788  17.134  0.3709  0.5229  0.3346
  216MPD1    H1 3285   1.613   3.632  16.795 -2.5379 -0.4431 -0.4998
  216MPD1    H2 3286   1.622   4.052  16.880 -1.6446  0.5223 -1.0246
  216MPD1    H3 3287   1.682   3.865  16.746 -1.6288 -0.1201 -0.2774
  216MPD1     N 3288   1.456   3.582  17.012  0.1777  0.2255 -0.6481
  216MPD1    H5 3289   1.390   3.585  17.089 -0.4200  0.7074 -1.1763
  216MPD1    N1 3290   1.468   4.047  17.100 -0.3032 -0.1234 -0.5920
  216MPD1    H6 3291   1.422   4.025  17.188 -1.0340  0.6074 -0.7906
  216MPD1    H7 3292   1.528   4.129  17.106  0.4405 -0.8054  1.2961
  217MPD1     C 3293   2.806   1.332   8.802 -0.1017  0.2251 -0.0390
  217MPD1    C1 3294   2.894   1.234   8.763  0.0247 -0.2711 -0.0291
  217MPD1    C2 3295   2.852   1.104   8.764 -0.7367 -0.3950  0.5540
  217MPD1    C3 3296   2.719   1.071   8.784 -0.1783  0.5581 -0.5483
  217MPD1    C4 3297   2.635   1.172   8.812 -0.6413  0.2540  0.4740
  217MPD1    C5 3298   2.671   1.303   8.821 -0.0896 -0.3919  0.1228
  217MPD1     H 3299   2.931   1.036   8.736 -0.8092  0.7715 -2.4673
  217MPD1    H1 3300   2.531   1.146   8.831 -1.1093 -0.3146 -2.9844
  217MPD1    H2 3301   2.845   1.433   8.801  1.5532 -0.4284 -0.4748
  217MPD1    H3 3302   2.592   1.373   8.843  0.9903  0.7305  0.4318
  217MPD1     N 3303   2.673   0.936   8.796  0.1518 -0.3403  0.0405
  217MPD1    H5 3304   2.575   0.928   8.822  0.0998 -1.0215 -0.3625
  217MPD1    N1 3305   3.033   1.267   8.761  0.2349  0.2223  0.6600
  217MPD1    H6 3306   3.081   1.226   8.681  0.2403  0.1692  0.6912
  217MPD1    H7 3307   3.040   1.369   8.754 -1.1751  0.1566 -1.9029
  218MPD1     C 3308   3.396   1.681  12.633  0.1119 -0.1192  0.1775
  218MPD1    C1 3309   3.504   1.729  12.563  0.2922 -0.2409 -0.3662
  218MPD1    C2 3310   3.631   1.669  12.568 -0.1288 -0.4915  0.1910
  218MPD1    C3 3311   3.652   1.559  12.644  0.0940  0.2912  0.3398
  218MPD1    C4 3312   3.542   1.509  12.719  0.2320  0.0665 -1.5232
  218MPD1    C5 3313   3.418   1.571  12.712  0.5645  0.5880  0.9306
  218MPD1     H 3314   3.711   1.704  12.504 -2.2165  1.9286 -1.0433
  218MPD1    H1 3315   3.550   1.416  12.774  1.0400  0.7422 -0.4937
  218MPD1    H2 3316   3.296   1.713  12.607 -0.0453 -1.6356 -1.0849
  218MPD1    H3 3317   3.344   1.538  12.784  0.0346  0.9999  0.5640
  218MPD1     N 3318   3.774   1.485  12.619 -0.7826 -0.3701  0.3758
  218MPD1    H5 3319   3.830   1.532  12.548  1.2117 -1.9857  0.8589
  218MPD1    N1 3320   3.484   1.831  12.472 -0.3063  0.5548 -0.2105
  218MPD1    H6 3321   3.444   1.915  12.514 -0.1362 -0.1135  1.2551
  218MPD1    H7 3322   3.568   1.869  12.429  1.3263 -2.2078  0.5566
  219MPD1     C 3323   4.667   1.530  12.253  0.5810 -0.1974 -0.2425
  219MPD1    C1 3324   4.571   1.620  12.287  1.0209 -0.0477  0.5570
  219MPD1    C2 3325   4.456   1.569  12.338  0.4972  0.0892 -1.0636
  219MPD1    C3 3326   4.440   1.427  12.348  0.5018 -0.0920 -0.3335
  219MPD1    C4 3327   4.537   1.342  12.302  0.2710  0.4030  0.3915
  219MPD1    C5 3328   4.650   1.394  12.252 -0.1302 -0.1497 -0.7524
  219MPD1     H 3329   4.383   1.633  12.386  2.2257  0.3690  1.2092
  219MPD1    H1 3330   4.511   1.237  12.299 -0.4034  0.5157  2.3506
  219MPD1    H2 3331   0.041   1.560  12.223  0.2304 -1.5237 -2.7509
  219MPD1    H3 3332   0.003   1.333  12.208 -0.5792 -2.4871  1.6844
  219MPD1     N 3333   4.326   1.365  12.402  0.3877  0.3267  0.0784
  219MPD1    H5 3334   4.315   1.264  12.397 -1.3539  0.4488  1.5170
  219MPD1    N1 3335   4.596   1.755  12.288  0.3253 -0.1060 -0.0574
  219MPD1    H6 3336   4.512   1.813  12.285  1.1284  1.0298 -0.3940
  219MPD1    H7 3337   4.661   1.785  12.216  1.8820 -1.7254  0.6845
  220MPD1     C 3338   4.655   1.949   9.771  0.2978 -0.4028 -0.0838
  220MPD1    C1 3339   4.695   1.960   9.901  0.2373 -0.0634  0.5002
  220MPD1    C2 3340   4.653   1.867   9.995 -0.3491  0.0082  0.1658
  220MPD1    C3 3341   4.567   1.767   9.949  0.2953 -0.0057 -0.1259
  220MPD1    C4 3342   4.530   1.758   9.814 -0.1641 -0.9219  0.3475
  220MPD1    C5 3343   4.571   1.847   9.726 -0.2417 -0.3552  0.0830
  220MPD1     H 3344   4.703   1.872  10.091 -1.9038  1.0941  0.9183
  220MPD1    H1 3345   4.462   1.682   9.776 -0.6144  0.6055 -1.8801
  220MPD1    H2 3346   4.696   2.017   9.697 -1.1109 -0.1024 -0.5868
  220MPD1    H3 3347   4.547   1.840   9.620  0.0818  0.3411 -0.0449
  220MPD1     N 3348   4.527   1.682  10.053 -0.8499 -0.2187 -0.2444
  220MPD1    H5 3349   4.551   1.711  10.147 -0.0181 -0.1537 -0.4711
  220MPD1    N1 3350   0.026   2.083   9.934 -0.3488  0.1882 -0.1442
  220MPD1    H6 3351   0.096   2.106   9.863 -1.2373  1.5612 -0.5865
  220MPD1    H7 3352   0.070   2.084  10.025  1.2875 -1.9165 -0.9091
  221MPD1     C 3353   1.529   0.969  16.077 -0.5342 -0.4425 -0.0112
  221MPD1    C1 3354   1.591   0.849  16.053  0.2649 -0.1246 -0.6990
  221MPD1    C2 3355   1.727   0.844  16.044 -1.0726 -0.2144  0.3337
  221MPD1    C3 3356   1.808   0.948  16.083  0.3489  0.2358  0.1717
  221MPD1    C4 3357   1.751   1.064  16.109  0.5663  0.0386 -0.1235
  221MPD1    C5 3358   1.614   1.077  16.097  0.5195 -0.2619 -0.3109
  221MPD1     H 3359   1.774   0.753  16.009 -2.0426  0.1563 -1.8803
  221MPD1    H1 3360   1.811   1.148  16.141 -1.0287  1.0808  0.1356
  221MPD1    H2 3361   1.423   0.986  16.091 -0.6221 -0.0663 -1.1415
  221MPD1    H3 3362   1.588   1.168  16.151 -0.9408 -0.5469 -0.5488
  221MPD1     N 3363   1.950   0.938  16.082  0.2365 -0.2107  0.3774
  221MPD1    H5 3364   1.999   1.026  16.097 -1.3639  0.6400  0.5846
  221MPD1    N1 3365   1.510   0.753  16.000 -0.0303 -0.4341 -0.3177
  221MPD1    H6 3366   1.547   0.659  16.008  2.5565  0.6439  0.5084
  221MPD1    H7 3367   1.418   0.759  16.042  0.1642 -0.4255  0.1075
  222MPD1     C 3368   2.302   4.090  16.424 -0.3499  0.0214  0.6648
  222MPD1    C1 3369   2.165   4.086  16.432 -0.5889 -0.3183 -0.4482
  222MPD1    C2 3370   2.099   4.201  16.486 -0.1604 -0.8458 -0.1268
  222MPD1    C3 3371   2.170   4.300  16.551 -0.1055  0.1094  0.2331
  222MPD1    C4 3372   2.304   4.291  16.542  0.2578  0.0678 -0.3748
  222MPD1    C5 3373   2.369   4.185  16.481  0.0126  0.2250  0.0993
  222MPD1     H 3374   1.991   4.206  16.477 -0.3617 -0.2551  2.4987
  222MPD1    H1 3375   2.363   4.378  16.565  1.4813 -1.0132  0.5879
  222MPD1    H2 3376   2.354   3.999  16.395 -3.0923 -1.9008  1.7643
  222MPD1    H3 3377   2.476   4.186  16.462 -0.1186 -2.7305 -0.8038
  222MPD1     N 3378   2.114   4.413  16.602 -0.1343  0.4023 -0.0640
  222MPD1    H5 3379   2.185   4.477  16.636  1.4356 -1.3805  0.0113
  222MPD1    N1 3380   2.093   3.978  16.376  0.2781  0.2453 -0.1297
  222MPD1    H6 3381   2.148   3.892  16.370  1.2369  0.6833  2.3435
  222MPD1    H7 3382   1.995   3.967  16.403  0.6278  2.4118  2.0882
  223MPD1     C 3383   2.568   0.411  16.620  0.9258  0.4884 -0.0950
  223MPD1    C1 3384   2.587   0.274  16.614  0.5626  0.4920  1.0688
  223MPD1    C2 3385   2.481   0.193  16.623 -0.3901  0.3769  0.1225
  223MPD1    C3 3386   2.354   0.242  16.653  0.1720  0.1007  0.1541
  223MPD1    C4 3387   2.339   0.380  16.671 -0.1931  0.4516  0.1331
  223MPD1    C5 3388   2.450   0.464  16.654 -0.3456  0.1256 -0.2155
  223MPD1     H 3389   2.500   0.087  16.610 -0.1056  0.5125 -0.5574
  223MPD1    H1 3390   2.245   0.433  16.684  0.5171  1.6983  0.2586
  223MPD1    H2 3391   2.644   0.483  16.591 -0.1596  1.3800 -0.7601
  223MPD1    H3 3392   2.431   0.570  16.643  0.7927  0.4316  0.7404
  223MPD1     N 3393   2.243   0.147  16.673  0.2554 -0.3975  0.0709
  223MPD1    H5 3394   2.262   0.047  16.669  1.1769 -0.2716  1.2850
  223MPD1    N1 3395   2.720   0.228  16.591  0.0704  1.1673  0.5724
  223MPD1    H6 3396   2.791   0.275  16.646  1.8803 -0.4314 -0.3839
  223MPD1    H7 3397   2.733   0.130  16.615  0.8676  0.5430 -2.3685
  224MPD1     C 3398   3.852   1.149   9.471  0.4075 -0.9296  0.4647
  224MPD1    C1 3399   3.748   1.239   9.446  0.3762  0.9567  0.4791
  224MPD1    C2 3400   3.619   1.185   9.433  0.8369 -0.6974  0.1874
  224MPD1    C3 3401   3.582   1.053   9.464  0.0208  0.1094  0.3727
  224MPD1    C4 3402   3.687   0.985   9.525 -0.3778 -0.8751  0.3911
  224MPD1    C5 3403   3.820   1.025   9.521  0.3040  0.9441  0.7794
  224MPD1     H 3404   3.547   1.253   9.387 -0.1873 -0.1888  2.5124
  224MPD1    H1 3405   3.680   0.880   9.551  1.8819 -1.1050  0.0904
  224MPD1    H2 3406   3.951   1.188   9.451  1.0357 -2.7990  0.0022
  224MPD1    H3 3407   3.893   0.956   9.563 -0.5473  1.0652  2.4279
  224MPD1     N 3408   3.446   1.010   9.468  0.3291  0.0631 -0.6045
  224MPD1    H5 3409   3.430   0.921   9.515 -3.7973  0.4377 -1.3188
  224MPD1    N1 3410   3.772   1.363   9.384  0.1086  0.3628  0.1935
  224MPD1    H6 3411   3.692   1.418   9.414 -1.1308  0.2509 -2.8838
  224MPD1    H7 3412   3.859   1.405   9.416  1.6308 -2.5922 -0.1413
  225MPD1     C 3413   4.458   2.008  12.117  0.0157  0.0827  0.1014
  225MPD1    C1 3414   4.425   1.974  11.988  0.4875 -0.2017 -0.1405
  225MPD1    C2 3415   4.295   2.014  11.947  0.5017  0.0529  0.2445
  225MPD1    C3 3416   4.215   2.102  12.019  0.1457 -0.4357  0.4518
  225MPD1    C4 3417   4.258   2.145  12.141 -0.4511  0.3036 -0.0467
  225MPD1    C5 3418   4.381   2.095  12.191  0.4770  0.2878  0.1677
  225MPD1     H 3419   4.268   1.986  11.846  0.6761  2.5271 -0.4950
  225MPD1    H1 3420   4.202   2.209  12.208 -1.1893 -0.6947  0.2999
  225MPD1    H2 3421   4.550   1.965  12.156  0.9651  0.6896 -1.4304
  225MPD1    H3 3422   4.410   2.122  12.292 -1.1894  1.4353  0.3456
  225MPD1     N 3423   4.086   2.146  11.982  0.2609 -0.7962  1.0130
  225MPD1    H5 3424   4.034   2.210  12.040 -0.7295 -0.3051 -0.4350
  225MPD1    N1 3425   4.501   1.886  11.907  0.6451 -0.1140  0.1233
  225MPD1    H6 3426   4.599   1.895  11.932  0.2685 -0.5939  1.7489
  225MPD1    H7 3427   4.477   1.891  11.808 -2.0797  0.6496  0.8089
  226MPD1     C 3428   3.221   0.735   9.113  0.7143  1.0180  0.2256
  226MPD1    C1 3429   3.251   0.867   9.116 -0.5231 -0.2226 -0.3437
  226MPD1    C2 3430   3.153   0.961   9.099 -0.9511 -0.4699  0.0002
  226MPD1    C3 3431   3.018   0.927   9.112  1.0031 -0.2678 -0.4280
  226MPD1    C4 3432   2.993   0.794   9.107  0.2668  0.0748  0.6392
  226MPD1    C5 3433   3.093   0.700   9.098 -0.7494  0.2970  0.2449
  226MPD1     H 3434   3.177   1.066   9.088 -1.4770 -0.3671 -0.1797
  226MPD1    H1 3435   2.894   0.753   9.090 -1.0831  3.3589  0.6802
  226MPD1    H2 3436   3.289   0.650   9.107  1.1664  1.2046  2.5899
  226MPD1    H3 3437   3.064   0.599   9.070 -0.0465  1.4299 -4.5076
  226MPD1     N 3438   2.925   1.027   9.119  0.1257 -0.9744 -0.0781
  226MPD1    H5 3439   2.962   1.120   9.104  1.8015 -1.3800  1.5503
  226MPD1    N1 3440   3.389   0.908   9.104 -0.4747 -0.0277  0.2413
  226MPD1    H6 3441   3.407   0.993   9.157 -2.3198 -1.3337  2.9572
  226MPD1    H7 3442   3.456   0.837   9.132 -1.0279 -0.6359 -0.0084
  227MPD1     C 3443   1.972   0.996   9.302  0.2831 -0.6430 -0.0970
  227MPD1    C1 3444   2.073   0.906   9.281  0.5656 -0.1367  0.0028
  227MPD1    C2 3445   2.209   0.949   9.267 -0.0058 -1.1047  0.4732
  227MPD1    C3 3446   2.224   1.084   9.251 -0.3820  0.0949  0.1958
  227MPD1    C4 3447   2.117   1.173   9.267 -0.3490 -0.3031  0.0189
  227MPD1    C5 3448   1.990   1.129   9.283  0.7845 -0.9969  0.7445
  227MPD1     H 3449   2.295   0.883   9.278 -0.1641 -1.4765 -0.5251
  227MPD1    H1 3450   2.124   1.279   9.244 -0.1269 -0.3902 -0.3130
  227MPD1    H2 3451   1.871   0.968   9.330  1.0884 -3.0501  0.4239
  227MPD1    H3 3452   1.911   1.203   9.289  0.5322 -1.2530  0.5869
  227MPD1     N 3453   2.356   1.134   9.233 -0.8737 -0.3935 -0.1863
  227MPD1    H5 3454   2.438   1.074   9.232  0.4881  1.4692  0.3334
  227MPD1    N1 3455   2.032   0.769   9.284 -0.7573  0.4011 -0.6652
  227MPD1    H6 3456   2.089   0.689   9.257 -1.6095 -0.2534 -0.5335
  227MPD1    H7 3457   1.937   0.748   9.253 -0.5880  0.4222 -1.2031
  228MPD1     C 3458   0.890   0.264  12.253  0.4285 -0.5875 -0.7420
  228MPD1    C1 3459   0.880   0.153  12.176  0.5224  0.2610  0.1787
  228MPD1    C2 3460   0.782   0.067  12.215 -0.1518 -0.6767 -0.3677
  228MPD1    C3 3461   0.719   0.073  12.338 -0.1443 -0.3364  0.8399
  228MPD1    C4 3462   0.750   0.177  12.422  0.1578  0.7556  0.3990
  228MPD1    C5 3463   0.829   0.277  12.371 -0.0827  0.0326 -1.1020
  228MPD1     H 3464   0.756   4.716  12.142  1.5705 -0.6638 -0.9852
  228MPD1    H1 3465   0.711   0.187  12.523 -0.4487 -0.5095  0.2924
  228MPD1    H2 3466   0.948   0.348  12.216 -1.3983  1.2960  0.6922
  228MPD1    H3 3467   0.839   0.369  12.427  0.1347 -0.3755 -0.4795
  228MPD1     N 3468   0.633   4.692  12.380  1.1896 -0.2009  0.2511
  228MPD1    H5 3469   0.602   4.634  12.303 -0.7380  0.1287  0.7517
  228MPD1    N1 3470   0.934   0.151  12.044 -0.3000 -0.2795  0.0286
  228MPD1    H6 3471   1.024   0.198  12.030  0.2301 -1.5773 -0.9775
  228MPD1    H7 3472   0.962   0.056  12.018  0.7679 -0.2509  1.0769
  229MPD1     C 3473   1.157   3.458  14.806  0.1749  0.2711 -0.1115
  229MPD1    C1 3474   1.110   3.390  14.912 -0.3226  0.5508 -0.0006
  229MPD1    C2 3475   1.083   3.258  14.895  0.0221 -0.7621 -0.4451
  229MPD1    C3 3476   1.099   3.198  14.767 -0.2687  0.9655  0.5939
  229MPD1    C4 3477   1.162   3.261  14.667 -0.1336 -0.3334  0.1894
  229MPD1    C5 3478   1.191   3.389  14.696 -0.2645 -0.1247  0.6973
  229MPD1     H 3479   1.047   3.196  14.977 -2.0257 -1.3592 -1.7851
  229MPD1    H1 3480   1.181   3.225  14.566 -1.4461  0.8985 -0.4955
  229MPD1    H2 3481   1.182   3.564  14.808  1.2153  0.0471 -1.4675
  229MPD1    H3 3482   1.233   3.450  14.616  1.0479  2.2705  3.1848
  229MPD1     N 3483   1.050   3.074  14.732  0.1108  0.2043 -0.2292
  229MPD1    H5 3484   1.069   3.029  14.643  0.4606 -0.4791  0.1890
  229MPD1    N1 3485   1.117   3.443  15.042  0.2256 -0.0888  0.0231
  229MPD1    H6 3486   1.071   3.392  15.117 -1.9163 -0.9711 -1.8682
  229MPD1    H7 3487   1.099   3.543  15.045  0.5732  0.1080 -4.0837
  230MPD1     C 3488   0.335   2.310  15.019  0.1829  0.4612 -0.0615
  230MPD1    C1 3489   0.465   2.265  15.011  0.6219  0.0655  0.2303
  230MPD1    C2 3490   0.558   2.345  14.952 -0.6573  0.0527 -0.5717
  230MPD1    C3 3491   0.524   2.468  14.906  0.0322  0.0211  0.2343
  230MPD1    C4 3492   0.392   2.509  14.908  0.1478 -0.4626 -0.3116
  230MPD1    C5 3493   0.299   2.426  14.969 -0.3255  0.5772  0.3537
  230MPD1     H 3494   0.661   2.313  14.942 -0.1924  1.0984  0.8777
  230MPD1    H1 3495   0.359   2.601  14.863 -0.5683 -0.5456  0.0482
  230MPD1    H2 3496   0.257   2.257  15.074  0.9188  0.8273  1.3277
  230MPD1    H3 3497   0.196   2.460  14.971 -0.1924  1.1398 -1.7962
  230MPD1     N 3498   0.623   2.545  14.843 -0.5613 -0.8532 -0.3723
  230MPD1    H5 3499   0.711   2.498  14.826 -0.1942 -0.0746 -0.6274
  230MPD1    N1 3500   0.496   2.146  15.083 -0.1114 -0.0327  0.4954
  230MPD1    H6 3501   0.416   2.083  15.077  0.7745 -1.1193  0.0560
  230MPD1    H7 3502   0.577   2.101  15.041 -3.2041 -1.1702 -4.2874
  231MPD1     C 3503   3.364   0.608  15.121 -0.4664  0.6430  0.9443
  231MPD1    C1 3504   3.377   0.689  15.012 -0.2754  0.1817 -0.0377
  231MPD1    C2 3505   3.503   0.738  14.978 -0.4398 -0.1551  0.0901
  231MPD1    C3 3506   3.613   0.686  15.036 -0.2815 -0.5094 -0.1462
  231MPD1    C4 3507   3.600   0.597  15.141 -0.0042  0.1759  0.1262
  231MPD1    C5 3508   3.473   0.562  15.185 -0.1129 -0.2911  0.3584
  231MPD1     H 3509   3.512   0.812  14.900  0.2229  1.7088  1.9320
  231MPD1    H1 3510   3.678   0.554  15.203 -0.4547  0.9413  1.2103
  231MPD1    H2 3511   3.266   0.581  15.161  0.4350 -1.8244  1.5243
  231MPD1    H3 3512   3.462   0.512  15.281 -1.5077 -0.9408 -0.1323
  231MPD1     N 3513   3.736   0.721  14.981  0.1282  0.6026  0.0089
  231MPD1    H5 3514   3.747   0.782  14.901 -1.5771  4.7458  2.9170
  231MPD1    N1 3515   3.266   0.741  14.952  0.1190 -0.2719  0.5118
  231MPD1    H6 3516   3.280   0.752  14.852  2.3389 -2.8872  0.5594
  231MPD1    H7 3517   3.178   0.691  14.965  0.9988 -1.2568  2.5902
  232MPD1     C 3518   0.808   3.307  17.649  0.2047  0.4797 -0.8767
  232MPD1    C1 3519   0.704   3.318  17.562 -0.8700  1.0481 -0.2822
  232MPD1    C2 3520   0.580   3.276  17.605  0.1604 -0.5586  0.3007
  232MPD1    C3 3521   0.570   3.217   0.029 -0.2847  0.9830  0.4145
  232MPD1    C4 3522   0.673   3.212   0.113  0.3698  0.2813 -0.7087
  232MPD1    C5 3523   0.793   3.253   0.064 -0.0622 -0.0739 -0.0221
  232MPD1     H 3524   0.494   3.278  17.539  0.7401 -1.9313 -0.4971
  232MPD1    H1 3525   0.658   3.184   0.216  0.2083  2.1751 -0.2273
  232MPD1    H2 3526   0.907   3.349  17.632  0.4069 -0.4780 -2.0786
  232MPD1    H3 3527   0.878   3.247   0.131  1.0173 -4.0090 -1.7505
  232MPD1     N 3528   0.443   3.166   0.063 -0.0743  0.4047  0.4448
  232MPD1    H5 3529   0.364   3.179   0.000  0.5380 -1.3612 -0.7017
  232MPD1    N1 3530   0.714   3.401  17.448 -0.3954  0.3626 -0.4010
  232MPD1    H6 3531   0.804   3.410  17.401 -0.1988  1.1084  0.1278
  232MPD1    H7 3532   0.651   3.373  17.373 -1.0296  0.9110 -0.0623
  233MPD1     C 3533   2.049   1.739   2.259  0.4440 -0.2735  0.5989
  233MPD1    C1 3534   2.127   1.647   2.321  0.1515  0.0387 -0.0384
  233MPD1    C2 3535   2.215   1.570   2.253 -0.2217  0.4887  0.1189
  233MPD1    C3 3536   2.209   1.567   2.113  0.8943 -0.4039  0.4260
  233MPD1    C4 3537   2.136   1.661   2.053 -0.2864  0.6398 -0.0307
  233MPD1    C5 3538   2.061   1.748   2.123 -0.3425 -0.2106 -0.4432
  233MPD1     H 3539   2.297   1.523   2.305 -0.2849 -0.4865 -0.6592
  233MPD1    H1 3540   2.142   1.691   1.949 -0.6450  0.4059 -0.1190
  233MPD1    H2 3541   1.983   1.804   2.316 -0.9101 -1.9354  0.9327
  233MPD1    H3 3542   2.005   1.828   2.077 -1.4665 -1.2285 -0.8336
  233MPD1     N 3543   2.303   1.503   2.029 -0.0050  0.2970  0.2552
  233MPD1    H5 3544   2.305   1.530   1.932 -0.2812  1.2320  0.5057
  233MPD1    N1 3545   2.137   1.662   2.457  0.2448 -0.1051 -0.4399
  233MPD1    H6 3546   2.169   1.575   2.500 -1.1617 -0.7804 -0.7541
  233MPD1    H7 3547   2.046   1.675   2.501  0.1729 -1.3958 -0.2042
  234MPD1     C 3548   3.253   3.796   9.162 -0.4244  0.3193 -0.6973
  234MPD1    C1 3549   3.176   3.877   9.077  0.2965 -0.2392  0.4665
  234MPD1    C2 3550   3.149   4.009   9.109  0.3400  0.3719 -0.0558
  234MPD1    C3 3551   3.210   4.075   9.212  0.9284  0.4540 -0.0944
  234MPD1    C4 3552   3.292   3.997   9.290  0.0313  0.6725 -0.1536
  234MPD1    C5 3553   3.304   3.860   9.275 -0.1355 -0.1328 -0.3102
  234MPD1     H 3554   3.063   4.057   9.063  0.9270 -1.0812 -2.6366
  234MPD1    H1 3555   3.357   4.034   9.369 -1.2768 -1.3398  1.8752
  234MPD1    H2 3556   3.263   3.688   9.157  0.3826  0.3121  1.0267
  234MPD1    H3 3557   3.363   3.802   9.346  0.0721  1.0080  0.4484
  234MPD1     N 3558   3.173   4.211   9.237  0.7221 -0.6477 -0.6255
  234MPD1    H5 3559   3.102   4.258   9.181  2.0609  3.6199  1.2514
  234MPD1    N1 3560   3.099   3.802   8.991 -0.7132 -0.1367  0.0179
  234MPD1    H6 3561   3.151   3.732   8.939 -0.1814 -0.2690  0.7355
  234MPD1    H7 3562   3.054   3.863   8.922 -0.4046  1.7177  1.4660
  235MPD1     C 3563   4.087   2.988   9.768  0.4602 -0.5624 -0.9637
  235MPD1    C1 3564   4.215   2.970   9.718  0.5014  0.7142  0.6155
  235MPD1    C2 3565   4.253   3.040   9.601 -0.4008 -0.2259  0.0123
  235MPD1    C3 3566   4.161   3.107   9.531  0.2708  0.4970 -0.5084
  235MPD1    C4 3567   4.037   3.131   9.589  0.4576  0.4956  0.2652
  235MPD1    C5 3568   3.999   3.067   9.701  0.3483  0.2823 -0.1335
  235MPD1     H 3569   4.352   3.036   9.557 -0.9063 -1.8971 -0.9898
  235MPD1    H1 3570   3.964   3.200   9.547 -1.4485 -0.4992  1.9500
  235MPD1    H2 3571   4.060   2.947   9.865  1.3831 -1.0918 -0.9323
  235MPD1    H3 3572   3.910   3.097   9.755  1.1581  2.5880 -0.0893
  235MPD1     N 3573   4.198   3.156   9.401  0.0699  0.9477 -0.2656
  235MPD1    H5 3574   4.291   3.132   9.370  0.3152 -1.0658  1.9983
  235MPD1    N1 3575   4.311   2.903   9.799 -0.6401  0.7105  0.5591
  235MPD1    H6 3576   4.265   2.823   9.843  0.6927  0.2781  1.1356
  235MPD1    H7 3577   4.394   2.862   9.757 -0.7754  0.7231  0.2803
  236MPD1     C 3578   3.651   3.368   9.950  0.0718  0.7940  0.0446
  236MPD1    C1 3579   3.698   3.479  10.014  0.1910  1.2773 -0.7710
  236MPD1    C2 3580   3.814   3.468  10.097  0.6095 -0.3444  0.0509
  236MPD1    C3 3581   3.882   3.351  10.112  0.4787 -0.0571  0.0448
  236MPD1    C4 3582   3.823   3.242  10.053 -0.3792 -0.8081  0.2766
  236MPD1    C5 3583   3.718   3.253   9.972  0.7690 -0.4307 -0.3324
  236MPD1     H 3584   3.849   3.557  10.149  1.8898 -2.7582  3.3147
  236MPD1    H1 3585   3.869   3.144  10.067 -0.0760 -0.5428  1.0976
  236MPD1    H2 3586   3.559   3.378   9.893 -1.1132 -3.4458  1.2218
  236MPD1    H3 3587   3.685   3.168   9.913  0.5833  0.7170 -1.8538
  236MPD1     N 3588   3.998   3.339  10.185  0.8485  0.6152 -0.5609
  236MPD1    H5 3589   4.021   3.242  10.208 -0.9803  0.2732 -0.2018
  236MPD1    N1 3590   3.621   3.600  10.022 -0.2336 -0.6839 -0.7799
  236MPD1    H6 3591   3.685   3.679  10.030 -1.4271  0.3425 -1.2820
  236MPD1    H7 3592   3.565   3.610   9.938  0.4043 -1.5269 -1.3010
  237MPD1     C 3593   3.834   1.717  15.090 -0.1558  0.4048  0.6289
  237MPD1    C1 3594   3.876   1.699  15.222 -0.2026  0.0203  0.3190
  237MPD1    C2 3595   3.775   1.698  15.320  0.1449  0.6233 -0.2097
  237MPD1    C3 3596   3.644   1.712  15.285 -0.9674 -0.1544 -0.3769
  237MPD1    C4 3597   3.610   1.736  15.157  0.1785 -0.4852 -0.1009
  237MPD1    C5 3598   3.708   1.742  15.062 -0.6428 -0.8355 -0.1195
  237MPD1     H 3599   3.799   1.683  15.424  3.1375  0.5696 -0.9216
  237MPD1    H1 3600   3.510   1.767  15.131  0.3928  1.0823  0.9160
  237MPD1    H2 3601   3.900   1.714  15.004  1.6453 -1.7076  2.0859
  237MPD1    H3 3602   3.690   1.765  14.958  0.8556  0.1035 -0.1725
  237MPD1     N 3603   3.531   1.697  15.369  0.2831 -0.1466 -0.1369
  237MPD1    H5 3604   3.441   1.701  15.323  0.1659 -1.3065 -0.0122
  237MPD1    N1 3605   4.009   1.657  15.250  1.3678 -0.5765 -0.2412
  237MPD1    H6 3606   4.028   1.686  15.346 -3.1563 -1.5017  0.9338
  237MPD1    H7 3607   4.064   1.711  15.184 -0.6288  0.8845 -0.7002
  238MPD1     C 3608   1.042   4.116  15.096  0.5861 -0.2441  0.8094
  238MPD1    C1 3609   0.997   4.202  15.194 -0.2065  0.3260 -0.2795
  238MPD1    C2 3610   0.893   4.290  15.169 -0.5608 -0.1151  0.0073
  238MPD1    C3 3611   0.820   4.267  15.055 -0.4795 -0.8145  0.4534
  238MPD1    C4 3612   0.859   4.178  14.959 -0.1667  0.0421  0.5717
  238MPD1    C5 3613   0.972   4.104  14.977 -0.3006  0.2367 -0.7065
  238MPD1     H 3614   0.861   4.360  15.245 -0.0356  1.1998 -0.9931
  238MPD1    H1 3615   0.801   4.169  14.868  1.5474  1.1039 -0.6390
  238MPD1    H2 3616   1.125   4.049  15.112  1.2569 -0.0509 -1.8115
  238MPD1    H3 3617   1.009   4.031  14.906  1.1218 -0.5691  0.8603
  238MPD1     N 3618   0.708   4.338  15.018  0.1326  0.1033 -0.1262
  238MPD1    H5 3619   0.684   4.339  14.919  2.2328 -3.6665 -0.6884
  238MPD1    N1 3620   1.076   4.220  15.313  0.2407  0.1354  0.2972
  238MPD1    H6 3621   1.137   4.142  15.338  1.1141  0.8160  0.2972
  238MPD1    H7 3622   1.017   4.260  15.386 -0.1563 -2.8232  1.6049
  239MPD1     C 3623   0.913   0.822  15.190  0.1306 -0.3636 -0.3522
  239MPD1    C1 3624   1.013   0.895  15.136 -0.2124  0.0531 -0.6655
  239MPD1    C2 3625   0.983   0.991  15.042 -1.0154  0.7759  0.2237
  239MPD1    C3 3626   0.855   1.021  15.009 -0.0923  0.5272  0.3927
  239MPD1    C4 3627   0.747   0.966  15.080  0.1580 -0.2988 -0.4876
  239MPD1    C5 3628   0.778   0.858  15.160 -0.3662 -0.6699 -0.0390
  239MPD1     H 3629   1.070   1.027  14.988  0.0246 -0.6456  0.9572
  239MPD1    H1 3630   0.646   1.000  15.063 -0.0378 -0.8608 -0.4573
  239MPD1    H2 3631   0.929   0.728  15.243  0.0733 -1.4295 -2.2123
  239MPD1    H3 3632   0.695   0.810  15.211 -1.8867  1.3489 -0.5993
  239MPD1     N 3633   0.824   1.105  14.901 -0.4573 -0.2072 -0.6554
  239MPD1    H5 3634   0.724   1.118  14.889 -0.2829  0.2651 -1.6029
  239MPD1    N1 3635   1.146   0.852  15.160 -0.4275  0.0124  0.7097
  239MPD1    H6 3636   1.223   0.918  15.147  0.1676 -1.0897 -1.3224
  239MPD1    H7 3637   1.169   0.790  15.237 -1.2213  0.6950  1.5008
  240MPD1     C 3638   0.147   1.178  14.056 -0.4614  0.3962  0.2470
  240MPD1    C1 3639   0.075   1.174  14.176  0.6462 -0.3110  0.3195
  240MPD1    C2 3640   0.086   1.061  14.255  0.1003  0.4674 -0.4121
  240MPD1    C3 3641   0.189   0.960  14.235  0.8307 -0.0963 -0.5526
  240MPD1    C4 3642   0.255   0.973  14.113  0.1325  0.0234 -0.7450
  240MPD1    C5 3643   0.242   1.079  14.032  0.3694 -0.1663 -0.4004
  240MPD1     H 3644   0.016   1.044  14.336  2.3836 -2.2839  1.0063
  240MPD1    H1 3645   0.337   0.907  14.087  2.8736  3.0403  0.1751
  240MPD1    H2 3646   0.131   1.261  13.989  0.8340 -0.4133 -1.0816
  240MPD1    H3 3647   0.294   1.080  13.936  0.6314 -0.6612 -0.2611
  240MPD1     N 3648   0.215   0.857  14.321 -0.1081  0.1725 -0.3868
  240MPD1    H5 3649   0.143   0.853  14.393 -0.9347 -0.4146 -1.2384
  240MPD1    N1 3650   4.694   1.265  14.194 -0.2656  0.0076  1.1870
  240MPD1    H6 3651   0.003   1.357  14.167  1.5138 -0.8604  0.4422
  240MPD1    H7 3652   4.660   1.270  14.289 -1.6257 -2.1991  0.8182
  241MPD1     C 3653   0.783   0.152  14.891 -0.0055  0.3326  0.0944
  241MPD1    C1 3654   0.822   0.167  14.764 -0.4735  0.2639  0.1194
  241MPD1    C2 3655   0.733   0.238  14.681 -0.1259 -0.2596  0.0410
  241MPD1    C3 3656   0.599   0.257  14.714 -0.2049 -0.1833 -0.0078
  241MPD1    C4 3657   0.568   0.233  14.844  0.4131  0.3514 -0.2211
  241MPD1    C5 3658   0.659   0.190  14.937  0.1546 -0.5517 -0.4565
  241MPD1     H 3659   0.763   0.278  14.585  1.2217 -1.5409 -0.0810
  241MPD1    H1 3660   0.465   0.250  14.873 -0.1605  0.1736 -2.1764
  241MPD1    H2 3661   0.852   0.100  14.955 -0.7917 -0.1072  0.5845
  241MPD1    H3 3662   0.633   0.190  15.042  0.0083  1.5976 -0.4793
  241MPD1     N 3663   0.500   0.310  14.632 -0.0995 -0.1254  0.4267
  241MPD1    H5 3664   0.406   0.314  14.671 -1.5371 -0.0603 -3.0017
  241MPD1    N1 3665   0.936   0.105  14.703  0.0370 -0.8892 -0.0333
  241MPD1    H6 3666   1.019   0.112  14.762 -0.7784  0.4906  0.9411
  241MPD1    H7 3667   0.964   0.149  14.616 -1.6113  0.2307  0.0188
  242MPD1     C 3668   4.217   3.284  15.920  0.4778  0.0569  0.5788
  242MPD1    C1 3669   4.293   3.395  15.915 -0.2301 -0.1654 -0.5421
  242MPD1    C2 3670   4.381   3.405  15.812  0.9977 -1.0961 -0.3589
  242MPD1    C3 3671   4.383   3.321  15.700  0.8428 -0.2898 -0.7737
  242MPD1    C4 3672   4.295   3.213  15.713  1.2767  0.6966 -0.5435
  242MPD1    C5 3673   4.221   3.190  15.817 -0.0057 -0.4669  0.1330
  242MPD1     H 3674   4.458   3.481  15.815  0.0301 -0.1138 -0.4080
  242MPD1    H1 3675   4.283   3.137  15.637 -1.8633 -0.6754  1.3166
  242MPD1    H2 3676   4.155   3.260  16.006  0.6336 -0.5206  0.5298
  242MPD1    H3 3677   4.168   3.097  15.831 -0.1104 -0.0842  2.3441
  242MPD1     N 3678   4.446   3.345  15.574 -0.4463  0.4486 -0.1627
  242MPD1    H5 3679   4.438   3.276  15.500 -2.0224  0.8460 -0.3584
  242MPD1    N1 3680   4.303   3.471  16.031 -0.1796  0.2602 -0.1260
  242MPD1    H6 3681   4.335   3.564  16.005  1.0655  0.1454  0.9887
  242MPD1    H7 3682   4.210   3.477  16.071  0.3209  0.1433  1.0462
  243MPD1     C 3683   1.109   2.441  17.673 -0.1511  0.2120  0.3475
  243MPD1    C1 3684   1.095   2.492  17.544 -0.0485  0.8018  0.0018
  243MPD1    C2 3685   1.155   2.421  17.442  0.2603 -1.2857 -0.8427
  243MPD1    C3 3686   1.219   2.303  17.469  0.6063 -0.4399 -0.1140
  243MPD1    C4 3687   1.244   2.265  17.604 -0.2413 -0.2147  0.4144
  243MPD1    C5 3688   1.189   2.334   0.003  0.8224  0.0680 -0.3975
  243MPD1     H 3689   1.143   2.444  17.337 -2.0610  1.1032 -0.0409
  243MPD1    H1 3690   1.305   2.182  17.636 -0.4481  0.3444  2.2750
  243MPD1    H2 3691   1.062   2.481   0.059 -1.0744  2.0680 -0.9508
  243MPD1    H3 3692   1.203   2.311   0.108  3.2329  1.8216 -0.3545
  243MPD1     N 3693   1.271   2.229  17.358 -0.3075  0.5219  0.0862
  243MPD1    H5 3694   1.242   2.255  17.264  1.4955  0.3833 -0.4985
  243MPD1    N1 3695   1.004   2.596  17.520  0.0707  0.1881 -0.6538
  243MPD1    H6 3696   1.025   2.647  17.434 -3.0525  1.7595 -0.4909
  243MPD1    H7 3697   1.006   2.671  17.588 -1.7688 -0.9499  0.6358
  244MPD1     C 3698   1.751   1.348  17.414  0.8508 -0.4483 -0.1231
  244MPD1    C1 3699   1.670   1.424  17.493 -0.1315  0.0464 -0.1386
  244MPD1    C2 3700   1.612   1.535  17.444  0.9169  0.6678  0.3647
  244MPD1    C3 3701   1.642   1.578  17.315  0.5671 -0.1678 -0.4760
  244MPD1    C4 3702   1.732   1.504  17.233 -0.8539  0.0134  0.5380
  244MPD1    C5 3703   1.783   1.388  17.282 -0.0072 -0.9276  0.2949
  244MPD1     H 3704   1.541   1.596  17.499  1.6320  1.9161 -0.0987
  244MPD1    H1 3705   1.752   1.527  17.129 -2.8658 -0.1367  0.1072
  244MPD1    H2 3706   1.777   1.247  17.440  0.7855  0.1883  2.3600
  244MPD1    H3 3707   1.843   1.330  17.213 -0.2498  1.6571 -2.1067
  244MPD1     N 3708   1.596   1.707  17.276  0.7028  0.2280 -0.2231
  244MPD1    H5 3709   1.557   1.765  17.350 -0.2665  0.0982 -0.6324
  244MPD1    N1 3710   1.628   1.368  17.609 -0.2999  0.1902 -0.3087
  244MPD1    H6 3711   1.703   1.312  17.650 -2.9975 -2.0272  1.5712
  244MPD1    H7 3712   1.580   1.421  17.681  0.2068  0.5608 -0.2465
  245MPD1     C 3713   3.252   2.628  13.222 -0.5997 -0.5370  1.2509
  245MPD1    C1 3714   3.286   2.690  13.340 -0.6902  0.0709  0.7626
  245MPD1    C2 3715   3.341   2.813  13.328 -0.1491 -0.0375  0.3985
  245MPD1    C3 3716   3.392   2.859  13.209 -0.1093  0.2457  0.8609
  245MPD1    C4 3717   3.376   2.782  13.099  0.2348  0.8674 -0.1670
  245MPD1    C5 3718   3.298   2.673  13.105 -0.8256 -0.3276 -0.4133
  245MPD1     H 3719   3.378   2.866  13.416  2.0989 -1.3933  0.2761
  245MPD1    H1 3720   3.414   2.814  13.003 -2.1181 -0.3355 -1.4999
  245MPD1    H2 3721   3.198   2.535  13.220 -0.5949 -0.5339  0.9648
  245MPD1    H3 3722   3.283   2.621  13.011 -0.2595  0.5407 -0.9880
  245MPD1     N 3723   3.463   2.981  13.221  0.4833  0.6127  0.3570
  245MPD1    H5 3724   3.471   3.027  13.311  0.6080  0.7393  0.2816
  245MPD1    N1 3725   3.251   2.625  13.461  0.0702 -0.1488  0.0235
  245MPD1    H6 3726   3.255   2.525  13.442 -1.5933 -0.2948  0.4546
  245MPD1    H7 3727   3.317   2.658  13.531  1.3897 -1.6324 -0.5092
  246MPD1     C 3728   3.305   0.453   8.723 -0.1916 -0.1817  0.6304
  246MPD1    C1 3729   3.191   0.383   8.709 -0.3114 -0.6468  0.0503
  246MPD1    C2 3730   3.189   0.244   8.740  0.2118  0.0118  0.4093
  246MPD1    C3 3731   3.303   0.181   8.795  0.3057  0.1677 -0.0003
  246MPD1    C4 3732   3.418   0.254   8.817  0.4558 -0.2858 -0.0936
  246MPD1    C5 3733   3.420   0.390   8.770 -0.3317 -0.1362  0.5399
  246MPD1     H 3734   3.105   0.186   8.703  1.2213 -0.9158 -0.4282
  246MPD1    H1 3735   3.518   0.225   8.846  1.1139  0.5513 -1.4928
  246MPD1    H2 3736   3.314   0.559   8.705  2.5428 -0.6054 -0.6117
  246MPD1    H3 3737   3.516   0.440   8.776 -0.2387 -0.2066 -0.3520
  246MPD1     N 3738   3.300   0.039   8.791  0.9427  0.1789  0.3665
  246MPD1    H5 3739   3.213   4.723   8.759  0.2921  0.7125  1.4184
  246MPD1    N1 3740   3.084   0.445   8.640 -0.0045 -0.1371 -0.4423
  246MPD1    H6 3741   2.998   0.420   8.687 -0.0783  0.6899 -0.1301
  246MPD1    H7 3742   3.089   0.543   8.669  3.6329 -0.1467 -0.9944
  247MPD1     C 3743   2.524   3.238  16.846  0.1952 -0.1017  0.8760
  247MPD1    C1 3744   2.530   3.102  16.863  1.0475  0.0634 -0.5980
  247MPD1    C2 3745   2.591   3.038  16.761  0.0165  0.2775  0.4962
  247MPD1    C3 3746   2.608   3.098  16.635 -0.1606 -0.3254 -0.4710
  247MPD1    C4 3747   2.590   3.234  16.625 -0.5731 -0.0971  0.2406
  247MPD1    C5 3748   2.549   3.305  16.733  0.4732 -0.0045 -0.1857
  247MPD1     H 3749   2.627   2.936  16.773  0.3909  0.2146 -1.0898
  247MPD1    H1 3750   2.623   3.293  16.540 -0.8805 -0.4689 -0.1360
  247MPD1    H2 3751   2.493   3.295  16.933 -1.6865  2.6144 -1.5816
  247MPD1    H3 3752   2.528   3.411  16.719 -1.2607 -0.2588  0.4817
  247MPD1     N 3753   2.657   3.035  16.519 -0.1425  0.1269 -0.6332
  247MPD1    H5 3754   2.681   3.093  16.439 -1.3426 -0.1201 -1.1597
  247MPD1    N1 3755   2.525   3.043  16.995  0.1834 -0.1457  0.0278
  247MPD1    H6 3756   2.508   2.942  16.993 -0.1498 -0.0749 -0.6831
  247MPD1    H7 3757   2.453   3.083  17.054 -0.1234 -2.4988  1.2932
  248MPD1     C 3758   3.646   2.813   1.488 -0.6555  0.3340 -0.3565
  248MPD1    C1 3759   3.618   2.938   1.525 -0.1962 -0.3511 -0.4343
  248MPD1    C2 3760   3.495   2.991   1.488  0.4790 -0.1517  0.1571
  248MPD1    C3 3761   3.405   2.906   1.419  0.4103 -0.8415 -0.0065
  248MPD1    C4 3762   3.437   2.776   1.380 -0.3664  0.5502  0.3031
  248MPD1    C5 3763   3.562   2.737   1.413 -0.4446 -0.5165  0.3373
  248MPD1     H 3764   3.468   3.094   1.507  2.2434  0.4609 -0.7198
  248MPD1    H1 3765   3.371   2.708   1.328  0.7522 -0.5573  0.3438
  248MPD1    H2 3766   3.738   2.770   1.528 -0.6606 -0.9258 -1.6890
  248MPD1    H3 3767   3.593   2.639   1.380  0.1888 -0.1105 -0.2599
  248MPD1     N 3768   3.280   2.963   1.383  0.9337  0.5387 -0.1061
  248MPD1    H5 3769   3.257   3.056   1.418 -0.5871  0.6638 -1.4240
  248MPD1    N1 3770   3.706   3.008   1.600 -0.7006 -0.1425 -0.0886
  248MPD1    H6 3771   3.663   3.075   1.664 -2.9031 -0.6086 -1.0679
  248MPD1    H7 3772   3.776   2.964   1.659  0.1836  0.3211 -0.7976
  249MPD1     C 3773   0.894   0.919  10.403  0.6220 -0.3836 -0.1305
  249MPD1    C1 3774   0.858   1.053  10.421  0.0502 -0.4111  0.9513
  249MPD1    C2 3775   0.741   1.098  10.366 -0.0814  0.5350  0.1156
  249MPD1    C3 3776   0.652   1.009  10.308 -0.5023 -0.1450  1.0259
  249MPD1    C4 3777   0.685   0.871  10.295  0.0830  0.5202 -0.6761
  249MPD1    C5 3778   0.807   0.834  10.354 -0.1940 -0.6270 -0.2980
  249MPD1     H 3779   0.703   1.199  10.374  1.6273  1.1825 -0.0196
  249MPD1    H1 3780   0.614   0.806  10.246 -2.2474  2.3489  0.2487
  249MPD1    H2 3781   0.993   0.886  10.430  0.8101  0.3152  0.0235
  249MPD1    H3 3782   0.839   0.731  10.343  1.8923 -0.1750  1.5224
  249MPD1     N 3783   0.540   1.059  10.232 -0.8431 -0.0045 -0.5452
  249MPD1    H5 3784   0.542   1.160  10.224  2.1988  0.0236  0.7888
  249MPD1    N1 3785   0.964   1.139  10.474  0.0316  0.2721 -0.1254
  249MPD1    H6 3786   1.033   1.090  10.529  0.4383 -0.0969 -0.9570
  249MPD1    H7 3787   0.929   1.227  10.511 -0.4385 -0.4933  1.2501
  250MPD2     C 3788   1.854   1.008  13.074 -0.7644  0.6958 -0.4855
  250MPD2    C1 3789   1.811   1.031  12.946  0.6603  0.5854  0.0453
  250MPD2    C2 3790   1.783   0.925  12.861 -0.0335 -0.4630  0.5892
  250MPD2    C3 3791   1.788   0.795  12.904  0.7682  0.1072 -0.1802
  250MPD2    C4 3792   1.830   0.775  13.037 -0.4904 -0.9072 -0.3496
  250MPD2    C5 3793   1.869   0.880  13.116 -0.5484 -0.0974  0.2109
  250MPD2     H 3794   1.741   0.939  12.762 -0.1473 -1.9870  0.4216
  250MPD2    H1 3795   1.829   0.674  13.077 -0.6353 -0.5148  0.6400
  250MPD2    H2 3796   1.871   1.090  13.144 -0.5563  0.6472 -0.4802
  250MPD2    H3 3797   1.904   0.865  13.217 -0.6425  1.1078  0.4228
  250MPD2     N 3798   1.731   0.697  12.829  0.3534 -0.4295  0.0660
  250MPD2    H5 3799   1.687   0.718  12.740  0.6218 -3.6425 -0.7918
  250MPD2    N1 3800   1.812   1.161  12.889  0.3063 -0.6559  0.5080
  250MPD2    H7 3801   1.799   1.163  12.788 -0.5510  1.1785  0.6587
  251TMC3    C1 3802   1.837   1.389  12.866  0.6696 -0.5317 -0.1397
  251TMC3    C2 3803   1.771   1.498  12.903  0.1780 -1.0471 -0.0963
  251TMC3    C3 3804   1.808   1.619  12.843  0.3213 -0.8158  0.1503
  251TMC3    C4 3805   1.927   1.383  12.765  0.7317  0.4260  0.1403
  251TMC3    C5 3806   1.949   1.500  12.697 -0.2261  0.0371 -0.7282
  251TMC3    C6 3807   1.876   1.615  12.728  0.1779 -0.0188 -0.5208
  251TMC3     C 3808   1.832   1.277  12.958 -0.0698  0.9566 -0.3586
  251TMC3     O 3809   1.844   1.301  13.076 -0.1860  0.6949  0.1433
  251TMC3     H 3810   1.707   1.499  12.990  0.1916 -1.7922 -0.0781
  251TMC3    H1 3811   1.976   1.290  12.741 -0.7557 -0.4816  0.6227
  251TMC3    H2 3812   1.909   1.704  12.677 -0.9230  0.8156  0.2161
  251TMC3    C7 3813   2.063   1.494  12.608 -0.3700  0.2062 -0.3779
  251TMC3    C8 3814   1.734   1.739  12.874  0.2860 -0.5283 -0.8376
  251TMC3    O1 3815   2.149   1.413  12.630 -0.0709  0.0106  0.6565
  251TMC3    O2 3816   1.613   1.733  12.904  0.5017 -0.5769 -0.2768
  252TMC3    C1 3817   1.851   2.848   9.079  0.1719 -0.5829 -0.8920
  252TMC3    C2 3818   1.896   2.966   9.132 -0.2659 -0.6897 -0.2475
  252TMC3    C3 3819   2.017   2.959   9.189 -0.0707  0.0929  0.9297
  252TMC3    C4 3820   1.919   2.728   9.081 -0.2092  0.3142  0.4593
  252TMC3    C5 3821   2.042   2.725   9.146  0.2340 -0.2126 -0.2718
  252TMC3    C6 3822   2.092   2.843   9.192  0.6098 -0.4961  0.1308
  252TMC3     C 3823   1.711   2.839   9.048 -0.4974  0.6379  1.0805
  252TMC3     O 3824   1.675   2.720   9.055  0.6017  0.3429 -0.0024
  252TMC3     H 3825   1.839   3.058   9.136  1.3396  0.1787  2.1703
  252TMC3    H1 3826   1.870   2.635   9.053 -0.1177  0.0429  1.1921
  252TMC3    H2 3827   2.191   2.851   9.235  0.7879 -4.4727  0.4634
  252TMC3    C7 3828   2.118   2.604   9.163  0.2819 -0.8440 -0.7803
  252TMC3    C8 3829   2.078   3.079   9.241 -0.0387  1.0827 -0.2142
  252TMC3    O1 3830   2.240   2.619   9.189 -0.3482  0.1213 -0.4489
  252TMC3    O2 3831   2.038   3.182   9.179  0.5728 -0.9132 -0.2543
  253MPD2     C 3832   3.141   1.942  15.486 -0.3062  0.4629 -0.4412
  253MPD2    C1 3833   3.016   1.884  15.498  0.3155  0.4285  0.9779
  253MPD2    C2 3834   2.973   1.844  15.622 -0.4729 -0.5624  0.6277
  253MPD2    C3 3835   3.044   1.859  15.738  1.1864 -0.3367  0.1896
  253MPD2    C4 3836   3.173   1.916  15.721 -0.8256  0.1237  0.1435
  253MPD2    C5 3837   3.219   1.958  15.599 -0.2225  0.4515 -0.5573
  253MPD2     H 3838   2.874   1.799  15.626 -0.2594 -0.9872  1.0689
  253MPD2    H1 3839   3.237   1.934  15.806  0.6701  0.2508 -1.0244
  253MPD2    H2 3840   3.191   1.976  15.397  0.8144  1.4480  0.5560
  253MPD2    H3 3841   3.316   2.007  15.592  0.3381 -0.8240 -1.7966
  253MPD2     N 3842   2.993   1.821  15.867  0.1543  0.6813  0.2942
  253MPD2    H5 3843   3.039   1.871  15.942 -1.2891  3.1218 -0.4517
  253MPD2    N1 3844   2.927   1.867  15.390 -0.4426 -0.3282  0.5203
  253MPD2    H7 3845   2.837   1.829  15.417 -0.8325 -0.2655 -0.7066
  254TMC3    C1 3846   2.841   1.766  16.047  0.3196 -0.6889  0.4952
  254TMC3    C2 3847   2.709   1.764  16.072  0.4270 -0.6801 -0.7777
  254TMC3    C3 3848   2.671   1.731  16.198  0.0523  0.0605  0.3955
  254TMC3    C4 3849   2.939   1.739  16.138  0.2028  0.0358 -0.0852
  254TMC3    C5 3850   2.891   1.702  16.263  1.0732 -0.3316  0.6002
  254TMC3    C6 3851   2.758   1.703  16.300  0.4622 -0.0373 -0.8247
  254TMC3     C 3852   2.875   1.757  15.904 -0.5337  0.5814  0.0996
  254TMC3     O 3853   2.784   1.705  15.838  0.2287 -0.2375 -0.0317
  254TMC3     H 3854   2.631   1.771  15.997 -1.9928  0.6485  1.8462
  254TMC3    H1 3855   3.039   1.716  16.104 -0.3833 -2.8107  0.1293
  254TMC3    H2 3856   2.731   1.662  16.397 -2.2895  2.8447 -0.3663
  254TMC3    C7 3857   2.984   1.665  16.362  0.2304  0.0853 -0.2707
  254TMC3    C8 3858   2.545   1.785  16.251  0.0643  0.1272  0.0529
  254TMC3    O1 3859   2.942   1.619  16.468 -0.3511  0.0068  0.8797
  254TMC3    O2 3860   2.530   1.801  16.371  0.0323  0.2222  0.5558
  255MPD2     C 3861   0.957   4.656  10.278 -0.1352  0.1704 -0.6918
  255MPD2    C1 3862   1.027   4.705  10.171  0.4773  0.3296 -0.5206
  255MPD2    C2 3863   1.121   4.620  10.112 -0.0134  0.1067 -0.5096
  255MPD2    C3 3864   1.135   4.487  10.152  0.8404  0.6017  0.2256
  255MPD2    C4 3865   1.052   4.445  10.246  0.3613  0.5717  0.0134
  255MPD2    C5 3866   0.957   4.522  10.305 -0.1388  0.7551  0.3202
  255MPD2     H 3867   1.195   4.645  10.037  0.3169  1.4288  0.2543
  255MPD2    H1 3868   1.052   4.342  10.278  1.4375  0.1556 -1.3665
  255MPD2    H2 3869   0.899   4.713  10.349  0.7036  1.3290 -0.9449
  255MPD2    H3 3870   0.887   4.479  10.376 -1.4206  2.3454  0.0132
  255MPD2     N 3871   1.256   4.435  10.106 -0.2720  0.5332 -0.2189
  255MPD2    H5 3872   1.321   4.485  10.046 -0.5962  1.5968  0.3277
  255MPD2    N1 3873   1.010   0.115  10.133 -1.0358 -0.4568  0.6049
  255MPD2    H7 3874   0.929   0.167  10.164 -0.5113  1.4698 -1.2133
  256TMC3    C1 3875   1.086   0.336  10.051  0.6101 -0.2387  0.3077
  256TMC3    C2 3876   1.197   0.406  10.022 -0.0097  0.2792 -0.7113
  256TMC3    C3 3877   1.208   0.502   9.925 -0.7327 -0.2143 -0.3617
  256TMC3    C4 3878   0.969   0.361   9.982  0.7686 -0.3569  0.8624
  256TMC3    C5 3879   0.985   0.456   9.884  0.1375 -0.1421 -0.2629
  256TMC3    C6 3880   1.105   0.525   9.850  0.4056 -0.0651  0.2781
  256TMC3     C 3881   1.106   0.187  10.068  0.4348  0.1537  0.0676
  256TMC3     O 3882   1.216   0.155  10.033  0.1407 -0.4047  0.1021
  256TMC3     H 3883   1.286   0.395  10.084 -1.7435  2.2522  2.1239
  256TMC3    H1 3884   0.882   0.297   9.991  0.3115  0.2108  0.5198
  256TMC3    H2 3885   1.100   0.614   9.789  0.7426 -0.5203 -0.4081
  256TMC3    C7 3886   0.886   0.477   9.783  0.4367 -0.0230 -0.0230
  256TMC3    C8 3887   1.349   0.535   9.888  0.2081 -0.5960  0.2461
  256TMC3    O1 3888   0.924   0.526   9.679  0.1773  0.7705  0.2939
  256TMC3    O2 3889   1.423   0.565   9.985  0.2425 -0.0550  0.0165
  257MPD2     C 3890   0.313   1.434  13.470  0.2346 -0.2805 -0.5253
  257MPD2    C1 3891   0.394   1.391  13.362  0.1230 -0.6256 -0.0968
  257MPD2    C2 3892   0.459   1.265  13.363  0.8567 -0.1598  0.2493
  257MPD2    C3 3893   0.430   1.176  13.466  0.0152  0.1543 -0.3919
  257MPD2    C4 3894   0.337   1.222  13.564 -0.8407  0.6296  0.2131
  257MPD2    C5 3895   0.288   1.349  13.570 -0.3713  0.0733  0.1035
  257MPD2     H 3896   0.532   1.239  13.288  1.1469 -0.4273  0.6280
  257MPD2    H1 3897   0.307   1.156  13.645  1.3465 -1.2776 -0.5302
  257MPD2    H2 3898   0.278   1.537  13.473  0.3500 -0.2322 -0.8035
  257MPD2    H3 3899   0.218   1.380  13.646  0.3069 -2.4561  1.7702
  257MPD2     N 3900   0.480   1.046  13.464  0.5077  0.5282  0.2479
  257MPD2    H5 3901   0.531   1.011  13.384  1.0754  1.8009  0.0494
  257MPD2    N1 3902   0.422   1.492  13.270 -0.8553 -0.4077  0.5483
  257MPD2    H7 3903   0.364   1.576  13.273  2.7679  2.1321 -0.0867
  258TMC3    C1 3904   0.446   0.817  13.521 -0.0134  0.7855  0.2050
  258TMC3    C2 3905   0.389   0.795  13.392 -0.8238  0.6477 -0.0725
  258TMC3    C3 3906   0.350   0.667  13.368  0.5770 -0.6491  0.0533
  258TMC3    C4 3907   0.465   0.714  13.610  0.2931  0.0357 -0.0315
  258TMC3    C5 3908   0.424   0.590  13.570  0.4256  0.0675 -0.0308
  258TMC3    C6 3909   0.370   0.568  13.451  0.3913  0.2245  0.1540
  258TMC3     C 3910   0.467   0.957  13.564 -0.1108 -0.5840 -0.4778
  258TMC3     O 3911   0.437   0.974  13.684  0.0447 -0.3145 -0.5840
  258TMC3     H 3912   0.375   0.871  13.316  2.6811  0.6994 -0.6589
  258TMC3    H1 3913   0.473   0.743  13.714  0.5319  0.2404 -0.1067
  258TMC3    H2 3914   0.344   0.464  13.430  1.6624  0.2075 -1.3334
  258TMC3    C7 3915   0.473   0.476  13.643  0.7224  0.5138 -0.0763
  258TMC3    C8 3916   0.329   0.617  13.233 -0.1156  0.1159 -0.2786
  258TMC3    O1 3917   0.407   0.370  13.637  0.0882  0.2358 -0.2395
  258TMC3    O2 3918   0.389   0.518  13.190  0.3822  0.0185  0.1223
  259MPD2     C 3919   3.477   3.498   1.245 -0.2118  0.1338 -0.5088
  259MPD2    C1 3920   3.583   3.427   1.285 -0.0834 -0.1098  0.1802
  259MPD2    C2 3921   3.668   3.360   1.200  0.3295 -0.6071 -0.6162
  259MPD2    C3 3922   3.650   3.379   1.060 -0.5199 -0.2405 -0.5466
  259MPD2    C4 3923   3.555   3.467   1.019 -0.4478  0.8408  0.0312
  259MPD2    C5 3924   3.467   3.522   1.106 -0.2109  0.1133  0.4202
  259MPD2     H 3925   3.739   3.284   1.232  0.7063 -0.5764 -1.3756
  259MPD2    H1 3926   3.532   3.504   0.919  0.6149 -0.8839 -0.8440
  259MPD2    H2 3927   3.399   3.536   1.310  0.4619  2.2796 -0.9431
  259MPD2    H3 3928   3.396   3.593   1.065  0.1643  1.0204  1.3106
  259MPD2     N 3929   3.737   3.305   0.975 -0.2107 -0.2322 -0.1165
  259MPD2    H5 3930   3.799   3.237   1.018  1.5425  0.6560 -1.2334
  259MPD2    N1 3931   3.584   3.395   1.424 -0.1351  0.0915  0.0320
  259MPD2    H7 3932   3.509   3.436   1.479 -1.8145 -0.1951 -2.0196
  260TMC3    C1 3933   3.878   3.263   0.787 -0.1683 -0.5662 -0.5760
  260TMC3    C2 3934   3.948   3.325   0.697  0.1524 -0.6910  0.4634
  260TMC3    C3 3935   4.054   3.265   0.643 -0.2051  0.0971  0.0243
  260TMC3    C4 3936   3.913   3.141   0.840 -0.2479 -0.5589 -0.5440
  260TMC3    C5 3937   4.016   3.074   0.783 -0.4051 -0.1073  0.3429
  260TMC3    C6 3938   4.081   3.134   0.679  0.7832  0.1875  0.5177
  260TMC3     C 3939   3.765   3.337   0.843  0.2938 -0.1978  0.5953
  260TMC3     O 3940   3.717   3.425   0.775 -0.2385 -0.1108  0.2792
  260TMC3     H 3941   3.921   3.428   0.673 -1.7173 -1.1940  0.3698
  260TMC3    H1 3942   3.848   3.090   0.910  0.5657 -2.4534 -1.1644
  260TMC3    H2 3943   4.153   3.070   0.629 -1.7441 -1.4264 -1.0739
  260TMC3    C7 3944   4.072   2.952   0.835 -0.1854  0.0667  0.7475
  260TMC3    C8 3945   4.092   3.310   0.514 -1.0413  0.7807  0.3389
  260TMC3    O1 3946   4.134   2.881   0.753 -0.2121  0.5419  0.1744
  260TMC3    O2 3947   4.012   3.387   0.460 -0.8632 -0.0343 -0.4393
  261MPD2     C 3948   1.090   0.757  12.600  0.1115 -0.3666  0.0354
  261MPD2    C1 3949   1.225   0.783  12.618  0.6282  0.0214 -0.4206
  261MPD2    C2 3950   1.276   0.902  12.576  0.0928 -0.1863  0.6320
  261MPD2    C3 3951   1.197   0.992  12.507 -0.4744 -0.7323 -0.5453
  261MPD2    C4 3952   1.064   0.969  12.490 -0.0010 -0.0902 -0.0132
  261MPD2    C5 3953   1.014   0.849  12.531 -0.2651 -0.4996  0.1655
  261MPD2     H 3954   1.383   0.919  12.577  0.0789 -0.0500 -0.2528
  261MPD2    H1 3955   0.997   1.034  12.435  2.2377  0.3664 -2.1854
  261MPD2    H2 3956   1.035   0.667  12.625  0.9135 -1.5976 -2.6809
  261MPD2    H3 3957   0.908   0.829  12.524 -0.5221  0.3453  1.6840
  261MPD2     N 3958   1.266   1.108  12.451 -0.4425 -0.2551 -0.2990
  261MPD2    H5 3959   1.366   1.097  12.453 -0.4030  0.3407  0.7231
  261MPD2    N1 3960   1.315   0.682  12.672  0.1024  0.2853 -0.5072
  261MPD2    H7 3961   1.412   0.711  12.661  0.1999 -0.4281 -1.4925
  262TMC3    C1 3962   1.301   1.290  12.316 -0.4711  0.1643 -0.2169
  262TMC3    C2 3963   1.260   1.423  12.305  0.6239  0.3848  0.0901
  262TMC3    C3 3964   1.351   1.503  12.236  0.1823  0.3234  0.2291
  262TMC3    C4 3965   1.401   1.233  12.248 -0.0967  1.0862 -0.7143
  262TMC3    C5 3966   1.487   1.315  12.183 -0.6075 -0.4088 -0.3057
  262TMC3    C6 3967   1.468   1.450  12.182 -0.0666  0.5469 -0.0555
  262TMC3     C 3968   1.206   1.204  12.377 -0.0333 -0.2159  0.2626
  262TMC3     O 3969   1.093   1.244  12.367  0.3818 -0.0696 -0.5890
  262TMC3     H 3970   1.174   1.448  12.365  2.1765  1.0678  2.0265
  262TMC3    H1 3971   1.409   1.125  12.236 -0.2959  0.8920  0.9558
  262TMC3    H2 3972   1.531   1.523  12.132 -1.9239  2.2405  0.0642
  262TMC3    C7 3973   1.531   1.261  12.053 -0.0108 -0.2871 -0.0342
  262TMC3    C8 3974   1.323   1.641  12.202 -0.0847  0.0246  0.4156
  262TMC3    O1 3975   1.583   1.148  12.045  0.2316 -0.1054 -0.1553
  262TMC3    O2 3976   1.399   1.697  12.126 -0.0357  0.1648  0.4466
  263MPD2     C 3977   2.189   1.160  11.386 -0.5723 -0.5860 -0.5155
  263MPD2    C1 3978   2.248   1.072  11.291 -0.3673 -0.3926  0.2016
  263MPD2    C2 3979   2.263   1.122  11.162 -0.6790  0.4806 -0.1861
  263MPD2    C3 3980   2.232   1.258  11.133 -0.1521 -0.0905 -0.3504
  263MPD2    C4 3981   2.166   1.339  11.230 -0.1139  0.0508  0.5825
  263MPD2    C5 3982   2.148   1.287  11.356 -0.4917 -0.3384 -0.2596
  263MPD2     H 3983   2.297   1.054  11.084  1.4417 -0.2925  1.4252
  263MPD2    H1 3984   2.145   1.444  11.211  1.4531  0.5670  1.6410
  263MPD2    H2 3985   2.146   1.123  11.479 -0.1456  0.4244  0.0772
  263MPD2    H3 3986   2.094   1.344  11.432 -0.7225 -1.0489  0.1104
  263MPD2     N 3987   2.278   1.304  11.005  0.2663  0.0318 -0.2504
  263MPD2    H5 3988   2.314   1.230  10.946  1.5820  0.2560  0.2706
  263MPD2    N1 3989   2.275   0.942  11.327 -0.7589  0.0838 -0.0758
  263MPD2    H7 3990   2.275   0.924  11.427  1.0441  1.9402  0.2594
  264TMC3    C1 3991   2.348   1.438  10.835 -0.2142  0.0858  0.4533
  264TMC3    C2 3992   2.301   1.527  10.743  0.3298  0.0378 -0.1848
  264TMC3    C3 3993   2.350   1.541  10.620  0.3320 -0.2983  0.8155
  264TMC3    C4 3994   2.447   1.350  10.803 -0.7386 -0.2377  0.7506
  264TMC3    C5 3995   2.498   1.365  10.678  0.5871  0.3913 -0.2842
  264TMC3    C6 3996   2.450   1.450  10.585 -0.0067  0.4465  0.8884
  264TMC3     C 3997   2.270   1.428  10.960  0.4153 -0.9779  0.0355
  264TMC3     O 3998   2.199   1.523  10.997 -0.2721 -0.1076  0.2261
  264TMC3     H 3999   2.224   1.595  10.778  0.0396 -1.3231  1.8209
  264TMC3    H1 4000   2.490   1.277  10.869 -0.7032  0.6546  1.7169
  264TMC3    H2 4001   2.513   1.461  10.498  1.3434  4.7176  2.4038
  264TMC3    C7 4002   2.641   1.331  10.657 -0.4473  0.0178 -0.0628
  264TMC3    C8 4003   2.378   1.677  10.587 -0.0006  0.3089 -0.0095
  264TMC3    O1 4004   2.684   1.305  10.541  0.1632 -0.0195 -1.0660
  264TMC3    O2 4005   2.483   1.696  10.536 -0.6873  0.0177  0.4536
  265MPD2     C 4006   4.227   1.496  15.884 -0.5224 -0.7323 -0.7181
  265MPD2    C1 4007   4.171   1.546  15.771  0.4778 -1.1133 -0.3338
  265MPD2    C2 4008   4.195   1.483  15.646  0.0649  0.2986 -0.8251
  265MPD2    C3 4009   4.286   1.375  15.643  0.2734  0.0602 -0.3439
  265MPD2    C4 4010   4.340   1.329  15.763  0.2594 -0.0678  0.5527
  265MPD2    C5 4011   4.303   1.387  15.881  0.2644 -0.1879 -0.1306
  265MPD2     H 4012   4.155   1.535  15.559 -1.1803  1.1170  0.2464
  265MPD2    H1 4013   4.405   1.243  15.760 -0.4964 -0.6513  1.0111
  265MPD2    H2 4014   4.191   1.522  15.983 -2.1316 -1.2891 -1.1639
  265MPD2    H3 4015   4.335   1.352  15.978  2.7503  2.0193 -0.1506
  265MPD2     N 4016   4.315   1.326  15.511  0.0472  0.6719  0.0621
  265MPD2    H5 4017   4.257   1.364  15.437  1.6075  1.5829 -0.6958
  265MPD2    N1 4018   4.087   1.664  15.768  0.1627 -0.3546 -0.3049
  265MPD2    H7 4019   4.062   1.701  15.677 -0.5075 -1.4238 -0.5573
  266TMC3    C1 4020   3.980   1.858  15.838 -0.5380  0.4818 -0.9104
  266TMC3    C2 4021   3.975   1.962  15.928  0.3727 -0.8693  0.0770
  266TMC3    C3 4022   3.906   2.074  15.887 -0.2718 -0.0678 -0.0676
  266TMC3    C4 4023   3.908   1.851  15.725  0.4973  0.2058 -0.0136
  266TMC3    C5 4024   3.835   1.968  15.699  0.0463  0.1949  0.4309
  266TMC3    C6 4025   3.837   2.084  15.768 -0.0543 -0.1520  0.2738
  266TMC3     C 4026   4.061   1.744  15.874  0.1835 -0.6771 -0.2049
  266TMC3     O 4027   4.084   1.731  15.994  0.4391 -0.4912  0.5235
  266TMC3     H 4028   4.033   1.956  16.020 -1.1097  1.7463  1.2003
  266TMC3    H1 4029   3.897   1.766  15.659  0.7495 -1.1103  1.6337
  266TMC3    H2 4030   3.788   2.176  15.737  4.1706  1.7292 -0.7383
  266TMC3    C7 4031   3.803   1.987  15.562  0.2338  0.1820  0.0477
  266TMC3    C8 4032   3.886   2.183  15.981 -0.7909 -0.6004 -0.1917
  266TMC3    O1 4033   3.886   1.935  15.488  0.9439  0.0773  0.2587
  266TMC3    O2 4034   3.792   2.256  15.946 -0.4296 -0.5057 -0.3374
  267MPD2     C 4035   1.352   3.234   0.068  0.3475  0.5052  0.0450
  267MPD2    C1 4036   1.465   3.245  17.688 -0.9969  0.3740 -0.2507
  267MPD2    C2 4037   1.445   3.254  17.552  0.1708  0.1440 -0.0034
  267MPD2    C3 4038   1.314   3.250  17.498 -0.2206 -0.7554  0.3434
  267MPD2    C4 4039   1.204   3.243  17.575  0.2265  0.6420 -0.0923
  267MPD2    C5 4040   1.228   3.233   0.007 -0.3676  0.0667  0.2710
  267MPD2     H 4041   1.527   3.258  17.481 -0.7161 -1.3291 -1.1124
  267MPD2    H1 4042   1.105   3.250  17.532 -0.4879 -1.1400  1.3151
  267MPD2    H2 4043   1.369   3.244   0.174 -0.1456 -1.8250  0.3322
  267MPD2    H3 4044   1.140   3.233   0.071 -1.1202  1.7831 -0.7761
  267MPD2     N 4045   1.314   3.253  17.358  0.1735  0.1693  0.4282
  267MPD2    H5 4046   1.400   3.257  17.305  0.9217  0.0225  1.6222
  267MPD2    N1 4047   1.593   3.228   0.043  0.6396  0.2293  0.0865
  267MPD2    H7 4048   1.593   3.211   0.144  1.2930  1.6320  0.3144
  268TMC3    C1 4049   1.833   3.215   0.062  0.5754  0.5538 -0.1708
  268TMC3    C2 4050   1.959   3.245   0.017  0.3741 -0.2063  0.1394
  268TMC3    C3 4051   2.062   3.185   0.078  0.8370  0.1928  0.1826
  268TMC3    C4 4052   1.809   3.134   0.165  0.0119 -0.4945  0.1257
  268TMC3    C5 4053   1.916   3.077   0.230  0.1472  0.3216  0.0626
  268TMC3    C6 4054   2.045   3.102   0.185  0.6851  0.3579 -0.3558
  268TMC3     C 4055   1.719   3.240  17.677 -0.3467  0.2074  0.7551
  268TMC3     O 4056   1.740   3.275  17.561 -0.0954 -0.2272 -0.3594
  268TMC3     H 4057   1.964   3.324  17.646 -1.1909 -1.7660 -1.6383
  268TMC3    H1 4058   1.721   3.071   0.177 -0.1222 -0.2820  0.2582
  268TMC3    H2 4059   2.132   3.072   0.242  0.6815 -0.1606 -0.6261
  268TMC3    C7 4060   1.891   3.010   0.358  0.5267  0.3964 -0.4462
  268TMC3    C8 4061   2.202   3.219   0.041 -0.5659 -0.1950  0.3318
  268TMC3    O1 4062   1.996   2.961   0.400  0.0266  0.3510 -0.0072
  268TMC3    O2 4063   2.286   3.141   0.077 -0.0966 -0.1264  0.0048
  269MPD2     C 4064   2.083   1.683  15.755 -0.6691  0.4261 -0.0595
  269MPD2    C1 4065   1.949   1.704  15.751  0.2241  0.4227 -0.5100
  269MPD2    C2 4066   1.901   1.831  15.725 -0.6517 -0.3847 -0.1058
  269MPD2    C3 4067   1.983   1.946  15.727 -0.4170 -0.0377 -0.4548
  269MPD2    C4 4068   2.119   1.917  15.733  0.1060  0.7547 -0.6646
  269MPD2    C5 4069   2.168   1.790  15.749 -0.8031 -0.2663  0.1044
  269MPD2     H 4070   1.795   1.845  15.714 -0.5425  0.8756  0.3658
  269MPD2    H1 4071   2.193   1.997  15.733  0.8085  0.1131 -1.5247
  269MPD2    H2 4072   2.121   1.589  15.794  0.1567  0.9238  0.3446
  269MPD2    H3 4073   2.275   1.777  15.759 -0.6100  0.0340 -1.4575
  269MPD2     N 4074   1.932   2.078  15.702  0.5803  0.2799  0.5580
  269MPD2    H5 4075   1.834   2.085  15.677  0.5340 -2.6507 -0.1557
  269MPD2    N1 4076   1.872   1.592  15.768 -0.5279  0.2236  0.2134
  269MPD2    H7 4077   1.928   1.509  15.785 -0.6648 -0.0457 -0.6815
  270TMC3    C1 4078   1.673   1.446  15.790 -0.6573 -0.5721  0.4739
  270TMC3    C2 4079   1.541   1.437  15.737  0.6811 -0.4238 -0.6215
  270TMC3    C3 4080   1.502   1.311  15.705 -0.0088  0.7388  0.2995
  270TMC3    C4 4081   1.748   1.340  15.814  0.0514 -0.2517  0.6083
  270TMC3    C5 4082   1.697   1.221  15.778 -0.6255  0.4341 -0.0832
  270TMC3    C6 4083   1.578   1.202  15.718  0.0586  0.0608  0.3843
  270TMC3     C 4084   1.729   1.578  15.770  0.5515 -0.1402 -0.2626
  270TMC3     O 4085   1.654   1.670  15.738  0.2340 -0.5520  0.2311
  270TMC3     H 4086   1.497   1.532  15.711  1.8223  0.6728  1.4255
  270TMC3    H1 4087   1.843   1.350  15.865  0.7479 -0.7476 -0.5850
  270TMC3    H2 4088   1.527   1.111  15.688 -2.5392  1.2346  1.1719
  270TMC3    C7 4089   1.804   1.127  15.767 -0.1425  0.0878  0.0566
  270TMC3    C8 4090   1.415   1.306  15.590  0.6161 -0.1282  0.9172
  270TMC3    O1 4091   1.921   1.155  15.782  0.2257  0.3613 -0.6216
  270TMC3    O2 4092   1.302   1.356  15.590  0.1543 -0.1187  0.3431
  271MPD2     C 4093   1.342   1.414  13.799  0.1877  0.1061 -0.2713
  271MPD2    C1 4094   1.249   1.403  13.901  1.1114  0.1352  0.0462
  271MPD2    C2 4095   1.120   1.450  13.876  0.1423 -0.3675  0.9434
  271MPD2    C3 4096   1.086   1.518  13.761  0.4224 -0.3994  0.9044
  271MPD2    C4 4097   1.183   1.517  13.661 -0.4376  0.7021 -0.3465
  271MPD2    C5 4098   1.308   1.468  13.679 -0.2933  0.3419  0.1246
  271MPD2     H 4099   1.048   1.436  13.955 -0.9371 -2.5315 -0.4449
  271MPD2    H1 4100   1.164   1.563  13.565  0.8338 -2.4649 -2.1108
  271MPD2    H2 4101   1.446   1.384  13.804 -0.7781 -3.2215 -0.3161
  271MPD2    H3 4102   1.380   1.470  13.598 -0.7614  0.4084 -0.2816
  271MPD2     N 4103   0.956   1.570  13.754 -0.4071  0.2898 -0.6615
  271MPD2    H5 4104   0.901   1.553  13.837  2.3818 -2.4944  0.5966
  271MPD2    N1 4105   1.275   1.342  14.027 -0.5504  0.7828  0.1452
  271MPD2    H7 4106   1.206   1.354  14.101 -0.8635 -0.8499  0.1299
  272TMC3    C1 4107   1.416   1.232  14.190  1.3628  0.2853  0.2768
  272TMC3    C2 4108   1.535   1.173  14.215 -0.1339 -0.1906  0.1695
  272TMC3    C3 4109   1.589   1.194  14.340  0.2068  0.7281 -0.4347
  272TMC3    C4 4110   1.332   1.277  14.293 -1.5334  0.1367  0.3691
  272TMC3    C5 4111   1.387   1.284  14.420 -0.4585 -0.2281  0.7405
  272TMC3    C6 4112   1.512   1.247  14.444 -0.1689  0.9627  0.1680
  272TMC3     C 4113   1.393   1.272  14.052 -0.6928 -0.4527 -0.1741
  272TMC3     O 4114   1.475   1.237  13.969  0.1180  0.1108 -0.2166
  272TMC3     H 4115   1.593   1.129  14.136 -1.5325  0.1185 -1.0228
  272TMC3    H1 4116   1.231   1.312  14.275 -0.7574  2.4051  0.4547
  272TMC3    H2 4117   1.565   1.260  14.538 -1.7838  0.7534  1.1132
  272TMC3    C7 4118   1.306   1.339  14.530  0.4117 -0.0390 -0.6614
  272TMC3    C8 4119   1.736   1.177  14.350 -0.1566 -0.1989  0.4673
  272TMC3    O1 4120   1.191   1.360  14.501  0.1615  0.1882 -0.6349
  272TMC3    O2 4121   1.796   1.193  14.246  0.4258 -0.0134  0.0678
  273MPD2     C 4122   3.019   4.208  11.793  0.0156  0.9372 -0.2855
  273MPD2    C1 4123   3.097   4.314  11.752 -0.0048  0.0424 -0.1820
  273MPD2    C2 4124   3.102   4.348  11.620  0.8072  0.1555  0.4869
  273MPD2    C3 4125   3.042   4.268  11.524 -0.1818 -1.0669 -0.0661
  273MPD2    C4 4126   2.974   4.158  11.567 -0.4598  0.4128  0.1352
  273MPD2    C5 4127   2.950   4.135  11.701 -0.0220  0.4933 -0.2841
  273MPD2     H 4128   3.142   4.443  11.584  1.2371  0.2841  1.3126
  273MPD2    H1 4129   2.901   4.115  11.498  0.9115 -1.7503  0.0144
  273MPD2    H2 4130   2.988   4.197  11.897 -2.3981 -5.0011 -1.6143
  273MPD2    H3 4131   2.873   4.064  11.728  1.4823 -0.9555  0.2532
  273MPD2     N 4132   3.021   4.315  11.393  0.2470  0.2313 -0.7110
  273MPD2    H5 4133   2.942   4.274  11.344  0.0217 -0.3877  0.1576
  273MPD2    N1 4134   3.148   4.395  11.854 -0.3260 -0.1974  0.4879
  273MPD2    H7 4135   3.130   4.363  11.949 -1.7867  0.9909  0.6102
  274TMC3    C1 4136   3.024   4.502  11.224 -0.4236  0.2779 -0.0812
  274TMC3    C2 4137   2.940   4.447  11.132  0.5581 -0.0117  0.5680
  274TMC3    C3 4138   2.896   4.522  11.025 -0.3344  0.3550 -0.2323
  274TMC3    C4 4139   3.068   4.627  11.212  0.2562  0.0972 -0.0155
  274TMC3    C5 4140   3.008   4.704  11.113  0.3037 -0.2125 -0.1081
  274TMC3    C6 4141   2.936   4.655  11.010 -0.4784  0.2994 -0.6053
  274TMC3     C 4142   3.091   4.416  11.331  1.1097 -0.3673  0.5780
  274TMC3     O 4143   3.201   4.454  11.365 -0.6663 -0.0183  0.7625
  274TMC3     H 4144   2.914   4.343  11.146 -0.8112  0.3740  0.8689
  274TMC3    H1 4145   3.112   4.664  11.304  2.4413  0.0103 -1.0187
  274TMC3    H2 4146   2.872   4.724  10.956  0.2947  2.0356  0.7224
  274TMC3    C7 4147   2.971   0.113  11.153 -0.3655  0.4211 -0.8977
  274TMC3    C8 4148   2.800   4.463  10.937  0.1898  0.1895  0.5305
  274TMC3    O1 4149   2.864   0.145  11.110 -0.1612 -0.1506  0.1358
  274TMC3    O2 4150   2.731   4.377  10.981 -0.2057  0.0355  0.1758
  275MPD2     C 4151   3.005   2.047  14.722  0.2864  0.0364 -0.1545
  275MPD2    C1 4152   2.981   2.141  14.621  0.6985 -0.0545 -0.1013
  275MPD2    C2 4153   2.852   2.135  14.561 -0.1611 -0.0497  0.1222
  275MPD2    C3 4154   2.758   2.044  14.608 -0.4279  0.7339 -0.4717
  275MPD2    C4 4155   2.793   1.948  14.696 -0.1397 -0.1172  0.1257
  275MPD2    C5 4156   2.912   1.956  14.760 -0.2003 -0.7282 -0.4345
  275MPD2     H 4157   2.824   2.224  14.506 -0.9770  1.0288  2.2714
  275MPD2    H1 4158   2.724   1.875  14.735 -0.4640  1.0359  1.6946
  275MPD2    H2 4159   3.105   2.045  14.763  1.1445 -2.2043 -2.3898
  275MPD2    H3 4160   2.933   1.886  14.840 -0.4342  1.2202  1.3114
  275MPD2     N 4161   2.618   2.058  14.581 -0.0806  0.0757  0.0450
  275MPD2    H5 4162   2.560   1.978  14.603 -0.6325  0.8054  1.2549
  275MPD2    N1 4163   3.066   2.248  14.586 -0.0574 -0.5900 -0.1158
  275MPD2    H7 4164   3.031   2.299  14.506  0.3688  1.8969  1.2912
  276TMC3    C1 4165   3.167   2.445  14.618  0.3081 -0.5124  0.6949
  276TMC3    C2 4166   3.051   2.507  14.576  0.2696 -0.0209 -0.1475
  276TMC3    C3 4167   3.025   2.641  14.596  0.3583 -0.4050 -0.6471
  276TMC3    C4 4168   3.255   2.519  14.698  0.1074  0.0913  0.2147
  276TMC3    C5 4169   3.215   2.646  14.730 -0.0195 -0.2014  0.1581
  276TMC3    C6 4170   3.112   2.711  14.677 -0.3390  0.1499 -0.7298
  276TMC3     C 4171   3.165   2.299  14.660  0.3348 -0.1109  0.3458
  276TMC3     O 4172   3.203   2.271  14.774 -0.1157 -0.3153 -0.6796
  276TMC3     H 4173   2.977   2.463  14.509  0.6695  0.0617 -0.6429
  276TMC3    H1 4174   3.343   2.472  14.741  0.2869 -0.3683 -0.6671
  276TMC3    H2 4175   3.071   2.805  14.713 -0.2386  0.9061 -2.5697
  276TMC3    C7 4176   3.277   2.704  14.843 -0.2317 -0.1285 -0.6206
  276TMC3    C8 4177   2.883   2.638  14.637  1.1053 -0.3177  0.0947
  276TMC3    O1 4178   3.287   2.827  14.832  0.2834 -0.6313  0.0643
  276TMC3    O2 4179   2.811   2.736  14.622 -0.0033 -0.5750 -0.5674
  277MPD2     C 4180   4.625   1.657  13.209  0.3136 -0.4363 -0.1002
  277MPD2    C1 4181   4.490   1.658  13.224 -0.1367  0.4729 -0.1043
  277MPD2    C2 4182   4.441   1.562  13.314  0.2323  0.1540 -0.3389
  277MPD2    C3 4183   4.519   1.487  13.403  0.1565  0.2623  0.0356
  277MPD2    C4 4184   4.659   1.508  13.398  0.0748  0.1494 -0.6549
  277MPD2    C5 4185   4.707   1.590  13.291 -0.1134  0.3938  0.1713
  277MPD2     H 4186   4.334   1.556  13.332 -0.0999 -0.9405 -2.6347
  277MPD2    H1 4187   4.724   1.446  13.458 -0.2968 -1.0080 -1.4208
  277MPD2    H2 4188   4.674   1.722  13.138  0.6794  2.1306  2.5028
  277MPD2    H3 4189   0.087   1.589  13.270 -0.5982 -3.4985 -2.0443
  277MPD2     N 4190   4.458   1.397  13.489 -0.0828 -0.4603  0.4332
  277MPD2    H5 4191   4.357   1.383  13.494  0.1130 -2.3386 -0.8832
  277MPD2    N1 4192   4.411   1.750  13.146  0.3222  0.0401  0.2842
  277MPD2    H7 4193   4.461   1.833  13.115 -2.3841  1.4465 -0.3879
  278TMC3    C1 4194   4.421   1.243  13.660  0.7336 -0.9691  0.2588
  278TMC3    C2 4195   4.428   1.106  13.644  0.5271 -0.6388  0.1789
  278TMC3    C3 4196   4.308   1.035  13.641 -0.5218  0.4731 -0.4505
  278TMC3    C4 4197   4.302   1.302  13.690 -0.0512  0.0085 -0.4997
  278TMC3    C5 4198   4.188   1.222  13.693  0.7206  0.4566 -0.5782
  278TMC3    C6 4199   4.186   1.087  13.671 -0.4125 -0.1700  0.0091
  278TMC3     C 4200   4.519   1.316  13.587  0.2287  0.3188  0.2406
  278TMC3     O 4201   4.634   1.283  13.578  0.5802  0.3144 -0.4445
  278TMC3     H 4202   4.518   1.053  13.613  1.1569  0.7211 -0.3284
  278TMC3    H1 4203   4.291   1.409  13.704 -0.1691  0.1455 -1.6208
  278TMC3    H2 4204   4.102   1.024  13.696  0.2616 -1.1269 -0.1471
  278TMC3    C7 4205   4.059   1.284  13.710  0.2222 -1.2269  0.4245
  278TMC3    C8 4206   4.319   0.887  13.637 -0.1758  0.3918 -0.3261
  278TMC3    O1 4207   4.065   1.389  13.768  0.7036  0.6442 -0.2558
  278TMC3    O2 4208   4.426   0.835  13.664 -0.3714 -0.4679 -0.0930
  279MPD2     C 4209   3.523   2.366   0.643 -0.0741  0.8584 -0.0137
  279MPD2    C1 4210   3.474   2.270   0.564 -0.0358 -0.3057  0.2028
  279MPD2    C2 4211   3.500   2.288   0.422  0.8148  0.2903  0.4781
  279MPD2    C3 4212   3.576   2.401   0.377 -0.5803  0.5884 -0.1904
  279MPD2    C4 4213   3.601   2.505   0.465  0.5772  0.1401 -0.3777
  279MPD2    C5 4214   3.582   2.481   0.601 -0.9171 -0.0983  0.0196
  279MPD2     H 4215   3.459   2.214   0.355 -0.9498  0.0314  1.8451
  279MPD2    H1 4216   3.653   2.595   0.434  2.5081 -1.0319 -0.5746
  279MPD2    H2 4217   3.500   2.347   0.748 -4.0829  1.9099 -0.7165
  279MPD2    H3 4218   3.611   2.556   0.674 -0.4174  0.2166 -0.5041
  279MPD2     N 4219   3.609   2.422   0.241  0.2340  0.6838 -0.3377
  279MPD2    H5 4220   3.662   2.504   0.214  0.0845  1.4278  1.6446
  279MPD2    N1 4221   3.390   2.171   0.624 -0.0718 -0.4986  0.7514
  279MPD2    H7 4222   3.394   2.164   0.725 -3.6662  1.1364  0.9893
  280TMC3    C1 4223   3.231   2.003   0.637 -0.6474  0.3939  0.0270
  280TMC3    C2 4224   3.158   1.918   0.552  0.7353  0.4708 -0.3341
  280TMC3    C3 4225   3.025   1.914   0.574  0.1582 -0.5085  0.1660
  280TMC3    C4 4226   3.164   2.087   0.733 -0.4149 -0.7323 -0.3300
  280TMC3    C5 4227   3.022   2.082   0.737 -0.3001 -0.2510  0.3060
  280TMC3    C6 4228   2.958   1.988   0.666 -0.1044 -0.1491  0.8894
  280TMC3     C 4229   3.333   2.068   0.559 -0.3726  0.8492 -0.9107
  280TMC3     O 4230   3.344   2.038   0.444  0.1055  0.0112 -0.3595
  280TMC3     H 4231   3.206   1.870   0.468 -0.3552  0.2463 -0.8323
  280TMC3    H1 4232   3.221   2.147   0.803 -0.5253 -0.7020 -0.2679
  280TMC3    H2 4233   2.850   1.981   0.658  0.1056 -1.1992 -0.8961
  280TMC3    C7 4234   2.949   2.205   0.743 -0.5786  0.4151 -0.1297
  280TMC3    C8 4235   2.951   1.910   0.449  0.1910  0.0338  0.1376
  280TMC3    O1 4236   2.928   2.278   0.844  0.7300  0.3593  0.1179
  280TMC3    O2 4237   2.860   1.993   0.445  0.1594  0.4937 -0.6884
  281TMC3    C1 4238   2.499   1.343  12.747  0.3476  0.1183 -0.2539
  281TMC3    C2 4239   2.543   1.428  12.649 -0.3308 -0.9278  0.2762
  281TMC3    C3 4240   2.503   1.400  12.517  0.0821 -0.1624  0.2122
  281TMC3    C4 4241   2.417   1.236  12.723 -0.0517  0.8054  0.0213
  281TMC3    C5 4242   2.373   1.221  12.594  0.3741  0.4288  0.2570
  281TMC3    C6 4243   2.423   1.295  12.490 -0.1749 -0.4711 -0.1236
  281TMC3     C 4244   2.519   1.377  12.882 -0.5760  1.4818 -0.0940
  281TMC3     O 4245   2.593   1.298  12.942 -0.0332 -0.0562 -0.4781
  281TMC3     H 4246   2.616   1.504  12.672  1.4768 -1.9386 -2.1556
  281TMC3    H1 4247   2.390   1.170  12.804  1.3226  0.1444 -0.0530
  281TMC3    H2 4248   2.392   1.282  12.387  0.5469  0.3837 -0.4539
  281TMC3    C7 4249   2.288   1.107  12.550  0.0771  0.0807  0.4598
  281TMC3    C8 4250   2.564   1.475  12.405 -0.1404  0.0534  0.6768
  281TMC3    O1 4251   2.241   1.100  12.437 -0.3941 -0.7114  0.0789
  281TMC3    O2 4252   2.682   1.510  12.420 -0.8688 -0.5015  0.1258
  282MPD2     C 4253   4.291   3.041  15.111  0.6096 -0.0457  0.0428
  282MPD2    C1 4254   4.154   3.076  15.110 -0.5330  0.7652 -0.6790
  282MPD2    C2 4255   4.083   3.065  14.990 -0.0894 -0.7893  0.0611
  282MPD2    C3 4256   4.142   3.019  14.871  0.0620  0.2210  0.3035
  282MPD2    C4 4257   4.277   2.990  14.876  0.7683  0.4388 -0.2316
  282MPD2    C5 4258   4.351   2.998  14.995  0.0333  0.1494 -0.0230
  282MPD2     H 4259   3.982   3.104  14.990 -0.1218 -0.8608  1.1460
  282MPD2    H1 4260   4.337   2.960  14.791  0.8339  3.1594 -1.1401
  282MPD2    H2 4261   4.357   3.056  15.195 -0.0375 -0.1194  0.5639
  282MPD2    H3 4262   4.455   2.965  14.991 -0.0529 -0.1367  0.1086
  282MPD2     N 4263   4.068   3.039  14.754 -0.0723  0.1972 -0.4582
  282MPD2    H5 4264   3.973   3.071  14.770 -0.6542 -0.8053 -1.9311
  282MPD2    N1 4265   4.079   3.120  15.217  0.1793  0.2323 -1.1141
  282MPD2    H7 4266   3.978   3.119  15.207  0.0820 -1.7591  0.1216
  283TMC3    C1 4267   4.025   3.209  15.426 -0.2479 -0.3245  0.4379
  283TMC3    C2 4268   4.059   3.343  15.455 -0.1826  0.7261 -0.1206
  283TMC3    C3 4269   4.014   3.394  15.573  0.2425 -0.1599 -0.2707
  283TMC3    C4 4270   3.964   3.123  15.512  0.6720  0.2678 -0.1700
  283TMC3    C5 4271   3.920   3.186  15.628 -0.4446 -0.3658 -0.0259
  283TMC3    C6 4272   3.939   3.316  15.658 -0.3557 -0.2136 -0.3560
  283TMC3     C 4273   4.126   3.146  15.345  0.4328  0.4177 -0.3726
  283TMC3     O 4274   4.238   3.177  15.382 -0.2176 -0.7069  0.0088
  283TMC3     H 4275   4.129   3.394  15.389  0.1032 -0.6843 -0.9215
  283TMC3    H1 4276   3.957   3.017  15.493 -0.2918  0.3245 -0.1224
  283TMC3    H2 4277   3.906   3.361  15.751 -0.4497 -0.1952 -0.3992
  283TMC3    C7 4278   3.866   3.110  15.735 -0.2808 -0.5556  0.4876
  283TMC3    C8 4279   4.059   3.520  15.632  0.1432  0.3696  0.0669
  283TMC3    O1 4280   3.882   3.144  15.850 -0.2099 -0.5843  0.1329
  283TMC3    O2 4281   4.044   3.540  15.752 -0.5338  0.4479  0.5345
  284MPD2     C 4282   2.967   2.175  12.001 -1.2448  0.0847 -0.3241
  284MPD2    C1 4283   2.946   2.182  11.866 -0.5617 -0.0348 -0.6419
  284MPD2    C2 4284   2.842   2.111  11.810 -0.6288  0.9851 -0.7098
  284MPD2    C3 4285   2.762   2.026  11.887 -0.1738  0.0911  0.1797
  284MPD2    C4 4286   2.789   2.017  12.020 -0.4427  0.6873 -0.3845
  284MPD2    C5 4287   2.890   2.092  12.073  0.6524 -0.2911 -0.5038
  284MPD2     H 4288   2.833   2.106  11.702  0.5211  2.7098 -0.8856
  284MPD2    H1 4289   2.728   1.955  12.085  0.3071 -1.7893 -2.0549
  284MPD2    H2 4290   3.052   2.213  12.057 -1.5204 -1.2221  0.9790
  284MPD2    H3 4291   2.917   2.093  12.178 -1.0244  0.7008 -0.1022
  284MPD2     N 4292   2.671   1.935  11.835  0.1922 -0.6538  0.4577
  284MPD2    H5 4293   2.620   1.875  11.899  0.0380 -1.8250 -0.7840
  284MPD2    N1 4294   3.028   2.253  11.778 -0.1488  0.6219  0.1699
  284MPD2    H7 4295   3.004   2.254  11.679  1.2989  0.9089 -0.1744
  285TMC3    C1 4296   3.207   2.394  11.722  0.0283 -0.4839 -0.0193
  285TMC3    C2 4297   3.193   2.369  11.592 -1.1023 -0.2159  0.5981
  285TMC3    C3 4298   3.258   2.449  11.506  0.5381  0.1798  0.5269
  285TMC3    C4 4299   3.306   2.480  11.771  0.3401  0.3230  0.5641
  285TMC3    C5 4300   3.367   2.565  11.682  0.5405  0.0336 -0.7786
  285TMC3    C6 4301   3.342   2.552  11.549 -0.5541  0.1354  0.5290
  285TMC3     C 4302   3.133   2.329  11.826  0.0059  0.7180 -0.4292
  285TMC3     O 4303   3.138   2.393  11.928 -0.2581  0.3972  0.2468
  285TMC3     H 4304   3.123   2.297  11.550  0.0887 -1.4174  0.6751
  285TMC3    H1 4305   3.332   2.483  11.876  0.0137 -0.9575  0.6778
  285TMC3    H2 4306   3.374   2.626  11.477 -2.2271  0.3418 -0.0188
  285TMC3    C7 4307   3.442   2.685  11.725  0.7304  0.1770  0.2679
  285TMC3    C8 4308   3.225   2.436  11.366  0.6550 -0.2135  0.0225
  285TMC3    O1 4309   3.479   2.754  11.634  0.1310 -0.1083  0.5396
  285TMC3    O2 4310   3.119   2.382  11.326 -0.5591 -0.2144 -0.4590
  286MPD2     C 4311   2.865   1.443   1.601  0.0120 -0.1566  0.8651
  286MPD2    C1 4312   2.829   1.400   1.477  0.3543 -0.5101  0.5147
  286MPD2    C2 4313   2.906   1.300   1.412  0.1489 -0.0303 -0.3574
  286MPD2    C3 4314   3.019   1.244   1.478  0.3289  0.5785 -0.0525
  286MPD2    C4 4315   3.053   1.290   1.606 -0.2584 -0.8923 -0.1492
  286MPD2    C5 4316   2.975   1.395   1.663 -0.4439 -0.1049 -0.4687
  286MPD2     H 4317   2.876   1.262   1.315  0.9001  0.4774 -0.7789
  286MPD2    H1 4318   3.129   1.242   1.667  1.2238  0.4942 -0.9198
  286MPD2    H2 4319   2.808   1.513   1.663 -0.4246 -1.3489  1.8114
  286MPD2    H3 4320   3.005   1.432   1.761  0.9258 -0.0498 -0.9107
  286MPD2     N 4321   3.110   1.163   1.419  0.5418 -0.2297 -0.4532
  286MPD2    H5 4322   3.201   1.144   1.457  1.2973 -0.9424 -2.6224
  286MPD2    N1 4323   2.715   1.445   1.414 -0.2282  0.3647 -0.3130
  286MPD2    H7 4324   2.698   1.421   1.317  0.9630 -1.0643 -0.1633
  287TMC3    C1 4325   3.221   1.037   1.258  0.9637  0.7806  0.0897
  287TMC3    C2 4326   3.209   0.963   1.143  0.5765  0.1737 -0.0336
  287TMC3    C3 4327   3.323   0.947   1.065  0.5912 -0.1837  0.0381
  287TMC3    C4 4328   3.341   1.091   1.292  0.0008  0.0473 -0.0632
  287TMC3    C5 4329   3.457   1.062   1.217  0.5292 -1.2302  0.3124
  287TMC3    C6 4330   3.450   0.982   1.103  0.7092  0.0790 -0.5448
  287TMC3     C 4331   3.098   1.102   1.296  0.1557  0.0599 -0.2052
  287TMC3     O 4332   3.002   1.104   1.212 -0.2665 -0.9241  0.0554
  287TMC3     H 4333   3.109   0.938   1.109  0.1920  2.2317 -0.3768
  287TMC3    H1 4334   3.347   1.165   1.372  0.6959  2.2828 -2.1772
  287TMC3    H2 4335   3.540   0.981   1.042 -0.2411 -1.2786 -1.9307
  287TMC3    C7 4336   3.581   1.105   1.280 -0.5385  0.1913  0.3531
  287TMC3    C8 4337   3.314   0.892   0.924 -0.2333  0.4762 -0.1304
  287TMC3    O1 4338   3.573   1.199   1.359  0.3934  0.4455  0.2791
  287TMC3    O2 4339   3.224   0.813   0.897 -0.2528  0.6811  0.0146
  288TMC3    C1 4340   0.429   1.078  14.517 -0.3486  0.4351 -0.4311
  288TMC3    C2 4341   0.314   1.091  14.591 -0.2964 -0.0217  0.0922
  288TMC3    C3 4342   0.231   1.188  14.551 -0.2745  0.6418 -0.6670
  288TMC3    C4 4343   0.462   1.162  14.411 -0.3414 -0.0568 -0.1046
  288TMC3    C5 4344   0.375   1.264  14.378 -0.2286 -0.1480 -0.2320
  288TMC3    C6 4345   0.260   1.282  14.455  0.1550  0.4300 -0.0102
  288TMC3     C 4346   0.528   0.984  14.567  0.7743  0.1816 -0.2664
  288TMC3     O 4347   0.515   0.944  14.682  0.0452 -0.3324  0.4114
  288TMC3     H 4348   0.292   1.016  14.666  0.4619  0.8253  1.1484
  288TMC3    H1 4349   0.561   1.153  14.368 -1.3996 -0.3031 -2.4834
  288TMC3    H2 4350   0.198   1.363  14.420  0.1103  1.3443  2.1796
  288TMC3    C7 4351   0.382   1.336  14.250  0.0827 -0.5971  0.6383
  288TMC3    C8 4352   0.122   1.224  14.635 -0.0623 -0.3383 -0.2313
  288TMC3    O1 4353   0.303   1.431  14.247 -0.2971  0.3713  0.5187
  288TMC3    O2 4354   0.091   1.342  14.628 -0.5095 -0.2594  0.1365
  289MPD2     C 4355   4.663   0.079  14.463 -0.1047 -0.1801 -0.1119
  289MPD2    C1 4356   4.641   0.214  14.444 -0.6389 -0.1219  0.3107
  289MPD2    C2 4357   4.534   0.259  14.369 -0.6174  0.0925  0.0063
  289MPD2    C3 4358   4.449   0.167  14.305  0.1783 -0.4232  0.0764
  289MPD2    C4 4359   4.475   0.035  14.321  0.6042  0.2644  0.4289
  289MPD2    C5 4360   4.579   4.719  14.400  0.0222  0.3046 -0.0230
  289MPD2     H 4361   4.498   0.362  14.375 -0.7703  0.0789 -0.8003
  289MPD2    H1 4362   4.424   4.678  14.273 -0.0588 -0.0214  1.6347
  289MPD2    H2 4363   0.019   0.052  14.530 -1.1941 -0.1007  1.2457
  289MPD2    H3 4364   4.611   4.617  14.416  0.2711  0.5636  1.1845
  289MPD2     N 4365   4.343   0.200  14.214  0.5261  0.3137 -0.0511
  289MPD2    H5 4366   4.294   0.120  14.176  1.0037 -1.2755  2.6764
  289MPD2    N1 4367   0.019   0.293  14.499 -0.1099  0.5047  1.4575
  289MPD2    H7 4368   0.103   0.248  14.535  0.5282  0.2042 -0.3978
  290TMC3    C1 4369   4.245   0.340  14.047  0.8497 -0.4058 -0.4107
  290TMC3    C2 4370   4.178   0.457  14.019  0.0650 -0.3756 -0.6696
  290TMC3    C3 4371   4.101   0.465  13.900  0.4616 -0.0431 -0.1335
  290TMC3    C4 4372   4.229   0.233  13.965  0.3233  0.9674  0.0999
  290TMC3    C5 4373   4.155   0.241  13.852 -0.0471 -0.5016 -0.4659
  290TMC3    C6 4374   4.091   0.357  13.817  0.3628  0.1675 -0.4593
  290TMC3     C 4375   4.306   0.324  14.178  0.3253 -0.5473  0.2271
  290TMC3     O 4376   4.336   0.425  14.239 -0.1195 -0.3124 -0.4112
  290TMC3     H 4377   4.184   0.534  14.096  0.3489 -1.8640  0.8098
  290TMC3    H1 4378   4.310   0.162  13.974  0.0048  0.6789  0.6827
  290TMC3    H2 4379   4.027   0.365  13.731 -0.6461  0.0251  0.2803
  290TMC3    C7 4380   4.137   0.131  13.757  0.0673 -0.9427 -0.3318
  290TMC3    C8 4381   4.016   0.579  13.865 -0.2220 -0.1106 -0.5912
  290TMC3    O1 4382   4.087   0.164  13.647  0.3103 -0.2351 -0.2107
  290TMC3    O2 4383   3.917   0.549  13.800 -0.3257 -0.2609 -0.1972
  291MPD2     C 4384   3.484   0.454   0.422  1.1318  0.0336  0.4454
  291MPD2    C1 4385   3.473   0.360   0.315 -0.0852 -0.8286 -0.4268
  291MPD2    C2 4386   3.562   0.361   0.210  0.1291 -0.0772 -0.9793
  291MPD2    C3 4387   3.658   0.464   0.206  0.2396 -0.6124  0.4023
  291MPD2    C4 4388   3.661   0.561   0.303 -0.3241  0.2618  0.2292
  291MPD2    C5 4389   3.577   0.548   0.412  0.1829  1.0093 -0.7918
  291MPD2     H 4390   3.553   0.284   0.134  0.5630  1.2705 -2.4093
  291MPD2    H1 4391   3.739   0.636   0.314 -1.5402  1.4913  0.4471
  291MPD2    H2 4392   3.426   0.453   0.513  2.0894  0.1469  1.0554
  291MPD2    H3 4393   3.579   0.617   0.496  0.8803  0.1718 -0.1284
  291MPD2     N 4394   3.744   0.473   0.095  0.8465 -0.1422  0.2783
  291MPD2    H5 4395   3.808   0.553   0.095  2.3394 -1.3208  2.3742
  291MPD2    N1 4396   3.381   0.255   0.318 -0.0708 -0.2741 -0.6199
  291MPD2    H7 4397   3.385   0.197   0.235  1.9019  0.1103 -0.8058
  292TMC3    C1 4398   3.206   0.112   0.369 -0.3552 -0.0372 -0.5959
  292TMC3    C2 4399   3.069   0.110   0.373 -0.7022  0.1727 -0.1374
  292TMC3    C3 4400   3.012   0.004   0.317 -0.4278 -0.2716  0.9501
  292TMC3    C4 4401   3.277   0.010   0.310  0.1797  0.0090 -0.3991
  292TMC3    C5 4402   3.206   4.647   0.245 -0.0199 -0.4902  0.1199
  292TMC3    C6 4403   3.076   4.633   0.246 -0.1054  0.4567  0.1568
  292TMC3     C 4404   3.276   0.237   0.400 -0.1500  0.0041  0.6625
  292TMC3     O 4405   3.225   0.318   0.475 -0.3820 -0.4580 -0.1076
  292TMC3     H 4406   3.010   0.187   0.420  0.1549  1.5485 -1.3254
  292TMC3    H1 4407   3.385   0.004   0.313  0.1712  0.8842  1.8996
  292TMC3    H2 4408   3.026   4.552   0.192  0.4618  1.1374 -1.3719
  292TMC3    C7 4409   3.287   4.561   0.161  0.0617 -0.7852  0.0292
  292TMC3    C8 4410   2.868   0.013   0.306 -0.0292  0.5901 -0.4812
  292TMC3    O1 4411   3.392   4.518   0.203  0.0986  0.1074  0.2182
  292TMC3    O2 4412   2.810   0.121   0.322  0.0972 -0.3772 -0.3243
  293MPD2     C 4413   0.483   0.899  12.915  0.4377 -0.2754  0.8375
  293MPD2    C1 4414   0.492   1.036  12.929 -0.1821 -0.5668  0.1060
  293MPD2    C2 4415   0.570   1.097  13.021  0.1754  0.0945 -0.4779
  293MPD2    C3 4416   0.641   1.015  13.108 -0.1730 -0.2483  0.1252
  293MPD2    C4 4417   0.619   0.878  13.105  0.1752 -0.1633 -1.1476
  293MPD2    C5 4418   0.541   0.819  13.004  0.2169 -0.0844  0.1494
  293MPD2     H 4419   0.592   1.203  13.028  0.1824 -0.0146  1.0634
  293MPD2    H1 4420   0.670   0.812  13.174 -0.4943  0.1509 -0.3519
  293MPD2    H2 4421   0.429   0.851  12.834  1.6074 -0.7875  0.3534
  293MPD2    H3 4422   0.522   0.712  13.007  0.0509 -0.1405 -2.6509
  293MPD2     N 4423   0.716   1.071  13.213  0.3500 -0.3579  0.0165
  293MPD2    H5 4424   0.730   1.171  13.208 -0.3433 -0.2373  0.5650
  293MPD2    N1 4425   0.419   1.116  12.838  0.2043 -0.0696  0.3374
  293MPD2    H7 4426   0.388   1.065  12.756 -3.5435  1.4532  0.8223
  294TMC3    C1 4427   0.330   1.311  12.733 -0.8635  0.1563 -0.0923
  294TMC3    C2 4428   0.239   1.233  12.665 -0.2560  0.3783 -0.0034
  294TMC3    C3 4429   0.198   1.283  12.542  0.4374 -0.6658 -0.0416
  294TMC3    C4 4430   0.380   1.422  12.679  0.5673 -0.5457 -0.3244
  294TMC3    C5 4431   0.334   1.465  12.558 -0.4099  0.7079 -0.1911
  294TMC3    C6 4432   0.244   1.393  12.485  0.6145  1.0327  0.2436
  294TMC3     C 4433   0.408   1.256  12.840 -0.5251  0.1290  0.0047
  294TMC3     O 4434   0.467   1.336  12.908  0.3610 -0.3738  0.0386
  294TMC3     H 4435   0.186   1.144  12.697  1.1222 -0.2731  0.4624
  294TMC3    H1 4436   0.450   1.489  12.727 -0.6261 -0.3706  1.1938
  294TMC3    H2 4437   0.208   1.420  12.387  0.4902  0.2568  0.0720
  294TMC3    C7 4438   0.414   1.568  12.493  0.7066  0.1212  0.8749
  294TMC3    C8 4439   0.059   1.236  12.520 -0.5803  0.3562 -0.5142
  294TMC3    O1 4440   0.495   1.630  12.559 -0.1816 -0.2009  0.0053
  294TMC3    O2 4441   4.716   1.258  12.616  0.0884  0.3037  0.0134
  295MPD2     C 4442   0.833   4.697   0.062  0.4277 -0.7178  0.0426
  295MPD2    C1 4443   0.927   0.069   0.096 -0.4581 -0.5901 -0.2073
  295MPD2    C2 4444   0.942   0.111   0.233 -0.2377  0.6009 -0.7851
  295MPD2    C3 4445   0.861   0.059   0.329  0.1258 -0.5285 -0.2383
  295MPD2    C4 4446   0.760   4.691   0.295  0.3774 -0.2898 -0.8759
  295MPD2    C5 4447   0.755   4.646   0.165 -1.2068 -1.0044 -0.4636
  295MPD2     H 4448   1.017   0.186   0.256 -0.9233  0.2835  2.5682
  295MPD2    H1 4449   0.698   4.643   0.369  1.9729  0.9116  1.2359
  295MPD2    H2 4450   0.829   4.641  17.672  1.1101 -0.9490  0.1529
  295MPD2    H3 4451   0.687   4.562   0.154 -1.3854 -0.9289  0.0877
  295MPD2     N 4452   0.886   0.088   0.465 -0.1923  0.3993 -0.0812
  295MPD2    H5 4453   0.834   0.035   0.534 -0.1200  1.6600  0.9338
  295MPD2    N1 4454   1.006   0.133  17.700 -0.1544  0.2733  0.2143
  295MPD2    H7 4455   1.068   0.201   0.040  0.9269 -1.0384  0.7359
  296TMC3    C1 4456   0.980   0.221   0.652 -0.6933  0.0631 -1.3635
  296TMC3    C2 4457   0.995   0.340   0.713 -0.4347 -0.3657  0.0564
  296TMC3    C3 4458   1.011   0.335   0.855 -0.1391 -0.1905 -0.2954
  296TMC3    C4 4459   0.965   0.110   0.729 -0.3328 -0.5016  0.8896
  296TMC3    C5 4460   0.961   0.110   0.862  0.0342 -0.1558 -0.5185
  296TMC3    C6 4461   0.982   0.228   0.931 -0.3405 -0.1629 -0.0469
  296TMC3     C 4462   0.944   0.210   0.507 -0.3561  0.5490  0.1986
  296TMC3     O 4463   0.967   0.312   0.441 -0.2779 -0.6044  0.5884
  296TMC3     H 4464   1.002   0.429   0.651 -0.0840  0.3345  1.0999
  296TMC3    H1 4465   0.937   0.020   0.675 -0.0409  0.6950 -1.2169
  296TMC3    H2 4466   0.968   0.243   1.037  0.9651  0.7002  0.0096
  296TMC3    C7 4467   0.838   0.046   0.903  0.2129  0.1254  0.5619
  296TMC3    C8 4468   1.055   0.462   0.917  0.2793  0.4093  0.2343
  296TMC3    O1 4469   0.775   4.725   0.810  0.3718  0.1991 -0.0821
  296TMC3    O2 4470   1.053   0.562   0.841  0.1237  0.0294 -0.6535
  297MPD2     C 4471   3.132   2.268  16.605 -0.1194  0.4580  0.3926
  297MPD2    C1 4472   3.059   2.331  16.503  0.9108 -0.1036  0.4577
  297MPD2    C2 4473   3.107   2.442  16.442  0.7935  0.1099  0.2735
  297MPD2    C3 4474   3.214   2.506  16.495 -0.5291 -0.0458  0.0078
  297MPD2    C4 4475   3.289   2.447  16.601 -0.7407  0.1703  0.6417
  297MPD2    C5 4476   3.238   2.332  16.660 -0.0563 -0.1282 -0.4587
  297MPD2     H 4477   3.056   2.496  16.363 -1.1796 -0.9146  0.8613
  297MPD2    H1 4478   3.384   2.481  16.641 -0.1542  1.9287 -2.2928
  297MPD2    H2 4479   3.095   2.181  16.658  0.1749 -0.2524 -0.5811
  297MPD2    H3 4480   3.288   2.288  16.745 -0.0845  0.4596 -0.1363
  297MPD2     N 4481   3.253   2.627  16.434  0.4562  0.0544 -0.5724
  297MPD2    H5 4482   3.208   2.651  16.346 -3.3030  0.8766  1.5866
  297MPD2    N1 4483   2.933   2.279  16.456 -0.3038 -0.3235  0.4350
  297MPD2    H7 4484   2.878   2.336  16.393 -0.6121  0.8559  1.7711
  298TMC3    C1 4485   2.761   2.151  16.404  0.0515  0.0649 -0.2234
  298TMC3    C2 4486   2.769   2.094  16.275  0.1865 -0.4318  0.3333
  298TMC3    C3 4487   2.656   2.119  16.195  1.3502 -1.1105 -0.0956
  298TMC3    C4 4488   2.648   2.207  16.453 -0.5622 -0.4241 -0.4137
  298TMC3    C5 4489   2.535   2.230  16.374 -0.0703  0.2737  0.3532
  298TMC3    C6 4490   2.547   2.185  16.246 -0.6870 -0.4157 -0.0311
  298TMC3     C 4491   2.884   2.156  16.471 -0.4036  0.2238  0.1209
  298TMC3     O 4492   2.938   2.048  16.499 -1.3523 -0.0554  0.1664
  298TMC3     H 4493   2.863   2.056  16.238 -0.7783 -2.6571  0.1606
  298TMC3    H1 4494   2.660   2.248  16.553 -0.6757 -0.4147 -0.4028
  298TMC3    H2 4495   2.459   2.197  16.184 -0.6192 -1.8073 -0.3884
  298TMC3    C7 4496   2.464   2.351  16.404  0.5346 -0.2809 -0.0847
  298TMC3    C8 4497   2.663   2.125  16.045  0.1238 -0.2364  0.3408
  298TMC3    O1 4498   2.493   2.397  16.513  0.4306  0.1955  1.0419
  298TMC3    O2 4499   2.558   2.157  15.985 -0.1434  0.3596 -0.6333
  299MPD2     C 4500   4.107   1.425  10.678  0.2679  0.5910 -0.3468
  299MPD2    C1 4501   4.101   1.542  10.606  0.8403 -0.0734 -0.3922
  299MPD2    C2 4502   4.007   1.553  10.502 -0.5701  0.2808 -1.1120
  299MPD2    C3 4503   3.921   1.446  10.484 -0.8933  0.3762  0.0269
  299MPD2    C4 4504   3.924   1.338  10.573  0.2394 -0.2332 -0.2092
  299MPD2    C5 4505   4.017   1.328  10.671 -0.4088  0.0699 -0.3457
  299MPD2     H 4506   3.998   1.643  10.442 -1.7265  0.8272 -0.1180
  299MPD2    H1 4507   3.850   1.259  10.570 -2.1047  2.0158 -1.4837
  299MPD2    H2 4508   4.178   1.415  10.759  0.0937 -2.5800 -0.6028
  299MPD2    H3 4509   4.012   1.255  10.751 -0.1339  1.2179  0.7302
  299MPD2     N 4510   3.815   1.441  10.387 -0.9207 -0.2716 -0.2308
  299MPD2    H5 4511   3.762   1.355  10.379 -2.5233  0.4214  2.8352
  299MPD2    N1 4512   4.194   1.647  10.645 -0.6835 -0.2881  0.0975
  299MPD2    H7 4513   4.239   1.634  10.735  0.4065 -1.0585 -0.5570
  300TMC3    C1 4514   3.654   1.526  10.232 -0.1373  0.4196 -0.0165
  300TMC3    C2 4515   3.643   1.594  10.118 -0.0077  0.4224  0.2840
  300TMC3    C3 4516   3.530   1.560  10.048  0.5115 -0.1407 -0.8978
  300TMC3    C4 4517   3.556   1.450  10.292  0.4623  1.4120  0.0352
  300TMC3    C5 4518   3.436   1.435  10.225  0.5418 -0.0131 -0.8618
  300TMC3    C6 4519   3.432   1.477  10.094 -0.1095  0.2337 -0.8610
  300TMC3     C 4520   3.779   1.544  10.303 -0.6747  0.2173 -0.7883
  300TMC3     O 4521   3.830   1.653  10.278 -0.1523 -0.2626  0.6509
  300TMC3     H 4522   3.726   1.650  10.077 -0.1071  0.7012  0.4610
  300TMC3    H1 4523   3.560   1.434  10.399  0.7807  1.0330 -0.0344
  300TMC3    H2 4524   3.343   1.463  10.034  0.2222 -0.0535 -1.2987
  300TMC3    C7 4525   3.311   1.437  10.282 -0.0279 -0.1654 -0.5791
  300TMC3    C8 4526   3.490   1.659   9.958 -0.3189 -0.5668 -0.7886
  300TMC3    O1 4527   3.238   1.339  10.267  0.1327 -0.2491 -0.0204
  300TMC3    O2 4528   3.430   1.630   9.855 -0.7761 -0.4391 -0.1246
  301MPD2     C 4529   1.550   2.967   1.501  1.2648 -0.4082  0.3790
  301MPD2    C1 4530   1.426   2.976   1.438  0.0200 -0.2383  0.3041
  301MPD2    C2 4531   1.379   2.876   1.357  0.5721  0.2220  0.0800
  301MPD2    C3 4532   1.453   2.759   1.342  0.1866  0.8475 -0.6457
  301MPD2    C4 4533   1.574   2.748   1.408 -0.6568  0.0539  0.1027
  301MPD2    C5 4534   1.625   2.855   1.487 -0.3571  0.0175 -0.9124
  301MPD2     H 4535   1.290   2.903   1.301  0.4510 -0.7717 -0.2016
  301MPD2    H1 4536   1.635   2.660   1.389 -0.8941  0.0108 -0.4636
  301MPD2    H2 4537   1.589   3.044   1.568  0.7788 -0.9759  1.3081
  301MPD2    H3 4538   1.716   2.836   1.541 -1.7608  0.7092  1.6970
  301MPD2     N 4539   1.421   2.654   1.264 -0.1095 -0.2003 -0.3920
  301MPD2    H5 4540   1.481   2.572   1.267 -0.3596 -0.3936 -0.6995
  301MPD2    N1 4541   1.334   3.078   1.462 -0.4787  0.1707  0.4784
  301MPD2    H7 4542   1.249   3.067   1.407 -0.3324 -1.0959  0.5120
  302TMC3    C1 4543   1.287   2.528   1.104  1.0145  0.4699  0.0023
  302TMC3    C2 4544   1.329   2.407   1.155  0.2859  0.1494 -0.1504
  302TMC3    C3 4545   1.293   2.295   1.088 -0.1796 -0.4436 -0.5485
  302TMC3    C4 4546   1.211   2.545   0.990  0.3240 -0.5991  0.8373
  302TMC3    C5 4547   1.191   2.424   0.922 -0.3318  0.6499 -0.2437
  302TMC3    C6 4548   1.228   2.299   0.970  0.7480  0.0397 -0.4756
  302TMC3     C 4549   1.300   2.643   1.194 -0.7677 -0.3319  0.2527
  302TMC3     O 4550   1.220   2.732   1.165 -0.0969 -0.8165  0.3341
  302TMC3     H 4551   1.379   2.409   1.251  0.8677 -0.3752 -0.4399
  302TMC3    H1 4552   1.193   2.645   0.950  0.0083 -0.4255  1.4252
  302TMC3    H2 4553   1.219   2.217   0.900 -1.1699 -1.0061  1.0008
  302TMC3    C7 4554   1.085   2.429   0.826 -0.1091  1.2266 -0.2559
  302TMC3    C8 4555   1.339   2.172   1.144  0.0783 -0.6455 -0.3025
  302TMC3    O1 4556   1.072   2.331   0.756 -0.0348  0.0283  0.5335
  302TMC3    O2 4557   1.425   2.173   1.229 -0.4306 -0.6734 -0.0945
  303MPD2     C 4558   1.172   1.626  10.340 -0.8093  0.2025 -0.1168
  303MPD2    C1 4559   1.068   1.551  10.388  0.2632  0.0482 -0.0153
  303MPD2    C2 4560   1.001   1.478  10.289  0.1236 -0.0755 -0.4562
  303MPD2    C3 4561   1.023   1.503  10.156  0.1099 -0.6926 -0.2350
  303MPD2    C4 4562   1.124   1.587  10.115  0.2662  0.0127  0.0758
  303MPD2    C5 4563   1.203   1.648  10.207 -0.0777  0.5210  0.1642
  303MPD2     H 4564   0.921   1.410  10.314  0.1545  0.1014  0.1257
  303MPD2    H1 4565   1.153   1.600  10.011 -1.6591  1.6905 -0.2482
  303MPD2    H2 4566   1.239   1.653  10.420 -0.4806 -1.4989  0.1782
  303MPD2    H3 4567   1.289   1.700  10.167 -0.2676 -0.0424 -0.9588
  303MPD2     N 4568   0.967   1.434  10.046  0.5754 -0.0365  0.0705
  303MPD2    H5 4569   1.015   1.439   9.957 -2.0752 -0.4567 -1.4023
  303MPD2    N1 4570   1.062   1.522  10.527  0.0562  0.0692 -0.1080
  303MPD2    H7 4571   1.138   1.554  10.586 -0.2833  1.1352 -0.2518
  304TMC3    C1 4572   1.025   1.398  10.721  0.3904 -0.0052  0.0324
  304TMC3    C2 4573   0.925   1.351  10.803  0.2787  0.0284 -0.5142
  304TMC3    C3 4574   0.951   1.227  10.866 -0.3691 -0.2660 -1.2676
  304TMC3    C4 4575   1.147   1.335  10.704 -1.3638 -0.3975  0.2496
  304TMC3    C5 4576   1.174   1.220  10.781  0.0632 -0.2784 -0.2325
  304TMC3    C6 4577   1.079   1.181  10.867  0.5065  0.3778 -0.1558
  304TMC3     C 4578   0.969   1.442  10.592 -0.2925 -0.1229 -0.1808
  304TMC3     O 4579   0.865   1.385  10.551 -0.3863  0.1380  0.1537
  304TMC3     H 4580   0.828   1.398  10.789 -0.1986 -1.5143 -2.3610
  304TMC3    H1 4581   1.212   1.353  10.620 -1.3223 -0.9643  0.1576
  304TMC3    H2 4582   1.111   1.099  10.929 -0.2934 -1.0359 -1.6059
  304TMC3    C7 4583   1.225   1.117  10.698 -0.4300 -0.4793  0.0394
  304TMC3    C8 4584   0.863   1.113  10.835  0.4973  0.4905 -0.1207
  304TMC3    O1 4585   1.313   1.152  10.621 -0.1193  0.2839 -0.0136
  304TMC3    O2 4586   0.910   1.000  10.852  0.2528 -0.0054 -0.5047
  305MPD2     C 4587   4.416   3.608  13.930  0.6351  0.1440 -0.1562
  305MPD2    C1 4588   4.396   3.476  13.922  0.3363  0.3534 -0.6888
  305MPD2    C2 4589   4.361   3.422  13.799  0.4324 -0.9392 -0.3462
  305MPD2    C3 4590   4.340   3.511  13.690 -0.5273 -0.3263 -0.0357
  305MPD2    C4 4591   4.344   3.646  13.709  0.5879  0.4259  0.4391
  305MPD2    C5 4592   4.399   3.693  13.824  0.6170  0.5436 -0.3885
  305MPD2     H 4593   4.347   3.315  13.790 -0.9408 -0.9547  2.1397
  305MPD2    H1 4594   4.330   3.715  13.627  1.2152 -0.1050 -0.1193
  305MPD2    H2 4595   4.470   3.647  14.015  0.9184 -1.3709  0.3669
  305MPD2    H3 4596   4.422   3.797  13.842 -0.7514  0.7738  0.0197
  305MPD2     N 4597   4.304   3.469  13.560 -0.1051  0.3319  0.0402
  305MPD2    H5 4598   4.277   3.547  13.501  0.9621  0.1972 -0.6215
  305MPD2    N1 4599   4.417   3.403  14.040 -0.3009  0.1754 -0.0376
  305MPD2    H7 4600   4.446   3.457  14.121  0.2662  1.5362 -1.1475
  306TMC3    C1 4601   4.394   3.227  14.192 -0.7434 -0.0815  0.0707
  306TMC3    C2 4602   4.438   3.099  14.218  0.1680  0.3000 -0.1134
  306TMC3    C3 4603   4.434   3.051  14.347 -0.2026  0.1979 -0.5928
  306TMC3    C4 4604   4.335   3.299  14.293 -0.0034  0.0489 -0.3403
  306TMC3    C5 4605   4.335   3.252  14.417  0.1266 -0.2003  0.1732
  306TMC3    C6 4606   4.376   3.125  14.449  0.3864  1.3845 -0.0330
  306TMC3     C 4607   4.388   3.268  14.055  0.1941 -0.0078 -0.4419
  306TMC3     O 4608   4.387   3.176  13.971 -0.3370 -0.2897 -0.0940
  306TMC3     H 4609   4.488   3.033  14.148  0.5786 -0.6600  1.0662
  306TMC3    H1 4610   4.304   3.398  14.263 -0.8921 -0.5685 -1.4633
  306TMC3    H2 4611   4.362   3.103  14.554  1.8762 -0.0828 -0.1432
  306TMC3    C7 4612   4.250   3.315  14.503 -0.5697 -0.7993 -0.3624
  306TMC3    C8 4613   4.501   2.927  14.385 -0.3849 -0.5814 -0.3765
  306TMC3    O1 4614   4.155   3.375  14.460  0.1235 -0.2336  0.1976
  306TMC3    O2 4615   4.603   2.902  14.319  0.0293 -0.3047 -0.2116
  307MPD2     C 4616   2.102   1.804   0.129 -0.7002 -0.2738 -0.0376
  307MPD2    C1 4617   2.066   1.927   0.176  0.2121  0.1567  0.2544
  307MPD2    C2 4618   2.022   1.934   0.308 -0.4145 -0.2627  0.3555
  307MPD2    C3 4619   2.002   1.826   0.382 -0.0032  0.3258  0.3252
  307MPD2    C4 4620   2.052   1.707   0.339  0.3162  0.0549 -0.0850
  307MPD2    C5 4621   2.112   1.700   0.219 -0.0156 -0.0413 -0.1623
  307MPD2     H 4622   2.000   2.029   0.355  0.0698  0.1450 -0.2419
  307MPD2    H1 4623   2.047   1.615   0.396  1.7799 -1.8866 -3.0593
  307MPD2    H2 4624   2.131   1.781   0.027  0.5811 -1.0186  0.4980
  307MPD2    H3 4625   2.159   1.607   0.188  0.8016  0.6629 -1.0647
  307MPD2     N 4626   1.949   1.842   0.510  0.2974  0.3863  0.5631
  307MPD2    H5 4627   1.919   1.935   0.535  0.8867  0.4084  1.1912
  307MPD2    N1 4628   2.066   2.041   0.092  0.4799 -0.5145 -0.2605
  307MPD2    H7 4629   2.067   2.132   0.137 -0.0147  0.6964 -2.7238
  308TMC3    C1 4630   1.660   1.703   0.855  0.3975  0.3383 -0.5730
  308TMC3    C2 4631   1.629   1.831   0.884  0.0220 -0.0715  0.2602
  308TMC3    C3 4632   1.710   1.935   0.828  0.5063  0.0165  0.0175
  308TMC3    C4 4633   1.754   1.665   0.760 -0.5508  0.0883 -0.2350
  308TMC3    C5 4634   1.826   1.768   0.703  0.3562 -0.1380  0.1337
  308TMC3    C6 4635   1.809   1.900   0.738  0.1891  0.4398  0.2627
  308TMC3     C 4636   1.556   1.604   0.866 -0.4789  0.6271  0.0731
  308TMC3     O 4637   1.589   1.488   0.895  0.1420 -0.7531  0.8389
  308TMC3     H 4638   1.557   1.855   0.961  0.2212 -0.5742  0.5999
  308TMC3    H1 4639   1.771   1.562   0.730  1.8015  0.2253  0.6234
  308TMC3    H2 4640   1.882   1.976   0.713 -1.4065  1.1763 -2.1705
  308TMC3    C7 4641   1.935   1.740   0.607  0.0312 -0.6324 -0.3236
  308TMC3    C8 4642   1.712   2.057   0.905 -0.7169 -0.3571  0.8811
  308TMC3    O1 4643   1.980   1.627   0.602 -0.0568  0.2900  0.3895
  308TMC3    O2 4644   1.687   2.041   1.022  0.1651 -0.2430  0.0523
  309MPD2     C 4645   0.987   2.068  17.480  0.2157  0.2871 -0.4827
  309MPD2    C1 4646   0.895   2.040  17.376 -0.1803 -0.0040  0.2353
  309MPD2    C2 4647   0.766   2.089  17.381 -0.2340  0.5095 -0.4374
  309MPD2    C3 4648   0.723   2.162  17.492  0.7891 -0.6022  0.2007
  309MPD2    C4 4649   0.815   2.183  17.592  0.2787 -0.4554 -0.6903
  309MPD2    C5 4650   0.944   2.138  17.586 -0.3323  0.3033 -0.3806
  309MPD2     H 4651   0.700   2.053  17.303  0.2576  0.5343 -0.8727
  309MPD2    H1 4652   0.793   2.243  17.679 -1.9474  1.1565 -2.3484
  309MPD2    H2 4653   1.091   2.036  17.482  1.2322  3.6691 -0.1248
  309MPD2    H3 4654   1.015   2.146  17.668 -0.0664 -2.5842 -0.3013
  309MPD2     N 4655   0.595   2.214  17.505  0.2905  0.4125  0.4751
  309MPD2    H5 4656   0.581   2.267  17.591 -1.6297  0.0873  0.3587
  309MPD2    N1 4657   0.926   1.967  17.262  0.2106  0.3409 -0.1628
  309MPD2    H7 4658   0.857   1.957  17.188  2.7596 -2.6114 -2.1489
  310TMC3    C1 4659   1.088   1.846  17.133 -0.3600 -0.4915 -0.0853
  310TMC3    C2 4660   1.078   1.925  17.024 -0.2153 -0.1711  0.0146
  310TMC3    C3 4661   1.137   1.879  16.908 -0.6654 -0.0153 -0.1443
  310TMC3    C4 4662   1.154   1.722  17.129 -0.6670  0.7251  0.7708
  310TMC3    C5 4663   1.203   1.684  17.008  0.1871 -0.3412  0.3464
  310TMC3    C6 4664   1.199   1.760  16.898  0.2417 -0.6752  0.3909
  310TMC3     C 4665   1.036   1.882  17.264 -0.4826  0.3003 -0.3353
  310TMC3     O 4666   1.081   1.821  17.360  0.1400 -0.4890  0.0943
  310TMC3     H 4667   1.043   2.027  17.031 -1.4728 -0.6864  1.1790
  310TMC3    H1 4668   1.163   1.659  17.217 -1.4562  1.1910  1.1875
  310TMC3    H2 4669   1.225   1.715  16.803 -2.0201  1.7514 -1.3983
  310TMC3    C7 4670   1.296   1.568  17.000 -0.1550  0.1093 -0.2304
  310TMC3    C8 4671   1.129   1.968  16.795 -0.5218  0.4793  0.0880
  310TMC3    O1 4672   1.378   1.589  16.912 -0.0925 -0.6037  0.2896
  310TMC3    O2 4673   1.038   2.049  16.785 -0.2728 -0.0427  0.0806
  311MPD2     C 4674   3.563   2.552  12.752  0.0643  0.0680 -0.4061
  311MPD2    C1 4675   3.538   2.684  12.770  0.5716 -0.4646 -0.0196
  311MPD2    C2 4676   3.404   2.729  12.754 -0.4639  0.0720 -0.6263
  311MPD2    C3 4677   3.309   2.635  12.744  0.2308 -0.1200  0.2895
  311MPD2    C4 4678   3.331   2.504  12.747 -0.8084  0.3415  0.1925
  311MPD2    C5 4679   3.460   2.461  12.741  0.4411  0.1187  0.0679
  311MPD2     H 4680   3.376   2.834  12.755  0.9057  0.4267  1.4418
  311MPD2    H1 4681   3.257   2.425  12.746  1.0516 -1.3894  0.1777
  311MPD2    H2 4682   3.666   2.517  12.752 -0.4332 -1.4234 -0.4402
  311MPD2    H3 4683   3.479   2.354  12.749  0.4319  0.2743  2.1838
  311MPD2     N 4684   3.183   2.692  12.762  0.0349  0.0959 -0.3920
  311MPD2    H5 4685   3.176   2.793  12.772  0.1028  0.4852 -4.2077
  311MPD2    N1 4686   3.632   2.790  12.799  0.2316 -0.2496 -0.1803
  311MPD2    H7 4687   3.606   2.888  12.802 -0.5246 -0.4762  0.6109
  312TMC3    C1 4688   2.960   2.709  12.791 -0.0815  0.3204  0.3509
  312TMC3    C2 4689   2.857   2.718  12.705 -0.1827 -0.4364  0.6636
  312TMC3    C3 4690   2.776   2.833  12.694  0.4362 -0.6443  1.0021
  312TMC3    C4 4691   2.990   2.821  12.867 -0.0805  0.3124 -0.1232
  312TMC3    C5 4692   2.912   2.937  12.855 -0.0302  0.7919 -0.2960
  312TMC3    C6 4693   2.801   2.943  12.775  0.2930 -0.0153  0.2107
  312TMC3     C 4694   3.072   2.626  12.747  0.5508 -0.2309  0.1312
  312TMC3     O 4695   3.052   2.527  12.680 -0.1617  0.1618 -0.4018
  312TMC3     H 4696   2.854   2.635  12.634 -1.0373 -1.1103  1.4985
  312TMC3    H1 4697   3.072   2.811  12.936 -0.6907 -0.3512  0.5037
  312TMC3    H2 4698   2.736   3.028  12.792  0.7461  0.6044 -1.1393
  312TMC3    C7 4699   2.953   3.046  12.944 -0.0415 -0.7083 -0.0421
  312TMC3    C8 4700   2.637   2.809  12.652  0.7228 -0.2049  0.3108
  312TMC3    O1 4701   2.944   3.159  12.898 -0.0142  0.0755  0.3086
  312TMC3    O2 4702   2.612   2.686  12.656  0.6400  0.0842  0.3457
  313MPD2     C 4703   3.598   2.657  10.256 -0.1960  0.0583 -0.1534
  313MPD2    C1 4704   3.496   2.585  10.315 -0.5651  0.2787  0.3957
  313MPD2    C2 4705   3.434   2.490  10.234  0.7238 -0.5933  0.6082
  313MPD2    C3 4706   3.467   2.473  10.105  0.0269 -0.8534 -0.3198
  313MPD2    C4 4707   3.566   2.542  10.046 -0.2073  0.1766  0.1178
  313MPD2    C5 4708   3.632   2.635  10.126 -0.1184  0.0764  0.1288
  313MPD2     H 4709   3.348   2.432  10.263 -0.3142  0.0703 -1.1224
  313MPD2    H1 4710   3.584   2.535   9.940  1.8653 -1.3008  0.5577
  313MPD2    H2 4711   3.670   2.717  10.310 -0.3493  0.7570 -0.7243
  313MPD2    H3 4712   3.716   2.689  10.083 -0.7317 -0.0851 -1.2567
  313MPD2     N 4713   3.392   2.371  10.038  0.3394 -0.3083  0.1349
  313MPD2    H5 4714   3.325   2.323  10.097  1.3124 -1.1860  0.5187
  313MPD2    N1 4715   3.453   2.603  10.444  0.3518 -0.3636  0.8407
  313MPD2    H7 4716   3.380   2.538  10.472  1.4370 -3.2035 -2.8691
  314TMC3    C1 4717   3.366   2.720  10.632 -0.2447 -0.6361 -0.4529
  314TMC3    C2 4718   3.398   2.776  10.750 -0.8132  0.5373  0.2722
  314TMC3    C3 4719   3.295   2.801  10.841 -0.7678 -0.4404  0.4764
  314TMC3    C4 4720   3.237   2.681  10.600 -0.4602  0.3465 -0.0382
  314TMC3    C5 4721   3.140   2.698  10.694  0.1744 -0.1516  0.6420
  314TMC3    C6 4722   3.165   2.764  10.815 -0.5621 -0.4610  0.3525
  314TMC3     C 4723   3.476   2.707  10.536 -0.0505  0.8313  0.6452
  314TMC3     O 4724   3.560   2.794  10.534 -0.3009 -0.2788  0.7617
  314TMC3     H 4725   3.502   2.799  10.768 -0.1312 -0.7655 -1.9740
  314TMC3    H1 4726   3.214   2.623  10.512 -0.2775 -1.8103  1.3404
  314TMC3    H2 4727   3.086   2.802  10.878  0.3723 -1.6169  2.2232
  314TMC3    C7 4728   2.999   2.698  10.653 -1.0132  0.5725  0.8204
  314TMC3    C8 4729   3.342   2.848  10.968 -0.4383 -0.4086  0.9135
  314TMC3    O1 4730   2.922   2.663  10.746 -0.4680  0.6023 -0.6382
  314TMC3    O2 4731   3.464   2.875  10.988 -0.6323 -0.1470  0.4427
  315MPD2     C 4732   2.395   1.752  17.492  0.3894  0.0144  0.0170
  315MPD2    C1 4733   2.409   1.784  17.628  0.0974 -0.2581  0.0734
  315MPD2    C2 4734   2.416   1.919  17.664  0.1710  0.6795 -0.5135
  315MPD2    C3 4735   2.412   2.022  17.566  0.3730 -0.2871  0.3237
  315MPD2    C4 4736   2.378   1.987  17.439  0.8498 -0.3838  0.2922
  315MPD2    C5 4737   2.377   1.851  17.400  0.1876  0.3554  0.7197
  315MPD2     H 4738   2.421   1.952   0.064  0.6006 -0.9691 -0.0057
  315MPD2    H1 4739   2.353   2.052  17.356 -0.2394 -0.6992  0.3709
  315MPD2    H2 4740   2.407   1.651  17.456 -0.6025 -0.0390 -0.1667
  315MPD2    H3 4741   2.363   1.833  17.294  1.3861  0.3105  0.5617
  315MPD2     N 4742   2.440   2.158  17.603 -0.2878 -0.0237 -0.3110
  315MPD2    H5 4743   2.449   2.181  17.702  2.7810 -2.4787 -0.0119
  315MPD2    N1 4744   2.434   1.687   0.022  0.1956 -0.1816  0.9597
  315MPD2    H7 4745   2.463   1.712   0.116  0.2101  1.4648  0.5102
  316TMC3    C1 4746   2.466   2.389  17.590 -0.3897 -0.4134 -0.0798
  316TMC3    C2 4747   2.532   2.395   0.012 -0.1216 -0.2006  0.2738
  316TMC3    C3 4748   2.528   2.518   0.080 -0.6940  0.6000 -0.3757
  316TMC3    C4 4749   2.380   2.483  17.546  0.4444 -0.3685 -0.7034
  316TMC3    C5 4750   2.378   2.602  17.614  0.2916 -0.3654 -0.4263
  316TMC3    C6 4751   2.455   2.623   0.020 -0.0063 -0.0495 -0.3052
  316TMC3     C 4752   2.445   2.265  17.520  0.1214  0.4165  0.0955
  316TMC3     O 4753   2.414   2.262  17.400  0.3900 -0.9459 -0.8659
  316TMC3     H 4754   2.580   2.311   0.060  0.7953 -2.0234 -3.7960
  316TMC3    H1 4755   2.328   2.468  17.453  1.2022  0.8320 -1.3200
  316TMC3    H2 4756   2.442   2.721   0.065  1.4085 -0.5991  1.3217
  316TMC3    C7 4757   2.258   2.684  17.596 -0.6667  0.1261  0.3987
  316TMC3    C8 4758   2.576   2.550   0.214  0.7598  1.5911  0.0068
  316TMC3    O1 4759   2.186   2.712  17.691  0.1507 -0.0228 -0.1712
  316TMC3    O2 4760   2.547   2.661   0.253  0.6241 -0.5125  0.0220
  317MPD2     C 4761   4.192   0.381  12.766 -0.3600  0.1910 -0.6130
  317MPD2    C1 4762   4.254   0.272  12.713  0.3318 -0.1683  0.1567
  317MPD2    C2 4763   4.335   0.193  12.789 -0.0674 -0.3613 -0.5647
  317MPD2    C3 4764   4.343   0.213  12.925  0.3871  0.1076 -0.4066
  317MPD2    C4 4765   4.287   0.327  12.978  0.0795 -0.1182 -0.2119
  317MPD2    C5 4766   4.209   0.405  12.901  0.6922  0.2362 -0.0198
  317MPD2     H 4767   4.385   0.106  12.748 -0.2538 -0.3522 -0.8118
  317MPD2    H1 4768   4.293   0.345  13.084  0.9980 -0.2539 -0.2439
  317MPD2    H2 4769   4.111   0.437  12.720 -0.0332 -0.5746 -2.1030
  317MPD2    H3 4770   4.171   0.496  12.947  0.2073  1.3981 -2.7017
  317MPD2     N 4771   4.414   0.123  13.001  0.5363 -0.1559 -0.2182
  317MPD2    H5 4772   4.455   0.052  12.942 -1.6087  0.9366 -3.0267
  317MPD2    N1 4773   4.239   0.230  12.578 -0.5821  0.2173  0.9508
  317MPD2    H7 4774   4.282   0.142  12.550 -0.5142  0.8619 -0.9948
  318TMC3    C1 4775   4.525   0.018  13.179 -0.4354  0.0522  0.2900
  318TMC3    C2 4776   4.519   4.634  13.098 -0.3052  0.2723 -0.4665
  318TMC3    C3 4777   4.623   4.542  13.091  0.7097  0.0733 -0.5342
  318TMC3    C4 4778   4.638   0.053  13.246  0.0083 -0.3520 -0.4871
  318TMC3    C5 4779   0.010   4.681  13.250 -0.4374  0.3827  0.1128
  318TMC3    C6 4780   0.009   4.569  13.171 -0.1711  0.2696 -0.6441
  318TMC3     C 4781   4.448   0.135  13.136  0.7496 -0.2077 -0.4591
  318TMC3     O 4782   4.443   0.229  13.215  0.2013 -0.0234 -0.7756
  318TMC3     H 4783   4.418   4.610  13.068 -0.4320 -0.9291  0.9244
  318TMC3    H1 4784   4.633   0.141  13.310  2.1550 -0.9566  0.5201
  318TMC3    H2 4785   0.094   4.503  13.161 -1.1895 -1.0138 -0.9452
  318TMC3    C7 4786   0.075   4.677  13.380  0.5943  0.4279  0.1726
  318TMC3    C8 4787   4.602   4.407  13.050  0.1591  0.5301  0.8253
  318TMC3    O1 4788   0.089   0.048  13.452 -0.2651  0.3024  0.3276
  318TMC3    O2 4789   4.685   4.329  13.086 -0.3737 -0.3092 -0.2751
  319MPD2     C 4790   0.394   1.434  16.579 -0.2117  0.8123  0.6398
  319MPD2    C1 4791   0.355   1.568  16.555 -0.8065 -0.6448 -0.6706
  319MPD2    C2 4792   0.300   1.602  16.425 -0.4409 -0.2564 -0.1481
  319MPD2    C3 4793   0.275   1.493  16.339  0.2091  0.5542 -0.0889
  319MPD2    C4 4794   0.303   1.363  16.378 -0.1823  0.4578 -0.0410
  319MPD2    C5 4795   0.361   1.336  16.495 -0.6324 -0.4474  0.3183
  319MPD2     H 4796   0.273   1.705  16.403  3.3128  1.1662  1.8017
  319MPD2    H1 4797   0.261   1.277  16.327  0.6261  0.7422 -1.1783
  319MPD2    H2 4798   0.454   1.407  16.666 -1.9792 -0.7193  1.3889
  319MPD2    H3 4799   0.381   1.232  16.518 -1.4354 -0.9262 -1.1374
  319MPD2     N 4800   0.206   1.499  16.214  0.4011 -0.3707  0.0160
  319MPD2    H5 4801   0.180   1.416  16.162  1.6923 -1.3279  0.8852
  319MPD2    N1 4802   0.399   1.666  16.651 -0.2452  0.1592 -0.0236
  319MPD2    H7 4803   0.441   1.749  16.608  0.4424 -0.7722 -1.1551
  320TMC3    C1 4804   0.117   1.586  16.024 -0.3924 -0.0265 -0.1078
  320TMC3    C2 4805   0.043   1.689  15.970 -0.3291  0.9023  0.0635
  320TMC3    C3 4806   4.655   1.662  15.899  0.1105  0.4337  0.0877
  320TMC3    C4 4807   0.075   1.454  16.005 -0.0452  0.0374 -0.7527
  320TMC3    C5 4808   4.693   1.433  15.926 -0.0830 -0.4037  0.1213
  320TMC3    C6 4809   4.614   1.533  15.880 -0.0918  0.3023  0.0212
  320TMC3     C 4810   0.171   1.614  16.149  0.2926  0.7211  0.7996
  320TMC3     O 4811   0.163   1.735  16.181 -0.0926 -0.0600 -0.6360
  320TMC3     H 4812   0.071   1.794  15.973  1.6435  0.3520  0.7247
  320TMC3    H1 4813   0.129   1.367  16.039  2.1293  0.5975 -2.8434
  320TMC3    H2 4814   4.520   1.519  15.828 -0.3709 -0.3576  0.7016
  320TMC3    C7 4815   4.650   1.297  15.935 -0.2274  0.5283  0.2588
  320TMC3    C8 4816   4.577   1.777  15.850 -0.7630  0.0579  0.2476
  320TMC3    O1 4817   4.650   1.222  15.837  0.1053 -0.4090  0.3115
  320TMC3    O2 4818   4.598   1.879  15.918 -0.1746 -0.4668  0.6210
  321TMC3    C1 4819   0.416   1.759  16.869 -0.3386  0.1098 -0.1546
  321TMC3    C2 4820   0.359   1.784  16.993  0.3576  0.5097 -0.1655
  321TMC3    C3 4821   0.426   1.876  17.080  0.2300  0.6955  0.4877
  321TMC3    C4 4822   0.542   1.804  16.837 -0.6241  0.3755  0.7876
  321TMC3    C5 4823   0.604   1.883  16.931 -0.3432  0.9280 -0.4206
  321TMC3    C6 4824   0.543   1.929  17.047  0.7438 -0.7552  0.5588
  321TMC3     C 4825   0.371   1.651  16.783  0.1828  0.1067 -0.3151
  321TMC3     O 4826   0.295   1.561  16.826 -0.3267  0.4166  0.5482
  321TMC3     H 4827   0.263   1.740  17.017  1.8934 -2.4904  0.5162
  321TMC3    H1 4828   0.599   1.768  16.752 -2.1622 -1.6791  0.6300
  321TMC3    H2 4829   0.595   2.006  17.104  2.7295  0.1792 -2.4779
  321TMC3    C7 4830   0.744   1.843  16.968  0.3161 -0.1211 -0.1405
  321TMC3    C8 4831   0.428   1.841  17.220  0.6143 -0.4067  0.3566
  321TMC3    O1 4832   0.757   1.860  17.087  0.4161  0.1066 -0.0830
  321TMC3    O2 4833   0.531   1.872  17.278 -0.1409 -0.6371 -0.0827
  322MPD2     C 4834   4.189   2.769  13.602 -0.3053  0.1130 -0.1360
  322MPD2    C1 4835   4.175   2.666  13.698  0.1498 -0.5411 -0.5474
  322MPD2    C2 4836   4.140   2.537  13.669 -0.2702 -0.0629  0.0524
  322MPD2    C3 4837   4.136   2.499  13.533  0.0379 -0.1035 -0.0115
  322MPD2    C4 4838   4.137   2.600  13.438  0.3008 -0.6181  0.3139
  322MPD2    C5 4839   4.165   2.731  13.471  0.2510  0.1657  0.2620
  322MPD2     H 4840   4.128   2.458  13.741  1.3501 -1.2050 -0.9330
  322MPD2    H1 4841   4.108   2.577  13.336 -1.3663  0.3954  0.5754
  322MPD2    H2 4842   4.219   2.871  13.624  0.6254 -0.3855  0.8897
  322MPD2    H3 4843   4.164   2.803  13.390  2.0070 -1.2121 -1.0046
  322MPD2     N 4844   4.127   2.358  13.506 -0.2043 -0.2441  0.0703
  322MPD2    H5 4845   4.127   2.300  13.589  1.3202 -1.4243 -0.7391
  322MPD2    N1 4846   4.209   2.710  13.832 -0.1319  0.2556 -0.4747
  322MPD2    H7 4847   4.250   2.801  13.846  0.4927  0.0346 -0.8671
  323TMC3    C1 4848   4.282   2.676  14.059 -0.3445  0.2773  0.2875
  323TMC3    C2 4849   4.416   2.697  14.026  0.0229  0.3729 -0.4956
  323TMC3    C3 4850   4.516   2.653  14.117  0.4314  0.3914  0.5631
  323TMC3    C4 4851   4.247   2.616  14.176 -0.4891 -0.4557 -0.5048
  323TMC3    C5 4852   4.345   2.569  14.261 -0.1268 -0.0577 -0.1138
  323TMC3    C6 4853   4.482   2.584  14.229  1.2223  0.4659  0.6055
  323TMC3     C 4854   4.186   2.647  13.947 -0.1433 -0.6209  0.1547
  323TMC3     O 4855   4.109   2.551  13.966 -0.2760 -0.2379  0.0159
  323TMC3     H 4856   4.442   2.717  13.922 -1.5036  0.9740 -0.7743
  323TMC3    H1 4857   4.143   2.615  14.208 -1.5203 -0.1621 -3.7808
  323TMC3    H2 4858   4.560   2.548  14.294  0.8565  0.4821  1.0545
  323TMC3    C7 4859   4.309   2.503  14.381 -0.3517  0.0017  0.4144
  323TMC3    C8 4860   4.650   2.702  14.104  0.2844 -0.0780 -0.2044
  323TMC3    O1 4861   4.401   2.441  14.430 -0.5750  0.3224 -0.1255
  323TMC3    O2 4862   0.019   2.636  14.154  0.4558  0.4336 -0.0315
  324MPD2     C 4863   0.742   3.181  14.137  0.1013  0.1925 -0.6505
  324MPD2    C1 4864   0.745   3.299  14.203  0.8616  0.0112 -0.5794
  324MPD2    C2 4865   0.627   3.375  14.216  0.5579 -0.1691 -0.5574
  324MPD2    C3 4866   0.507   3.324  14.173 -0.6259  0.5605 -0.2525
  324MPD2    C4 4867   0.500   3.201  14.107  0.3732 -0.3322  0.6915
  324MPD2    C5 4868   0.617   3.134  14.097  0.2236 -0.2476  0.3600
  324MPD2     H 4869   0.644   3.466  14.273 -2.2892 -0.1202  0.2328
  324MPD2    H1 4870   0.409   3.149  14.078  0.2731  0.3567 -0.2407
  324MPD2    H2 4871   0.827   3.116  14.123  1.3955  1.8000 -0.3075
  324MPD2    H3 4872   0.611   3.026  14.090 -0.5491 -0.1194 -1.0006
  324MPD2     N 4873   0.381   3.401  14.181 -0.1364 -0.0242 -0.1459
  324MPD2    H5 4874   0.296   3.356  14.148  0.2893 -0.0054 -1.2516
  324MPD2    N1 4875   0.868   3.363  14.248 -0.4114  0.2099 -0.0561
  324MPD2    H7 4876   0.860   3.451  14.298 -0.0200 -0.3290  0.9557
  325TMC3    C1 4877   0.263   3.609  14.186 -0.0942 -0.4246  0.0376
  325TMC3    C2 4878   0.190   3.551  14.083  0.0429 -0.3246 -0.9992
  325TMC3    C3 4879   0.177   3.619  13.963 -1.2140 -0.2430  0.3517
  325TMC3    C4 4880   0.286   3.744  14.188  0.1032 -0.6921  0.3403
  325TMC3    C5 4881   0.261   3.813  14.070 -0.0928  0.1527 -0.1173
  325TMC3    C6 4882   0.204   3.754  13.959 -0.4660  0.5792 -0.1838
  325TMC3     C 4883   0.374   3.527  14.231 -0.5830  1.3751 -0.2249
  325TMC3     O 4884   0.455   3.586  14.301 -0.6773 -0.4144 -0.2004
  325TMC3     H 4885   0.168   3.445  14.083 -3.1831  0.3268 -0.1399
  325TMC3    H1 4886   0.351   3.789  14.262 -0.4311  1.6555 -0.6304
  325TMC3    H2 4887   0.197   3.808  13.866  2.7500  2.5600  0.7118
  325TMC3    C7 4888   0.318   3.946  14.063 -0.1333 -0.5101 -0.3018
  325TMC3    C8 4889   0.143   3.554  13.840 -0.0804 -0.2958 -0.2168
  325TMC3    O1 4890   0.333   3.993  13.951  0.3702 -0.3573  0.0843
  325TMC3    O2 4891   0.136   3.429  13.843 -0.9223 -0.5081 -0.1156
  326MPD2     C 4892   2.353   4.554  11.098  0.1421 -0.0659  0.5968
  326MPD2    C1 4893   2.329   4.610  10.981  0.1719  0.4305 -0.1778
  326MPD2    C2 4894   2.416   4.705  10.935  0.4820 -0.1387  0.1415
  326MPD2    C3 4895   2.519   0.029  11.015  0.4915 -0.3124  0.3201
  326MPD2    C4 4896   2.534   4.697  11.133 -0.1779  0.2770 -0.1065
  326MPD2    C5 4897   2.451   4.608  11.179 -0.4210  0.0965  0.7187
  326MPD2     H 4898   2.396   0.016  10.835 -1.0108  0.0342  0.5097
  326MPD2    H1 4899   2.617   4.718  11.199 -0.0989  1.3408 -0.5506
  326MPD2    H2 4900   2.296   4.471  11.137  0.9016 -0.2068  1.3963
  326MPD2    H3 4901   2.474   4.561  11.274  1.4266 -0.5127 -0.0399
  326MPD2     N 4902   2.617   0.120  10.970  0.2153  0.4631 -0.1232
  326MPD2    H5 4903   2.697   0.144  11.029  0.3462  0.4728 -0.3047
  326MPD2    N1 4904   2.217   4.583  10.901 -0.6652  0.2063 -0.1342
  326MPD2    H7 4905   2.216   4.630  10.811  2.8327  2.9156  1.2731
  327TMC3    C1 4906   2.050   4.455  10.806 -0.4268 -0.8539  0.2187
  327TMC3    C2 4907   1.953   4.526  10.737 -0.1378  0.1047  0.4398
  327TMC3    C3 4908   1.938   4.506  10.605 -0.3681 -0.5441  0.2847
  327TMC3    C4 4909   2.147   4.383  10.746  0.1419  0.4241  0.3568
  327TMC3    C5 4910   2.143   4.379  10.612 -0.1929  0.3122  0.3471
  327TMC3    C6 4911   2.039   4.436  10.544 -0.5540 -0.1042 -0.2039
  327TMC3     C 4912   2.106   4.510  10.924  0.1286 -0.0032  0.7377
  327TMC3     O 4913   2.069   4.451  11.022 -0.0144  0.5218 -0.4214
  327TMC3     H 4914   1.880   4.586  10.791 -0.7776 -0.1776 -0.1206
  327TMC3    H1 4915   2.226   4.330  10.798  0.1159  0.3634  0.3342
  327TMC3    H2 4916   2.042   4.430  10.436  3.5067 -0.0291 -0.0599
  327TMC3    C7 4917   2.270   4.408  10.545  0.2577  0.9774 -0.0437
  327TMC3    C8 4918   1.907   4.629  10.531  0.2289 -0.1983  0.1909
  327TMC3    O1 4919   2.254   4.442  10.429 -0.1017  0.3582  0.0322
  327TMC3    O2 4920   2.001   4.673  10.465  0.4338 -1.0171  0.3642
  328MPD2     C 4921   0.305   0.260  17.371 -0.5378 -0.9827 -0.5809
  328MPD2    C1 4922   0.192   0.293  17.304  0.1792  0.3789  0.4846
  328MPD2    C2 4923   0.146   0.425  17.309 -0.0974 -0.2138  0.0051
  328MPD2    C3 4924   0.211   0.521  17.385 -0.1251  0.0273  0.5653
  328MPD2    C4 4925   0.335   0.491  17.446 -0.3937  0.1377  0.2466
  328MPD2    C5 4926   0.378   0.359  17.439  0.0537  0.0779 -0.3561
  328MPD2     H 4927   0.059   0.453  17.251  0.9306  1.0487 -0.9263
  328MPD2    H1 4928   0.381   0.566  17.508  2.1395 -0.5795 -0.7519
  328MPD2    H2 4929   0.323   0.153  17.371 -0.7050 -1.0086 -1.2880
  328MPD2    H3 4930   0.466   0.329  17.494 -0.4722  1.3052  1.1348
  328MPD2     N 4931   0.164   0.655  17.399  0.2119 -0.0735 -0.1997
  328MPD2    H5 4932   0.220   0.719  17.455  0.2583 -0.3898  0.1165
  328MPD2    N1 4933   0.138   0.190  17.224  0.1128  0.7077 -0.1062
  328MPD2    H7 4934   0.149   0.090  17.239 -0.5976  0.5774 -0.4650
  329TMC3    C1 4935   4.700   0.087  17.088 -0.8390  0.0502  0.5971
  329TMC3    C2 4936   4.574   0.104  17.022 -0.1345  0.1681 -0.1644
  329TMC3    C3 4937   4.533   0.000  16.948  0.2312 -0.0415 -1.0118
  329TMC3    C4 4938   0.054   4.707  17.053 -0.4830 -0.3481  0.5927
  329TMC3    C5 4939   0.007   4.618  16.955  0.6501  0.4092 -0.1660
  329TMC3    C6 4940   4.607   4.621  16.903 -0.4548 -0.1647  0.4649
  329TMC3     C 4941   0.036   0.208  17.135 -0.3629 -0.0173 -0.1416
  329TMC3     O 4942   4.705   0.310  17.099 -0.3186 -0.5388 -0.3572
  329TMC3     H 4943   4.515   0.193  17.039 -1.2543 -0.1591 -2.2881
  329TMC3    H1 4944   0.144   4.686  17.109  0.1677  0.7201 -0.0483
  329TMC3    H2 4945   4.582   4.557  16.819  2.8554  0.9269 -1.4044
  329TMC3    C7 4946   0.109   4.539  16.892 -0.2604  0.2559 -0.0178
  329TMC3    C8 4947   4.384   4.703  16.939  0.3933 -0.3037  0.1518
  329TMC3    O1 4948   0.230   4.571  16.903  0.1827  0.0633 -0.6115
  329TMC3    O2 4949   4.346   4.594  16.895  0.0646 -0.2327 -0.0999
  330TMC3    C1 4950   2.730   4.374   9.329 -0.3519  0.0105 -0.2166
  330TMC3    C2 4951   2.616   4.309   9.306  0.0340  0.0587  0.0985
  330TMC3    C3 4952   2.589   4.190   9.371  0.2430 -0.1261  0.7950
  330TMC3    C4 4953   2.823   4.316   9.405  0.0468 -0.0145 -0.0207
  330TMC3    C5 4954   2.795   4.194   9.461 -0.3668 -0.1736  0.6780
  330TMC3    C6 4955   2.677   4.123   9.447  0.6689  0.5370  0.6849
  330TMC3     C 4956   2.747   4.513   9.296  0.9106  0.4657  0.3633
  330TMC3     O 4957   2.809   4.575   9.377 -0.0298 -0.0237  0.3602
  330TMC3     H 4958   2.540   4.356   9.245  0.8266 -0.3005 -1.1657
  330TMC3    H1 4959   2.921   4.360   9.417  0.0902 -0.5843  1.7572
  330TMC3    H2 4960   2.653   4.032   9.501 -0.1589  0.3631  0.0160
  330TMC3    C7 4961   2.903   4.117   9.518 -0.0893  0.4787 -0.3378
  330TMC3    C8 4962   2.450   4.151   9.367  0.2866 -0.1361 -0.2144
  330TMC3    O1 4963   2.888   3.996   9.507 -0.2777 -0.1574 -0.0523
  330TMC3    O2 4964   2.371   4.231   9.320  0.1889 -0.3662  0.7474
  331MPD2     C 4965   0.390   3.262  12.250  0.5387  0.1282 -0.8423
  331MPD2    C1 4966   0.462   3.214  12.148  0.1637  0.3621 -0.4004
  331MPD2    C2 4967   0.547   3.104  12.168  0.6189  0.5571 -0.2524
  331MPD2    C3 4968   0.556   3.045  12.289 -0.0802 -0.0391  0.9565
  331MPD2    C4 4969   0.476   3.081  12.394 -0.2787  0.4297 -0.0927
  331MPD2    C5 4970   0.391   3.194  12.370 -0.1678  0.1692 -0.4572
  331MPD2     H 4971   0.609   3.065  12.088 -0.3497 -1.1493 -0.1731
  331MPD2    H1 4972   0.494   3.056  12.498 -0.7750 -1.1631 -0.3894
  331MPD2    H2 4973   0.331   3.352  12.240  0.5556  0.0489 -1.7083
  331MPD2    H3 4974   0.332   3.231  12.453 -1.5643 -3.1605  0.0432
  331MPD2     N 4975   0.653   2.947  12.294  0.0283 -0.7586 -0.1723
  331MPD2    H5 4976   0.714   2.937  12.214  1.3376  0.9611  0.6115
  331MPD2    N1 4977   0.455   3.280  12.016 -0.0103 -0.3815  0.2369
  331MPD2    H7 4978   0.408   3.369  12.023 -0.3665 -0.6153  0.7845
  332TMC3    C1 4979   0.802   2.781  12.355 -0.3619 -0.5946 -0.2864
  332TMC3    C2 4980   0.869   2.803  12.236  0.6377 -0.1366 -0.4796
  332TMC3    C3 4981   0.965   2.706  12.205  0.5587 -0.3949  0.1503
  332TMC3    C4 4982   0.824   2.667  12.436  0.3842 -0.4266 -0.3957
  332TMC3    C5 4983   0.915   2.573  12.389 -0.1174 -0.1936  0.0041
  332TMC3    C6 4984   0.993   2.597  12.277 -0.2751 -0.6980  0.3201
  332TMC3     C 4985   0.685   2.863  12.398  0.3958  0.3524  0.4322
  332TMC3     O 4986   0.624   2.853  12.502  0.0588  0.4157 -0.2436
  332TMC3     H 4987   0.845   2.878  12.162  0.9799  1.1850  0.7677
  332TMC3    H1 4988   0.767   2.660  12.528 -0.5593  0.2393 -0.9324
  332TMC3    H2 4989   1.065   2.522  12.245 -0.4376 -0.2531 -1.0607
  332TMC3    C7 4990   0.973   2.474  12.492 -0.1436 -0.0482 -0.4378
  332TMC3    C8 4991   1.025   2.720  12.076  0.4199  0.4705  0.0481
  332TMC3    O1 4992   0.890   2.431  12.573  0.0407 -0.2879 -0.7591
  332TMC3    O2 4993   1.012   2.829  12.016  0.7693  0.4664 -0.5196
  333MPD2     C 4994   1.121   3.014  11.139 -0.3769 -0.5861 -0.4785
  333MPD2    C1 4995   1.227   2.930  11.159  1.0772 -0.0217 -0.5143
  333MPD2    C2 4996   1.207   2.819  11.245 -0.2445 -0.0685  0.2270
  333MPD2    C3 4997   1.086   2.786  11.301 -0.9305  0.0909  0.4666
  333MPD2    C4 4998   0.988   2.884  11.290 -0.6911  0.3076  0.8715
  333MPD2    C5 4999   1.007   2.995  11.217  0.3194 -0.2073 -0.2232
  333MPD2     H 5000   1.286   2.749  11.270  0.5330  0.1606 -1.6358
  333MPD2    H1 5001   0.888   2.855  11.320 -1.8656  2.6460 -0.7740
  333MPD2    H2 5002   1.125   3.109  11.087  1.6421  0.2748  1.2711
  333MPD2    H3 5003   0.928   3.068  11.224  0.7782  0.2651  0.0473
  333MPD2     N 5004   1.080   2.662  11.370 -0.0540  0.5461 -0.0501
  333MPD2    H5 5005   1.144   2.586  11.351  0.5996  1.5441 -1.9138
  333MPD2    N1 5006   1.345   2.967  11.091 -0.5127 -0.1109 -1.0148
  333MPD2    H7 5007   1.358   3.054  11.041 -0.2224  0.4550  0.0418
  334TMC3    C1 5008   1.576   2.941  11.030 -0.4000  0.2597  0.2685
  334TMC3    C2 5009   1.665   2.851  10.982  0.1652  0.1570  0.1791
  334TMC3    C3 5010   1.771   2.896  10.911 -0.2102 -0.2715  0.5639
  334TMC3    C4 5011   1.582   3.075  11.007 -0.2273  0.3262 -0.1850
  334TMC3    C5 5012   1.683   3.115  10.928  0.4531 -0.5944 -0.4553
  334TMC3    C6 5013   1.778   3.025  10.870 -0.3008 -0.6364 -0.3168
  334TMC3     C 5014   1.458   2.888  11.091 -0.2986  0.2498 -0.0249
  334TMC3     O 5015   1.465   2.768  11.119  0.2333 -0.2830 -0.0737
  334TMC3     H 5016   1.646   2.745  10.998 -0.1717  0.3314  0.9682
  334TMC3    H1 5017   1.513   3.141  11.057  0.5808  2.2276 -1.5677
  334TMC3    H2 5018   1.850   3.056  10.796 -0.0322 -0.8203 -0.1317
  334TMC3    C7 5019   1.692   3.255  10.879 -0.3895  0.0433  0.2781
  334TMC3    C8 5020   1.889   2.807  10.923 -0.5491  0.0502 -0.4081
  334TMC3    O1 5021   1.787   3.282  10.807  0.1536 -0.4961  0.9238
  334TMC3    O2 5022   1.863   2.687  10.938  0.4794 -0.4252  0.0026
  335TMC3    C1 5023   0.984   0.548  17.154 -0.0452 -0.5070 -0.7549
  335TMC3    C2 5024   0.933   0.433  17.092 -0.7664 -0.0710 -0.2783
  335TMC3    C3 5025   0.940   0.428  16.953 -0.3826 -0.6051 -0.0415
  335TMC3    C4 5026   1.038   0.650  17.088 -0.1565 -0.5589  0.3927
  335TMC3    C5 5027   1.027   0.647  16.949 -0.0481  0.9348  0.0193
  335TMC3    C6 5028   0.989   0.535  16.879  0.2327  0.3479  0.0539
  335TMC3     C 5029   0.930   0.569  17.289  0.6693  0.2900  0.1494
  335TMC3     O 5030   0.894   0.473  17.358 -0.5857  0.1960  0.2448
  335TMC3     H 5031   0.883   0.361  17.156 -1.0304 -0.5264 -1.0066
  335TMC3    H1 5032   1.068   0.743  17.133 -3.0615  1.4197 -1.7763
  335TMC3    H2 5033   0.988   0.526  16.771  1.2097 -0.4080  0.1054
  335TMC3    C7 5034   1.132   0.724  16.888  0.3779  0.1135 -0.4262
  335TMC3    C8 5035   0.966   0.304  16.894  0.3102 -0.4298  0.2959
  335TMC3    O1 5036   1.206   0.675  16.800 -0.2134 -0.1686  0.0480
  335TMC3    O2 5037   1.051   0.300  16.810 -0.2815 -0.0239 -0.3389
  336MPD2     C 5038   0.101   2.858  16.316 -0.4521 -0.7049 -0.0588
  336MPD2    C1 5039   0.141   2.770  16.223 -0.2173 -0.3436  0.2863
  336MPD2    C2 5040   0.205   2.655  16.257  0.2770 -0.4798  0.3669
  336MPD2    C3 5041   0.237   2.628  16.384  1.2404  0.1116 -0.6034
  336MPD2    C4 5042   0.202   2.725  16.473  0.2019 -0.5870 -0.1752
  336MPD2    C5 5043   0.141   2.838  16.445 -0.6956  0.1105 -0.5951
  336MPD2     H 5044   0.224   2.579  16.182  1.7045 -0.6517  0.9016
  336MPD2    H1 5045   0.228   2.712  16.578  1.2578 -1.5959 -0.5636
  336MPD2    H2 5046   0.031   2.936  16.290  1.3300  0.1588 -2.3060
  336MPD2    H3 5047   0.115   2.909  16.523  0.6326  0.9936 -0.9634
  336MPD2     N 5048   0.295   2.508  16.437  0.1390  0.0401 -0.3638
  336MPD2    H5 5049   0.311   2.502  16.537  1.7470  0.2733 -0.6078
  336MPD2    N1 5050   0.108   2.799  16.085 -0.3116  0.0674 -0.6034
  336MPD2    H7 5051   0.046   2.876  16.063  1.4867  1.3987 -0.9630
  337TMC3    C1 5052   0.076   2.767  15.861  0.2822 -0.6549  1.0697
  337TMC3    C2 5053   4.671   2.797  15.876  0.0968  0.6231 -0.3809
  337TMC3    C3 5054   4.592   2.819  15.764  0.1489  0.0865  0.1211
  337TMC3    C4 5055   0.140   2.753  15.737 -0.5476  0.2726  0.3470
  337TMC3    C5 5056   0.057   2.775  15.630 -0.2596 -0.9213  0.1352
  337TMC3    C6 5057   4.649   2.807  15.640  0.1723 -0.0256 -0.2281
  337TMC3     C 5058   0.146   2.727  15.979 -0.2498 -0.5112  0.1526
  337TMC3     O 5059   0.238   2.643  15.970  0.5314 -0.1440  0.5671
  337TMC3     H 5060   4.617   2.784  15.970 -0.3897 -0.0396 -0.7463
  337TMC3    H1 5061   0.243   2.720  15.726 -0.9252 -0.4745 -0.9419
  337TMC3    H2 5062   4.586   2.820  15.552  0.9776  1.8760 -0.5274
  337TMC3    C7 5063   0.124   2.801  15.505 -0.3829 -0.4644  0.8238
  337TMC3    C8 5064   4.451   2.817  15.782 -0.1479 -0.6195 -0.8155
  337TMC3    O1 5065   0.240   2.838  15.505 -0.4494  0.4647 -0.6798
  337TMC3    O2 5066   4.416   2.836  15.897 -0.4881  0.2544  0.2668
  338MPD2     C 5067   0.929   2.344   1.179 -0.2292 -0.4865 -0.1289
  338MPD2    C1 5068   0.826   2.360   1.090 -0.1305 -0.1510  0.5787
  338MPD2    C2 5069   0.744   2.468   1.100 -0.1452  0.4967 -0.6312
  338MPD2    C3 5070   0.751   2.558   1.208  0.6486  0.5509  0.7537
  338MPD2    C4 5071   0.856   2.535   1.302  0.2223  0.2890 -0.2708
  338MPD2    C5 5072   0.943   2.430   1.285  0.2954 -0.2056 -0.7807
  338MPD2     H 5073   0.663   2.481   1.030  1.3989  0.1981 -2.4700
  338MPD2    H1 5074   0.877   2.604   1.384  1.3119 -1.2307  0.7334
  338MPD2    H2 5075   1.001   2.263   1.183 -0.5798 -0.8309 -0.8577
  338MPD2    H3 5076   1.025   2.413   1.354 -0.6616 -1.1076  0.1196
  338MPD2     N 5077   0.653   2.657   1.217  0.0401  0.0988 -0.1496
  338MPD2    H5 5078   0.590   2.659   1.138 -2.0830  0.4822  1.5365
  338MPD2    N1 5079   0.794   2.269   0.993 -0.5217 -0.1775 -0.2490
  338MPD2    H7 5080   0.711   2.278   0.935 -0.5355  0.1906 -0.1695
  339TMC3    C1 5081   0.512   2.811   1.322 -0.3044  0.1032 -0.0921
  339TMC3    C2 5082   0.435   2.841   1.433  0.1252 -0.2785 -0.4365
  339TMC3    C3 5083   0.304   2.881   1.406  0.3604  0.3567 -0.4736
  339TMC3    C4 5084   0.479   2.844   1.195 -0.6278  0.4158  0.5182
  339TMC3    C5 5085   0.342   2.879   1.174  0.0697  0.0765  0.2571
  339TMC3    C6 5086   0.259   2.903   1.279 -0.3407 -0.6998  0.0974
  339TMC3     C 5087   0.629   2.724   1.335 -0.1472 -0.5686 -0.7545
  339TMC3     O 5088   0.675   2.701   1.445  0.6765 -0.4444 -0.0097
  339TMC3     H 5089   0.480   2.811   1.527  3.1787 -1.0963 -2.1372
  339TMC3    H1 5090   0.553   2.850   1.116 -1.0564  1.7296  0.2103
  339TMC3    H2 5091   0.153   2.899   1.257 -0.1901  0.6090 -0.8231
  339TMC3    C7 5092   0.309   2.918   1.042 -0.1419  0.0949 -0.4057
  339TMC3    C8 5093   0.199   2.865   1.498 -0.5607 -0.3360  0.3316
  339TMC3    O1 5094   0.391   2.895   0.954 -0.0386  0.4637  0.2532
  339TMC3    O2 5095   0.088   2.910   1.475  0.2914 -0.9640  0.0473
  340MPD2     C 5096   0.435   0.363   9.582 -0.1361 -0.5331 -0.2312
  340MPD2    C1 5097   0.550   0.380   9.519  0.4410 -0.2432 -0.1622
  340MPD2    C2 5098   0.657   0.420   9.598 -0.0630  0.2536 -0.2175
  340MPD2    C3 5099   0.652   0.414   9.736 -0.1460  0.4357  0.0301
  340MPD2    C4 5100   0.531   0.385   9.792  0.0221  0.7558 -0.5034
  340MPD2    C5 5101   0.420   0.359   9.717  0.3013 -0.6588  0.6867
  340MPD2     H 5102   0.746   0.447   9.543 -0.8583  2.6800 -0.2897
  340MPD2    H1 5103   0.515   0.376   9.899 -1.4006 -1.8781 -0.9605
  340MPD2    H2 5104   0.341   0.340   9.534 -0.4403 -0.6831  0.4386
  340MPD2    H3 5105   0.329   0.335   9.772 -0.1311 -0.6386 -0.0245
  340MPD2     N 5106   0.764   0.426   9.818 -0.1664 -0.0615  0.3694
  340MPD2    H5 5107   0.758   0.401   9.916  0.1667 -0.8244  0.1986
  340MPD2    N1 5108   0.560   0.359   9.376 -0.1058  0.1397 -0.2273
  340MPD2    H7 5109   0.469   0.353   9.333  0.1538 -1.5742 -0.5493
  341TMC3    C1 5110   0.677   0.284   9.177 -0.3985 -0.1875  0.0603
  341TMC3    C2 5111   0.566   0.207   9.146 -0.5057  0.0988  0.4372
  341TMC3    C3 5112   0.572   0.122   9.046  0.3908  1.1294  0.0414
  341TMC3    C4 5113   0.795   0.288   9.106  0.0320  0.3580 -0.0221
  341TMC3    C5 5114   0.795   0.188   9.016  0.3352 -0.2200 -0.1341
  341TMC3    C6 5115   0.692   0.101   8.986  1.3844 -1.0242 -0.0933
  341TMC3     C 5116   0.677   0.359   9.302  0.2280  0.4952 -0.4475
  341TMC3     O 5117   0.793   0.377   9.334  0.4998 -0.4081 -0.2172
  341TMC3     H 5118   0.480   0.206   9.212  0.6833  0.5903  2.0138
  341TMC3    H1 5119   0.882   0.347   9.130  0.5054 -0.9915  1.5824
  341TMC3    H2 5120   0.709   0.029   8.907  1.1652 -0.2983 -0.8030
  341TMC3    C7 5121   0.929   0.149   8.984 -0.3120 -0.3076  0.1147
  341TMC3    C8 5122   0.451   0.048   9.003 -0.2926  0.3165 -0.0962
  341TMC3    O1 5123   1.003   0.131   9.076 -0.0919  0.9411 -0.0402
  341TMC3    O2 5124   0.465   4.675   8.934 -0.0240  0.1844  0.2289
  342MPD2     C 5125   3.274   3.268  17.371  0.4420 -0.9772  0.5224
  342MPD2    C1 5126   3.370   3.262  17.471 -0.4772  0.6509  0.8571
  342MPD2    C2 5127   3.453   3.372  17.492 -0.2846  0.1139  0.1298
  342MPD2    C3 5128   3.428   3.491  17.428 -0.2304  0.1051  0.7557
  342MPD2    C4 5129   3.325   3.499  17.334  0.8703  0.0835  0.1309
  342MPD2    C5 5130   3.253   3.386  17.303  0.6736  0.5232 -0.0761
  342MPD2     H 5131   3.534   3.360  17.563 -0.4512 -1.8570 -0.0171
  342MPD2    H1 5132   3.315   3.592  17.280  2.9172  0.0186 -0.3361
  342MPD2    H2 5133   3.219   3.183  17.332  1.1955 -1.0061 -0.4922
  342MPD2    H3 5134   3.172   3.391  17.231 -0.5910 -2.0465  1.1671
  342MPD2     N 5135   3.498   3.615  17.450 -0.0635 -0.3393 -0.5197
  342MPD2    H5 5136   3.490   3.685  17.377 -0.2968 -0.9617 -1.0942
  342MPD2    N1 5137   3.402   3.144  17.543 -0.4510  0.2679  0.3562
  342MPD2    H7 5138   3.471   3.153  17.617 -0.8026 -0.6412  0.8022
  343TMC3    C1 5139   3.389   2.910  17.598  0.3810  0.0884  0.5385
  343TMC3    C2 5140   3.501   2.919  17.681  0.6315 -1.2977  0.5637
  343TMC3    C3 5141   3.526   2.805   0.056 -0.1327 -0.9056  0.2245
  343TMC3    C4 5142   3.314   2.802  17.595  0.7802 -0.2001  0.2709
  343TMC3    C5 5143   3.338   2.701  17.679 -0.5421  0.2303  1.1151
  343TMC3    C6 5144   3.438   2.702   0.064  0.1319 -0.0825  0.3788
  343TMC3     C 5145   3.342   3.024  17.521  0.2340  0.4862 -0.0719
  343TMC3     O 5146   3.265   2.993  17.427 -0.5036 -0.1568 -0.5009
  343TMC3     H 5147   3.579   2.994  17.668  0.2348 -1.0023 -0.1293
  343TMC3    H1 5148   3.224   2.805  17.536  0.1987 -1.7731  1.0712
  343TMC3    H2 5149   3.465   2.613   0.119  1.6465 -0.6383 -1.2697
  343TMC3    C7 5150   3.243   2.590  17.669  0.0331 -0.1138  0.0742
  343TMC3    C8 5151   3.661   2.776   0.089 -0.0235 -0.6008 -0.2728
  343TMC3    O1 5152   3.186   2.577  17.560 -0.1569 -0.8193  0.4531
  343TMC3    O2 5153   3.681   2.716   0.196 -0.5689  0.4112 -0.1182
  344MPD2     C 5154   0.157   2.089  10.560 -0.0515 -0.8643 -0.3222
  344MPD2    C1 5155   0.039   2.156  10.534 -0.0582 -0.8850 -0.4011
  344MPD2    C2 5156   0.039   2.280  10.476  0.5873 -0.1345  0.0760
  344MPD2    C3 5157   0.165   2.321  10.438 -0.3929 -0.6351  0.0088
  344MPD2    C4 5158   0.284   2.253  10.464  0.0799  0.1898  0.0101
  344MPD2    C5 5159   0.282   2.138  10.535  0.6969 -0.4874 -0.0539
  344MPD2     H 5160   4.678   2.332  10.438  1.4702  0.6251 -0.8983
  344MPD2    H1 5161   0.381   2.293  10.437 -0.4600  1.4148 -0.1133
  344MPD2    H2 5162   0.159   1.985  10.588  1.8937 -0.6891  0.2246
  344MPD2    H3 5163   0.373   2.080  10.542  2.3413  2.2643  1.2938
  344MPD2     N 5164   0.191   2.451  10.384  1.0005 -0.3409 -0.2934
  344MPD2    H5 5165   0.284   2.492  10.391 -1.0173  3.8521  1.6982
  344MPD2    N1 5166   4.639   2.094  10.565  0.3964  0.1049  0.0440
  344MPD2    H7 5167   4.554   2.135  10.527  0.3859 -0.6241 -0.7275
  345TMC3    C1 5168   0.136   2.672  10.315  0.1213 -0.1858  0.0133
  345TMC3    C2 5169   0.229   2.724  10.398 -0.0853 -0.2855 -0.4462
  345TMC3    C3 5170   0.294   2.835  10.355 -0.1039 -0.2753  0.0314
  345TMC3    C4 5171   0.110   2.729  10.195  0.4000  0.0390 -0.1600
  345TMC3    C5 5172   0.192   2.831  10.151  0.0326 -1.0636 -0.4181
  345TMC3    C6 5173   0.284   2.884  10.230  0.2010 -0.4477 -0.3693
  345TMC3     C 5174   0.098   2.536  10.327 -0.5969  0.5941  0.6798
  345TMC3     O 5175   4.712   2.507  10.282 -0.0822 -0.2881  0.4725
  345TMC3     H 5176   0.246   2.687  10.499 -0.3673 -1.2041 -0.7325
  345TMC3    H1 5177   0.027   2.701  10.131 -2.3257 -2.2395  4.3491
  345TMC3    H2 5178   0.346   2.965  10.192 -0.4050  0.7573  1.2285
  345TMC3    C7 5179   0.148   2.921  10.045  0.5414  0.7251 -0.3628
  345TMC3    C8 5180   0.363   2.910  10.459  1.0685 -0.1512 -0.2623
  345TMC3    O1 5181   0.156   3.036  10.075  0.2444  0.2665  0.0446
  345TMC3    O2 5182   0.311   2.926  10.568 -0.8620 -0.0623 -0.4076
  346MPD2     C 5183   4.629   3.909  14.027  0.0135 -0.5179 -0.2193
  346MPD2    C1 5184   4.601   4.036  13.987 -0.2304  0.4201 -0.2045
  346MPD2    C2 5185   4.560   4.124  14.090 -0.2825 -0.2656  0.4658
  346MPD2    C3 5186   4.581   4.095  14.223 -0.0232  0.5892 -0.0776
  346MPD2    C4 5187   4.601   3.965  14.263  0.5799 -0.3559 -0.2779
  346MPD2    C5 5188   4.617   3.873  14.164 -0.2899  0.3781  0.0408
  346MPD2     H 5189   4.525   4.223  14.065 -0.4915 -0.3836  0.2988
  346MPD2    H1 5190   4.608   3.933  14.367 -0.1193 -0.3731 -0.2353
  346MPD2    H2 5191   4.660   3.831  13.958  3.5765 -1.3726  2.3970
  346MPD2    H3 5192   4.624   3.768  14.190 -2.0955  0.3552  0.4454
  346MPD2     N 5193   4.574   4.203  14.312 -0.2301 -0.3189 -0.5021
  346MPD2    H5 5194   4.570   4.299  14.278 -1.5567 -0.4992 -0.8413
  346MPD2    N1 5195   4.602   4.074  13.850 -0.3374 -0.2236  0.2281
  346MPD2    H7 5196   4.568   4.167  13.826 -1.3019 -0.2980  1.3336
  347TMC3    C1 5197   4.582   4.322  14.525 -0.6357  0.9122 -0.4775
  347TMC3    C2 5198   4.698   4.386  14.485  0.4487  0.1546 -0.8355
  347TMC3    C3 5199   0.067   4.423  14.580 -0.1975  0.2945 -0.0900
  347TMC3    C4 5200   4.566   4.290  14.659  0.2242 -0.4104 -0.0583
  347TMC3    C5 5201   4.656   4.332  14.755  0.6210 -0.6924  0.2645
  347TMC3    C6 5202   0.050   4.387  14.714  0.4515 -0.4217 -0.4445
  347TMC3     C 5203   4.565   4.192  14.449 -0.4469 -0.1538  0.1908
  347TMC3     O 5204   4.557   4.096  14.518  0.1194  0.6099  0.4813
  347TMC3     H 5205   4.724   4.379  14.380 -1.0254  1.4954 -1.2836
  347TMC3    H1 5206   4.465   4.258  14.682 -0.5162  1.1547 -1.1103
  347TMC3    H2 5207   0.130   4.409  14.782 -0.3318 -1.2716  0.7504
  347TMC3    C7 5208   4.650   4.276  14.889 -0.0486 -0.3420 -0.5411
  347TMC3    C8 5209   0.193   4.368  14.547  0.3244  0.1501 -0.2795
  347TMC3    O1 5210   4.722   4.331  14.970 -0.2215  0.0583  0.2801
  347TMC3    O2 5211   0.231   4.265  14.609  0.0371 -0.1428 -0.8360
  348MPD2     C 5212   3.273   3.494  12.097  0.0603 -0.1870 -0.7293
  348MPD2    C1 5213   3.359   3.594  12.139 -0.5637 -0.5188  0.1812
  348MPD2    C2 5214   3.358   3.712  12.067  0.0696 -0.1605  0.1438
  348MPD2    C3 5215   3.268   3.740  11.967 -0.6661  0.3817  0.1841
  348MPD2    C4 5216   3.188   3.635  11.924 -0.5833 -0.5432 -0.0665
  348MPD2    C5 5217   3.190   3.516  11.990  0.0803 -0.4099  0.2642
  348MPD2     H 5218   3.436   3.781  12.100  0.5150  0.4071 -2.0754
  348MPD2    H1 5219   3.134   3.651  11.831 -0.4985 -0.6896 -0.1409
  348MPD2    H2 5220   3.258   3.400  12.150 -0.9557  0.0640 -0.5631
  348MPD2    H3 5221   3.129   3.438  11.946 -1.7889  1.7504 -0.9335
  348MPD2     N 5222   3.284   3.860  11.887  0.7215 -0.4813 -0.4776
  348MPD2    H5 5223   3.373   3.909  11.879 -0.1915  1.2244 -0.2189
  348MPD2    N1 5224   3.444   3.575  12.250 -0.4740 -0.3344 -0.7641
  348MPD2    H7 5225   3.515   3.644  12.271 -0.7155 -0.1654 -0.4911
  349TMC3    C1 5226   3.589   3.444  12.375  0.3634  0.7814 -0.1297
  349TMC3    C2 5227   3.627   3.319  12.396  0.6549  0.2685 -0.4953
  349TMC3    C3 5228   3.761   3.304  12.414 -0.2607  0.3057 -0.0059
  349TMC3    C4 5229   3.672   3.549  12.369  0.1587 -0.0681 -0.4066
  349TMC3    C5 5230   3.809   3.520  12.359  0.5477  0.5213 -0.0117
  349TMC3    C6 5231   3.858   3.398  12.401 -0.0963 -0.8191  0.1113
  349TMC3     C 5232   3.457   3.459  12.321 -0.5646 -0.5484  0.8689
  349TMC3     O 5233   3.387   3.357  12.320 -0.0755 -0.5993 -0.3716
  349TMC3     H 5234   3.558   3.235  12.394  0.6117  0.3175 -1.0456
  349TMC3    H1 5235   3.651   3.656  12.374  1.3037  0.1650 -0.7029
  349TMC3    H2 5236   3.962   3.380  12.425 -0.0813 -2.3777 -1.0935
  349TMC3    C7 5237   3.901   3.635  12.377 -0.1915  0.4115 -0.0749
  349TMC3    C8 5238   3.807   3.165  12.420 -0.6857 -0.4762 -0.5695
  349TMC3    O1 5239   3.984   3.619  12.465 -0.1247  0.1393 -0.2658
  349TMC3    O2 5240   3.732   3.075  12.462 -0.6584 -0.3419 -0.6459
  350MPD2     C 5241   2.710   2.036   9.321 -0.7931  0.0423  0.5223
  350MPD2    C1 5242   2.713   1.949   9.432 -0.2755  0.2850  0.0945
  350MPD2    C2 5243   2.826   1.956   9.512 -0.6670  0.1221 -0.0443
  350MPD2    C3 5244   2.923   2.046   9.483  0.3929  0.2564  0.2393
  350MPD2    C4 5245   2.912   2.139   9.383  0.4758  0.0818  1.0267
  350MPD2    C5 5246   2.804   2.137   9.307  0.7826 -0.6249  0.3902
  350MPD2     H 5247   2.827   1.888   9.596  0.3442 -1.9379 -1.7065
  350MPD2    H1 5248   2.981   2.223   9.376  0.2089  0.0747 -1.7164
  350MPD2    H2 5249   2.626   2.045   9.253  0.2143 -0.5213 -0.8093
  350MPD2    H3 5250   2.794   2.206   9.224  0.8969  1.0983  1.8103
  350MPD2     N 5251   3.033   2.030   9.572  0.0767  0.6334  0.4436
  350MPD2    H5 5252   3.014   1.978   9.657 -0.4911  0.8843  0.4634
  350MPD2    N1 5253   2.605   1.866   9.473  0.1972 -1.1998 -0.2070
  350MPD2    H7 5254   2.610   1.815   9.560  0.3624  1.2974  1.2305
  351TMC3    C1 5255   2.405   1.743   9.431  0.2983  1.0537  0.2072
  351TMC3    C2 5256   2.475   1.629   9.475  0.8749  0.5719 -0.0019
  351TMC3    C3 5257   2.400   1.516   9.475 -0.3527  0.4629  0.7642
  351TMC3    C4 5258   2.271   1.746   9.412 -0.1440 -0.2967  0.3839
  351TMC3    C5 5259   2.206   1.635   9.411  0.0541  0.4177  0.7904
  351TMC3    C6 5260   2.269   1.513   9.436 -0.1760 -0.0015 -0.4444
  351TMC3     C 5261   2.481   1.865   9.408  0.3759 -0.2939  0.4351
  351TMC3     O 5262   2.430   1.947   9.331  0.0355  0.6814  0.2339
  351TMC3     H 5263   2.583   1.631   9.462  0.9593 -2.0064  0.3646
  351TMC3    H1 5264   2.232   1.841   9.378  2.7276  0.1698 -1.5839
  351TMC3    H2 5265   2.209   1.423   9.425 -0.8806  0.5676 -1.2432
  351TMC3    C7 5266   2.061   1.633   9.374  0.0919  0.2654  0.3313
  351TMC3    C8 5267   2.470   1.396   9.514 -0.2240 -0.1365  0.1952
  351TMC3    O1 5268   2.018   1.729   9.316  0.1831  0.7031  0.2620
  351TMC3    O2 5269   2.591   1.415   9.534 -0.3028 -0.0861  0.0430
  352MPD2     C 5270   1.245   4.084   1.497 -0.5593 -0.2981  1.1231
  352MPD2    C1 5271   1.149   4.018   1.423 -0.3570  0.1093 -0.0480
  352MPD2    C2 5272   1.122   3.884   1.453 -0.4835  0.9063  0.7158
  352MPD2    C3 5273   1.204   3.809   1.541  0.1477  0.0642  0.2614
  352MPD2    C4 5274   1.318   3.873   1.595  0.4442 -0.0770  0.0510
  352MPD2    C5 5275   1.325   4.011   1.584  0.5978  0.3340  0.2568
  352MPD2     H 5276   1.043   3.842   1.392 -0.6496 -2.6810  3.4430
  352MPD2    H1 5277   1.383   3.821   1.664 -1.7343 -1.0581  1.3585
  352MPD2    H2 5278   1.266   4.189   1.477  1.6058 -0.6375  1.5463
  352MPD2    H3 5279   1.398   4.069   1.638  0.0598  0.1659  1.1680
  352MPD2     N 5280   1.189   3.670   1.559  0.0344 -0.1814 -0.3182
  352MPD2    H5 5281   1.246   3.626   1.631 -0.2008 -0.3783 -0.2532
  352MPD2    N1 5282   1.081   4.100   1.328 -0.8711 -0.6842 -0.4936
  352MPD2    H7 5283   1.111   4.195   1.310  1.8899 -1.6181 -0.8864
  353TMC3    C1 5284   1.092   3.456   1.566  0.5262  0.7574  0.4125
  353TMC3    C2 5285   1.215   3.390   1.571  0.7341  0.3428 -0.1902
  353TMC3    C3 5286   1.216   3.252   1.563  0.5337  0.4261  0.2715
  353TMC3    C4 5287   0.973   3.390   1.537  0.0213  1.1000 -0.2557
  353TMC3    C5 5288   0.978   3.254   1.524  0.0418  0.1910  0.3972
  353TMC3    C6 5289   1.100   3.187   1.531  0.1084  0.3258 -0.5650
  353TMC3     C 5290   1.095   3.589   1.501 -0.5155 -0.1598 -0.1538
  353TMC3     O 5291   1.015   3.606   1.411 -0.2204 -0.0877 -0.1336
  353TMC3     H 5292   1.309   3.443   1.567  0.6331  0.7393  2.5067
  353TMC3    H1 5293   0.881   3.445   1.524 -1.2282 -1.1320 -0.7577
  353TMC3    H2 5294   1.106   3.080   1.522 -3.1263  0.1168 -0.2030
  353TMC3    C7 5295   0.872   3.182   1.451 -0.1945 -0.3505 -0.1470
  353TMC3    C8 5296   1.338   3.181   1.551 -0.6247  0.3977  0.2563
  353TMC3    O1 5297   0.905   3.095   1.374  0.4932  0.5173  0.3806
  353TMC3    O2 5298   1.441   3.233   1.582 -0.3010  0.1629  0.1774
  354TMC3    C1 5299   2.039   4.403  12.867  0.0784  1.1953  0.3811
  354TMC3    C2 5300   2.045   4.519  12.936 -1.3763 -0.1577 -0.2658
  354TMC3    C3 5301   2.163   4.571  12.987 -0.5010  0.4051  0.2995
  354TMC3    C4 5302   2.153   4.337  12.838 -0.2819 -0.2200 -0.5069
  354TMC3    C5 5303   2.267   4.403  12.870 -0.1843 -0.1087  0.2477
  354TMC3    C6 5304   2.282   4.514  12.945 -0.6281 -0.9643  0.0499
  354TMC3     C 5305   1.921   4.320  12.858  0.8228  0.6584 -0.1756
  354TMC3     O 5306   1.933   4.207  12.820 -0.1422  0.0234 -0.0605
  354TMC3     H 5307   1.950   4.570  12.950 -0.4342  1.6869 -0.6542
  354TMC3    H1 5308   2.160   4.253  12.770 -0.8044 -1.4827  0.9726
  354TMC3    H2 5309   2.378   4.551  12.979 -0.7542 -0.1403 -0.4879
  354TMC3    C7 5310   2.389   4.331  12.821 -0.0914  0.5336 -0.4450
  354TMC3    C8 5311   2.161   4.712  12.968  0.2443 -0.0658  0.6113
  354TMC3    O1 5312   2.382   4.208  12.850  0.5313  0.0906  0.7124
  354TMC3    O2 5313   2.065   0.033  12.909  0.7259 -0.1101  0.3793
  355MPD2     C 5314   2.693   0.992  11.929  0.3314  0.1731 -1.0634
  355MPD2    C1 5315   2.678   1.025  11.798 -0.2650  0.0631  0.0872
  355MPD2    C2 5316   2.796   1.076  11.739 -0.2642  0.2662 -0.0436
  355MPD2    C3 5317   2.911   1.093  11.811  0.3155  0.7902  0.0853
  355MPD2    C4 5318   2.918   1.063  11.939  0.2068  0.0878 -0.4702
  355MPD2    C5 5319   2.807   1.012  11.993 -0.3513 -0.4670  0.0034
  355MPD2     H 5320   2.791   1.101  11.634 -1.7684  0.9555  0.1813
  355MPD2    H1 5321   3.010   1.085  11.992  0.9065 -1.5878 -0.9886
  355MPD2    H2 5322   2.605   0.951  11.977  0.4001 -0.2767 -1.3242
  355MPD2    H3 5323   2.816   0.979  12.096  0.8736 -2.3369 -0.7002
  355MPD2     N 5324   3.015   1.163  11.750  0.1298  0.3458  0.4870
  355MPD2    H5 5325   3.086   1.200  11.812  0.5984 -1.4113  0.9727
  355MPD2    N1 5326   2.553   1.003  11.738  0.1012 -0.2595 -0.3514
  355MPD2    H7 5327   2.487   0.950  11.795 -1.1544  1.3456 -0.3152
  356TMC3    C1 5328   3.137   1.304  11.595  0.7208  0.7201 -0.2271
  356TMC3    C2 5329   3.201   1.313  11.475  0.4489  0.2216  0.0422
  356TMC3    C3 5330   3.269   1.429  11.455 -0.3040 -0.4420  0.8576
  356TMC3    C4 5331   3.142   1.403  11.691  0.0844  0.0059 -0.7738
  356TMC3    C5 5332   3.211   1.525  11.657 -0.0649  0.0427  0.0376
  356TMC3    C6 5333   3.279   1.534  11.542  0.4403 -0.2699  0.2083
  356TMC3     C 5334   3.047   1.192  11.612 -0.1936  0.4197  0.4066
  356TMC3     O 5335   2.990   1.150  11.512 -0.5309 -0.3755  0.1070
  356TMC3     H 5336   3.187   1.245  11.392 -2.3405 -0.6455  1.2148
  356TMC3    H1 5337   3.073   1.392  11.773  2.4314  0.0799  1.1949
  356TMC3    H2 5338   3.326   1.629  11.520 -0.1933 -0.2226 -0.9678
  356TMC3    C7 5339   3.199   1.632  11.750  0.3674  0.0180  0.4111
  356TMC3    C8 5340   3.285   1.471  11.317 -0.2700 -0.6180  0.2912
  356TMC3    O1 5341   3.112   1.616  11.836 -0.0095 -0.1770  0.2291
  356TMC3    O2 5342   3.211   1.429  11.230 -0.0614  0.5230  0.1496
  357MPD2     C 5343   3.144   0.833   1.804 -0.0105  0.3992 -0.7107
  357MPD2    C1 5344   3.069   0.835   1.693 -0.2231 -0.3941 -0.0802
  357MPD2    C2 5345   2.970   0.933   1.686 -0.9061  0.7094  0.3168
  357MPD2    C3 5346   2.943   1.018   1.796 -0.2669 -0.4990 -0.5701
  357MPD2    C4 5347   3.020   1.004   1.907 -0.2149 -0.0101  0.2735
  357MPD2    C5 5348   3.123   0.911   1.910 -0.4793  0.3071 -0.4745
  357MPD2     H 5349   2.910   0.941   1.596  1.4111 -1.3065 -1.3787
  357MPD2    H1 5350   3.002   1.063   1.995 -2.1647  1.1076 -0.8579
  357MPD2    H2 5351   3.218   0.755   1.821 -0.3399  0.5943  1.7106
  357MPD2    H3 5352   3.178   0.893   2.002 -2.3783 -0.8642  0.4373
  357MPD2     N 5353   2.826   1.099   1.791 -0.1509  0.1758 -0.0934
  357MPD2    H5 5354   2.753   1.082   1.722 -1.3226 -1.0535  1.4500
  357MPD2    N1 5355   3.103   0.745   1.587  0.1127 -0.7841  0.3098
  357MPD2    H7 5356   3.181   0.683   1.607 -0.1510 -0.8565  1.0866
  358TMC3    C1 5357   3.086   0.618   1.393  0.7308 -0.1740 -0.5521
  358TMC3    C2 5358   2.993   0.589   1.294  0.1305 -0.4393 -0.4682
  358TMC3    C3 5359   3.038   0.572   1.170 -0.2366 -0.4842  0.6365
  358TMC3    C4 5360   3.220   0.625   1.362 -0.0588 -0.1620 -0.3553
  358TMC3    C5 5361   3.257   0.601   1.239  0.2984  0.3442  0.1145
  358TMC3    C6 5362   3.169   0.558   1.142  0.2199 -0.6045 -0.7314
  358TMC3     C 5363   3.037   0.730   1.468 -0.2432 -0.6399  0.4200
  358TMC3     O 5364   2.923   0.762   1.439 -0.5433 -0.1853 -0.4907
  358TMC3     H 5365   2.889   0.563   1.315  0.5437  0.0684  2.1215
  358TMC3    H1 5366   3.295   0.654   1.434 -1.6518  0.0872  1.2062
  358TMC3    H2 5367   3.199   0.553   1.038 -1.3047  1.4317 -1.2587
  358TMC3    C7 5368   3.399   0.634   1.210  0.0756  0.1045  0.0303
  358TMC3    C8 5369   2.943   0.630   1.076 -0.5072  0.0595 -0.0182
  358TMC3    O1 5370   3.468   0.690   1.292  0.3427 -0.2764 -0.0563
  358TMC3    O2 5371   2.955   0.598   0.958 -0.1032 -0.7417 -0.3798
  359MPD2     C 5372   2.685   4.695  12.267 -0.2530  0.7221 -0.3621
  359MPD2    C1 5373   2.789   4.612  12.275  0.0558 -0.3596  0.5023
  359MPD2    C2 5374   2.774   4.490  12.345  0.0339  0.3806  0.3943
  359MPD2    C3 5375   2.649   4.446  12.384  0.5878  0.3319 -0.8733
  359MPD2    C4 5376   2.538   4.526  12.355 -1.0896 -0.1168  0.4647
  359MPD2    C5 5377   2.560   4.647  12.298 -0.1968  0.3447 -0.2739
  359MPD2     H 5378   2.867   4.437  12.361  0.1093  0.3577 -0.1049
  359MPD2    H1 5379   2.439   4.497  12.389 -1.5809 -1.5328 -2.1527
  359MPD2    H2 5380   2.697   0.066  12.219  1.3545  0.5217 -0.3469
  359MPD2    H3 5381   2.473   4.711  12.286  0.4596  1.2425 -0.2327
  359MPD2     N 5382   2.627   4.321  12.444 -0.0456  0.3681  0.0117
  359MPD2    H5 5383   2.530   4.293  12.454  0.0624  0.1377  0.4188
  359MPD2    N1 5384   2.920   4.638  12.231 -0.8719  0.4448 -0.1866
  359MPD2    H7 5385   3.001   4.578  12.236 -0.8914  0.6065  1.9467
  360TMC3    C1 5386   3.074   0.015  12.087  0.2106 -0.0960 -0.3913
  360TMC3    C2 5387   3.139   0.127  12.059 -0.0999 -0.4597  0.6967
  360TMC3    C3 5388   3.257   0.113  11.995 -0.4699  0.2398  1.1883
  360TMC3    C4 5389   3.098   4.619  12.030 -0.2625 -0.3308  0.3273
  360TMC3    C5 5390   3.217   4.607  11.957  0.4516 -0.2526  0.6657
  360TMC3    C6 5391   3.292   4.720  11.937 -0.1802 -0.1768  0.7973
  360TMC3     C 5392   2.951   0.031  12.168 -0.0967  1.0749 -0.5357
  360TMC3     O 5393   2.897   0.139  12.182  0.4835  0.5578  0.9529
  360TMC3     H 5394   3.119   0.223  12.106 -2.1008 -0.1060 -0.8464
  360TMC3    H1 5395   3.012   4.554  12.024 -1.5187  1.2523  1.3994
  360TMC3    H2 5396   3.376   4.706  11.870 -0.6010  0.9067  0.0442
  360TMC3    C7 5397   3.206   4.524  11.832 -0.0007  0.4910  0.8605
  360TMC3    C8 5398   3.341   0.231  11.956  1.1811 -0.1742  0.0992
  360TMC3    O1 5399   3.227   4.585  11.727  0.9910  0.0598  0.3413
  360TMC3    O2 5400   3.293   0.343  11.950 -0.0357 -0.4871 -0.2263
  361MPD2     C 5401   4.297   3.494  16.661  0.1794  1.2044 -0.3713
  361MPD2    C1 5402   4.309   3.578  16.774 -0.4210 -0.1218 -0.6955
  361MPD2    C2 5403   4.421   3.562  16.861  0.5602 -0.0903  0.6697
  361MPD2    C3 5404   4.509   3.456  16.839 -0.0480 -0.2541  0.9060
  361MPD2    C4 5405   4.487   3.374  16.733  0.2267 -0.9233 -0.9718
  361MPD2    C5 5406   4.383   3.394  16.650  0.0867  0.0873 -0.0558
  361MPD2     H 5407   4.429   3.622  16.950 -0.5642 -1.0680  1.4266
  361MPD2    H1 5408   4.548   3.287  16.711  0.2688 -1.1602  0.0835
  361MPD2    H2 5409   4.219   3.498  16.586  0.4621 -0.0010 -0.7227
  361MPD2    H3 5410   4.370   3.332  16.561  0.3965  0.9872 -0.7232
  361MPD2     N 5411   4.629   3.435  16.908  0.0351  1.1012 -0.5648
  361MPD2    H5 5412   4.683   3.353  16.885  2.0577  2.5327 -0.9416
  361MPD2    N1 5413   4.219   3.678  16.806 -0.4429 -0.0617  0.6557
  361MPD2    H7 5414   4.233   3.729  16.893 -0.2043  2.3098 -0.7616
  362TMC3    C1 5415   4.093   3.872  16.762  0.2518  0.6694  0.1983
  362TMC3    C2 5416   4.042   3.887  16.888 -0.3572 -0.1367  0.2055
  362TMC3    C3 5417   3.968   3.996  16.916  0.0930 -0.4941 -0.3841
  362TMC3    C4 5418   4.086   3.983  16.673 -0.5285 -0.4240  0.0796
  362TMC3    C5 5419   4.012   4.098  16.707  0.2497 -0.3465 -0.3456
  362TMC3    C6 5420   3.956   4.103  16.832 -0.0940 -0.4450  0.1931
  362TMC3     C 5421   4.142   3.743  16.714  0.4604 -0.8219  0.0260
  362TMC3     O 5422   4.144   3.726  16.591 -0.0864 -1.0131  0.3676
  362TMC3     H 5423   4.023   3.807  16.960  1.9595 -1.0467 -0.1958
  362TMC3    H1 5424   4.117   3.966  16.570  0.1243 -1.4479  0.4432
  362TMC3    H2 5425   3.908   4.196  16.859 -0.3136 -0.8350  1.1409
  362TMC3    C7 5426   4.038   4.232  16.645  0.2102 -0.2289 -0.3079
  362TMC3    C8 5427   3.956   4.019  17.058  0.1382  0.5225 -0.6134
  362TMC3    O1 5428   3.948   4.312  16.661  0.0898  0.1370  0.0507
  362TMC3    O2 5429   4.044   3.974  17.127 -0.0038 -0.6758 -0.0926
  363TMC3    C1 5430   3.669   1.400   9.780 -0.7739  0.0045  0.3994
  363TMC3    C2 5431   3.710   1.279   9.826 -0.9609  0.0364  0.2819
  363TMC3    C3 5432   3.628   1.169   9.814  0.3654  0.4254  0.2884
  363TMC3    C4 5433   3.553   1.412   9.712 -0.8794  0.5083  0.5143
  363TMC3    C5 5434   3.470   1.302   9.708  0.4869  0.2560  0.5554
  363TMC3    C6 5435   3.507   1.182   9.758 -0.3318  0.2519 -0.0588
  363TMC3     C 5436   3.764   1.513   9.774  0.3454 -0.6149  0.9767
  363TMC3     O 5437   3.743   1.605   9.695  0.6259 -0.6070  0.0298
  363TMC3     H 5438   3.815   1.266   9.846 -0.3874  1.2709 -1.9675
  363TMC3    H1 5439   3.536   1.508   9.665  0.7711  1.2135  1.3568
  363TMC3    H2 5440   3.434   1.103   9.768  2.6900 -2.2363  2.4617
  363TMC3    C7 5441   3.333   1.314   9.676  0.3887  0.1631  0.5884
  363TMC3    C8 5442   3.675   1.035   9.855 -0.1964 -0.9774  0.0202
  363TMC3    O1 5443   3.260   1.217   9.682 -0.0206  0.0043 -0.0074
  363TMC3    O2 5444   3.612   0.937   9.833 -0.5706  0.0324 -0.5973
  364MPD2     C 5445   1.636   0.341  10.475 -0.1928 -0.5926 -0.1747
  364MPD2    C1 5446   1.759   0.305  10.419 -0.6178  0.1549 -0.3938
  364MPD2    C2 5447   1.813   0.177  10.453  0.4058  0.2498  0.3546
  364MPD2    C3 5448   1.747   0.090  10.535 -0.6858  1.3544 -0.5201
  364MPD2    C4 5449   1.625   0.127  10.586 -0.2384  0.2398 -0.6187
  364MPD2    C5 5450   1.575   0.250  10.556  0.2467  0.0006 -0.1055
  364MPD2     H 5451   1.913   0.165  10.414  0.4748  1.7786  0.0589
  364MPD2    H1 5452   1.561   0.062  10.644 -2.6720  2.1123 -1.2293
  364MPD2    H2 5453   1.593   0.438  10.453 -0.9217 -0.8369  0.1690
  364MPD2    H3 5454   1.478   0.272  10.599  1.0872  1.4202  1.0494
  364MPD2     N 5455   1.790   4.685  10.570  0.0953  0.6835 -0.2972
  364MPD2    H5 5456   1.730   4.626  10.626  1.3791 -0.5345 -0.2091
  364MPD2    N1 5457   1.824   0.399  10.341  0.4068 -0.1682  0.1898
  364MPD2    H7 5458   1.772   0.483  10.318  0.7676  0.3866  1.4272
  365TMC3    C1 5459   2.003   0.502  10.238  0.1604 -0.3466 -0.2793
  365TMC3    C2 5460   2.088   0.474  10.134  0.0999  1.1395 -0.0990
  365TMC3    C3 5461   2.181   0.562  10.084 -0.0488  0.0354 -0.0917
  365TMC3    C4 5462   2.026   0.620  10.308  0.7855 -0.2375 -0.0773
  365TMC3    C5 5463   2.129   0.703  10.261  0.5398 -1.1885  0.2422
  365TMC3    C6 5464   2.207   0.675  10.153 -0.3583  0.3426  0.3682
  365TMC3     C 5465   1.955   0.379  10.298  0.4872  0.4150 -0.2030
  365TMC3     O 5466   2.029   0.286  10.282 -1.1288  0.1492 -0.0966
  365TMC3     H 5467   2.059   0.391  10.069 -0.4817 -0.7674  2.6049
  365TMC3    H1 5468   1.981   0.640  10.405 -0.7518 -0.8460 -0.6758
  365TMC3    H2 5469   2.288   0.743  10.129 -0.5663  0.9727  1.4416
  365TMC3    C7 5470   2.137   0.843  10.311 -0.2259  0.1630  0.2020
  365TMC3    C8 5471   2.305   0.495  10.043  0.5624  0.6862  0.3369
  365TMC3    O1 5472   2.186   0.918  10.226  1.0565  0.2776 -0.2812
  365TMC3    O2 5473   2.397   0.571  10.011  0.5932  0.0957  0.2505
  366MPD2     C 5474   0.175   1.232  15.572  0.0822 -0.0489  0.3982
  366MPD2    C1 5475   0.134   1.357  15.529  0.1245  0.3058 -0.4030
  366MPD2    C2 5476   0.231   1.431  15.474  0.3795  0.6482 -0.2610
  366MPD2    C3 5477   0.366   1.395  15.475 -0.1576  0.2141  0.7639
  366MPD2    C4 5478   0.409   1.263  15.507 -0.3203  0.0135  0.7652
  366MPD2    C5 5479   0.309   1.181  15.556  0.0313  0.5754 -0.4801
  366MPD2     H 5480   0.222   1.537  15.453 -1.3743  0.9335  2.0007
  366MPD2    H1 5481   0.510   1.231  15.484 -1.2549 -2.7131  0.5678
  366MPD2    H2 5482   0.099   1.165  15.612 -0.7987  1.0137  0.5032
  366MPD2    H3 5483   0.328   1.076  15.574 -1.5384  0.2071 -0.9813
  366MPD2     N 5484   0.460   1.495  15.446 -0.5267  0.2576  0.3984
  366MPD2    H5 5485   0.429   1.588  15.418  0.0440  0.2888 -0.1149
  366MPD2    N1 5486   4.725   1.393  15.565  0.1456  0.3387 -0.7618
  366MPD2    H7 5487   4.667   1.326  15.612  0.7070  0.3345 -0.0721
  367TMC3    C1 5488   0.001   1.624  15.480 -0.2902  0.3306 -0.3303
  367TMC3    C2 5489   0.071   1.690  15.569  0.4870 -0.2164  0.7124
  367TMC3    C3 5490   0.073   1.829  15.560  0.7809 -0.6984  0.3378
  367TMC3    C4 5491   4.646   1.685  15.387 -0.3994 -0.5989  0.6792
  367TMC3    C5 5492   4.653   1.820  15.379  0.4004  0.0582 -0.3184
  367TMC3    C6 5493   0.011   1.895  15.463  1.0464 -0.1756 -0.0287
  367TMC3     C 5494   4.655   1.510  15.535  0.5894 -0.4131  0.2476
  367TMC3     O 5495   4.544   1.536  15.579 -0.1714  0.3171 -0.7348
  367TMC3     H 5496   0.106   1.644  15.661  2.0478  1.9985  1.2189
  367TMC3    H1 5497   4.577   1.626  15.328 -1.2366 -1.4674  2.5294
  367TMC3    H2 5498   0.003   2.002  15.450 -0.7466 -0.0618  2.0762
  367TMC3    C7 5499   4.557   1.884  15.294 -0.2870  0.3253 -0.1779
  367TMC3    C8 5500   0.162   1.900  15.654 -0.6686  0.3063  0.4370
  367TMC3    O1 5501   4.532   2.001  15.308  0.0470  0.5343  0.5973
  367TMC3    O2 5502   0.243   1.832  15.713 -0.4521  0.4175 -0.5617
  368MPD2     C 5503   1.268   3.080  12.684  0.7027 -0.4640 -0.0649
  368MPD2    C1 5504   1.259   3.179  12.589  0.4116  0.3693 -0.4495
  368MPD2    C2 5505   1.375   3.247  12.551 -0.4393  0.5155  0.3913
  368MPD2    C3 5506   1.495   3.214  12.605 -0.3882 -0.4354 -0.3079
  368MPD2    C4 5507   1.502   3.122  12.700  0.5892  0.4317 -0.5809
  368MPD2    C5 5508   1.390   3.055  12.740  0.2070 -0.1373 -0.2726
  368MPD2     H 5509   1.371   3.331  12.482  0.3121 -1.1599 -1.6785
  368MPD2    H1 5510   1.596   3.085  12.741  0.2094 -0.4529 -0.4983
  368MPD2    H2 5511   1.178   3.043  12.732 -0.8761 -0.0391 -2.6895
  368MPD2    H3 5512   1.408   2.990  12.825  2.7279  1.0075  0.0636
  368MPD2     N 5513   1.623   3.274  12.574 -0.4351 -0.1961 -0.4971
  368MPD2    H5 5514   1.704   3.231  12.616 -2.8083 -2.2525  1.9158
  368MPD2    N1 5515   1.133   3.187  12.537 -0.1163  0.3820  0.6896
  368MPD2    H7 5516   1.061   3.134  12.585 -0.9535  0.8244 -0.0723
  369TMC3    C1 5517   0.958   3.299  12.410 -0.1797 -0.3903  0.6025
  369TMC3    C2 5518   0.940   3.393  12.308 -0.1951  0.2302  0.3355
  369TMC3    C3 5519   0.858   3.496  12.335 -0.4365 -1.0333  0.5590
  369TMC3    C4 5520   0.863   3.264  12.503  0.3533 -0.2969 -0.3662
  369TMC3    C5 5521   0.767   3.364  12.516 -0.0912 -0.5725  0.6056
  369TMC3    C6 5522   0.765   3.480  12.433  0.2752 -0.1219  0.0337
  369TMC3     C 5523   1.099   3.264  12.433 -0.2201 -1.1030  0.8114
  369TMC3     O 5524   1.176   3.321  12.360  0.4683 -0.0673  0.2453
  369TMC3     H 5525   1.013   3.401  12.228 -0.3211 -0.0772  0.1898
  369TMC3    H1 5526   0.880   3.191  12.581  1.3257  1.2099  0.8109
  369TMC3    H2 5527   0.705   3.566  12.459  0.9498  0.2990  0.1869
  369TMC3    C7 5528   0.652   3.341  12.605  0.7051  0.4213 -0.2333
  369TMC3    C8 5529   0.925   3.618  12.334  0.8367 -0.8198  0.2701
  369TMC3    O1 5530   0.675   3.260  12.695 -0.3470 -0.7976  0.5072
  369TMC3    O2 5531   0.860   3.719  12.308  0.1151 -0.2321 -0.3217
  370TMC3    C1 5532   0.856   4.210  16.385  0.2294 -0.1116  0.3352
  370TMC3    C2 5533   0.776   4.169  16.488 -0.0650  0.1080  0.0820
  370TMC3    C3 5534   0.696   4.064  16.461 -0.0377  1.1314 -0.3648
  370TMC3    C4 5535   0.853   4.150  16.263 -0.0530  0.1396 -0.2245
  370TMC3    C5 5536   0.766   4.054  16.244 -0.1587 -0.1155  0.2505
  370TMC3    C6 5537   0.681   4.008  16.340  0.3389 -0.0997  0.5977
  370TMC3     C 5538   0.935   4.328  16.419  0.4580 -0.2873 -0.2679
  370TMC3     O 5539   0.985   4.342  16.530 -0.3643 -0.2333 -0.0273
  370TMC3     H 5540   0.787   4.214  16.586  0.0111  1.5743 -0.6016
  370TMC3    H1 5541   0.919   4.170  16.180 -0.1698  0.3476 -0.2670
  370TMC3    H2 5542   0.638   3.910  16.329  1.4629 -0.2779 -2.2834
  370TMC3    C7 5543   0.798   3.959  16.133  0.3579 -0.4559  0.2458
  370TMC3    C8 5544   0.653   3.968  16.567 -1.0952  0.6189  0.0307
  370TMC3    O1 5545   0.911   3.960  16.084  0.1050  0.2113 -0.1969
  370TMC3    O2 5546   0.602   3.862  16.535 -0.2003 -0.2384  0.3476
  371TMC3    C1 5547   1.927   2.311  15.660 -0.4486  0.0097 -0.3098
  371TMC3    C2 5548   1.794   2.321  15.697  1.1273 -0.6201  0.0615
  371TMC3    C3 5549   1.730   2.444  15.680  0.0003  0.2260 -0.3521
  371TMC3    C4 5550   1.997   2.419  15.607  0.1810  0.3621  0.9895
  371TMC3    C5 5551   1.925   2.531  15.588  0.2528 -1.1319  0.1872
  371TMC3    C6 5552   1.795   2.552  15.625  0.5216 -0.1805 -0.0662
  371TMC3     C 5553   2.007   2.188  15.674 -0.4538  0.2685 -0.1684
  371TMC3     O 5554   2.124   2.203  15.668 -0.3639 -0.2483 -0.5563
  371TMC3     H 5555   1.741   2.235  15.738  1.0670 -0.7330 -0.2544
  371TMC3    H1 5556   2.106   2.417  15.605  0.3179  4.1905  3.2936
  371TMC3    H2 5557   1.733   2.638  15.604  1.1967  0.0304 -1.1388
  371TMC3    C7 5558   1.972   2.632  15.499  0.6838  0.4821 -0.7797
  371TMC3    C8 5559   1.589   2.437  15.704  0.3128 -0.2677 -0.3466
  371TMC3    O1 5560   1.917   2.743  15.505 -0.0310 -0.4136 -0.7437
  371TMC3    O2 5561   1.542   2.327  15.682  0.0910 -0.0289  0.2442
  372MPD2     C 5562   1.738   3.003  13.132 -0.5956  0.3567  0.3470
  372MPD2    C1 5563   1.805   2.938  13.238  0.1281  0.3509  0.3305
  372MPD2    C2 5564   1.732   2.869  13.328  0.7622 -0.4915  0.0384
  372MPD2    C3 5565   1.598   2.856  13.322 -0.6108  0.8779  0.4854
  372MPD2    C4 5566   1.535   2.913  13.211  0.6418  0.1703 -0.0206
  372MPD2    C5 5567   1.602   2.979  13.117 -0.4829 -0.2140 -0.4661
  372MPD2     H 5568   1.781   2.834  13.418 -1.0137 -0.9132  0.8385
  372MPD2    H1 5569   1.429   2.901  13.194  1.1002 -3.6970 -0.0836
  372MPD2    H2 5570   1.787   3.063  13.057 -1.3774 -2.4691 -2.4296
  372MPD2    H3 5571   1.552   3.007  13.025  2.2194  2.2594 -1.1660
  372MPD2     N 5572   1.519   2.775  13.411  0.0956  0.0855 -0.2129
  372MPD2    H5 5573   1.561   2.724  13.487 -1.1635 -1.1183 -0.3418
  372MPD2    N1 5574   1.944   2.941  13.256  0.0578  0.2779 -0.0468
  372MPD2    H7 5575   1.993   2.906  13.338 -0.3770  1.5101  0.7394
  373TMC3    C1 5576   1.323   2.692  13.509 -0.2074  0.4473  0.2905
  373TMC3    C2 5577   1.253   2.751  13.609  0.4979  0.3803  0.0409
  373TMC3    C3 5578   1.254   2.678  13.725  0.3104  1.0105  0.1483
  373TMC3    C4 5579   1.378   2.566  13.525 -0.6185 -0.0458  0.1895
  373TMC3    C5 5580   1.357   2.493  13.635  0.1257  0.7618 -0.0141
  373TMC3    C6 5581   1.292   2.547  13.741 -0.1646 -0.6558  0.8772
  373TMC3     C 5582   1.378   2.782  13.410  1.1117  0.0680 -0.1263
  373TMC3     O 5583   1.295   2.868  13.379  0.2386  0.0267  0.1246
  373TMC3     H 5584   1.231   2.856  13.599 -0.5813  0.1246 -0.3025
  373TMC3    H1 5585   1.439   2.526  13.445  0.8332  0.3335  1.1201
  373TMC3    H2 5586   1.285   2.502  13.839  1.1057 -1.1244  0.7546
  373TMC3    C7 5587   1.425   2.371  13.635 -0.1966  0.4314  0.0306
  373TMC3    C8 5588   1.285   2.759  13.841 -0.0161  0.6405  0.0395
  373TMC3    O1 5589   1.534   2.362  13.686 -0.3698  0.0029 -0.3043
  373TMC3    O2 5590   1.400   2.740  13.887  0.1580 -0.1075 -0.7145
  374TMC3    C1 5591   2.295   3.811   9.921  0.4046  0.0755 -0.4369
  374TMC3    C2 5592   2.421   3.852   9.880 -0.2656 -0.2906  0.6977
  374TMC3    C3 5593   2.438   3.963   9.809 -0.3873  0.8622  0.4793
  374TMC3    C4 5594   2.189   3.872   9.875  0.1294  0.2220 -0.4173
  374TMC3    C5 5595   2.207   3.981   9.792 -0.0906 -0.1069  0.6927
  374TMC3    C6 5596   2.331   4.025   9.758  0.0693 -0.4011  0.0612
  374TMC3     C 5597   2.302   3.692  10.014 -0.3155  0.2125  0.9631
  374TMC3     O 5598   2.407   3.644  10.052  0.0365 -0.1630 -0.0622
  374TMC3     H 5599   2.507   3.806   9.928 -0.4443 -1.4333 -0.0784
  374TMC3    H1 5600   2.091   3.843   9.913  0.0914 -0.4238 -0.9928
  374TMC3    H2 5601   2.343   4.116   9.700  1.2879 -1.0796 -0.7709
  374TMC3    C7 5602   2.090   4.053   9.737 -0.4708  0.5088  0.1455
  374TMC3    C8 5603   2.563   4.038   9.807 -0.7021 -0.0848 -0.3030
  374TMC3    O1 5604   2.092   4.171   9.703 -0.4135 -0.3820  0.1081
  374TMC3    O2 5605   2.578   4.129   9.725  0.1374  0.6218  0.0026
  375MPD2     C 5606   2.348   0.897  16.434 -0.5085  0.2594 -0.1975
  375MPD2    C1 5607   2.263   0.789  16.415 -0.3242 -0.0101 -0.6516
  375MPD2    C2 5608   2.315   0.666  16.375  0.0983  0.5619 -1.0221
  375MPD2    C3 5609   2.453   0.651  16.355 -0.8510  0.4861 -0.0371
  375MPD2    C4 5610   2.544   0.753  16.387 -0.0394  0.6260  0.0529
  375MPD2    C5 5611   2.488   0.873  16.438  0.6988 -0.8874  0.0265
  375MPD2     H 5612   2.238   0.591  16.364  2.1730 -1.8274  0.6791
  375MPD2    H1 5613   2.651   0.732  16.384 -0.1343  0.2604 -1.0291
  375MPD2    H2 5614   2.317   0.996  16.464  1.7346  1.3461 -1.4669
  375MPD2    H3 5615   2.548   0.952  16.481  0.2255  0.2981 -1.4859
  375MPD2     N 5616   2.506   0.536  16.299  0.5760  0.0269 -0.0988
  375MPD2    H5 5617   2.606   0.520  16.303  0.2482 -1.1288  3.6790
  375MPD2    N1 5618   2.123   0.801  16.411 -0.0695 -0.2100 -0.1682
  375MPD2    H7 5619   2.083   0.709  16.428 -2.2975  0.6539 -0.6926
  376TMC3    C1 5620   2.511   0.316  16.191 -0.8079 -0.0022  0.0464
  376TMC3    C2 5621   2.629   0.278  16.236  0.4094 -0.0045 -0.0935
  376TMC3    C3 5622   2.687   0.172  16.177 -0.0311  0.0311 -0.2467
  376TMC3    C4 5623   2.435   0.241  16.098  0.3851 -0.3805  0.5929
  376TMC3    C5 5624   2.496   0.135  16.042  0.4582 -0.4758 -0.1427
  376TMC3    C6 5625   2.627   0.105  16.065  0.2422  0.6548  0.4536
  376TMC3     C 5626   2.430   0.417  16.263 -0.1671  0.2726  0.6392
  376TMC3     O 5627   2.307   0.414  16.248 -0.0416  0.4867  0.7760
  376TMC3     H 5628   2.669   0.332  16.321  0.0958  1.3264 -0.8074
  376TMC3    H1 5629   2.336   0.271  16.066  0.1455 -0.9626  0.7799
  376TMC3    H2 5630   2.666   0.013  16.025  2.5418  2.1292 -0.6714
  376TMC3    C7 5631   2.453   0.065  15.931 -0.1559  0.4506  0.3062
  376TMC3    C8 5632   2.827   0.165  16.191 -1.1201  0.4441 -0.2164
  376TMC3    O1 5633   2.535   0.028  15.853 -0.4026  0.0159  0.1111
  376TMC3    O2 5634   2.893   0.121  16.096  0.1798 -0.6451 -0.2410
  377MPD2     C 5635   0.266   4.269  11.929 -0.0462  0.1281 -0.5853
  377MPD2    C1 5636   0.304   4.208  12.044  0.0511 -0.1246  0.2106
  377MPD2    C2 5637   0.211   4.192  12.146  0.2323 -0.1248  0.6194
  377MPD2    C3 5638   0.083   4.234  12.133  0.3593  1.0524  0.1546
  377MPD2    C4 5639   0.044   4.294  12.013 -0.2074  0.2060 -0.1769
  377MPD2    C5 5640   0.136   4.313  11.916  0.2135  0.4023  0.7174
  377MPD2     H 5641   0.248   4.148  12.238 -1.1299 -2.3762  0.0830
  377MPD2    H1 5642   4.665   4.316  11.991  0.0434  1.9639  0.3537
  377MPD2    H2 5643   0.338   4.285  11.849  1.3586 -0.8582  0.4825
  377MPD2    H3 5644   0.108   4.357  11.821 -1.3216 -0.0665  0.9647
  377MPD2     N 5645   4.710   4.214  12.235  0.4369 -0.2363 -0.2884
  377MPD2    H5 5646   4.620   4.253  12.209  0.5459 -0.4571 -0.9910
  377MPD2    N1 5647   0.437   4.142  12.037 -0.3864  0.0989 -0.0372
  377MPD2    H7 5648   0.493   4.155  11.953 -0.4225  1.3541  0.1322
  378TMC3    C1 5649   0.783   4.022  11.934 -0.9254 -0.1023 -0.1996
  378TMC3    C2 5650   0.683   4.085  12.006  0.4465  0.1570  0.1826
  378TMC3    C3 5651   0.613   4.010  12.096  0.0019 -0.1345  0.2187
  378TMC3    C4 5652   0.807   3.888  11.940 -0.4216 -0.3919 -0.0930
  378TMC3    C5 5653   0.728   3.809  12.020 -0.1287  0.0019  0.0421
  378TMC3    C6 5654   0.633   3.873  12.101  0.6426  0.2396 -0.1085
  378TMC3     C 5655   0.867   4.112  11.847  0.0806 -0.0117 -0.4972
  378TMC3     O 5656   0.833   4.229  11.831  0.1433 -0.0996  0.0434
  378TMC3     H 5657   0.677   4.193  12.005  0.8863  0.1897  1.1664
  378TMC3    H1 5658   0.869   3.836  11.868  0.6962 -1.4642  1.6310
  378TMC3    H2 5659   0.581   3.808  12.171  1.1777  0.1168  0.1810
  378TMC3    C7 5660   0.735   3.660  12.020  0.1406 -0.1692 -0.3776
  378TMC3    C8 5661   0.480   4.050  12.131 -0.7612 -0.3391 -1.0042
  378TMC3    O1 5662   0.647   3.603  12.083 -0.4858 -0.1635 -0.1502
  378TMC3    O2 5663   0.419   3.993  12.221 -0.4357  0.0613  0.0957
  379MPD2     C 5664   1.343   2.121  16.353 -0.1830 -0.0924 -0.1159
  379MPD2    C1 5665   1.210   2.088  16.389 -0.5347 -0.0182 -0.1901
  379MPD2    C2 5666   1.174   2.060  16.520  0.7232 -0.2678  0.5949
  379MPD2    C3 5667   1.267   2.046  16.616 -0.0489 -0.6690 -0.1501
  379MPD2    C4 5668   1.396   2.078  16.581  0.1670  0.2706 -0.1802
  379MPD2    C5 5669   1.427   2.124  16.456  0.1823  0.8174  0.5264
  379MPD2     H 5670   1.070   2.061  16.551  0.8814 -1.7354  1.1986
  379MPD2    H1 5671   1.474   2.059  16.653 -0.8038  0.2741  0.8709
  379MPD2    H2 5672   1.377   2.156  16.257 -1.9332  1.1629 -0.2633
  379MPD2    H3 5673   1.524   2.162  16.426  0.5663  0.2116  0.9943
  379MPD2     N 5674   1.253   1.983  16.738  0.1991 -0.5974 -0.4678
  379MPD2    H5 5675   1.338   1.945  16.778 -0.4619 -2.8644 -1.2614
  379MPD2    N1 5676   1.121   2.093  16.281  0.6550 -0.6881  0.2354
  379MPD2    H7 5677   1.160   2.119  16.191 -0.4598  1.6772  0.4376
  380TMC3    C1 5678   0.920   2.098  16.149 -0.5487  0.5560  0.1120
  380TMC3    C2 5679   0.991   2.079  16.030 -0.3111 -0.2337 -0.4238
  380TMC3    C3 5680   0.937   2.124  15.912  0.0437  0.4105  0.3663
  380TMC3    C4 5681   0.788   2.132  16.148 -0.0032  0.4167 -0.3437
  380TMC3    C5 5682   0.739   2.160  16.021  0.5506  0.6789 -0.2079
  380TMC3    C6 5683   0.808   2.169  15.908  0.5848 -0.0867  0.1010
  380TMC3     C 5684   0.987   2.074  16.284  0.7862  0.7820  0.1808
  380TMC3     O 5685   0.917   2.015  16.369 -0.2052  0.3968 -0.2790
  380TMC3     H 5686   1.087   2.030  16.037 -1.5449 -2.4534  0.6907
  380TMC3    H1 5687   0.732   2.144  16.240 -0.0025  0.7251 -0.3824
  380TMC3    H2 5688   0.757   2.191  15.815 -3.0225  0.5633  2.2420
  380TMC3    C7 5689   0.612   2.221  16.001  0.5438 -0.3744 -0.1337
  380TMC3    C8 5690   1.009   2.113  15.787  0.6624 -1.0191  0.2906
  380TMC3    O1 5691   0.573   2.307  16.079 -0.2720 -0.4776  0.0829
  380TMC3    O2 5692   0.983   2.184  15.694 -0.3579  0.1453  0.2428
  381TMC3    C1 5693   0.519   3.415  16.163  0.4766  0.6042  1.0742
  381TMC3    C2 5694   0.645   3.439  16.197  0.0034 -0.2946  0.1616
  381TMC3    C3 5695   0.679   3.519  16.299  0.9301 -0.2128  0.4316
  381TMC3    C4 5696   0.423   3.481  16.233 -0.2735  0.5301 -0.0320
  381TMC3    C5 5697   0.446   3.559  16.339  0.5766 -1.0622  0.1151
  381TMC3    C6 5698   0.579   3.583  16.374 -0.2802  0.7650  0.2200
  381TMC3     C 5699   0.477   3.323  16.057  0.4614 -0.3483 -1.0086
  381TMC3     O 5700   0.361   3.331  16.020  0.1102 -1.1774 -0.4291
  381TMC3     H 5701   0.717   3.406  16.122  0.6900  1.2720  0.1254
  381TMC3    H1 5702   0.321   3.449  16.217  0.3915 -2.2676  1.4199
  381TMC3    H2 5703   0.608   3.650  16.453 -1.2383  0.0052  1.2237
  381TMC3    C7 5704   0.336   3.596  16.430 -0.3464  0.4932  0.0792
  381TMC3    C8 5705   0.822   3.543  16.320 -0.6838  0.4416  0.6643
  381TMC3    O1 5706   0.229   3.541  16.421  0.1403  0.3770 -0.1912
  381TMC3    O2 5707   0.902   3.508  16.238 -0.2444 -0.2960 -0.0067
  382MPD2     C 5708   0.259   1.047   0.545  0.7428  0.4532  0.0818
  382MPD2    C1 5709   0.226   1.175   0.523  0.8926 -0.2630 -0.1282
  382MPD2    C2 5710   0.113   1.192   0.444 -0.2539 -0.0164  0.0505
  382MPD2    C3 5711   0.037   1.084   0.388 -0.0724 -0.3497 -0.1279
  382MPD2    C4 5712   0.093   0.962   0.393  0.3749 -0.4243  0.2054
  382MPD2    C5 5713   0.206   0.943   0.470 -0.1879 -0.2733 -0.1711
  382MPD2     H 5714   0.083   1.297   0.444 -0.5862 -0.1184  2.9485
  382MPD2    H1 5715   0.048   0.876   0.344  0.2094 -0.1697 -0.0953
  382MPD2    H2 5716   0.349   1.014   0.595 -0.1167 -1.1000  0.6020
  382MPD2    H3 5717   0.264   0.852   0.466  0.5433  0.2927 -2.7093
  382MPD2     N 5718   4.642   1.101   0.315 -0.1923  0.9982  0.3071
  382MPD2    H5 5719   4.599   1.028   0.260  4.1315  0.0473 -1.7798
  382MPD2    N1 5720   0.283   1.288   0.585 -0.7576 -0.5378  0.3132
  382MPD2    H7 5721   0.232   1.372   0.556 -1.3691 -0.5935  1.2387
  383TMC3    C1 5722   4.452   1.225   0.244  0.7886  0.3026  0.0358
  383TMC3    C2 5723   4.467   1.172   0.120  0.2275  0.2376 -0.1103
  383TMC3    C3 5724   4.395   1.230   0.021 -0.4194 -0.1435 -0.4952
  383TMC3    C4 5725   4.382   1.339   0.266 -1.1530 -0.1423  0.5203
  383TMC3    C5 5726   4.303   1.391   0.160  0.2278 -0.2345 -0.0741
  383TMC3    C6 5727   4.312   1.340   0.035  0.0304  0.3123  0.3816
  383TMC3     C 5728   4.570   1.217   0.328 -0.1053 -0.1877  0.9006
  383TMC3     O 5729   4.589   1.308   0.403  0.6281 -0.1873  0.1062
  383TMC3     H 5730   4.532   1.087   0.103  1.5896  1.5310 -1.3899
  383TMC3    H1 5731   4.368   1.368   0.369 -0.4717 -1.3436  0.9419
  383TMC3    H2 5732   4.242   1.365  17.660 -0.4916  0.4661  0.9011
  383TMC3    C7 5733   4.240   1.519   0.180  0.5606  0.5730  0.7172
  383TMC3    C8 5734   4.371   1.152  17.603  0.6765 -0.4997 -0.3469
  383TMC3    O1 5735   4.171   1.556   0.081  0.0404 -0.2451 -0.2713
  383TMC3    O2 5736   4.336   1.211  17.504 -0.2211  0.0196  0.1945
  384MPD2     C 5737   1.689   1.866  12.057  0.0885  0.1417  0.6854
  384MPD2    C1 5738   1.690   1.790  12.173  0.1921 -0.0334  0.4847
  384MPD2    C2 5739   1.762   1.670  12.172  0.1284 -0.6958  1.2852
  384MPD2    C3 5740   1.818   1.621  12.055  0.1908 -0.5611 -0.4264
  384MPD2    C4 5741   1.819   1.698  11.946 -0.4222  0.1443  0.3394
  384MPD2    C5 5742   1.759   1.817  11.948 -0.7767 -0.4988  0.1696
  384MPD2     H 5743   1.771   1.611  12.263 -2.0913 -3.5073 -0.3135
  384MPD2    H1 5744   1.873   1.673  11.855 -0.1353  2.9316 -0.2663
  384MPD2    H2 5745   1.657   1.969  12.060 -0.7351 -0.1393  1.4299
  384MPD2    H3 5746   1.778   1.867  11.854 -0.0507 -0.5685  0.2833
  384MPD2     N 5747   1.879   1.496  12.039  0.4743 -0.4635  0.0392
  384MPD2    H5 5748   1.920   1.469  11.950  3.2218 -1.8723  1.7216
  384MPD2    N1 5749   1.652   1.833  12.301 -0.0571 -0.1355  0.7206
  384MPD2    H7 5750   1.658   1.762  12.374  1.9155  0.7667  1.4203
  385TMC3    C1 5751   1.977   1.280  12.111  0.0991 -0.0127  0.0552
  385TMC3    C2 5752   1.945   1.220  11.987 -0.2788 -0.1493 -0.5427
  385TMC3    C3 5753   1.905   1.084  11.997 -0.2972 -0.1541  0.2046
  385TMC3    C4 5754   1.977   1.205  12.226  0.1160  0.5970 -0.1674
  385TMC3    C5 5755   1.929   1.078  12.233  0.0640 -0.3791  0.0206
  385TMC3    C6 5756   1.901   1.017  12.118  0.1449  0.1212  0.5706
  385TMC3     C 5757   1.900   1.403  12.145 -0.0018 -0.2883 -0.0208
  385TMC3     O 5758   1.860   1.414  12.260  0.5308 -0.1991  0.2218
  385TMC3     H 5759   1.950   1.282  11.899 -0.3170 -0.8783 -1.0548
  385TMC3    H1 5760   2.015   1.260  12.311 -0.8634 -0.5102  0.9934
  385TMC3    H2 5761   1.866   0.915  12.120 -0.8296  0.4742  1.5828
  385TMC3    C7 5762   1.825   1.055  12.336 -0.1633  0.5801 -0.1183
  385TMC3    C8 5763   1.908   1.004  11.875  0.4840  0.4711  0.1837
  385TMC3    O1 5764   1.791   0.939  12.363 -0.2777 -0.3006  0.1371
  385TMC3    O2 5765   1.922   0.885  11.890  0.3785 -0.0253  0.1444
  386TMC3    C1 5766   2.169   3.974  11.571 -0.5455  0.3020 -0.3092
  386TMC3    C2 5767   2.226   4.018  11.454  0.7464 -0.4032 -0.0078
  386TMC3    C3 5768   2.170   4.113  11.378 -0.0256 -0.3226 -0.5609
  386TMC3    C4 5769   2.054   4.029  11.616 -0.1711  0.2828  0.0023
  386TMC3    C5 5770   2.006   4.141  11.547  0.7280  0.5550 -0.1433
  386TMC3    C6 5771   2.058   4.179  11.422 -0.2576  0.4701 -0.7127
  386TMC3     C 5772   2.242   3.872  11.648 -0.0543 -0.0094  0.7276
  386TMC3     O 5773   2.364   3.880  11.630  0.2803 -0.4752 -0.3813
  386TMC3     H 5774   2.311   3.962  11.418  0.6833 -0.1156 -0.6060
  386TMC3    H1 5775   2.005   3.997  11.707 -2.1685  0.3854 -1.0465
  386TMC3    H2 5776   2.011   4.256  11.361 -0.6720  1.0025  0.2809
  386TMC3    C7 5777   1.888   4.203  11.603 -0.0116  0.4083  0.2193
  386TMC3    C8 5778   2.165   4.074  11.243 -0.3614 -0.7214 -0.1031
  386TMC3    O1 5779   1.840   4.162  11.708 -0.3038  0.4293  0.2867
  386TMC3    O2 5780   2.051   4.069  11.198  0.1549 -0.5053 -0.2810
  387MPD2     C 5781   4.489   4.309   9.535 -0.3245  0.5177 -0.4254
  387MPD2    C1 5782   4.386   4.264   9.612 -0.4229  0.1805 -0.3829
  387MPD2    C2 5783   4.358   4.125   9.611  0.0317 -0.1785  0.3432
  387MPD2    C3 5784   4.443   4.035   9.551  0.0612  0.2748 -0.3304
  387MPD2    C4 5785   4.550   4.078   9.469 -0.7269 -0.3349  0.1827
  387MPD2    C5 5786   4.568   4.214   9.469 -1.0132 -0.1525 -0.0860
  387MPD2     H 5787   4.294   4.086   9.689 -0.2852  1.3621  0.8623
  387MPD2    H1 5788   4.631   4.018   9.430 -0.0942  0.4091  0.3733
  387MPD2    H2 5789   4.511   4.414   9.523 -0.3433  0.3859 -1.6184
  387MPD2    H3 5790   4.661   4.240   9.419 -0.9377  1.6567  0.9806
  387MPD2     N 5791   4.427   3.899   9.589 -0.2454 -0.0551  0.4345
  387MPD2    H5 5792   4.364   3.880   9.667 -1.4336  0.2011 -0.4811
  387MPD2    N1 5793   4.325   4.336   9.719 -0.0150  0.0079  0.7166
  387MPD2    H7 5794   4.253   4.285   9.769 -0.5113 -0.3980 -0.4209
  388TMC3    C1 5795   4.308   4.494   9.896 -0.4454 -1.0045 -0.4542
  388TMC3    C2 5796   4.307   4.617   9.935  0.2421 -0.0052  0.3107
  388TMC3    C3 5797   4.277   4.639  10.073  0.2612  0.4210 -0.7077
  388TMC3    C4 5798   4.306   4.390   9.988  0.4996  0.0687  0.5256
  388TMC3    C5 5799   4.268   4.414  10.120 -0.1049 -0.9890 -0.0675
  388TMC3    C6 5800   4.250   4.545  10.160  0.0353  0.0672 -0.1647
  388TMC3     C 5801   4.362   4.461   9.769  0.3608 -0.0669  0.1848
  388TMC3     O 5802   4.450   4.533   9.719  0.3039 -0.9073 -0.2458
  388TMC3     H 5803   4.330   4.702   9.873 -1.2015  1.3088  1.5524
  388TMC3    H1 5804   4.336   4.290   9.960 -0.9336 -0.9370  2.5248
  388TMC3    H2 5805   4.228   4.564  10.265  1.3951  0.8184 -0.0212
  388TMC3    C7 5806   4.300   4.313  10.225  0.9141  0.1959  0.4612
  388TMC3    C8 5807   4.281   0.051  10.114 -0.5050  0.0902 -1.1025
  388TMC3    O1 5808   4.320   4.353  10.339  0.4156 -0.6067 -0.1058
  388TMC3    O2 5809   4.273   0.142  10.031 -0.1475 -0.6031 -0.5973
  389MPD2     C 5810   3.849   2.415  10.922 -0.3636 -0.0857 -0.2891
  389MPD2    C1 5811   3.770   2.368  10.810  0.3399  0.3053  0.3328
  389MPD2    C2 5812   3.664   2.279  10.841 -0.0844  0.0577 -0.3739
  389MPD2    C3 5813   3.631   2.232  10.967 -0.2408  0.0560  0.4512
  389MPD2    C4 5814   3.700   2.289  11.069 -0.3591 -0.1350 -0.3363
  389MPD2    C5 5815   3.800   2.373  11.047 -0.2343  0.3448  0.6635
  389MPD2     H 5816   3.611   2.243  10.754 -1.4833  0.9441  0.1156
  389MPD2    H1 5817   3.690   2.266  11.175 -1.8592  0.7235 -0.2953
  389MPD2    H2 5818   3.927   2.486  10.897 -0.0105 -1.2567 -2.4797
  389MPD2    H3 5819   3.849   2.413  11.135 -1.1788 -0.9288  1.7622
  389MPD2     N 5820   3.536   2.142  10.996  0.5124  0.0487 -0.1899
  389MPD2    H5 5821   3.502   2.141  11.091 -1.3880  0.4017 -0.8482
  389MPD2    N1 5822   3.793   2.421  10.680  0.4389 -0.3281  0.0681
  389MPD2    H7 5823   3.870   2.487  10.671  0.4443 -0.5460 -1.5103
  390TMC3    C1 5824   3.336   2.014  10.972 -0.0413  0.2550  0.0035
  390TMC3    C2 5825   3.337   2.015  11.109 -0.4057  0.2724  0.3715
  390TMC3    C3 5826   3.220   2.048  11.174 -0.2013  0.3653 -0.0555
  390TMC3    C4 5827   3.225   2.025  10.902 -0.5332 -0.2719 -0.0160
  390TMC3    C5 5828   3.104   2.047  10.974 -1.0928 -0.7372  0.0396
  390TMC3    C6 5829   3.104   2.065  11.107  0.4794 -0.1225 -0.1254
  390TMC3     C 5830   3.448   2.079  10.905  0.3924  0.8729  0.5100
  390TMC3     O 5831   3.448   2.092  10.785 -0.1320 -0.0270  0.1682
  390TMC3     H 5832   3.424   1.982  11.164 -0.1143  2.3573  1.1914
  390TMC3    H1 5833   3.212   2.003  10.797 -0.3054  0.1170 -0.1267
  390TMC3    H2 5834   3.017   2.078  11.171 -0.0926  1.1935 -1.1686
  390TMC3    C7 5835   2.990   1.968  10.926  0.1363  0.0242  0.0718
  390TMC3    C8 5836   3.208   1.990  11.300 -0.0423  0.3106 -0.0192
  390TMC3    O1 5837   2.987   1.919  10.818 -0.5964  0.2084 -0.4191
  390TMC3    O2 5838   3.283   2.034  11.384 -0.0295  0.0761  0.5995
  391MPD2     C 5839   3.139   3.602  11.184  0.2214 -0.5275 -0.1291
  391MPD2    C1 5840   3.186   3.728  11.180 -0.4579 -1.1196 -0.4951
  391MPD2    C2 5841   3.205   3.774  11.051  0.2312 -0.1180  0.3206
  391MPD2    C3 5842   3.168   3.716  10.931 -0.0718  0.2717 -0.0640
  391MPD2    C4 5843   3.105   3.597  10.945 -0.6772  0.2880 -0.4583
  391MPD2    C5 5844   3.095   3.543  11.068 -0.6342  0.2016 -0.3433
  391MPD2     H 5845   3.260   3.867  11.036  1.3252 -0.7864  0.1752
  391MPD2    H1 5846   3.063   3.537  10.865  0.6886  1.2672 -1.9059
  391MPD2    H2 5847   3.116   3.543  11.272 -1.3451  2.0973  1.2373
  391MPD2    H3 5848   3.050   3.446  11.084  0.6273 -0.3309 -0.0359
  391MPD2     N 5849   3.195   3.775  10.802 -0.1435 -0.2062  0.1245
  391MPD2    H5 5850   3.231   3.870  10.803 -0.0614 -0.2401  0.2906
  391MPD2    N1 5851   3.207   3.799  11.308 -0.5768 -0.6989  0.2383
  391MPD2    H7 5852   3.190   3.739  11.388  2.7081 -0.4248  1.1348
  392TMC3    C1 5853   3.182   3.820  10.573 -0.5768  0.3241 -0.0644
  392TMC3    C2 5854   3.094   3.828  10.468  0.2199  1.2541  0.0887
  392TMC3    C3 5855   3.103   3.932  10.380 -0.7339  0.5049 -0.4698
  392TMC3    C4 5856   3.281   3.909  10.582  0.7392  0.1403 -0.1549
  392TMC3    C5 5857   3.300   4.008  10.485 -0.2378 -0.4686 -0.4141
  392TMC3    C6 5858   3.205   4.026  10.388 -0.4930  0.4433  0.3888
  392TMC3     C 5859   3.161   3.723  10.679  0.7094 -0.3893 -0.6162
  392TMC3     O 5860   3.093   3.622  10.658  0.2646  0.7910 -0.0053
  392TMC3     H 5861   2.998   3.779  10.477  0.5663  0.6420  0.5685
  392TMC3    H1 5862   3.361   3.904  10.654  2.6006  2.0883 -2.1106
  392TMC3    H2 5863   3.199   4.107  10.316  0.9166 -2.3593 -2.8914
  392TMC3    C7 5864   3.382   4.125  10.508 -0.3662 -1.0193 -0.2064
  392TMC3    C8 5865   3.006   3.934  10.269  0.8028 -0.5042  0.2851
  392TMC3    O1 5866   3.417   4.136  10.627  0.8163  0.0687  0.8994
  392TMC3    O2 5867   2.923   3.844  10.266  0.3559 -0.1793 -0.1362
  393TMC3    C1 5868   2.400   1.817  10.049 -0.3535 -0.1165  0.4293
  393TMC3    C2 5869   2.316   1.793  10.155  0.9375 -0.1815  0.4873
  393TMC3    C3 5870   2.333   1.682  10.229  0.3427  0.2544  0.1413
  393TMC3    C4 5871   2.508   1.740  10.027  0.7128  0.7436 -0.0631
  393TMC3    C5 5872   2.534   1.644  10.119 -0.5636  0.3567 -0.4417
  393TMC3    C6 5873   2.436   1.596  10.203 -0.3987  0.2605  0.0927
  393TMC3     C 5874   2.364   1.930   9.962 -0.4003  0.4645 -0.5599
  393TMC3     O 5875   2.243   1.962   9.968 -0.4620 -0.1997  0.7440
  393TMC3     H 5876   2.225   1.850  10.167  1.0757  0.0019  0.6609
  393TMC3    H1 5877   2.585   1.765   9.955 -0.8592 -0.4879 -2.1664
  393TMC3    H2 5878   2.463   1.512  10.266 -2.3096  1.2634  2.2435
  393TMC3    C7 5879   2.649   1.558  10.097 -0.5681  0.1398  0.9670
  393TMC3    C8 5880   2.209   1.606  10.254  0.0197  0.4711  0.0819
  393TMC3    O1 5881   2.643   1.439  10.126 -0.0496  0.0912 -0.0152
  393TMC3    O2 5882   2.226   1.494  10.296  0.4800 -0.2602 -0.1892
  394TMC3    C1 5883   3.804   2.422  10.446 -0.1775  0.6644 -0.1086
  394TMC3    C2 5884   3.751   2.368  10.327  0.0639  0.0210 -0.6477
  394TMC3    C3 5885   3.822   2.365  10.217 -0.2628  0.2520  0.5549
  394TMC3    C4 5886   3.932   2.463  10.447 -0.1164  0.0239  0.0074
  394TMC3    C5 5887   4.008   2.457  10.335 -0.4193 -0.4459 -0.4542
  394TMC3    C6 5888   3.957   2.412  10.217 -0.0617  0.7771 -0.2752
  394TMC3     C 5889   3.739   2.378  10.565 -0.0859 -0.0095 -0.7511
  394TMC3     O 5890   3.645   2.303  10.544  0.6556  0.0197 -0.3736
  394TMC3     H 5891   3.650   2.335  10.309 -0.4410  0.3293  1.6665
  394TMC3    H1 5892   3.971   2.507  10.537  1.6683 -0.4947 -0.5093
  394TMC3    H2 5893   4.016   2.403  10.126  1.2249 -1.7841  0.8152
  394TMC3    C7 5894   4.108   2.558  10.333  0.2787  0.3404  0.1922
  394TMC3    C8 5895   3.785   2.306  10.094  0.6036  0.0200 -0.4407
  394TMC3    O1 5896   4.084   2.652  10.409  0.1714 -0.4240 -0.6628
  394TMC3    O2 5897   3.840   2.346   9.990  0.6807  0.5802 -0.1092
  395TMC3    C1 5898   3.385   4.691  14.837  0.2110 -0.5400 -0.5196
  395TMC3    C2 5899   3.276   4.719  14.766 -0.2443 -0.7057  0.8171
  395TMC3    C3 5900   3.303   0.012  14.629 -0.3043  0.1693 -0.0606
  395TMC3    C4 5901   3.514   4.700  14.791 -0.6822  0.2735 -0.4645
  395TMC3    C5 5902   3.529   0.010  14.658 -0.1078 -0.0704 -0.2348
  395TMC3    C6 5903   3.425   0.026  14.569  0.3144 -0.0706  0.2001
  395TMC3     C 5904   3.367   4.604  14.955 -0.3819  0.5233  0.0491
  395TMC3     O 5905   3.270   4.624  15.025 -0.2898  0.6522 -0.2077
  395TMC3     H 5906   3.179   4.688  14.804 -1.4667 -0.0817 -1.8590
  395TMC3    H1 5907   3.602   4.690  14.853 -1.0209  1.1243  0.1704
  395TMC3    H2 5908   3.438   0.064  14.469  0.0021 -0.5935 -0.0365
  395TMC3    C7 5909   3.645   0.096  14.647 -0.1093 -0.2930  0.2258
  395TMC3    C8 5910   3.182   0.021  14.553 -0.8252  0.1996 -0.5473
  395TMC3    O1 5911   3.666   0.158  14.752 -0.0018  0.0440 -0.0657
  395TMC3    O2 5912   3.089   0.063  14.617 -0.9667 -0.0853  0.4203
  396MPD2     C 5913   2.848   0.815  17.160  0.4863 -0.3214 -0.5846
  396MPD2    C1 5914   2.919   0.819  17.048  0.8340 -0.6162  0.0897
  396MPD2    C2 5915   3.004   0.927  17.029  0.0255  0.0209 -0.0675
  396MPD2    C3 5916   3.021   1.026  17.125  0.3756 -0.4530 -0.7811
  396MPD2    C4 5917   2.940   1.023  17.236  0.0588  0.0760 -0.2042
  396MPD2    C5 5918   2.861   0.920  17.250 -0.3058 -0.2560  0.4697
  396MPD2     H 5919   3.061   0.923  16.937  1.2430  0.9284  0.6570
  396MPD2    H1 5920   2.952   1.105  17.305 -1.2365  0.8849 -0.9228
  396MPD2    H2 5921   2.784   0.732  17.185 -1.2594 -0.1426 -4.6298
  396MPD2    H3 5922   2.798   0.925  17.338  0.4961 -3.7628  1.2322
  396MPD2     N 5923   3.120   1.128  17.099 -0.3592 -0.2590  0.0548
  396MPD2    H5 5924   3.154   1.119  17.003  1.2359  1.0905  0.5055
  396MPD2    N1 5925   2.922   0.708  16.957  0.1506 -0.5814 -0.6392
  396MPD2    H7 5926   2.872   0.624  16.983 -0.8463 -0.6537 -2.7768
  397TMC3    C1 5927   3.008   0.558  16.805 -0.7417 -0.1779  0.6676
  397TMC3    C2 5928   3.082   0.545  16.690  0.0940 -0.2283  0.5230
  397TMC3    C3 5929   3.208   0.485  16.700 -0.1931 -0.1414 -1.2707
  397TMC3    C4 5930   3.049   0.502  16.923 -0.2563 -0.0319  0.2584
  397TMC3    C5 5931   3.169   0.438  16.922 -0.5009  0.5645  0.3298
  397TMC3    C6 5932   3.253   0.429  16.811 -0.1316  0.3680 -0.3492
  397TMC3     C 5933   2.981   0.701  16.830 -0.6616 -0.1412  0.5277
  397TMC3     O 5934   3.023   0.791  16.760  0.5444  0.5239 -0.0573
  397TMC3     H 5935   3.051   0.596  16.599 -0.9694 -0.0168  1.0104
  397TMC3    H1 5936   2.995   0.489  17.016 -0.3057  2.6158  0.6000
  397TMC3    H2 5937   3.350   0.380  16.810 -0.4846 -0.3784  1.3322
  397TMC3    C7 5938   3.188   0.340  17.023  0.0855  0.2514  0.0603
  397TMC3    C8 5939   3.310   0.557  16.624  0.8907  0.0780  0.0339
  397TMC3    O1 5940   3.197   0.226  16.980 -0.3618 -0.1920 -0.0741
  397TMC3    O2 5941   3.296   0.562  16.498 -0.1577 -0.4133 -0.0498
  398MPD2     C 5942   0.796   2.312   0.258  0.8544 -0.1336  0.2911
  398MPD2    C1 5943   0.923   2.265   0.296 -0.6142  0.8054 -0.5909
  398MPD2    C2 5944   1.027   2.353   0.337  0.1094  0.6733  0.4774
  398MPD2    C3 5945   0.999   2.491   0.319  0.6288 -0.4108  0.1994
  398MPD2    C4 5946   0.878   2.526   0.278 -0.2245 -0.1553 -0.4670
  398MPD2    C5 5947   0.776   2.446   0.255  0.6839  0.4934  0.8874
  398MPD2     H 5948   1.129   2.327   0.365  0.0471 -0.0900  0.0144
  398MPD2    H1 5949   0.861   2.633   0.270  1.5263  0.2237  0.8966
  398MPD2    H2 5950   0.716   2.246   0.227 -0.1073  0.5923  1.2443
  398MPD2    H3 5951   0.676   2.474   0.226  0.2621 -1.4966  0.4158
  398MPD2     N 5952   1.095   2.593   0.343  1.3935  0.7898 -0.6212
  398MPD2    H5 5953   1.185   2.554   0.370 -1.1483 -2.6865  2.8245
  398MPD2    N1 5954   0.948   2.132   0.303 -0.1958 -0.1019 -0.0363
  398MPD2    H7 5955   1.022   2.114   0.370  1.0844 -1.1665 -1.7324
  399TMC3    C1 5956   0.913   1.900   0.324 -0.2016  0.3149  0.0358
  399TMC3    C2 5957   1.038   1.883   0.377 -1.1391  0.5214 -0.5360
  399TMC3    C3 5958   1.076   1.757   0.412 -0.6954  0.1185 -0.4802
  399TMC3    C4 5959   0.836   1.791   0.294  0.8548  0.0237 -0.6740
  399TMC3    C5 5960   0.870   1.669   0.348  0.6636 -0.5186  0.4393
  399TMC3    C6 5961   0.992   1.650   0.412 -0.2711  0.4350 -0.4035
  399TMC3     C 5962   0.871   2.024   0.261  0.1005 -0.1764 -0.0176
  399TMC3     O 5963   0.768   2.025   0.193 -0.1471  0.3942  0.6574
  399TMC3     H 5964   1.107   1.962   0.402  0.1511 -1.9232  3.6104
  399TMC3    H1 5965   0.744   1.806   0.239  1.0044 -1.7592 -1.3937
  399TMC3    H2 5966   1.023   1.553   0.450  3.5041  1.1958 -1.5448
  399TMC3    C7 5967   0.804   1.545   0.308 -0.7429 -0.3310  0.2295
  399TMC3    C8 5968   1.216   1.733   0.443  0.6868  0.6334  0.2161
  399TMC3    O1 5969   0.856   1.442   0.342 -0.0024  0.0746  0.0970
  399TMC3    O2 5970   1.285   1.832   0.475  0.1964  0.3636 -0.1554
  400TMC3    C1 5971   0.007   0.826  17.360 -0.5568 -0.1666  0.1534
  400TMC3    C2 5972   4.645   0.850  17.262  0.3323  0.9014  0.1758
  400TMC3    C3 5973   4.582   0.972  17.257 -0.4805  0.4114 -0.1425
  400TMC3    C4 5974   0.031   0.920  17.459  0.0418  0.0509  0.1942
  400TMC3    C5 5975   4.692   1.045  17.445 -0.4382  0.1324  0.0637
  400TMC3    C6 5976   4.603   1.076  17.346 -0.1106 -0.1388 -0.1990
  400TMC3     C 5977   0.034   0.686  17.378  0.2302 -0.4990 -0.3963
  400TMC3     O 5978   4.665   0.611  17.356 -0.0139 -0.3432  0.2193
  400TMC3     H 5979   4.640   0.769  17.191 -1.2562  0.7152  0.5217
  400TMC3    H1 5980   0.095   0.889  17.541  0.3001 -1.1415 -0.4532
  400TMC3    H2 5981   4.538   1.161  17.330  1.9324  1.5221  0.3125
  400TMC3    C7 5982   0.002   1.143  17.546  0.3029  0.2182  0.9285
  400TMC3    C8 5983   4.565   1.015  17.119 -0.6999 -0.2211 -0.6852
  400TMC3    O1 5984   0.045   1.099  17.650 -0.1184 -0.5315  0.1710
  400TMC3    O2 5985   4.577   1.131  17.082 -0.0871 -0.4468  0.1660
  401MPD2     C 5986   1.938   3.781   0.643  0.5396  0.5742 -0.3622
  401MPD2    C1 5987   2.057   3.713   0.621  0.0508 -0.2418 -0.0158
  401MPD2    C2 5988   2.051   3.574   0.628 -0.6811 -0.0725 -0.1258
  401MPD2    C3 5989   1.943   3.512   0.679 -0.8615 -0.5905  0.4462
  401MPD2    C4 5990   1.822   3.576   0.695 -0.4707 -0.2777  0.7066
  401MPD2    C5 5991   1.825   3.714   0.678 -0.3229 -0.1972 -0.0833
  401MPD2     H 5992   2.144   3.520   0.609  0.6089  1.5231  1.6021
  401MPD2    H1 5993   1.733   3.520   0.720 -0.7634 -0.4415 -0.7119
  401MPD2    H2 5994   1.935   3.888   0.630  1.5319  0.6556  0.0468
  401MPD2    H3 5995   1.736   3.773   0.694 -0.8756 -0.9930 -0.2278
  401MPD2     N 5996   1.965   3.376   0.707  0.0393  0.3986 -0.1640
  401MPD2    H5 5997   2.051   3.332   0.675 -0.2725  1.1472 -2.0399
  401MPD2    N1 5998   2.180   3.781   0.604 -0.2205  0.5566  0.0081
  401MPD2    H7 5999   2.258   3.719   0.583 -1.6624 -1.4056  0.4899
  402TMC3    C1 6000   1.954   3.181   0.835 -0.1601  0.0599  0.7922
  402TMC3    C2 6001   1.955   3.158   0.968 -0.5133  0.7088 -0.6598
  402TMC3    C3 6002   2.044   3.065   1.021 -0.0384  0.1501  0.4372
  402TMC3    C4 6003   2.050   3.122   0.755  0.0531 -0.7618 -0.1407
  402TMC3    C5 6004   2.125   3.018   0.801 -0.4057  0.6535 -0.2825
  402TMC3    C6 6005   2.124   2.992   0.934  0.1930 -0.3951 -0.5748
  402TMC3     C 6006   1.885   3.300   0.793  0.8450 -0.7299 -0.2427
  402TMC3     O 6007   1.795   3.340   0.865  0.0632  0.2361  0.1664
  402TMC3     H 6008   1.914   3.238   1.028  1.8871  0.6490  1.0690
  402TMC3    H1 6009   2.051   3.137   0.647  1.6191 -0.0748 -0.0370
  402TMC3    H2 6010   2.172   2.914   0.992 -1.0417 -1.5793 -1.1384
  402TMC3    C7 6011   2.245   3.001   0.729  0.1865 -0.5229  0.5327
  402TMC3    C8 6012   2.105   3.064   1.150 -0.1136 -0.0835 -1.0888
  402TMC3    O1 6013   2.244   3.005   0.606 -0.0705  0.1215  0.4486
  402TMC3    O2 6014   2.230   3.060   1.148  0.1432 -0.5436  0.1040
  403MPD2     C 6015   1.203   1.592  13.202  0.0486  0.3017  0.8300
  403MPD2    C1 6016   1.243   1.480  13.263 -0.2947  0.6173 -0.2431
  403MPD2    C2 6017   1.377   1.456  13.283 -0.3594 -0.0968  0.5340
  403MPD2    C3 6018   1.470   1.544  13.236 -0.7645 -0.4297 -0.4586
  403MPD2    C4 6019   1.426   1.666  13.183  0.0715 -0.3163  0.4159
  403MPD2    C5 6020   1.293   1.686  13.164  0.1830  0.5442 -0.5112
  403MPD2     H 6021   1.399   1.374  13.350  1.1475  0.6413  0.9710
  403MPD2    H1 6022   1.491   1.750  13.164 -0.0964 -0.7583 -2.1299
  403MPD2    H2 6023   1.099   1.617  13.217  0.0330  0.6907  0.0824
  403MPD2    H3 6024   1.251   1.782  13.136  0.7384  1.2634  1.1197
  403MPD2     N 6025   1.608   1.528  13.280 -0.0884  0.1478  0.8097
  403MPD2    H5 6026   1.634   1.451  13.342 -0.3266 -1.8762 -1.5752
  403MPD2    N1 6027   1.138   1.398  13.307  0.2601 -0.2240  0.3051
  403MPD2    H7 6028   1.047   1.427  13.275  1.4605  2.5717 -0.5484
  404TMC3    C1 6029   1.024   1.242  13.447  0.1120 -0.0848  0.4301
  404TMC3    C2 6030   1.018   1.209  13.581  0.0998 -0.0758 -0.6544
  404TMC3    C3 6031   0.923   1.121  13.618 -0.5736  0.6162  0.0604
  404TMC3    C4 6032   0.937   1.183  13.356  0.1024  0.1815 -0.5137
  404TMC3    C5 6033   0.845   1.090  13.404 -0.1736 -0.6130 -0.5468
  404TMC3    C6 6034   0.845   1.055  13.534  0.3105  0.5711  0.5841
  404TMC3     C 6035   1.153   1.295  13.400  0.6678 -0.2242 -0.2875
  404TMC3     O 6036   1.248   1.236  13.453 -0.1326  0.0027 -0.4972
  404TMC3     H 6037   1.087   1.251  13.652  1.3555  0.9308 -2.4664
  404TMC3    H1 6038   0.949   1.202  13.250 -1.4694 -2.7727 -1.2413
  404TMC3    H2 6039   0.785   0.974  13.574 -0.2212  1.3388  1.3401
  404TMC3    C7 6040   0.777   1.003  13.316  0.6209  1.1889  0.2387
  404TMC3    C8 6041   0.949   1.051  13.737  0.3056 -0.3816 -0.7666
  404TMC3    O1 6042   0.758   0.895  13.373 -0.2429 -0.2514  0.8004
  404TMC3    O2 6043   0.967   0.930  13.739 -0.1729  0.5851  0.5543
  405MPD2     C 6044   1.800   2.426  14.738  0.2366 -0.0450  0.1535
  405MPD2    C1 6045   1.744   2.355  14.636  0.7880  0.4018 -0.3531
  405MPD2    C2 6046   1.652   2.432  14.561 -0.3725  0.2680  0.5343
  405MPD2    C3 6047   1.629   2.565  14.579 -0.5344  0.1386 -0.7008
  405MPD2    C4 6048   1.689   2.630  14.685 -0.0518 -0.3165  0.6856
  405MPD2    C5 6049   1.774   2.562  14.761  0.7420  0.3846  0.1177
  405MPD2     H 6050   1.596   2.384  14.481  0.0163 -2.2162  1.7623
  405MPD2    H1 6051   1.660   2.725  14.729  2.0823  0.2995  0.7488
  405MPD2    H2 6052   1.871   2.382  14.807  0.4301  2.2272  1.4084
  405MPD2    H3 6053   1.822   2.601  14.850 -0.3023  3.3805 -0.6377
  405MPD2     N 6054   1.536   2.625  14.494 -0.5903  0.1112 -0.4120
  405MPD2    H5 6055   1.498   2.569  14.418 -2.1460  0.4617  0.1041
  405MPD2    N1 6056   1.777   2.218  14.606  0.1033 -0.1684  0.0185
  405MPD2    H7 6057   1.856   2.178  14.654 -1.8258 -4.6490 -0.4823
  406TMC3    C1 6058   1.166   2.845  14.350 -0.6402 -0.0037  0.5483
  406TMC3    C2 6059   1.157   2.759  14.244  0.1581 -0.0528 -0.4563
  406TMC3    C3 6060   1.267   2.683  14.219 -0.0973  0.0849 -0.1544
  406TMC3    C4 6061   1.274   2.854  14.434  0.3956 -0.7004 -0.3356
  406TMC3    C5 6062   1.381   2.773  14.400  0.5480 -0.6411 -0.5608
  406TMC3    C6 6063   1.380   2.681  14.296 -0.0516 -0.2620  0.4336
  406TMC3     C 6064   1.043   2.904  14.396 -0.4413  1.2143 -0.1294
  406TMC3     O 6065   1.049   2.997  14.479  0.2328 -0.2173 -0.7461
  406TMC3     H 6066   1.070   2.751  14.178 -0.0116  4.5570 -0.7575
  406TMC3    H1 6067   1.272   2.916  14.523 -0.2693 -0.3557 -0.5876
  406TMC3    H2 6068   1.470   2.644  14.248  0.6181  0.8311  0.8250
  406TMC3    C7 6069   1.481   2.751  14.500 -0.2857 -0.5323 -0.8220
  406TMC3    C8 6070   1.243   2.552  14.151 -0.2021 -0.2016  0.1232
  406TMC3    O1 6071   1.486   2.834  14.590  0.2447 -0.0496 -0.1262
  406TMC3    O2 6072   1.130   2.540  14.104 -0.4384 -0.0342 -0.2477
  407MPD2     C 6073   4.177   3.477   9.643 -0.1118 -0.7352 -0.2791
  407MPD2    C1 6074   4.146   3.607   9.630  0.4695  1.0226  0.6573
  407MPD2    C2 6075   4.108   3.689   9.733  0.3906 -0.2963 -1.2475
  407MPD2    C3 6076   4.079   3.631   9.856 -0.6287  0.3478  0.2015
  407MPD2    C4 6077   4.100   3.497   9.869 -0.1381 -0.0036  0.4582
  407MPD2    C5 6078   4.146   3.418   9.767  0.4352 -0.6947  0.3153
  407MPD2     H 6079   4.095   3.795   9.717  2.6798  0.3781  1.5152
  407MPD2    H1 6080   4.087   3.451   9.967 -0.2580  0.7474  0.7948
  407MPD2    H2 6081   4.210   3.416   9.559  1.7046  0.4958 -0.4693
  407MPD2    H3 6082   4.167   3.313   9.779  1.6424 -0.4175  0.6345
  407MPD2     N 6083   4.033   3.698   9.968 -0.3821  0.1290  0.0035
  407MPD2    H5 6084   4.026   3.655  10.060  0.4222 -0.3128 -0.1440
  407MPD2    N1 6085   4.158   3.675   9.504  0.4418  0.2201 -0.3650
  407MPD2    H7 6086   4.105   3.761   9.500  0.1974  0.1451  1.1419
  408TMC3    C1 6087   4.206   3.725   9.277  0.4109 -0.1230 -0.2068
  408TMC3    C2 6088   4.320   3.750   9.213 -0.0266 -0.2756 -0.2731
  408TMC3    C3 6089   4.328   3.878   9.164  0.2361 -0.0382  0.6420
  408TMC3    C4 6090   4.095   3.803   9.269  0.2834 -0.4185  0.4679
  408TMC3    C5 6091   4.109   3.933   9.228  0.1356  0.4592 -0.1479
  408TMC3    C6 6092   4.227   3.973   9.173  0.6104 -0.1785  0.4593
  408TMC3     C 6093   4.217   3.624   9.392  0.0088 -0.2741 -0.2535
  408TMC3     O 6094   4.289   3.528   9.370 -0.2486  0.4728  0.2560
  408TMC3     H 6095   4.397   3.675   9.201  1.2106  1.0947 -0.9773
  408TMC3    H1 6096   4.008   3.767   9.324  1.8210 -1.4404  2.2472
  408TMC3    H2 6097   4.236   4.067   9.120  0.6920 -1.1181 -1.1996
  408TMC3    C7 6098   3.986   3.992   9.173 -0.0476 -0.5113  0.3205
  408TMC3    C8 6099   4.453   3.913   9.102 -0.4231  0.4504 -0.2789
  408TMC3    O1 6100   3.974   4.116   9.172  0.1876 -0.2368  0.0760
  408TMC3    O2 6101   4.527   3.826   9.064 -0.1675  0.9764  0.4655
  409MPD2     C 6102   3.579   0.313  16.659  0.5609  0.0802  0.0079
  409MPD2    C1 6103   3.637   0.328  16.788 -0.9391  0.1368 -1.1073
  409MPD2    C2 6104   3.721   0.431  16.807  0.5189 -0.3274  0.0025
  409MPD2    C3 6105   3.746   0.523  16.710 -0.6210 -0.0745  0.3853
  409MPD2    C4 6106   3.687   0.510  16.591 -0.5451 -0.3682 -0.1757
  409MPD2    C5 6107   3.616   0.394  16.560  0.4774  0.1045 -0.9223
  409MPD2     H 6108   3.762   0.450  16.905  0.1726  0.8511 -0.0785
  409MPD2    H1 6109   3.703   0.576  16.507 -0.6713  0.8309  0.7559
  409MPD2    H2 6110   3.513   0.229  16.639  0.1160  0.9200 -1.9907
  409MPD2    H3 6111   3.585   0.382  16.457 -0.1379 -3.3167 -0.3351
  409MPD2     N 6112   3.820   0.643  16.733  0.4101  0.2007 -0.1202
  409MPD2    H5 6113   3.847   0.693  16.649 -0.8568  2.9560  1.1099
  409MPD2    N1 6114   3.587   0.263  16.903 -0.0659 -0.2754 -0.2851
  409MPD2    H7 6115   3.618   0.302  16.991  1.0697  0.2091 -0.8932
  410TMC3    C1 6116   3.951   0.797  16.871  0.6656  0.4415  0.1664
  410TMC3    C2 6117   4.018   0.813  16.989  0.5067 -0.1750  0.2251
  410TMC3    C3 6118   4.098   0.924  17.005 -0.1413  0.8118  0.7477
  410TMC3    C4 6119   3.966   0.888  16.772 -0.1144  1.1284 -0.0270
  410TMC3    C5 6120   4.041   0.995  16.791  0.1275 -0.2225 -0.0658
  410TMC3    C6 6121   4.109   1.019  16.904  0.1012 -0.3011  0.0157
  410TMC3     C 6122   3.852   0.683  16.859 -0.0626 -0.0679 -0.3868
  410TMC3     O 6123   3.809   0.648  16.972 -0.3221 -1.0246  0.5543
  410TMC3     H 6124   3.999   0.754  17.078 -1.1659 -1.4431 -0.9990
  410TMC3    H1 6125   3.918   0.873  16.676 -1.3667 -0.5747  0.8564
  410TMC3    H2 6126   4.186   1.095  16.908  0.4620 -0.4789 -3.0914
  410TMC3    C7 6127   4.082   1.064  16.671 -0.2617  0.2174 -0.7486
  410TMC3    C8 6128   4.152   0.953  17.136  0.1182 -0.1958  0.0663
  410TMC3    O1 6129   4.076   0.996  16.569 -0.2696 -0.5647  0.0692
  410TMC3    O2 6130   4.169   1.071  17.171  0.1669 -0.5208 -0.3564
  411MPD2     C 6131   4.068   1.246  14.592  0.4737  0.4747  0.4391
  411MPD2    C1 6132   3.949   1.237  14.515  1.2123  0.4239 -0.4062
  411MPD2    C2 6133   3.904   1.115  14.463 -0.3509 -0.0098  0.0654
  411MPD2    C3 6134   3.993   1.006  14.461 -0.7886 -0.1504 -0.5286
  411MPD2    C4 6135   4.114   1.022  14.520 -0.0550  0.2393 -0.1079
  411MPD2    C5 6136   4.142   1.134  14.592 -1.0020  0.6648 -0.4155
  411MPD2     H 6137   3.809   1.120  14.411 -0.5867  0.0018  0.4971
  411MPD2    H1 6138   4.191   0.951  14.496  0.0905 -0.2709  1.8398
  411MPD2    H2 6139   4.108   1.339  14.629 -1.9348  0.5996  2.7171
  411MPD2    H3 6140   4.240   1.139  14.638 -1.8779 -0.8902  1.6043
  411MPD2     N 6141   3.971   0.894  14.382  0.5079  0.5126  0.2476
  411MPD2    H5 6142   4.049   0.834  14.357  0.2733 -0.5578  2.0880
  411MPD2    N1 6143   3.862   1.355  14.507  0.3167 -0.0411 -0.7618
  411MPD2    H7 6144   3.874   1.440  14.560 -0.0860  1.0961 -2.4890
  412TMC3    C1 6145   3.846   0.749  14.230  0.4085 -0.4918 -0.3539
  412TMC3    C2 6146   3.894   0.632  14.283 -0.5877 -0.0842  0.6738
  412TMC3    C3 6147   3.842   0.512  14.234 -0.0377 -0.0962  0.0123
  412TMC3    C4 6148   3.756   0.757  14.128  0.3374  0.2780  0.1133
  412TMC3    C5 6149   3.718   0.633  14.074 -0.1668  0.4292 -0.2970
  412TMC3    C6 6150   3.765   0.515  14.116 -0.1079  0.5500  0.5667
  412TMC3     C 6151   3.856   0.876  14.309 -0.0550 -0.5683 -1.0503
  412TMC3     O 6152   3.749   0.931  14.312 -0.2807  0.3313  0.4351
  412TMC3     H 6153   3.963   0.625  14.366  0.5919  4.4499  0.0683
  412TMC3    H1 6154   3.735   0.855  14.086  2.4425  0.1589 -1.2310
  412TMC3    H2 6155   3.743   0.425  14.059  0.6719 -0.4967  1.9102
  412TMC3    C7 6156   3.609   0.632  13.983 -0.4908  0.3892 -0.0674
  412TMC3    C8 6157   3.750   0.465  14.344  0.1973  0.3337 -0.1067
  412TMC3    O1 6158   3.565   0.519  13.965  0.5193 -0.0694  0.3836
  412TMC3    O2 6159   3.755   0.529  14.447 -0.6721 -0.4790  0.5402
  413MPD2     C 6160   0.449   3.617  15.492  0.6527 -0.2694  0.4571
  413MPD2    C1 6161   0.391   3.506  15.441  0.1933 -0.3943 -0.3606
  413MPD2    C2 6162   0.460   3.387  15.420 -0.8930 -0.2807 -0.3336
  413MPD2    C3 6163   0.588   3.374  15.444 -0.2280  0.0695 -0.2394
  413MPD2    C4 6164   0.649   3.486  15.490 -0.0220  0.6578  0.4283
  413MPD2    C5 6165   0.584   3.599  15.513 -0.2896  0.6301 -0.4222
  413MPD2     H 6166   0.404   3.300  15.386  0.5991 -1.3404 -0.1017
  413MPD2    H1 6167   0.754   3.477  15.514 -0.3266 -1.1112  1.0614
  413MPD2    H2 6168   0.394   3.709  15.510 -0.0080 -0.4886 -0.4398
  413MPD2    H3 6169   0.635   3.687  15.551  0.2052  0.9172 -1.7601
  413MPD2     N 6170   0.640   3.241  15.444  0.0746 -0.2258 -0.4303
  413MPD2    H5 6171   0.573   3.164  15.435 -2.9656  2.4274 -0.3815
  413MPD2    N1 6172   0.260   3.522  15.397 -0.5771  0.0022 -1.0012
  413MPD2    H7 6173   0.220   3.615  15.401 -0.8766 -0.2310  1.5974
  414TMC3    C1 6174   0.781   3.071  15.435 -0.1131  0.2686 -0.2435
  414TMC3    C2 6175   0.871   2.995  15.503  0.5361 -0.4509  0.4037
  414TMC3    C3 6176   0.877   2.861  15.495  0.1294  0.1487  0.6713
  414TMC3    C4 6177   0.683   3.013  15.359 -0.2591  0.3961 -0.4355
  414TMC3    C5 6178   0.707   2.881  15.336  0.5919 -0.5414  0.0128
  414TMC3    C6 6179   0.796   2.800  15.407  0.3038  0.3563  0.4887
  414TMC3     C 6180   0.766   3.208  15.465 -0.5732 -0.1865  0.9682
  414TMC3     O 6181   0.869   3.275  15.467  0.6918 -0.0710 -0.0814
  414TMC3     H 6182   0.942   3.046  15.568  0.2433 -0.3168  0.6159
  414TMC3    H1 6183   0.623   3.068  15.287  1.2772 -0.1137 -2.1145
  414TMC3    H2 6184   0.792   2.692  15.397  1.7269  0.4054 -0.5279
  414TMC3    C7 6185   0.632   2.828  15.224  1.0727  0.1371  0.0605
  414TMC3    C8 6186   1.006   2.790  15.514  0.6936 -0.0073  0.2855
  414TMC3    O1 6187   0.520   2.870  15.214  0.1518 -0.3229  0.3365
  414TMC3    O2 6188   1.004   2.668  15.485  0.0824 -0.9528  0.0637
  415TMC3    C1 6189   0.825   1.281   9.926 -0.4228 -0.2050  0.0286
  415TMC3    C2 6190   0.861   1.350   9.809  0.0316 -0.3268  0.8007
  415TMC3    C3 6191   0.824   1.296   9.686 -0.7919 -0.2657  0.0416
  415TMC3    C4 6192   0.765   1.161   9.927 -0.5279 -0.1373 -0.1320
  415TMC3    C5 6193   0.725   1.121   9.800 -0.4820  0.6747 -0.8943
  415TMC3    C6 6194   0.749   1.185   9.682  0.0130 -0.3365 -0.4417
  415TMC3     C 6195   0.868   1.341  10.054 -0.3468 -0.3753  0.7033
  415TMC3     O 6196   0.798   1.310  10.149  0.3492 -0.1351 -0.0308
  415TMC3     H 6197   0.915   1.444   9.819 -1.3853  0.5878 -0.0327
  415TMC3    H1 6198   0.739   1.110  10.019  0.5047 -1.1639 -0.4031
  415TMC3    H2 6199   0.705   1.147   9.591 -1.2803 -0.4296  0.2186
  415TMC3    C7 6200   0.625   1.023   9.789 -0.4081 -0.3366  0.7287
  415TMC3    C8 6201   0.830   1.379   9.566  0.1681  0.1090  1.2331
  415TMC3    O1 6202   0.540   1.040   9.703 -0.0421  0.3774 -0.5568
  415TMC3    O2 6203   0.756   1.355   9.470 -0.0369  1.1200  0.1618
  416MPD2     C 6204   3.010   0.502  11.500 -0.0670  0.6382  0.8977
  416MPD2    C1 6205   2.913   0.481  11.395  0.2141 -0.0460  0.1839
  416MPD2    C2 6206   2.923   0.369  11.310  0.4090 -0.2354 -0.5300
  416MPD2    C3 6207   3.038   0.290  11.314  0.3266 -0.2283  0.2454
  416MPD2    C4 6208   3.135   0.324  11.405  0.0085 -0.5267 -0.0586
  416MPD2    C5 6209   3.121   0.422  11.503  0.5442  0.3589  0.6620
  416MPD2     H 6210   2.834   0.339  11.256  0.5112 -2.5423  0.5800
  416MPD2    H1 6211   3.217   0.253  11.406 -1.5656 -2.3452  0.4649
  416MPD2    H2 6212   2.997   0.585  11.568  4.5241  0.8130  1.5921
  416MPD2    H3 6213   3.199   0.435  11.577  0.0258  0.8523  1.1178
  416MPD2     N 6214   3.062   0.174  11.237 -0.0676  0.6120 -0.4239
  416MPD2    H5 6215   3.153   0.130  11.250 -0.2205 -0.4497 -2.9513
  416MPD2    N1 6216   2.798   0.563  11.398 -0.8664 -0.2560 -0.3567
  416MPD2    H7 6217   2.798   0.638  11.466 -2.2520 -2.3427  1.9412
  417TMC3    C1 6218   2.582   0.629  11.361 -0.7559 -0.2528  0.1975
  417TMC3    C2 6219   2.552   0.602  11.491  0.1715 -0.2536 -0.3242
  417TMC3    C3 6220   2.433   0.663  11.540 -0.3483  0.1536 -0.1738
  417TMC3    C4 6221   2.495   0.689  11.279  0.8902  0.1776  0.4636
  417TMC3    C5 6222   2.379   0.735  11.328 -0.4512 -1.2613  0.2606
  417TMC3    C6 6223   2.344   0.724  11.459  0.1262  0.1541 -0.2355
  417TMC3     C 6224   2.691   0.560  11.306  0.3925  0.2427 -0.7026
  417TMC3     O 6225   2.698   0.534  11.185  0.7919 -0.3389 -0.7491
  417TMC3     H 6226   2.610   0.532  11.549  0.3852 -1.0032 -1.4247
  417TMC3    H1 6227   2.530   0.703  11.178  0.6357 -0.1760  0.3260
  417TMC3    H2 6228   2.240   0.740  11.487 -0.0955  0.0765 -1.0036
  417TMC3    C7 6229   2.321   0.841  11.250 -0.1814  0.5076  0.1781
  417TMC3    C8 6230   2.407   0.676  11.687  0.2508 -0.6773  0.4436
  417TMC3    O1 6231   2.362   0.840  11.132 -0.0722  0.0633  0.4207
  417TMC3    O2 6232   2.296   0.702  11.727  0.2195 -0.0323  0.2942
  418TMC3    C1 6233   1.402   2.860   0.445  0.4751 -0.4544 -0.2797
  418TMC3    C2 6234   1.265   2.864   0.417 -1.3791 -0.2503  0.8711
  418TMC3    C3 6235   1.184   2.764   0.462 -0.6089  0.1544 -0.2609
  418TMC3    C4 6236   1.451   2.758   0.523  0.2212 -0.1443 -0.4663
  418TMC3    C5 6237   1.362   2.658   0.565 -0.3415 -0.0801  0.7920
  418TMC3    C6 6238   1.226   2.660   0.539 -0.5956  0.1776  0.6757
  418TMC3     C 6239   1.471   2.904   0.323 -0.4591 -0.3823 -0.3298
  418TMC3     O 6240   1.423   3.000   0.264 -0.5454 -0.4625 -0.3493
  418TMC3     H 6241   1.221   2.938   0.350  0.2102 -0.8206 -0.7947
  418TMC3    H1 6242   1.556   2.743   0.541  0.0455  1.3440  1.7158
  418TMC3    H2 6243   1.149   2.592   0.576 -0.5224  0.0351  0.5640
  418TMC3    C7 6244   1.414   2.557   0.641 -0.2918 -0.1749 -0.1193
  418TMC3    C8 6245   1.069   2.724   0.382  0.0761  0.4208  0.9960
  418TMC3    O1 6246   1.355   2.451   0.630  0.0387 -0.0634 -0.4606
  418TMC3    O2 6247   0.964   2.777   0.411  0.2616 -0.0936  0.6808
  419MPD2     C 6248   0.187   0.062  12.642  0.8134 -0.2686  0.0535
  419MPD2    C1 6249   0.103   0.163  12.601 -0.0692  0.1241  0.3304
  419MPD2    C2 6250   0.026   0.216  12.693 -0.0626  0.0237 -0.1817
  419MPD2    C3 6251   0.049   0.199  12.831 -0.5644  0.8874  0.0325
  419MPD2    C4 6252   0.136   0.107  12.876 -0.1843  0.7263 -0.1368
  419MPD2    C5 6253   0.200   0.032  12.776  0.0874 -0.3420 -0.2841
  419MPD2     H 6254   4.690   0.301  12.667  0.7202  0.6492  0.0067
  419MPD2    H1 6255   0.161   0.092  12.980  0.4078  1.4791 -0.1743
  419MPD2    H2 6256   0.245   0.013  12.565 -2.3382 -1.1827 -1.7310
  419MPD2    H3 6257   0.275   4.683  12.804  1.1086  0.5950 -0.5478
  419MPD2     N 6258   4.713   0.289  12.916  0.7386 -0.4132  0.1792
  419MPD2    H5 6259   4.640   0.352  12.886  0.5381 -1.9652 -2.6513
  419MPD2    N1 6260   0.096   0.222  12.471  0.1888 -0.3311 -0.0158
  419MPD2    H7 6261   0.019   0.284  12.450 -1.8706 -2.3186  1.6869
  420TMC3    C1 6262   4.692   0.419  13.109 -0.4001  0.1905  0.1456
  420TMC3    C2 6263   4.635   0.515  13.027  0.8887  0.2911  0.7081
  420TMC3    C3 6264   4.595   0.626  13.092 -0.1202 -0.4388  0.3481
  420TMC3    C4 6265   4.690   0.427  13.247  1.0606  0.3567 -0.2809
  420TMC3    C5 6266   4.670   0.546  13.303 -0.1046 -0.2652  0.4150
  420TMC3    C6 6267   4.623   0.647  13.229  0.2009  0.5827  0.7519
  420TMC3     C 6268   0.031   0.310  13.041  0.1773 -0.2035 -0.4283
  420TMC3     O 6269   0.113   0.264  13.119 -0.4768  0.0422  0.0247
  420TMC3     H 6270   4.646   0.522  12.919 -0.2691  1.2871  0.6611
  420TMC3    H1 6271   0.010   0.350  13.308  0.3329  0.5374  0.4777
  420TMC3    H2 6272   4.591   0.738  13.278  2.3407  0.1189  2.9790
  420TMC3    C7 6273   4.673   0.548  13.444 -0.4829 -0.0855  0.6326
  420TMC3    C8 6274   4.488   0.704  13.028 -0.3738  0.1162  0.1602
  420TMC3    O1 6275   4.650   0.438  13.494  0.0380  0.2636  0.6497
  420TMC3    O2 6276   4.501   0.732  12.908 -0.2408 -0.4553 -0.0199
  421TMC3    C1 6277   1.824   1.595  13.331  0.0082  0.2233  0.1919
  421TMC3    C2 6278   1.877   1.704  13.392  0.5651 -0.2863  0.2319
  421TMC3    C3 6279   1.998   1.699  13.462 -0.0232 -0.0347  0.2426
  421TMC3    C4 6280   1.900   1.479  13.322  0.0303  1.0909  0.2170
  421TMC3    C5 6281   2.020   1.480  13.387 -0.3112 -1.1332  0.1172
  421TMC3    C6 6282   2.064   1.584  13.456  0.2933 -0.1188 -0.3561
  421TMC3     C 6283   1.709   1.614  13.254  0.8151  0.1323 -0.0775
  421TMC3     O 6284   1.706   1.722  13.206  0.2400  0.0942 -0.6099
  421TMC3     H 6285   1.816   1.794  13.396 -0.0339 -0.7364  1.4438
  421TMC3    H1 6286   1.862   1.391  13.272  2.5976  0.1825 -0.1207
  421TMC3    H2 6287   2.161   1.594  13.504  0.9633  3.2698 -2.4461
  421TMC3    C7 6288   2.089   1.359  13.399  0.4440  0.0413  0.2962
  421TMC3    C8 6289   2.054   1.817  13.534  0.3359  0.2985  0.1770
  421TMC3    O1 6290   2.162   1.350  13.497  0.0992  0.6567  0.0803
  421TMC3    O2 6291   2.176   1.825  13.536  0.1230 -0.3019 -0.0882
  422TMC3    C1 6292   4.044   3.013  12.823 -0.0086  0.0837 -0.0182
  422TMC3    C2 6293   3.984   3.133  12.841  0.8169 -0.5944  0.1686
  422TMC3    C3 6294   3.847   3.137  12.848 -0.0036  0.5097 -0.2596
  422TMC3    C4 6295   3.975   2.896  12.804 -0.8416 -0.5106 -0.7178
  422TMC3    C5 6296   3.840   2.905  12.814  0.5585 -0.0707 -0.1701
  422TMC3    C6 6297   3.771   3.026  12.826 -0.0591  0.2418 -0.9185
  422TMC3     C 6298   4.182   3.015  12.773  0.1869  0.7991 -0.2342
  422TMC3     O 6299   4.214   3.115  12.708  0.2063 -0.1958 -0.1738
  422TMC3     H 6300   4.048   3.219  12.859  1.3505 -0.8053 -0.7401
  422TMC3    H1 6301   4.032   2.806  12.789  0.8305  0.3068  0.7212
  422TMC3    H2 6302   3.663   3.019  12.837  0.5353 -3.1263  2.6275
  422TMC3    C7 6303   3.766   2.782  12.785 -0.6751  0.0767  0.0979
  422TMC3    C8 6304   3.788   3.268  12.829 -0.2838 -0.0051 -0.7452
  422TMC3    O1 6305   3.835   2.692  12.738 -0.5566 -0.1098  0.0863
  422TMC3    O2 6306   3.866   3.361  12.849 -0.0973 -0.1137  0.1679
  423MPD2     C 6307   1.033   4.494   0.660 -0.6741 -0.2561  0.3193
  423MPD2    C1 6308   0.912   4.436   0.691 -0.1188 -0.3302  0.0825
  423MPD2    C2 6309   0.824   4.410   0.585  0.1319 -0.3876  0.6611
  423MPD2    C3 6310   0.861   4.412   0.452 -0.3912  0.2563 -1.0552
  423MPD2    C4 6311   0.981   4.483   0.428 -0.3940  0.0871  0.2087
  423MPD2    C5 6312   1.065   4.524   0.529 -0.3980  0.2831  0.1766
  423MPD2     H 6313   0.723   4.378   0.608 -0.6701 -0.1253 -2.4325
  423MPD2    H1 6314   1.009   4.499   0.325  2.0502 -1.3100  0.6712
  423MPD2    H2 6315   1.101   4.526   0.738 -1.9267  0.8414  0.9730
  423MPD2    H3 6316   1.162   4.566   0.507 -0.7850  1.6300  1.0488
  423MPD2     N 6317   0.790   4.361   0.340 -0.3397  0.0801  0.6416
  423MPD2    H5 6318   0.833   4.374   0.249 -1.9259  1.5930  0.1060
  423MPD2    N1 6319   0.872   4.394   0.820 -0.3807 -0.4205 -0.2770
  423MPD2    H7 6320   0.781   4.349   0.825  0.2883 -1.8724 -1.5978
  424TMC3    C1 6321   0.877   4.337   1.053 -0.6570  0.5086 -0.0826
  424TMC3    C2 6322   0.956   4.262   1.135 -0.3070 -0.0771 -0.3736
  424TMC3    C3 6323   0.886   4.184   1.224 -0.4225 -0.7842  0.0748
  424TMC3    C4 6324   0.745   4.355   1.071  0.5130  0.3935  0.7951
  424TMC3    C5 6325   0.682   4.283   1.169  0.3255  0.5069 -0.5413
  424TMC3    C6 6326   0.750   4.193   1.239 -0.1688 -0.5113 -0.2611
  424TMC3     C 6327   0.944   4.397   0.939 -0.0176  0.0466  0.3163
  424TMC3     O 6328   1.059   4.438   0.953 -0.3141 -0.3094  0.3757
  424TMC3     H 6329   1.062   4.252   1.113  0.0046  3.8972 -0.7251
  424TMC3    H1 6330   0.691   4.419   1.002 -0.6015  0.7446  2.0015
  424TMC3    H2 6331   0.699   4.130   1.310 -0.1051 -3.1482 -2.5062
  424TMC3    C7 6332   0.533   4.275   1.167  0.0286  0.1576  0.2445
  424TMC3    C8 6333   0.948   4.075   1.292 -0.1169  0.2925 -0.2276
  424TMC3    O1 6334   0.479   4.301   1.063 -0.2435 -0.1481 -0.5168
  424TMC3    O2 6335   0.877   3.991   1.349  0.2232 -0.4957 -0.2474
  425MPD2     C 6336   4.422   3.733  17.638 -0.0279  0.5798  0.4418
  425MPD2    C1 6337   4.346   3.660  17.551 -0.1609  0.1304 -0.8277
  425MPD2    C2 6338   4.215   3.687  17.533 -0.4732  0.3126  0.4476
  425MPD2    C3 6339   4.159   3.784  17.611 -0.2607 -0.3705  0.2123
  425MPD2    C4 6340   4.238   3.868  17.683  0.3437 -0.1218  0.1222
  425MPD2    C5 6341   4.371   3.844  17.699 -0.1771 -0.7175  0.1087
  425MPD2     H 6342   4.156   3.622  17.470 -2.4328  1.6026  0.9109
  425MPD2    H1 6343   4.199   3.956   0.028  2.7944  1.0567 -0.0370
  425MPD2    H2 6344   4.529   3.713  17.640  0.0313  1.0808  2.3558
  425MPD2    H3 6345   4.438   3.907   0.054  0.5225 -0.1159 -1.3433
  425MPD2     N 6346   4.019   3.804  17.595 -0.0917 -0.4397  0.0220
  425MPD2    H5 6347   3.961   3.733  17.552  0.4467 -1.5331  1.1155
  425MPD2    N1 6348   4.396   3.545  17.495  0.2369 -0.0704 -0.3360
  425MPD2    H7 6349   4.487   3.515  17.530  0.1644  1.5807  1.2564
  426TMC3    C1 6350   4.438   3.374  17.336 -0.1682  0.2633  0.2436
  426TMC3    C2 6351   4.436   3.331  17.209 -0.5703 -0.2133 -0.6390
  426TMC3    C3 6352   4.517   3.231  17.168 -0.8099  0.1693  0.7605
  426TMC3    C4 6353   4.498   3.310  17.424 -0.5290 -0.6506  0.2039
  426TMC3    C5 6354   4.547   3.182  17.392 -0.3450 -0.6526 -0.3847
  426TMC3    C6 6355   4.572   3.145  17.265  0.1784 -0.7844  0.0766
  426TMC3     C 6356   4.364   3.497  17.368 -0.5594  0.3543  0.1399
  426TMC3     O 6357   4.292   3.539  17.280  0.1881 -0.1513  0.3227
  426TMC3     H 6358   4.379   3.383  17.133 -0.6482  1.3141  0.4775
  426TMC3    H1 6359   4.493   3.333  17.530  0.6498 -1.6703  0.5000
  426TMC3    H2 6360   4.603   3.043  17.245  2.0404 -0.0984 -0.5241
  426TMC3    C7 6361   4.567   3.081  17.493  0.0972  0.3878 -0.3935
  426TMC3    C8 6362   4.487   3.161  17.043  0.2931  0.0928  0.2192
  426TMC3    O1 6363   4.649   3.001  17.457 -0.4540 -0.4379 -0.1035
  426TMC3    O2 6364   4.572   3.080  17.008  0.1853  0.3357  0.3611
  427MPD2     C 6365   2.789   1.165  15.407  0.7782 -0.6879 -0.1353
  427MPD2    C1 6366   2.820   1.045  15.343  0.5151 -0.0919 -0.0160
  427MPD2    C2 6367   2.715   0.978  15.291 -1.5341 -0.2496 -0.6665
  427MPD2    C3 6368   2.587   1.024  15.293  0.1928 -0.0892 -0.2619
  427MPD2    C4 6369   2.565   1.146  15.358  0.1472 -0.4438 -0.6233
  427MPD2    C5 6370   2.664   1.210  15.420 -0.0836 -0.4662  0.5661
  427MPD2     H 6371   2.737   0.882  15.245 -0.4178 -0.3549  0.1079
  427MPD2    H1 6372   2.464   1.184  15.359  0.8093  1.2409  2.8790
  427MPD2    H2 6373   2.868   1.226  15.449  0.0012  0.5715 -0.5398
  427MPD2    H3 6374   2.645   1.301  15.476  0.6442  0.5952 -0.9242
  427MPD2     N 6375   2.470   0.962  15.230  0.0820  0.3357  0.2091
  427MPD2    H5 6376   2.379   1.003  15.244 -1.1468 -2.5811  0.6279
  427MPD2    N1 6377   2.947   0.981  15.341  0.0352  0.0673 -0.3604
  427MPD2    H7 6378   2.955   0.887  15.305  0.3174  0.5559 -1.5912
  428TMC3    C1 6379   3.176   0.942  15.398 -0.4112 -0.6896  0.4570
  428TMC3    C2 6380   3.142   0.826  15.462 -0.1238 -0.3196 -0.1953
  428TMC3    C3 6381   3.251   0.746  15.493 -0.1230 -0.6625 -0.5096
  428TMC3    C4 6382   3.305   0.975  15.354 -0.1984 -0.2903 -0.2121
  428TMC3    C5 6383   3.397   0.879  15.373 -0.5040  0.0784  0.3345
  428TMC3    C6 6384   3.380   0.772  15.448 -0.4814 -0.0983 -0.5618
  428TMC3     C 6385   3.071   1.040  15.382  0.2746  0.3216  0.3548
  428TMC3     O 6386   3.097   1.152  15.417  0.9520  0.7684 -0.6319
  428TMC3     H 6387   3.039   0.802  15.484  0.4830  0.6689  3.7417
  428TMC3    H1 6388   3.314   1.061  15.290 -0.6371  1.4211  2.0410
  428TMC3    H2 6389   3.454   0.693  15.445 -0.3503  0.0017 -0.1147
  428TMC3    C7 6390   3.535   0.919  15.343  0.5952  0.3921  0.2327
  428TMC3    C8 6391   3.231   0.609  15.536 -0.6631 -0.1571 -0.6540
  428TMC3    O1 6392   3.624   0.877  15.422 -0.2609 -0.0743 -0.1444
  428TMC3    O2 6393   3.323   0.532  15.515 -0.2684 -0.0483  0.1338
  429MPD2     C 6394   3.638   1.571  17.617  0.3204 -0.1519 -0.9591
  429MPD2    C1 6395   3.744   1.513  17.546 -0.6212 -0.6712  0.2559
  429MPD2    C2 6396   3.865   1.576  17.549  0.0056  0.2308 -1.2405
  429MPD2    C3 6397   3.885   1.689  17.627 -0.1050  0.1895 -0.4663
  429MPD2    C4 6398   3.779   1.745  17.696  0.3549  0.5094  0.1588
  429MPD2    C5 6399   3.659   1.680  17.694 -0.1381 -0.0812  0.3540
  429MPD2     H 6400   3.951   1.556  17.487  0.2992  1.8956 -1.3867
  429MPD2    H1 6401   3.785   1.840   0.045  2.1857  0.2346  0.4202
  429MPD2    H2 6402   3.535   1.536  17.609  0.3112 -0.1598 -0.8066
  429MPD2    H3 6403   3.577   1.729   0.043  0.6066 -0.1753  1.6039
  429MPD2     N 6404   4.013   1.753  17.612  0.4822 -0.0439 -0.3742
  429MPD2    H5 6405   4.084   1.704  17.558  0.7937 -0.3929  0.3401
  429MPD2    N1 6406   3.736   1.392  17.472 -0.8006  0.4068  0.9079
  429MPD2    H7 6407   3.818   1.348  17.431 -0.4350 -1.2711  3.4332
  430TMC3    C1 6408   4.158   1.915  17.582  0.0196 -0.4564 -0.1104
  430TMC3    C2 6409   4.146   2.002  17.470  0.2656 -0.5194  0.5504
  430TMC3    C3 6410   4.238   2.010  17.376  0.3985 -0.6276  0.6873
  430TMC3    C4 6411   4.264   1.840  17.589 -0.9000  0.1326  0.4265
  430TMC3    C5 6412   4.356   1.850  17.488 -0.6205 -0.5440 -0.3529
  430TMC3    C6 6413   4.355   1.944  17.384 -0.3603 -0.2370 -0.3871
  430TMC3     C 6414   4.037   1.878  17.640 -0.7091 -0.1770  0.3747
  430TMC3     O 6415   3.954   1.963  17.668  0.2846  0.2246 -0.2602
  430TMC3     H 6416   4.046   2.038  17.449 -0.5363 -3.1029 -0.0421
  430TMC3    H1 6417   4.272   1.761  17.664  2.4560  0.5822  0.5204
  430TMC3    H2 6418   4.423   1.936  17.300  0.2150  0.9192 -0.0371
  430TMC3    C7 6419   4.466   1.751  17.485  0.6459 -0.5684  0.3066
  430TMC3    C8 6420   4.207   2.077  17.242  0.3083  0.1915 -0.2122
  430TMC3    O1 6421   4.520   1.719  17.381  0.5876  0.6864  0.1809
  430TMC3    O2 6422   4.284   2.046  17.149 -0.1556  0.5873  0.0206
  431MPD2     C 6423   4.573   1.015  12.529  0.6348 -0.0552 -0.2985
  431MPD2    C1 6424   4.688   1.024  12.448  0.5185 -0.0243  0.2963
  431MPD2    C2 6425   0.003   0.913  12.378  0.0927 -0.0666 -0.7032
  431MPD2    C3 6426   4.665   0.791  12.398  0.3103  0.4073  0.6416
  431MPD2    C4 6427   4.563   0.781  12.492 -0.1711  0.2540  0.0400
  431MPD2    C5 6428   4.518   0.891  12.556  1.1302 -0.1635  0.3606
  431MPD2     H 6429   0.089   0.927  12.313  0.3512  0.8676 -0.1771
  431MPD2    H1 6430   4.506   0.689  12.502  1.7923 -0.9449  0.0518
  431MPD2    H2 6431   4.532   1.099  12.583 -0.4341 -0.3972 -0.5707
  431MPD2    H3 6432   4.433   0.882  12.623 -1.0014  1.2401 -2.1474
  431MPD2     N 6433   4.720   0.670  12.349 -0.6855  0.7053  0.5077
  431MPD2    H5 6434   4.686   0.584  12.391  0.9000  0.1319  0.5989
  431MPD2    N1 6435   0.052   1.132  12.436  0.5922  0.7708  0.6192
  431MPD2    H7 6436   0.132   1.121  12.373  0.6807  0.2703  0.8201
  432TMC3    C1 6437   0.126   0.529  12.210 -0.3363  0.6993  0.3588
  432TMC3    C2 6438   0.198   0.507  12.092 -0.0603  0.5887 -0.2132
  432TMC3    C3 6439   0.260   0.391  12.077 -0.2517 -0.1331  0.3697
  432TMC3    C4 6440   0.111   0.434  12.308  0.0499  0.0060  0.2893
  432TMC3    C5 6441   0.169   0.316  12.272  0.0959  0.3709 -0.3063
  432TMC3    C6 6442   0.237   0.285  12.157 -0.5349  0.2831 -0.0898
  432TMC3     C 6443   0.083   0.663  12.247  0.6739  0.1874  0.0777
  432TMC3     O 6444   0.124   0.754  12.179  0.0020  0.0211 -0.3885
  432TMC3     H 6445   0.213   0.592  12.026  1.1341  1.2662  0.9524
  432TMC3    H1 6446   0.074   0.454  12.407 -2.1961 -0.0938 -0.5328
  432TMC3    H2 6447   0.285   0.191  12.130  2.2429  1.6612  0.0161
  432TMC3    C7 6448   0.190   0.206  12.374 -0.1291  0.8666  0.8439
  432TMC3    C8 6449   0.318   0.363  11.944 -0.0072 -0.5537  0.0484
  432TMC3    O1 6450   0.288   0.129  12.366  0.0244  0.4051 -0.4145
  432TMC3    O2 6451   0.336   0.248  11.908  0.4914 -0.2777  0.4886
  433MPD2     C 6452   4.035   4.528  10.930 -0.1024 -0.1258 -0.4263
  433MPD2    C1 6453   3.950   4.468  11.027 -0.3269  0.0955 -0.0491
  433MPD2    C2 6454   3.966   4.505  11.153  0.1383  0.0767 -0.1331
  433MPD2    C3 6455   4.072   4.590  11.189 -0.1375 -0.1958  0.4480
  433MPD2    C4 6456   4.155   4.640  11.088 -0.4906  0.3923  0.7261
  433MPD2    C5 6457   4.126   4.621  10.959 -0.3480  0.5555 -0.2819
  433MPD2     H 6458   3.904   4.467  11.234 -0.9166  0.7204 -0.6375
  433MPD2    H1 6459   4.244   4.697  11.107 -1.0338  1.4385  0.1164
  433MPD2    H2 6460   4.025   4.497  10.826  0.2297 -0.9174 -0.2188
  433MPD2    H3 6461   4.186   4.669  10.882  1.1997 -0.5020  0.2735
  433MPD2     N 6462   4.093   4.622  11.319  0.6419  0.6640 -0.2503
  433MPD2    H5 6463   4.032   4.587  11.392 -0.0210  0.2569 -0.9986
  433MPD2    N1 6464   3.852   4.368  10.988 -0.4052  0.1737  0.4038
  433MPD2    H7 6465   3.859   4.338  10.891  0.2820 -1.1351  0.8646
  434TMC3    C1 6466   3.752   4.168  11.017 -0.9538 -0.4669  0.4134
  434TMC3    C2 6467   3.796   4.064  11.093  0.1587 -0.0778 -0.2605
  434TMC3    C3 6468   3.816   3.940  11.038 -0.0024  0.1565  0.2729
  434TMC3    C4 6469   3.743   4.161  10.886 -0.0527  0.2078  0.4307
  434TMC3    C5 6470   3.769   4.039  10.825  0.2702  0.1881  0.1262
  434TMC3    C6 6471   3.807   3.922  10.902 -0.2380 -0.1435 -0.7485
  434TMC3     C 6472   3.773   4.300  11.072  0.0039  0.6665  0.0886
  434TMC3     O 6473   3.768   4.305  11.195 -0.5958 -0.0014 -0.2048
  434TMC3     H 6474   3.822   4.069  11.198 -1.3812 -1.2435  0.1741
  434TMC3    H1 6475   3.712   4.239  10.818 -0.6182 -0.5518 -0.1863
  434TMC3    H2 6476   3.849   3.830  10.864 -0.4350 -0.0533 -1.1802
  434TMC3    C7 6477   3.720   4.023  10.690  0.4152  1.2292 -0.3727
  434TMC3    C8 6478   3.905   3.851  11.116 -0.7759  0.5187 -0.4884
  434TMC3    O1 6479   3.716   4.118  10.613 -0.2433 -0.3723  0.6385
  434TMC3    O2 6480   3.960   3.906  11.211 -0.6122  0.0175 -0.3408
  435MPD2     C 6481   0.685   4.063  15.561  0.0655  0.2672  0.4034
  435MPD2    C1 6482   0.689   4.068  15.701 -0.1302 -0.0032 -0.0985
  435MPD2    C2 6483   0.815   4.055  15.761  0.2050  0.4526  0.3427
  435MPD2    C3 6484   0.927   4.013  15.688  0.1334 -0.0973 -0.5956
  435MPD2    C4 6485   0.922   4.012  15.547 -0.0019  0.5259  0.0002
  435MPD2    C5 6486   0.800   4.037  15.489  0.4391 -0.3188  0.0009
  435MPD2     H 6487   0.814   4.063  15.869  0.6963 -1.8767  0.4977
  435MPD2    H1 6488   1.012   3.994  15.491 -1.1744  1.9319 -2.3210
  435MPD2    H2 6489   0.599   4.094  15.502 -0.9685 -0.0519  1.7368
  435MPD2    H3 6490   0.803   4.045  15.381  0.5327 -0.0152  0.0237
  435MPD2     N 6491   1.050   3.998  15.759  0.3374 -0.2508  0.0688
  435MPD2    H5 6492   1.035   4.016  15.857 -0.4843 -1.5042  0.1782
  435MPD2    N1 6493   0.577   4.109  15.791  0.8131  0.2942 -0.0721
  435MPD2    H7 6494   0.601   4.132  15.887 -1.4198 -1.6847  0.9760
  436TMC3    C1 6495   0.350   4.300  16.064 -0.0413 -0.6799  0.0159
  436TMC3    C2 6496   0.430   4.251  15.965 -0.1492 -0.7039  0.0551
  436TMC3    C3 6497   0.371   4.205  15.845 -0.6617  0.0640 -0.3333
  436TMC3    C4 6498   0.211   4.299  16.047  0.0068  0.2479 -0.1385
  436TMC3    C5 6499   0.158   4.260  15.922 -0.2267  0.5878 -0.7667
  436TMC3    C6 6500   0.239   4.211  15.819  0.9262 -0.3574  0.0236
  436TMC3     C 6501   0.411   4.346  16.184 -0.4519  0.0165 -0.2765
  436TMC3     O 6502   0.532   4.334  16.198  0.3656 -0.7418  0.5484
  436TMC3     H 6503   0.538   4.254  15.972 -0.2766  2.4529  0.5677
  436TMC3    H1 6504   0.139   4.340  16.117  0.0843 -1.1795  0.7817
  436TMC3    H2 6505   0.198   4.165  15.730  0.0460 -1.0195  0.7670
  436TMC3    C7 6506   0.013   4.213  15.911 -0.0490 -0.0781 -0.5359
  436TMC3    C8 6507   0.453   4.140  15.744  0.0841  0.8103  0.3251
  436TMC3    O1 6508   4.713   4.129  15.821  0.4431 -0.7577 -0.1370
  436TMC3    O2 6509   0.408   4.124  15.630  0.2334 -0.1238 -0.4598
  437TMC3    C1 6510   4.153   1.456  12.950 -0.5831 -0.6934  0.0723
  437TMC3    C2 6511   4.020   1.497  12.957  0.2541 -0.4607  0.0412
  437TMC3    C3 6512   3.996   1.619  12.909 -0.2988 -0.0142  0.1384
  437TMC3    C4 6513   4.253   1.521  12.877 -0.9203 -0.5463  0.6448
  437TMC3    C5 6514   4.209   1.640  12.807  0.1158  0.3974  0.7139
  437TMC3    C6 6515   4.079   1.687  12.817 -0.4764  0.2577 -0.5687
  437TMC3     C 6516   4.187   1.343  13.031  0.9592 -0.0272  0.0244
  437TMC3     O 6517   4.089   1.279  13.065 -0.6496 -0.0662  0.5231
  437TMC3     H 6518   3.942   1.449  13.016 -2.5852  0.8740 -2.5970
  437TMC3    H1 6519   4.357   1.491  12.884 -1.1928 -1.3731  1.1241
  437TMC3    H2 6520   4.050   1.783  12.775  1.9395  1.2712  0.0761
  437TMC3    C7 6521   4.308   1.743  12.765 -0.3846  0.7490  0.3167
  437TMC3    C8 6522   3.879   1.688  12.958 -0.0806 -0.0154 -0.0002
  437TMC3    O1 6523   4.259   1.853  12.733  0.3178  0.5248  0.4352
  437TMC3    O2 6524   3.875   1.811  12.954  0.3337  0.1992 -0.3379
  438MPD2     C 6525   1.846   2.755  16.622  0.3959 -0.0942  0.0495
  438MPD2    C1 6526   1.904   2.685  16.720 -0.0910  0.3880  0.0020
  438MPD2    C2 6527   1.855   2.695  16.848  0.1389 -0.1471 -0.1440
  438MPD2    C3 6528   1.735   2.754  16.874 -0.2988  0.3081  0.0726
  438MPD2    C4 6529   1.680   2.829  16.775  0.4846  0.1429  0.6947
  438MPD2    C5 6530   1.741   2.834  16.654  0.2495 -0.5339 -0.4888
  438MPD2     H 6531   1.906   2.637  16.924  1.1524  3.0216  1.5958
  438MPD2    H1 6532   1.595   2.892  16.797  0.4048 -0.1317  1.1668
  438MPD2    H2 6533   1.895   2.771  16.527 -0.8983  1.7954 -0.3019
  438MPD2    H3 6534   1.699   2.899  16.579  0.1846 -0.8304 -0.7074
  438MPD2     N 6535   1.664   2.725  16.993 -0.0115 -0.9591  0.4796
  438MPD2    H5 6536   1.587   2.787  17.013  0.0224 -0.9572  0.6018
  438MPD2    N1 6537   2.003   2.586  16.694 -0.1247 -0.7373  0.3957
  438MPD2    H7 6538   2.052   2.547  16.774  1.5201 -0.3397 -0.4135
  439TMC3    C1 6539   2.147   2.438  16.601 -0.1942 -0.0255 -0.3571
  439TMC3    C2 6540   2.128   2.320  16.536  0.2876 -1.0142  0.0388
  439TMC3    C3 6541   2.163   2.208  16.602 -0.5808  0.1143 -0.2124
  439TMC3    C4 6542   2.219   2.440  16.724 -0.4562  0.7433  0.5726
  439TMC3    C5 6543   2.247   2.322  16.792 -0.4470 -1.1229 -0.1183
  439TMC3    C6 6544   2.212   2.203  16.729  0.2480 -0.0478  0.3886
  439TMC3     C 6545   2.039   2.536  16.576  0.0527 -0.2974  0.8020
  439TMC3     O 6546   1.967   2.523  16.476 -0.3151 -0.1702 -0.1910
  439TMC3     H 6547   2.085   2.319  16.437  0.7607  1.9499 -0.2030
  439TMC3    H1 6548   2.241   2.534  16.773 -1.9432  0.7365  1.2737
  439TMC3    H2 6549   2.237   2.110  16.779  0.3160 -0.2383  0.0069
  439TMC3    C7 6550   2.374   2.320  16.865  0.3293  0.4605 -0.4157
  439TMC3    C8 6551   2.219   2.107  16.504  1.0880  0.2413  0.3215
  439TMC3    O1 6552   2.397   2.218  16.931  0.5468 -0.3437  0.2641
  439TMC3    O2 6553   2.316   2.042  16.535 -0.2897  0.3597  0.4728
  440MPD2     C 6554   1.220   2.367  14.557  0.0725  0.2646 -0.2452
  440MPD2    C1 6555   1.229   2.452  14.666 -0.3312  0.2119 -0.2921
  440MPD2    C2 6556   1.315   2.423  14.767 -0.1349 -0.2790  0.4004
  440MPD2    C3 6557   1.398   2.314  14.764  0.3758 -0.4394  0.0317
  440MPD2    C4 6558   1.389   2.227  14.658  0.4852  0.8098 -0.9016
  440MPD2    C5 6559   1.295   2.248  14.560 -0.6809  0.2796  0.1802
  440MPD2     H 6560   1.320   2.491  14.852 -1.1109  1.7743 -1.2071
  440MPD2    H1 6561   1.456   2.142  14.653  0.0315  0.5023 -1.8025
  440MPD2    H2 6562   1.145   2.379  14.480 -0.1407  1.3324  0.1233
  440MPD2    H3 6563   1.290   2.186  14.471  0.3083 -0.7456  0.8408
  440MPD2     N 6564   1.489   2.287  14.867 -0.1408 -0.4816  0.0523
  440MPD2    H5 6565   1.522   2.191  14.868  0.7339 -0.2018 -1.9266
  440MPD2    N1 6566   1.137   2.564  14.682  0.1623  0.0893  0.3666
  440MPD2    H7 6567   1.150   2.628  14.759 -0.5951  2.0741 -1.1559
  441TMC3    C1 6568   1.616   2.320  15.072  0.0090 -0.1411  0.6562
  441TMC3    C2 6569   1.640   2.424  15.153 -0.3416  0.1085 -0.0324
  441TMC3    C3 6570   1.597   2.420  15.281  0.4454 -0.2159 -0.6103
  441TMC3    C4 6571   1.564   2.201  15.125  0.3526  0.3599 -0.1353
  441TMC3    C5 6572   1.518   2.204  15.257 -0.0040  0.6860 -0.4764
  441TMC3    C6 6573   1.536   2.314  15.340 -0.8673 -0.5104 -0.0748
  441TMC3     C 6574   1.533   2.376  14.961  0.1018  0.8686 -0.3456
  441TMC3     O 6575   1.505   2.495  14.965 -0.0516 -0.6421  0.3945
  441TMC3     H 6576   1.669   2.519  15.109 -0.9912 -0.6761 -2.1492
  441TMC3    H1 6577   1.557   2.112  15.063 -2.5883  1.1382 -0.9303
  441TMC3    H2 6578   1.510   2.316  15.445 -0.0918  2.4378  0.0484
  441TMC3    C7 6579   1.462   2.087  15.311  0.4831  0.2164 -0.0394
  441TMC3    C8 6580   1.600   2.542  15.354 -0.0146 -0.4827 -0.2252
  441TMC3    O1 6581   1.478   1.980  15.256  0.1215 -0.2782  0.3430
  441TMC3    O2 6582   1.689   2.621  15.327 -0.6129  0.1827 -0.4113
  442MPD2     C 6583   3.738   3.528  16.772 -0.8540  0.3569  0.2080
  442MPD2    C1 6584   3.601   3.512  16.765  0.1817  0.4621 -0.2361
  442MPD2    C2 6585   3.555   3.409  16.688  0.1705  0.2703 -0.6861
  442MPD2    C3 6586   3.643   3.314  16.643  0.2245 -0.1759  0.3476
  442MPD2    C4 6587   3.773   3.326  16.660 -0.0384 -0.4596 -0.3964
  442MPD2    C5 6588   3.818   3.432  16.724 -0.1217 -0.7310 -0.4091
  442MPD2     H 6589   3.449   3.398  16.670 -0.3537 -0.5550  2.8120
  442MPD2    H1 6590   3.848   3.263  16.614 -1.9288 -1.2771 -2.3816
  442MPD2    H2 6591   3.787   3.616  16.812  2.9428 -0.7216 -2.0790
  442MPD2    H3 6592   3.926   3.441  16.732 -0.1150  0.3822 -1.7660
  442MPD2     N 6593   3.601   3.201  16.567 -0.0908  0.1176 -0.1607
  442MPD2    H5 6594   3.672   3.140  16.528  0.4360 -1.2797  3.0664
  442MPD2    N1 6595   3.513   3.616  16.803 -0.4120  0.3669 -0.4982
  442MPD2    H7 6596   3.413   3.604  16.798 -0.2772 -1.1212  0.4826
  443TMC3    C1 6597   3.438   3.816  16.881 -0.7595  0.1904  0.6138
  443TMC3    C2 6598   3.428   3.901  16.784 -0.5242 -0.3642  0.4381
  443TMC3    C3 6599   3.309   3.965  16.757  0.2281 -0.1234  0.6027
  443TMC3    C4 6600   3.331   3.790  16.964  0.6238  0.2915 -0.2362
  443TMC3    C5 6601   3.209   3.852  16.952  0.1931 -0.0556 -0.1649
  443TMC3    C6 6602   3.203   3.943  16.846  0.4513 -0.7448  0.0158
  443TMC3     C 6603   3.555   3.732  16.866 -0.4711  0.1622 -0.1960
  443TMC3     O 6604   3.666   3.787  16.871  0.0521  0.6230  0.1823
  443TMC3     H 6605   3.507   3.895  16.710 -1.4233 -1.5384 -0.4452
  443TMC3    H1 6606   3.347   3.729  17.053  1.2057  0.1090 -0.4635
  443TMC3    H2 6607   3.106   3.982  16.817 -0.1986 -0.7513  2.1690
  443TMC3    C7 6608   3.092   3.779  17.005  0.5304 -0.4307  0.3125
  443TMC3    C8 6609   3.269   3.929  16.624 -0.2922  0.4418  0.8685
  443TMC3    O1 6610   3.121   3.690  17.085 -0.9027 -0.0679  0.1571
  443TMC3    O2 6611   3.161   3.872  16.604 -0.3395  1.0116  0.4567
  444MPD2     C 6612   3.947   2.683   0.072  0.2117 -0.1092  0.3058
  444MPD2    C1 6613   3.870   2.728  17.669 -0.0133  0.3946 -1.2708
  444MPD2    C2 6614   3.930   2.721  17.541  0.9508  0.5413 -0.7679
  444MPD2    C3 6615   4.058   2.665  17.522  0.2133 -0.4151  0.2492
  444MPD2    C4 6616   4.133   2.623  17.633 -0.1539  0.6201  0.3046
  444MPD2    C5 6617   4.078   2.638   0.052  0.5682 -0.3770 -0.3508
  444MPD2     H 6618   3.874   2.732  17.448  0.2012  0.3866 -0.3365
  444MPD2    H1 6619   4.231   2.577  17.629 -0.2190  0.7503 -2.8189
  444MPD2    H2 6620   3.927   2.693   0.178 -2.8567  3.3055 -0.6117
  444MPD2    H3 6621   4.144   2.617   0.136  1.1410  1.6143 -0.3264
  444MPD2     N 6622   4.107   2.642  17.392 -0.2466  0.4951  0.0061
  444MPD2    H5 6623   4.040   2.663  17.319 -0.3038  2.5416  0.6323
  444MPD2    N1 6624   3.733   2.775  17.675 -0.1732  0.7040  0.0437
  444MPD2    H7 6625   3.700   2.816  17.589 -1.7401 -0.2970  0.1596
  445TMC3    C1 6626   4.238   2.531  17.214  0.8766 -0.3236 -0.5755
  445TMC3    C2 6627   4.164   2.598  17.117 -0.0914  0.0534  0.8390
  445TMC3    C3 6628   4.197   2.577  16.988  0.1414 -0.0168  0.1022
  445TMC3    C4 6629   4.346   2.446  17.183  0.9021  0.3114 -0.8484
  445TMC3    C5 6630   4.377   2.435  17.054  0.5695  0.0859 -0.0336
  445TMC3    C6 6631   4.305   2.495  16.953  0.5582 -0.1079  0.6193
  445TMC3     C 6632   4.224   2.578  17.357  0.2700  0.3174 -0.5999
  445TMC3     O 6633   4.325   2.556  17.420 -0.0711 -0.1307 -0.1597
  445TMC3     H 6634   4.077   2.661  17.134 -0.6422 -0.5144  0.1089
  445TMC3    H1 6635   4.405   2.396  17.258  0.0227  0.1654 -0.2474
  445TMC3    H2 6636   4.313   2.470  16.848  0.0302  0.1625  0.5100
  445TMC3    C7 6637   4.508   2.400  17.011  0.6650  0.0111 -0.1664
  445TMC3    C8 6638   4.098   2.604  16.878 -0.3448 -0.3870 -0.6909
  445TMC3    O1 6639   4.538   2.404  16.892 -0.3282 -0.0069 -0.0193
  445TMC3    O2 6640   4.118   2.569  16.763 -0.0288  0.6067 -0.4182
  446MPD2     C 6641   3.911   3.717  11.716 -0.1969  0.8049  0.4178
  446MPD2    C1 6642   3.876   3.718  11.584  0.4578  0.0359 -0.2095
  446MPD2    C2 6643   3.904   3.834  11.514 -0.8030  0.1695 -1.0502
  446MPD2    C3 6644   3.975   3.936  11.566  0.3598  0.3019  0.2896
  446MPD2    C4 6645   4.011   3.933  11.702  0.4394 -0.1711 -0.5239
  446MPD2    C5 6646   3.977   3.824  11.772  0.5605 -0.1430  0.4745
  446MPD2     H 6647   3.882   3.832  11.408 -0.8868  0.9339 -1.0436
  446MPD2    H1 6648   4.058   4.017  11.752  0.2210 -0.2904 -0.1116
  446MPD2    H2 6649   3.889   3.632  11.780 -3.2969  1.2053 -0.1513
  446MPD2    H3 6650   3.989   3.821  11.879 -0.3751  3.1078  0.6749
  446MPD2     N 6651   4.038   4.025  11.478  0.5865  0.2501 -0.5440
  446MPD2    H5 6652   4.018   4.008  11.380 -4.0101  2.1931  0.0637
  446MPD2    N1 6653   3.795   3.625  11.517 -0.6272 -0.5783  0.3656
  446MPD2    H7 6654   3.769   3.650  11.422 -1.0385 -0.1175  0.5992
  447TMC3    C1 6655   4.184   4.196  11.385 -0.3937 -0.1576 -0.4140
  447TMC3    C2 6656   4.142   4.165  11.259  0.6707 -0.1006 -0.3160
  447TMC3    C3 6657   4.194   4.237  11.160 -0.8803 -0.2280  0.1109
  447TMC3    C4 6658   4.289   4.277  11.414  0.5895  0.2769 -0.4963
  447TMC3    C5 6659   4.354   4.335  11.300 -0.4403 -0.9651 -0.0718
  447TMC3    C6 6660   4.303   4.322  11.176  0.8140 -0.6378 -0.1494
  447TMC3     C 6661   4.118   4.136  11.507  0.8106 -0.2433 -0.1487
  447TMC3     O 6662   4.146   4.191  11.612  0.2017  0.4490 -0.1277
  447TMC3     H 6663   4.047   4.113  11.247  1.0606 -0.6985 -0.7618
  447TMC3    H1 6664   4.325   4.294  11.515 -0.5173  0.0102 -0.0660
  447TMC3    H2 6665   4.351   4.374  11.094 -0.1846  2.2911  1.1142
  447TMC3    C7 6666   4.500   4.326  11.295  0.2747 -0.2227  0.8798
  447TMC3    C8 6667   4.181   4.174  11.026 -0.5602  0.2139 -0.2624
  447TMC3    O1 6668   4.545   4.301  11.183 -0.1735  0.2664 -0.1712
  447TMC3    O2 6669   4.220   4.236  10.928 -0.1365 -0.5593  0.1208
  448TMC3    C1 6670   2.654   3.980  17.125  0.7010  0.8902  0.2565
  448TMC3    C2 6671   2.543   3.957  17.055 -0.4975 -0.2115 -0.1780
  448TMC3    C3 6672   2.439   3.880  17.106  0.5021  1.4267 -0.2014
  448TMC3    C4 6673   2.678   3.900  17.232  0.5914  0.4642  0.2957
  448TMC3    C5 6674   2.569   3.846  17.296 -0.2041 -0.7367  0.8272
  448TMC3    C6 6675   2.446   3.833  17.237 -0.0997 -0.5358  0.5876
  448TMC3     C 6676   2.769   4.031  17.057 -0.1226  0.0469  0.4992
  448TMC3     O 6677   2.741   4.085  16.951 -0.3471 -0.3200  0.1350
  448TMC3     H 6678   2.534   4.002  16.956  2.4726 -2.1072 -1.3242
  448TMC3    H1 6679   2.760   3.919  17.299 -0.1050 -1.7092  1.7398
  448TMC3    H2 6680   2.359   3.783  17.279 -1.6227 -0.6682 -2.6906
  448TMC3    C7 6681   2.597   3.753  17.412  0.0596  0.3032 -0.0440
  448TMC3    C8 6682   2.372   3.799  17.015 -0.5384 -0.6528  0.5835
  448TMC3    O1 6683   2.716   3.729  17.445 -0.1757  0.0282 -0.0557
  448TMC3    O2 6684   2.323   3.700  17.071 -0.8422 -0.2486 -0.2909
  449MPD2     C 6685   3.474   1.872  14.147  0.7226 -0.2954  0.2800
  449MPD2    C1 6686   3.367   1.893  14.070 -0.2071  0.4273  0.0254
  449MPD2    C2 6687   3.263   1.807  14.079 -1.0181 -0.0391 -0.0599
  449MPD2    C3 6688   3.261   1.700  14.157  0.1960  0.6801 -0.6537
  449MPD2    C4 6689   3.367   1.672  14.239 -0.0239  0.6102  0.7474
  449MPD2    C5 6690   3.469   1.764  14.237  0.3197 -0.0420 -0.1918
  449MPD2     H 6691   3.167   1.837  14.038 -2.0271 -1.5509  1.1781
  449MPD2    H1 6692   3.385   1.587  14.304  1.0354  0.4281  0.2162
  449MPD2    H2 6693   3.561   1.936  14.155  1.2739 -1.0748  0.4963
  449MPD2    H3 6694   3.557   1.741  14.295  0.0984  0.5922  0.3985
  449MPD2     N 6695   3.151   1.619  14.151 -0.1499  0.5867 -0.2065
  449MPD2    H5 6696   3.081   1.638  14.079 -0.7487 -1.3387 -0.1587
  449MPD2    N1 6697   3.358   2.014  13.991 -0.0242  0.0514 -0.4561
  449MPD2    H7 6698   3.267   2.035  13.953 -1.3692 -2.2546  1.4642
  450TMC3    C1 6699   3.405   2.206  13.866  0.4677 -0.0010 -0.0367
  450TMC3    C2 6700   3.450   2.205  13.737 -0.7497 -0.0802  0.1763
  450TMC3    C3 6701   3.356   2.197  13.637  0.9385  0.6623  0.4497
  450TMC3    C4 6702   3.274   2.225  13.897 -0.4793  0.7530 -0.4408
  450TMC3    C5 6703   3.181   2.217  13.799 -0.0280  0.1358 -0.2787
  450TMC3    C6 6704   3.221   2.205  13.668  0.6226 -0.5277 -0.0638
  450TMC3     C 6705   3.458   2.093  13.939  0.2304 -0.4312  0.3617
  450TMC3     O 6706   3.578   2.069  13.928 -0.1632  0.2779  0.2402
  450TMC3     H 6707   3.556   2.193  13.717 -0.9041 -0.7849 -0.2396
  450TMC3    H1 6708   3.264   2.233  14.005 -1.0568 -0.6522 -0.3832
  450TMC3    H2 6709   3.153   2.196  13.584  1.4039 -1.9696 -0.5488
  450TMC3    C7 6710   3.071   2.129  13.837 -0.4698 -0.4718  0.0380
  450TMC3    C8 6711   3.386   2.259  13.510 -0.3520  0.1728  0.2710
  450TMC3    O1 6712   3.087   2.068  13.942 -0.4748  0.0065  0.1142
  450TMC3    O2 6713   3.301   2.338  13.467 -0.0571 -0.3659  0.6777
  451MPD2     C 6714   0.521   1.226   1.808 -0.5528 -0.2116  0.4082
  451MPD2    C1 6715   0.468   1.211   1.678 -0.4028 -0.4200 -0.1127
  451MPD2    C2 6716   0.530   1.123   1.596  0.5956 -0.1281 -0.3631
  451MPD2    C3 6717   0.652   1.061   1.624  0.0451 -0.1101 -0.2809
  451MPD2    C4 6718   0.701   1.079   1.752  0.4275  0.2248  0.2149
  451MPD2    C5 6719   0.632   1.154   1.847 -0.3004  0.2011 -0.2651
  451MPD2     H 6720   0.488   1.112   1.496 -0.9685  0.7014  0.2061
  451MPD2    H1 6721   0.797   1.042   1.783 -1.1028 -0.4625  4.1544
  451MPD2    H2 6722   0.469   1.290   1.878 -1.1488 -1.8662  1.4905
  451MPD2    H3 6723   0.669   1.165   1.948  1.2207  0.9609 -0.9180
  451MPD2     N 6724   0.721   0.970   1.547 -0.6491  0.3726 -0.2119
  451MPD2    H5 6725   0.800   0.924   1.590 -0.4287  1.2317  0.2951
  451MPD2    N1 6726   0.351   1.288   1.655 -0.1410 -0.3627 -0.5801
  451MPD2    H7 6727   0.326   1.354   1.727  1.0990 -1.2862  0.7098
  452TMC3    C1 6728   0.744   0.802   1.374 -0.5880  0.3001  0.9166
  452TMC3    C2 6729   0.809   0.715   1.454  0.3173 -0.7978  0.0054
  452TMC3    C3 6730   0.853   0.598   1.411  0.5958  0.6328 -0.8221
  452TMC3    C4 6731   0.728   0.778   1.244  0.2458  0.0350  0.0875
  452TMC3    C5 6732   0.777   0.654   1.203 -0.3138  0.7714  0.3193
  452TMC3    C6 6733   0.836   0.563   1.283 -0.1475  0.3051 -1.0772
  452TMC3     C 6734   0.683   0.922   1.422 -0.0227  0.2328  0.1039
  452TMC3     O 6735   0.604   0.985   1.351 -0.3091  0.1510 -0.8166
  452TMC3     H 6736   0.806   0.727   1.561 -0.7489 -0.6947 -0.0331
  452TMC3    H1 6737   0.666   0.840   1.180  1.7331 -0.3162 -1.6804
  452TMC3    H2 6738   0.904   0.488   1.243 -0.0715 -0.4769  0.4760
  452TMC3    C7 6739   0.740   0.613   1.073  0.7950 -0.4696 -0.3303
  452TMC3    C8 6740   0.941   0.517   1.498 -0.1665  0.7509 -0.4184
  452TMC3    O1 6741   0.736   0.704   0.991  0.0651 -0.1384 -0.7641
  452TMC3    O2 6742   0.967   0.401   1.464 -0.5337 -0.0825  0.9741
  453TMC3    C1 6743   1.474   2.541  11.975 -0.0011 -0.4798 -0.2963
  453TMC3    C2 6744   1.417   2.481  12.083 -0.5729 -0.0274 -0.5522
  453TMC3    C3 6745   1.419   2.345  12.091  0.3252 -0.3727  0.0514
  453TMC3    C4 6746   1.539   2.470  11.880  0.2358 -0.6063 -0.9188
  453TMC3    C5 6747   1.530   2.334  11.887 -0.0550  0.6086 -0.1176
  453TMC3    C6 6748   1.468   2.274  11.987  0.6525  0.0212  0.4706
  453TMC3     C 6749   1.531   2.672  11.994 -0.2626  0.1053 -0.7548
  453TMC3     O 6750   1.569   2.725  11.892 -0.3086 -0.4726 -0.1765
  453TMC3     H 6751   1.361   2.531  12.160 -3.3490 -0.9382 -1.9806
  453TMC3    H1 6752   1.589   2.519  11.797 -1.8252  2.4317 -0.3863
  453TMC3    H2 6753   1.484   2.166  11.990  0.7498  0.0250  0.0896
  453TMC3    C7 6754   1.622   2.260  11.801  0.0309 -0.3132  0.4496
  453TMC3    C8 6755   1.304   2.284  12.152  0.7038 -0.2195 -0.0157
  453TMC3    O1 6756   1.724   2.321  11.778 -0.0971  0.1457  0.3483
  453TMC3    O2 6757   1.214   2.359  12.189 -0.1555 -0.7445 -0.1311
  454MPD2     C 6758   4.696   2.163  16.111 -0.4175  0.8044 -0.1137
  454MPD2    C1 6759   4.655   2.288  16.160 -0.5385  0.2369 -0.6612
  454MPD2    C2 6760   4.679   2.325  16.287 -0.0012 -0.1281  0.0669
  454MPD2    C3 6761   0.016   2.234  16.374  0.2732 -0.2518 -0.1762
  454MPD2    C4 6762   0.063   2.114  16.322 -0.3628 -0.4250 -0.3046
  454MPD2    C5 6763   0.035   2.079  16.196 -0.0486  0.5257  0.8669
  454MPD2     H 6764   4.655   2.426  16.319  0.2202  0.3788 -1.3772
  454MPD2    H1 6765   0.116   2.040  16.380  0.1154  0.4119  0.3195
  454MPD2    H2 6766   4.680   2.130  16.009  1.3085 -0.7028  0.1203
  454MPD2    H3 6767   0.075   1.987  16.155  0.4155  1.3074 -0.4301
  454MPD2     N 6768   0.054   2.258  16.514 -0.1265  0.3285 -0.2502
  454MPD2    H5 6769   0.134   2.201  16.541 -0.5097 -0.0137  0.1551
  454MPD2    N1 6770   4.580   2.376  16.079  0.3569  0.1064  0.2023
  454MPD2    H7 6771   4.581   2.469  16.120  2.3776  0.5204 -0.7504
  455TMC3    C1 6772   4.619   2.433  16.574 -0.2555  0.6262  0.6580
  455TMC3    C2 6773   4.604   2.560  16.629 -0.6860  0.6018 -0.6434
  455TMC3    C3 6774   4.476   2.616  16.626 -0.1879  0.9714 -0.8573
  455TMC3    C4 6775   4.511   2.360  16.535  0.1878 -1.5881 -0.1096
  455TMC3    C5 6776   4.386   2.410  16.542 -0.4672 -0.9598  0.6432
  455TMC3    C6 6777   4.368   2.542  16.581 -0.4634 -0.5129  0.6886
  455TMC3     C 6778   0.023   2.371  16.586  0.1966  0.9828 -0.1928
  455TMC3     O 6779   0.103   2.420  16.662 -0.2235 -0.3145 -0.2526
  455TMC3     H 6780   4.688   2.621  16.660 -0.4131  0.9734 -2.1447
  455TMC3    H1 6781   4.529   2.255  16.518  2.6255 -1.7127  3.1453
  455TMC3    H2 6782   4.266   2.579  16.576 -0.3047 -0.3714 -1.3346
  455TMC3    C7 6783   4.282   2.338  16.477  0.5620  0.3211  0.5501
  455TMC3    C8 6784   4.457   2.740  16.701 -0.0842 -0.2751 -0.0913
  455TMC3    O1 6785   4.327   2.249  16.405  0.1889 -0.1062  0.1511
  455TMC3    O2 6786   4.548   2.770  16.777  0.5554 -0.1191  0.5494
  456MPD2     C 6787   2.250   2.556  16.196  0.7749  0.5449 -0.2765
  456MPD2    C1 6788   2.324   2.528  16.305 -0.3715  0.4574  0.6428
  456MPD2    C2 6789   2.340   2.621  16.408  0.1515 -0.2814  0.2930
  456MPD2    C3 6790   2.279   2.750  16.400 -0.2536  0.0211  0.2100
  456MPD2    C4 6791   2.224   2.785  16.279  0.0832  1.1055  0.1352
  456MPD2    C5 6792   2.201   2.682  16.189 -0.0238  0.0728  0.5542
  456MPD2     H 6793   2.385   2.600  16.504  3.6048 -0.1717 -1.3182
  456MPD2    H1 6794   2.181   2.883  16.259 -0.4376  0.7118 -0.6685
  456MPD2    H2 6795   2.247   2.486  16.114  0.3885 -1.0102  1.0803
  456MPD2    H3 6796   2.141   2.707  16.103  1.6635  0.1655 -0.5976
  456MPD2     N 6797   2.274   2.835  16.514 -0.3229  0.1238 -0.5268
  456MPD2    H5 6798   2.312   2.800  16.601 -0.6637 -0.9638 -0.8168
  456MPD2    N1 6799   2.374   2.397  16.313 -0.2471 -0.2649 -0.1393
  456MPD2    H7 6800   2.360   2.341  16.229 -2.2702 -2.3684  1.6132
  457TMC3    C1 6801   2.208   3.003  16.655 -0.2140 -1.1446 -0.1490
  457TMC3    C2 6802   2.216   3.138  16.668  0.2551 -0.3025  0.0416
  457TMC3    C3 6803   2.177   3.195  16.788 -0.3140  0.4659  0.1078
  457TMC3    C4 6804   2.166   2.922  16.758  0.1632  0.5818  0.0559
  457TMC3    C5 6805   2.135   2.981  16.876 -0.8751 -0.0005 -0.8735
  457TMC3    C6 6806   2.149   3.114  16.897  0.1723 -0.6038 -0.0681
  457TMC3     C 6807   2.210   2.954  16.523 -0.6231 -0.1013  0.0484
  457TMC3     O 6808   2.147   3.016  16.441 -0.0306 -0.1382 -0.0210
  457TMC3     H 6809   2.245   3.196  16.581 -0.0438 -0.6066 -0.2598
  457TMC3    H1 6810   2.156   2.816  16.741  0.6105  0.0594  3.1171
  457TMC3    H2 6811   2.128   3.162  16.992 -1.7549  0.9269 -1.2695
  457TMC3    C7 6812   2.100   2.894  16.987 -0.0713 -0.7365 -0.6511
  457TMC3    C8 6813   2.187   3.336  16.811 -0.7138 -0.2057 -0.8168
  457TMC3    O1 6814   2.124   2.775  16.970 -0.1809  0.0653  0.5722
  457TMC3    O2 6815   2.193   3.370  16.930  0.5105 -1.1287  0.5811
  458MPD2     C 6816   0.049   1.953  12.682 -0.4043  0.6475  0.2895
  458MPD2    C1 6817   0.065   1.843  12.768 -0.2804  0.0741  0.8022
  458MPD2    C2 6818   4.676   1.768  12.791  0.0966 -0.2888  0.0099
  458MPD2    C3 6819   4.549   1.798  12.750  0.0336 -0.5694  0.0961
  458MPD2    C4 6820   4.545   1.908  12.665  0.5260  0.9933  0.1761
  458MPD2    C5 6821   4.652   1.981  12.634 -0.2915 -0.2273 -0.4251
  458MPD2     H 6822   4.682   1.678  12.852 -2.0856  1.4934  2.8218
  458MPD2    H1 6823   4.456   1.944  12.615  0.3178 -1.1294 -1.0055
  458MPD2    H2 6824   0.132   2.009  12.642 -1.0899  1.6825  0.3266
  458MPD2    H3 6825   4.637   2.055  12.556  0.8403 -0.8341 -1.2154
  458MPD2     N 6826   4.438   1.714  12.787  0.3528  0.2608 -0.0850
  458MPD2    H5 6827   4.460   1.624  12.828 -0.7466 -0.0606 -0.2046
  458MPD2    N1 6828   0.194   1.808  12.812  0.2332 -0.0889  0.4180
  458MPD2    H7 6829   0.267   1.876  12.797  0.4905 -0.0307  1.9422
  459TMC3    C1 6830   0.368   1.706  12.933  0.1189  0.1216 -0.2364
  459TMC3    C2 6831   0.469   1.736  12.844 -0.1142  0.1072  0.9599
  459TMC3    C3 6832   0.588   1.679  12.867  0.1216 -0.5221  0.2065
  459TMC3    C4 6833   0.388   1.627  13.046  0.6087 -0.5268 -0.7491
  459TMC3    C5 6834   0.510   1.571  13.069 -0.7948 -0.2050 -0.3550
  459TMC3    C6 6835   0.611   1.595  12.975 -0.3092  0.3990 -0.3232
  459TMC3     C 6836   0.230   1.701  12.891  0.2737 -0.0708 -0.0334
  459TMC3     O 6837   0.148   1.625  12.944  0.2996 -0.4079 -0.1733
  459TMC3     H 6838   0.461   1.781  12.746  2.0829  0.9971  1.1999
  459TMC3    H1 6839   0.305   1.612  13.115  0.5382  1.9779 -0.3041
  459TMC3    H2 6840   0.711   1.562  13.000 -0.7285 -0.7238 -0.1298
  459TMC3    C7 6841   0.526   1.478  13.177  0.4970  0.2272  0.3975
  459TMC3    C8 6842   0.708   1.752  12.827  0.2877  0.7237 -0.4434
  459TMC3    O1 6843   0.622   1.399  13.174 -0.3301 -0.6836 -0.0673
  459TMC3    O2 6844   0.817   1.700  12.850 -0.1599 -0.3583 -0.0868
  460MPD2     C 6845   4.195   3.813  10.952  0.5877 -0.2692  0.4657
  460MPD2    C1 6846   4.170   3.943  10.927 -0.3362  0.4292 -0.1592
  460MPD2    C2 6847   4.129   3.983  10.800 -0.8614 -0.5042  0.1430
  460MPD2    C3 6848   4.123   3.885  10.697  0.8612  0.2961  0.3734
  460MPD2    C4 6849   4.135   3.749  10.728  0.0603  0.4653 -0.7499
  460MPD2    C5 6850   4.176   3.716  10.858  0.3741  0.8355  0.4426
  460MPD2     H 6851   4.102   4.084  10.774  1.5314 -0.9422 -4.1131
  460MPD2    H1 6852   4.137   3.671  10.654  1.7224  1.6885 -1.9840
  460MPD2    H2 6853   4.219   3.780  11.052  2.3507  0.5217  0.3104
  460MPD2    H3 6854   4.194   3.614  10.889 -2.6317  0.9746  2.6227
  460MPD2     N 6855   4.099   3.930  10.569  0.1576 -0.2765  0.8894
  460MPD2    H5 6856   4.093   4.030  10.551 -1.6650 -0.5378  0.0168
  460MPD2    N1 6857   4.169   4.037  11.037 -0.2478 -0.1389 -0.1533
  460MPD2    H7 6858   4.173   4.006  11.134  0.4362  1.1297  0.2311
  461TMC3    C1 6859   4.046   3.919  10.340  0.5388  0.3372  0.3396
  461TMC3    C2 6860   4.051   3.844  10.223  0.0279 -0.2249  0.2275
  461TMC3    C3 6861   3.990   3.892  10.109 -0.1235  0.0109 -0.6901
  461TMC3    C4 6862   3.974   4.034  10.348  0.0955  0.0332  0.2988
  461TMC3    C5 6863   3.931   4.086  10.229  0.6718 -0.2371 -0.8804
  461TMC3    C6 6864   3.932   4.017  10.111 -0.1647 -0.6217 -0.3381
  461TMC3     C 6865   4.094   3.851  10.455  0.2824  0.0972 -0.2186
  461TMC3     O 6866   4.111   3.729  10.445 -0.4119 -0.4439 -0.6861
  461TMC3     H 6867   4.116   3.757  10.229  1.2367  0.6339 -0.1955
  461TMC3    H1 6868   3.961   4.089  10.441  1.4647  0.8923 -0.0217
  461TMC3    H2 6869   3.908   4.056  10.012  1.5205  1.9306  0.2753
  461TMC3    C7 6870   3.889   4.227  10.213 -0.6217 -0.2003 -0.2572
  461TMC3    C8 6871   4.045   3.841   9.981 -0.3216 -0.3067 -0.3813
  461TMC3    O1 6872   3.831   4.259  10.109  0.4943  0.0157 -0.5577
  461TMC3    O2 6873   4.094   3.916   9.901  0.1516 -0.1602  0.0890
  462TMC3    C1 6874   3.847   0.653  17.429  0.0656  0.3029  0.5892
  462TMC3    C2 6875   3.860   0.575  17.324  0.4111 -0.2027  0.0121
  462TMC3    C3 6876   3.831   0.441  17.343 -0.5427  0.2375  0.4789
  462TMC3    C4 6877   3.815   0.596  17.557  0.0347  0.6737  0.0072
  462TMC3    C5 6878   3.800   0.457  17.568 -0.3893 -0.0258 -0.6018
  462TMC3    C6 6879   3.827   0.376  17.464 -0.2475 -0.0740  0.7013
  462TMC3     C 6880   3.895   0.792  17.411 -0.1461  0.1755  0.2382
  462TMC3     O 6881   3.900   0.837  17.300 -0.3345 -0.0291  0.2366
  462TMC3     H 6882   3.877   0.625  17.230 -0.0334 -1.7040 -0.8595
  462TMC3    H1 6883   3.796   0.658  17.644  0.7793 -0.9448  1.3133
  462TMC3    H2 6884   3.800   0.272  17.456 -0.0234 -0.1074  0.3656
  462TMC3    C7 6885   3.760   0.390  17.691  0.0125 -0.2816 -0.0452
  462TMC3    C8 6886   3.828   0.352  17.236  1.1306 -0.1487 -0.1775
  462TMC3    O1 6887   3.728   0.274  17.674 -0.0185 -0.1591 -0.8787
  462TMC3    O2 6888   3.731   0.341  17.165 -0.2629  0.1669  0.5381
  463MPD2     C 6889   0.269   3.997   2.302  0.2478  0.2942  0.2396
  463MPD2    C1 6890   0.208   4.033   2.185 -0.5233  0.7472  0.2912
  463MPD2    C2 6891   0.286   4.102   2.088 -0.7617  0.0510  0.1588
  463MPD2    C3 6892   0.422   4.124   2.106 -0.4916  0.4158 -0.5991
  463MPD2    C4 6893   0.480   4.072   2.216 -0.3930  0.0178  0.2204
  463MPD2    C5 6894   0.404   4.022   2.322  0.0686 -0.1078  0.4118
  463MPD2     H 6895   0.239   4.138   1.997  3.2841  0.5424 -1.7346
  463MPD2    H1 6896   0.585   4.079   2.241 -0.5423 -2.1070  1.4577
  463MPD2    H2 6897   0.235   3.931   2.381 -1.2747  0.7805 -0.0173
  463MPD2    H3 6898   0.451   3.992   2.415  1.6392 -0.7459 -0.5818
  463MPD2     N 6899   0.502   4.194   2.010 -0.5125 -0.2769 -0.3094
  463MPD2    H5 6900   0.600   4.205   2.033 -0.6864 -0.7095  0.6509
  463MPD2    N1 6901   0.073   4.011   2.152  0.6175 -0.3239 -0.3584
  463MPD2    H7 6902   0.035   4.041   2.063 -0.8392 -1.2600 -0.0452
  464TMC3    C1 6903   4.580   3.922   2.178  0.5994  0.2645 -0.7778
  464TMC3    C2 6904   4.560   3.948   2.043 -0.4233  0.2707  0.0698
  464TMC3    C3 6905   4.435   3.926   1.991  0.4449  0.6722 -0.6058
  464TMC3    C4 6906   4.486   3.855   2.257  0.6401 -0.6636 -0.4807
  464TMC3    C5 6907   4.369   3.833   2.198 -0.0635 -0.1624  0.1855
  464TMC3    C6 6908   4.334   3.873   2.066 -0.1815  0.2503 -0.4756
  464TMC3     C 6909   4.707   3.951   2.236  0.0739 -0.1614 -1.0144
  464TMC3     O 6910   4.722   3.936   2.353  0.0709 -0.1399  0.3119
  464TMC3     H 6911   4.640   3.973   1.975 -0.2997  1.1777  0.5604
  464TMC3    H1 6912   4.507   3.825   2.359  1.0745  0.4982 -0.2173
  464TMC3    H2 6913   4.233   3.857   2.030  0.0757 -0.6808 -0.7710
  464TMC3    C7 6914   4.270   3.764   2.277 -0.4596  0.3411 -0.4889
  464TMC3    C8 6915   4.405   3.997   1.870 -0.5471  0.0923  0.3408
  464TMC3    O1 6916   4.276   3.765   2.400  0.0618  0.1144  0.0401
  464TMC3    O2 6917   4.501   4.008   1.795 -0.3101  0.4397 -0.3848
  465MPD2     C 6918   1.576   2.422  16.742  0.5786  0.5069 -0.2623
  465MPD2    C1 6919   1.455   2.348  16.763 -0.4194  0.0700  0.2593
  465MPD2    C2 6920   1.352   2.379  16.682 -0.1868 -0.2930  0.1361
  465MPD2    C3 6921   1.358   2.473  16.581 -0.3511 -0.6046 -0.2941
  465MPD2    C4 6922   1.473   2.544  16.573  0.6494  0.5079  0.2844
  465MPD2    C5 6923   1.584   2.521  16.646 -0.3963 -0.1077 -0.5112
  465MPD2     H 6924   1.262   2.318  16.686 -0.6389  0.3645 -0.0088
  465MPD2    H1 6925   1.488   2.621  16.498 -0.7494 -0.1725 -0.6943
  465MPD2    H2 6926   1.665   2.405  16.801 -0.0812  0.3143  0.6798
  465MPD2    H3 6927   1.673   2.578  16.626 -0.4188 -0.5285 -1.7628
  465MPD2     N 6928   1.252   2.475  16.486 -0.3365  0.2518  0.4539
  465MPD2    H5 6929   1.177   2.411  16.509 -0.9420  0.1700 -1.7495
  465MPD2    N1 6930   1.441   2.249  16.864  0.2655  0.2770 -0.2299
  465MPD2    H7 6931   1.361   2.187  16.858  0.3163  0.1980 -0.0911
  466TMC3    C1 6932   0.926   2.432  16.250 -0.7056 -0.0072 -0.2646
  466TMC3    C2 6933   0.872   2.539  16.178  0.7222 -0.5974  0.1911
  466TMC3    C3 6934   0.946   2.661  16.193 -0.0403 -0.0604  0.7587
  466TMC3    C4 6935   1.051   2.427  16.299  0.4961 -0.1612 -0.3510
  466TMC3    C5 6936   1.127   2.542  16.295 -0.8579  0.5119 -0.3350
  466TMC3    C6 6937   1.076   2.660  16.244  0.1981 -0.4321  0.3739
  466TMC3     C 6938   0.843   2.383  16.362 -0.1531  0.7408  0.1274
  466TMC3     O 6939   0.900   2.319  16.451 -0.3689 -0.8167 -0.4780
  466TMC3     H 6940   0.772   2.532  16.137  0.3287 -1.0847  1.2182
  466TMC3    H1 6941   1.100   2.342  16.345 -0.7390 -0.1972  0.8777
  466TMC3    H2 6942   1.130   2.754  16.241 -1.6666  0.6196 -0.5686
  466TMC3    C7 6943   1.252   2.556  16.372  0.0399 -0.7035  0.1462
  466TMC3    C8 6944   0.866   2.779  16.235 -0.8304  0.0091 -0.8506
  466TMC3    O1 6945   1.326   2.645  16.337  0.4791  0.3707  0.1475
  466TMC3    O2 6946   0.927   2.869  16.294  0.3403  0.1386 -1.0827
  467TMC3    C1 6947   2.375   0.365  13.202  0.4556  0.5757 -0.0439
  467TMC3    C2 6948   2.375   0.454  13.098 -0.2350 -0.6152  0.2458
  467TMC3    C3 6949   2.257   0.505  13.059 -0.1576  0.5760  0.2647
  467TMC3    C4 6950   2.264   0.300  13.244 -0.2158 -0.4102 -0.0638
  467TMC3    C5 6951   2.145   0.348  13.200 -0.7195  0.2314 -0.9316
  467TMC3    C6 6952   2.142   0.456  13.117 -0.7570 -0.5607 -0.6331
  467TMC3     C 6953   2.496   0.336  13.265 -0.1029 -0.0034 -0.0455
  467TMC3     O 6954   2.492   0.226  13.319  0.1855 -0.0470 -0.6312
  467TMC3     H 6955   2.466   0.495  13.055 -0.8800 -0.4871 -0.9771
  467TMC3    H1 6956   2.272   0.224  13.321  0.5717 -1.3183 -1.0285
  467TMC3    H2 6957   2.043   0.487  13.085 -0.6185 -0.6668 -1.1668
  467TMC3    C7 6958   2.024   0.277  13.238 -0.4406 -0.0914 -0.7986
  467TMC3    C8 6959   2.258   0.616  12.972  0.2155  0.0912  0.5071
  467TMC3    O1 6960   2.040   0.153  13.249  0.4693  0.4536  0.2181
  467TMC3    O2 6961   2.361   0.684  12.969 -0.1218 -0.1841  0.5331
  468MPD2     C 6962   1.489   3.718  10.822 -0.2692  0.9355  0.0233
  468MPD2    C1 6963   1.616   3.667  10.791  0.5737 -0.1122  0.3768
  468MPD2    C2 6964   1.655   3.539  10.829  0.3444 -0.1725  0.6822
  468MPD2    C3 6965   1.571   3.462  10.905  0.4985  0.2929  0.7015
  468MPD2    C4 6966   1.453   3.515  10.940  0.0640  0.0497 -0.0726
  468MPD2    C5 6967   1.412   3.642  10.906 -0.4693 -0.2215 -0.4038
  468MPD2     H 6968   1.757   3.509  10.812  0.6071  0.5426  0.9946
  468MPD2    H1 6969   1.390   3.448  10.997 -1.1179  1.9144  0.8085
  468MPD2    H2 6970   1.470   3.822  10.801 -2.4367  0.0440 -2.4560
  468MPD2    H3 6971   1.310   3.673  10.924 -0.7401 -0.7154 -1.1016
  468MPD2     N 6972   1.594   3.331  10.944  0.1541 -0.7292 -0.2289
  468MPD2    H5 6973   1.534   3.286  11.012  0.2288 -0.4289  0.0315
  468MPD2    N1 6974   1.708   3.738  10.715  0.4969 -0.3376  1.0894
  468MPD2    H7 6975   1.803   3.703  10.721  1.0353  0.8396 -0.2602
  469TMC3    C1 6976   1.790   3.915  10.572 -0.4210  0.1581 -0.5539
  469TMC3    C2 6977   1.920   3.910  10.619  0.0775 -0.6650 -0.9648
  469TMC3    C3 6978   2.007   4.000  10.558 -0.3150 -0.1855  1.0063
  469TMC3    C4 6979   1.754   4.012  10.482 -0.3513  0.0796 -0.4245
  469TMC3    C5 6980   1.843   4.096  10.428 -0.1493 -0.1898  0.7260
  469TMC3    C6 6981   1.977   4.094  10.457 -0.2379  0.6485  0.1246
  469TMC3     C 6982   1.673   3.841  10.631  0.0952 -0.3068 -0.4521
  469TMC3     O 6983   1.562   3.866  10.591  0.6091 -0.1309  0.0233
  469TMC3     H 6984   1.948   3.835  10.692 -0.0023 -0.7064 -0.9768
  469TMC3    H1 6985   1.655   4.013  10.438 -1.6186 -3.9072  2.2499
  469TMC3    H2 6986   2.040   4.178  10.433 -0.1727  0.7048  0.4950
  469TMC3    C7 6987   1.794   4.221  10.374  0.1554 -0.0620 -0.4024
  469TMC3    C8 6988   2.140   4.028  10.605 -0.3201 -0.2118 -0.2076
  469TMC3    O1 6989   1.875   4.293  10.317  0.6711  0.0373  0.4336
  469TMC3    O2 6990   2.227   4.054  10.526  0.1085 -0.3648 -0.6239
  470TMC3    C1 6991   3.965   0.342   0.313  0.4591 -0.0958  0.5675
  470TMC3    C2 6992   4.019   0.455   0.362  0.6140 -0.0240  0.1754
  470TMC3    C3 6993   3.973   0.502   0.475  0.5954  1.1135 -0.7534
  470TMC3    C4 6994   3.864   0.276   0.380  0.4849 -0.0013  0.0354
  470TMC3    C5 6995   3.826   0.325   0.501  0.5113  0.1281  0.0484
  470TMC3    C6 6996   3.879   0.442   0.549  0.2165 -0.6019 -0.6335
  470TMC3     C 6997   4.019   0.275   0.197  0.0721 -0.0219  0.4424
  470TMC3     O 6998   4.073   0.346   0.118  0.3045 -0.6691  0.1299
  470TMC3     H 6999   4.081   0.519   0.300 -0.7417  1.8076  0.7263
  470TMC3    H1 7000   3.818   0.197   0.322 -0.7606  1.9785 -1.6699
  470TMC3    H2 7001   3.841   0.488   0.639 -2.2214  1.9944 -3.0024
  470TMC3    C7 7002   3.723   0.253   0.572 -0.3764  0.1957 -0.4932
  470TMC3    C8 7003   4.012   0.632   0.526  0.5303 -1.0644  0.2266
  470TMC3    O1 7004   3.652   0.176   0.505  0.0980 -0.0207 -0.1416
  470TMC3    O2 7005   3.925   0.686   0.595  0.0860  0.0961  0.0110
  471MPD2     C 7006   3.904   2.307  16.916 -0.1455 -0.0897  0.4252
  471MPD2    C1 7007   3.980   2.194  16.907 -0.5456  0.0237  1.0533
  471MPD2    C2 7008   4.050   2.160  17.019 -0.0153  0.2658  0.6527
  471MPD2    C3 7009   4.052   2.234  17.131 -0.4475  1.2893 -0.2603
  471MPD2    C4 7010   3.972   2.343  17.138  0.3327 -0.5931  1.0150
  471MPD2    C5 7011   3.896   2.379  17.034  0.1074  0.4278  0.4447
  471MPD2     H 7012   4.111   2.071  17.010 -1.5596 -0.7380  0.2057
  471MPD2    H1 7013   3.965   2.399  17.231 -3.6276 -0.0206  0.3793
  471MPD2    H2 7014   3.830   2.334  16.843  0.0375  0.7983  0.5705
  471MPD2    H3 7015   3.832   2.466  17.046  0.2156  0.5176  0.3791
  471MPD2     N 7016   4.120   2.183  17.241 -0.9139 -0.1068 -0.3121
  471MPD2    H5 7017   4.094   2.221  17.332  0.5777 -0.4945  0.2781
  471MPD2    N1 7018   3.992   2.113  16.795 -0.4197 -0.1182 -0.0521
  471MPD2    H7 7019   4.054   2.034  16.804 -0.3385 -0.3074 -2.1536
  472TMC3    C1 7020   3.944   2.030  16.583 -0.2031 -0.2182 -0.1569
  472TMC3    C2 7021   3.875   2.043  16.462 -0.0330  0.5724  0.0338
  472TMC3    C3 7022   3.887   1.948  16.369 -0.6499  0.8989 -0.2237
  472TMC3    C4 7023   4.041   1.935  16.604  0.8673  0.2074 -0.6339
  472TMC3    C5 7024   4.053   1.845  16.503  0.2228  0.0645  0.7663
  472TMC3    C6 7025   3.983   1.847  16.383 -0.3203 -0.2746 -0.3991
  472TMC3     C 7026   3.913   2.126  16.686  0.2062 -0.3383 -0.6395
  472TMC3     O 7027   3.828   2.210  16.659 -0.1364 -0.6431 -0.0867
  472TMC3     H 7028   3.813   2.130  16.440  0.8530  0.9050 -1.1096
  472TMC3    H1 7029   4.107   1.922  16.689 -1.3731  1.1691  1.2892
  472TMC3    H2 7030   3.980   1.760  16.319 -1.1282  0.0664 -0.8306
  472TMC3    C7 7031   4.074   1.704  16.550  0.5640  0.1819  0.4400
  472TMC3    C8 7032   3.782   1.932  16.270 -0.3510  0.0300 -0.8005
  472TMC3    O1 7033   4.042   1.671  16.665  0.3055  0.6230 -0.0433
  472TMC3    O2 7034   3.716   2.032  16.236  0.1793  0.4816 -0.2127
  473MPD2     C 7035   3.942   3.272  13.668  0.2395 -0.0956 -0.0906
  473MPD2    C1 7036   3.907   3.394  13.603  0.0064 -0.6317  0.3688
  473MPD2    C2 7037   3.939   3.511  13.661  0.5502  0.6258  0.4457
  473MPD2    C3 7038   3.999   3.516  13.784  0.6203 -1.0085 -0.0739
  473MPD2    C4 7039   4.031   3.398  13.850  0.2921  0.7251 -0.5557
  473MPD2    C5 7040   4.000   3.279  13.788 -0.6204 -0.0061 -0.7256
  473MPD2     H 7041   3.904   3.600  13.609 -0.1539  0.0578 -0.0599
  473MPD2    H1 7042   4.075   3.399  13.949 -2.7813 -2.3731  0.8508
  473MPD2    H2 7043   3.930   3.171  13.631  1.3357 -0.7997  1.4650
  473MPD2    H3 7044   4.036   3.185  13.829 -0.1696  1.1870  1.6130
  473MPD2     N 7045   4.044   3.640  13.849 -0.3238 -0.0972  0.7161
  473MPD2    H5 7046   4.087   3.620  13.939 -1.6464 -0.3007  1.2946
  473MPD2    N1 7047   3.847   3.403  13.473  0.0460  0.2047  0.9418
  473MPD2    H7 7048   3.822   3.490  13.426  1.0777  0.5566  1.0503
  474TMC3    C1 7049   4.074   3.857  13.916  0.0246 -0.3142  0.2721
  474TMC3    C2 7050   4.084   3.989  13.896 -0.4431  0.0797  0.8820
  474TMC3    C3 7051   4.158   4.066  13.984 -0.0210 -0.1748 -0.0933
  474TMC3    C4 7052   4.146   3.799  14.023  0.9087  0.2403  0.0663
  474TMC3    C5 7053   4.222   3.879  14.109  0.0410  0.2629  0.1583
  474TMC3    C6 7054   4.217   4.013  14.093 -0.3138 -0.7360  0.3995
  474TMC3     C 7055   4.035   3.768  13.808  0.3834  0.8159  0.3080
  474TMC3     O 7056   3.985   3.813  13.704  0.7231  0.4526  0.2790
  474TMC3     H 7057   4.049   4.025  13.800  0.0273 -3.2650 -0.5277
  474TMC3    H1 7058   4.148   3.691  14.034  0.1895  0.0250 -1.8465
  474TMC3    H2 7059   4.283   4.073  14.155 -0.9632 -1.0501  1.3943
  474TMC3    C7 7060   4.278   3.821  14.226  0.0832  0.1885 -0.0292
  474TMC3    C8 7061   4.192   4.210  13.955  0.0691  0.1726  0.4784
  474TMC3    O1 7062   4.305   3.698  14.215 -0.0373  0.1462 -0.0532
  474TMC3    O2 7063   4.251   4.278  14.039 -0.4180 -0.6986  0.4744
  475MPD2     C 7064   3.131   1.537   9.937 -0.8237  0.4036 -0.0605
  475MPD2    C1 7065   3.109   1.672   9.989 -0.3234  0.3047 -0.2078
  475MPD2    C2 7066   2.981   1.695  10.031 -0.0275 -0.2487 -0.3585
  475MPD2    C3 7067   2.887   1.591  10.037 -0.0469 -1.1071  0.1562
  475MPD2    C4 7068   2.913   1.459  10.010  0.0398 -0.2291 -0.3327
  475MPD2    C5 7069   3.038   1.437   9.951  0.4135  0.0601  0.3612
  475MPD2     H 7070   2.949   1.793  10.064  2.2972  1.0537 -1.9023
  475MPD2    H1 7071   2.843   1.377  10.012  0.8072 -0.9681 -3.6026
  475MPD2    H2 7072   3.224   1.503   9.893 -0.5841 -0.8587  1.4188
  475MPD2    H3 7073   3.069   1.337   9.921  2.6233  0.5671  0.9197
  475MPD2     N 7074   2.756   1.635  10.071 -0.3326  0.5016  0.6325
  475MPD2    H5 7075   2.747   1.735  10.078  1.1369  0.8192 -2.1731
  475MPD2    N1 7076   3.205   1.777   9.961  0.5025 -0.5078 -0.1864
  475MPD2    H7 7077   3.278   1.757   9.894  1.1551  0.1111  0.3413
  476TMC3    C1 7078   3.238   2.001   9.908 -0.6473  0.3889  0.9673
  476TMC3    C2 7079   3.193   1.978   9.782 -0.0603  0.0114 -0.0880
  476TMC3    C3 7080   3.238   2.070   9.689 -0.5523 -0.1337  0.2589
  476TMC3    C4 7081   3.280   2.117   9.960 -0.4441  0.4337 -0.2216
  476TMC3    C5 7082   3.308   2.213   9.871  0.7305  0.1484  0.2429
  476TMC3    C6 7083   3.292   2.191   9.731  0.2093  0.9426 -0.4598
  476TMC3     C 7084   3.189   1.908  10.007  0.2934 -0.2238  0.0717
  476TMC3     O 7085   3.135   1.956  10.105 -0.3920 -0.5882 -0.4361
  476TMC3     H 7086   3.148   1.883   9.753 -1.6893  0.6622  0.2928
  476TMC3    H1 7087   3.311   2.130  10.063  1.4501 -1.0966 -0.6078
  476TMC3    H2 7088   3.302   2.269   9.657  0.6186 -0.4256 -1.8639
  476TMC3    C7 7089   3.379   2.338   9.905  1.0581  0.1063  0.1532
  476TMC3    C8 7090   3.156   2.091   9.565  0.6115 -0.2589 -0.1242
  476TMC3    O1 7091   3.420   2.400   9.803  1.1487 -0.0819  0.0773
  476TMC3    O2 7092   3.198   2.164   9.475 -0.3861 -0.2000  0.3896
  477MPD2     C 7093   0.155   3.274  11.582  0.4384 -1.1201 -0.0579
  477MPD2    C1 7094   0.096   3.328  11.691 -0.2305 -0.1274 -0.1529
  477MPD2    C2 7095   0.090   3.258  11.812  0.1040  0.9222 -0.1364
  477MPD2    C3 7096   0.131   3.125  11.820 -0.0924 -0.7067  0.0225
  477MPD2    C4 7097   0.192   3.074  11.702 -0.7697  0.1326 -0.0731
  477MPD2    C5 7098   0.202   3.143  11.580 -0.5256 -0.5389 -0.0942
  477MPD2     H 7099   0.055   3.312  11.899 -2.7460 -1.5051  0.2045
  477MPD2    H1 7100   0.239   2.976  11.703 -1.2138 -0.0870 -0.5125
  477MPD2    H2 7101   0.174   3.335  11.494  0.3764  0.1391  0.8119
  477MPD2    H3 7102   0.260   3.106  11.496  1.4359 -0.1447  1.0683
  477MPD2     N 7103   0.133   3.053  11.952 -0.2255 -0.7570 -0.5756
  477MPD2    H5 7104   0.116   3.110  12.034  0.9705  1.7177 -2.0454
  477MPD2    N1 7105   0.050   3.457  11.675 -0.0500 -0.6980 -0.4096
  477MPD2    H7 7106   0.050   3.490  11.579 -1.3331 -1.6697 -0.7300
  478TMC3    C1 7107   4.617   3.632  11.694 -0.0801  0.2418 -0.0047
  478TMC3    C2 7108   4.569   3.747  11.753 -0.0843 -0.2712  0.3584
  478TMC3    C3 7109   4.460   3.814  11.699  0.2984  0.5345  0.6690
  478TMC3    C4 7110   4.552   3.566  11.593  0.1725  0.8406 -0.0035
  478TMC3    C5 7111   4.441   3.627  11.542 -0.9821 -0.3406 -0.3953
  478TMC3    C6 7112   4.396   3.746  11.596  0.0136 -0.4711  0.3275
  478TMC3     C 7113   4.713   3.539  11.766 -0.3102 -0.2122 -0.3039
  478TMC3     O 7114   4.711   3.537  11.890  0.1946 -0.2198 -0.1812
  478TMC3     H 7115   4.647   3.793  11.812  1.4179 -0.7766 -1.2360
  478TMC3    H1 7116   4.578   3.469  11.551  0.8062  1.4900 -1.1284
  478TMC3    H2 7117   4.317   3.813  11.564  0.0940 -0.1546  0.7848
  478TMC3    C7 7118   4.357   3.551  11.451  0.2809 -0.6666  0.0284
  478TMC3    C8 7119   4.435   3.953  11.738  0.4247 -0.1874 -0.7759
  478TMC3    O1 7120   4.400   3.438  11.419 -0.1315 -0.1404 -0.1328
  478TMC3    O2 7121   4.424   4.034  11.646  0.2554  0.5045 -0.0013
  479MPD2     C 7122   3.649   1.029  15.012  0.1201  0.0802  0.3358
  479MPD2    C1 7123   3.660   1.004  15.147  0.4147  0.7113  0.5033
  479MPD2    C2 7124   3.778   1.019  15.212 -0.4411  0.0356 -0.1607
  479MPD2    C3 7125   3.883   1.076  15.138 -0.2856 -0.3314  0.0898
  479MPD2    C4 7126   3.868   1.103  15.000 -1.0675  0.0325 -0.1641
  479MPD2    C5 7127   3.751   1.074  14.938  0.0163  0.2210  0.0942
  479MPD2     H 7128   3.796   0.985  15.313 -0.4407  1.7511  0.4142
  479MPD2    H1 7129   3.948   1.144  14.939 -1.2999 -0.6030 -0.8965
  479MPD2    H2 7130   3.560   1.009  14.954  0.1016  0.0771  0.3654
  479MPD2    H3 7131   3.738   1.093  14.832  1.4542 -0.3278 -0.1808
  479MPD2     N 7132   4.010   1.113  15.200  0.0554  0.4971  0.4262
  479MPD2    H5 7133   4.082   1.113  15.129 -0.3294 -1.6706  0.0294
  479MPD2    N1 7134   3.541   0.967  15.213  0.2689 -0.2520  0.0036
  479MPD2    H7 7135   3.460   0.975  15.153 -0.4592 -1.7574  0.8001
  480TMC3    C1 7136   3.861   1.155  15.635  0.3964 -0.2999 -0.1005
  480TMC3    C2 7137   3.801   1.276  15.615 -0.3498 -0.1832  0.1681
  480TMC3    C3 7138   3.805   1.327  15.485 -0.0608 -0.0373  0.0442
  480TMC3    C4 7139   3.952   1.102  15.545  0.3038 -0.0326 -0.0244
  480TMC3    C5 7140   3.955   1.161  15.420  0.2861  0.2978  0.2910
  480TMC3    C6 7141   3.888   1.274  15.389 -0.3499  0.4243  0.2992
  480TMC3     C 7142   3.768   1.052  15.694 -0.4491 -0.1010  0.5680
  480TMC3     O 7143   3.826   0.954  15.742 -0.5037 -0.7541 -0.2254
  480TMC3     H 7144   3.746   1.329  15.692  0.0045 -1.8535  1.5422
  480TMC3    H1 7145   3.971   0.995  15.551 -0.3940 -0.2607 -2.1190
  480TMC3    H2 7146   3.901   1.324  15.293  3.6445 -0.6372  0.2993
  480TMC3    C7 7147   4.040   1.100  15.331  0.7750  0.4833  0.1745
  480TMC3    C8 7148   3.662   1.346  15.437 -0.1075  0.0399  0.1754
  480TMC3    O1 7149   4.154   1.092  15.377  0.2550  0.4789  0.8421
  480TMC3    O2 7150   3.570   1.309  15.516 -0.0253  0.1992 -1.1819
  481MPD2     C 7151   0.621   0.045  14.269  1.0678  0.0566 -0.6307
  481MPD2    C1 7152   0.496   0.038  14.325  0.0743  0.2222 -0.3472
  481MPD2    C2 7153   0.479   4.713  14.452  0.5860  0.4420  0.6023
  481MPD2    C3 7154   0.582   4.668  14.528 -0.2876 -0.2590  0.1101
  481MPD2    C4 7155   0.708   4.674  14.471 -0.3870  0.8561 -0.5862
  481MPD2    C5 7156   0.729   0.007  14.352 -0.0156 -0.5452 -0.7679
  481MPD2     H 7157   0.379   0.000  14.492 -0.2743 -0.3974 -1.2751
  481MPD2    H1 7158   0.799   4.643  14.520 -0.0465  4.4678  1.1012
  481MPD2    H2 7159   0.639   0.078  14.167 -1.7516  1.4956 -0.6620
  481MPD2    H3 7160   0.831   0.025  14.320 -0.3897  0.6261 -1.3214
  481MPD2     N 7161   0.563   4.611  14.657 -0.0120 -0.2197  0.1663
  481MPD2    H5 7162   0.639   4.569  14.709  0.6003  0.9644  0.2232
  481MPD2    N1 7163   0.380   0.080  14.256  0.1492 -0.1112 -0.4329
  481MPD2    H7 7164   0.395   0.150  14.184 -1.3955 -0.3167 -0.9512
  482TMC3    C1 7165   0.160   0.124  14.197 -0.1428 -0.5213 -0.3760
  482TMC3    C2 7166   0.054   0.061  14.150 -0.2677 -0.0918 -0.1173
  482TMC3    C3 7167   4.700   0.134  14.070 -0.5149 -0.1892  0.1095
  482TMC3    C4 7168   0.193   0.254  14.165 -0.2082  0.6614 -0.6889
  482TMC3    C5 7169   0.107   0.322  14.078  0.4522 -0.2577  0.7356
  482TMC3    C6 7170   4.724   0.265  14.019  0.3876 -0.5624  0.2688
  482TMC3     C 7171   0.251   0.048  14.286 -0.2365 -0.0241  0.9737
  482TMC3     O 7172   0.208   4.683  14.353 -0.0930 -0.1287 -0.3926
  482TMC3     H 7173   0.051   4.680  14.170  1.6843 -0.1048  0.1593
  482TMC3    H1 7174   0.280   0.307  14.204 -1.9551  1.3275  2.3106
  482TMC3    H2 7175   4.644   0.324  13.976 -0.8538 -1.4260  1.4012
  482TMC3    C7 7176   0.153   0.445  14.037  0.0777  0.1006 -0.2535
  482TMC3    C8 7177   4.616   0.046  13.990  0.6225 -0.7495 -0.5871
  482TMC3    O1 7178   0.243   0.503  14.096  0.4315  0.3071 -0.3354
  482TMC3    O2 7179   4.609   4.653  14.020 -0.4055  0.6021 -0.2621
  483TMC3    C1 7180   2.344   3.950   0.624  0.2005 -0.6830 -0.3104
  483TMC3    C2 7181   2.392   4.063   0.566 -0.4120 -0.2972 -0.1844
  483TMC3    C3 7182   2.529   4.083   0.567 -0.1195 -0.0286 -0.1363
  483TMC3    C4 7183   2.429   3.860   0.687  0.3792  0.8195 -0.9593
  483TMC3    C5 7184   2.565   3.875   0.676  0.2790 -0.4275  0.3520
  483TMC3    C6 7185   2.614   3.988   0.619  0.6577 -0.2927 -0.4122
  483TMC3     C 7186   2.210   3.917   0.605 -0.0085 -0.0478 -0.1041
  483TMC3     O 7187   2.129   4.010   0.611  0.4457  0.9008 -0.4740
  483TMC3     H 7188   2.324   4.120   0.503  0.8513  2.3139  0.8118
  483TMC3    H1 7189   2.395   3.792   0.764  0.6084  0.0773 -1.5218
  483TMC3    H2 7190   2.720   4.003   0.604  0.4825  2.1409  0.8676
  483TMC3    C7 7191   2.653   3.774   0.725 -0.1873 -0.3747 -0.5795
  483TMC3    C8 7192   2.593   4.192   0.501  0.0144  0.2713 -0.3538
  483TMC3    O1 7193   2.763   3.813   0.755 -0.3818  0.0913  1.0348
  483TMC3    O2 7194   2.717   4.201   0.503  0.2914 -0.5436  0.0857
  484MPD2     C 7195   0.714   2.060  12.624 -0.8155 -0.2839  0.4156
  484MPD2    C1 7196   0.762   1.938  12.680 -0.1134 -0.1223  0.2998
  484MPD2    C2 7197   0.893   1.903  12.648 -0.3042  0.0035  0.8932
  484MPD2    C3 7198   0.980   1.985  12.574 -0.4760 -0.3972 -0.8529
  484MPD2    C4 7199   0.923   2.104  12.527 -0.3958  1.1610  0.1929
  484MPD2    C5 7200   0.794   2.133  12.545 -0.1968  0.3878 -0.8283
  484MPD2     H 7201   0.940   1.818  12.696 -0.4833 -0.1142  0.8576
  484MPD2    H1 7202   0.979   2.175  12.467  2.2546 -1.4240 -0.4370
  484MPD2    H2 7203   0.610   2.088  12.638 -1.5444 -2.3723 -0.7403
  484MPD2    H3 7204   0.751   2.221  12.500 -1.1515  0.3065 -0.0721
  484MPD2     N 7205   1.116   1.951  12.536  0.6828  0.9111 -0.5334
  484MPD2    H5 7206   1.171   2.026  12.497  1.4958  0.7661  0.3267
  484MPD2    N1 7207   0.677   1.863  12.757  0.4810 -0.8908 -0.0426
  484MPD2    H7 7208   0.581   1.894  12.767  0.7037 -0.7961  1.8171
  485TMC3    C1 7209   1.323   1.829  12.524 -0.2024 -0.3711 -0.2113
  485TMC3    C2 7210   1.386   1.715  12.567 -0.7267 -0.4686  0.0260
  485TMC3    C3 7211   1.521   1.721  12.577 -0.0459 -0.0203  0.4481
  485TMC3    C4 7212   1.389   1.944  12.479 -0.3151  0.4244 -0.0739
  485TMC3    C5 7213   1.527   1.933  12.472  0.0983 -0.0939 -0.0487
  485TMC3    C6 7214   1.589   1.836  12.543 -0.3719 -0.0731  0.1108
  485TMC3     C 7215   1.178   1.827  12.555 -0.1120 -0.2140 -0.0904
  485TMC3     O 7216   1.118   1.724  12.588 -0.4400 -0.3232 -0.1898
  485TMC3     H 7217   1.327   1.624  12.576 -0.2911 -0.6294  1.2369
  485TMC3    H1 7218   1.342   2.031  12.436  3.8467  2.9179  0.4081
  485TMC3    H2 7219   1.697   1.840  12.536 -0.2538  0.3277  2.0795
  485TMC3    C7 7220   1.582   1.950  12.336  0.8865 -0.0059  0.4322
  485TMC3    C8 7221   1.605   1.602  12.567 -0.0245 -0.0378 -0.3928
  485TMC3    O1 7222   1.543   2.040  12.262  0.0941  0.1564 -0.1467
  485TMC3    O2 7223   1.705   1.606  12.498  0.0771  0.3137 -0.9133
  486MPD2     C 7224   3.358   0.675  12.764  0.1520 -0.0276  0.0009
  486MPD2    C1 7225   3.232   0.641  12.733 -0.2405  0.3560  0.2276
  486MPD2    C2 7226   3.152   0.744  12.688 -0.0046 -0.3030  0.5523
  486MPD2    C3 7227   3.197   0.877  12.682  0.4834 -0.5860 -0.5544
  486MPD2    C4 7228   3.326   0.906  12.720  0.2737 -0.5436  0.1418
  486MPD2    C5 7229   3.408   0.801  12.748 -0.5807  0.0766  0.0608
  486MPD2     H 7230   3.051   0.725  12.653  0.5221 -3.0535  0.5281
  486MPD2    H1 7231   3.374   1.003  12.712  0.3360 -0.5406  0.5738
  486MPD2    H2 7232   3.430   0.602  12.801 -1.8744 -2.2304 -0.4105
  486MPD2    H3 7233   3.509   0.824  12.779 -1.4821  2.5782  1.1762
  486MPD2     N 7234   3.113   0.986  12.635  0.1296 -0.5113  0.0547
  486MPD2    H5 7235   3.021   0.955  12.607 -1.3732  3.1105  1.0934
  486MPD2    N1 7236   3.204   0.501  12.752 -0.0320  0.1471 -0.2891
  486MPD2    H7 7237   3.273   0.442  12.797  2.0373  2.2623 -0.6650
  487TMC3    C1 7238   3.092   0.306  12.772 -0.3451 -0.0569 -0.3054
  487TMC3    C2 7239   3.005   0.216  12.719  0.0687 -0.2967  0.6077
  487TMC3    C3 7240   3.020   0.089  12.762 -0.1334  0.2373  0.2540
  487TMC3    C4 7241   3.185   0.272  12.867 -0.1317 -0.4495 -0.7504
  487TMC3    C5 7242   3.177   0.142  12.920 -0.9199 -0.3853  0.6914
  487TMC3    C6 7243   3.108   0.047  12.856 -0.1184  0.4896  0.8643
  487TMC3     C 7244   3.076   0.442  12.738  0.3093  0.1559  0.4221
  487TMC3     O 7245   2.962   0.490  12.713  0.2330  0.5114  0.1640
  487TMC3     H 7246   2.942   0.256  12.640  0.1573 -2.1253 -0.3747
  487TMC3    H1 7247   3.224   0.346  12.936 -0.3020  0.8295 -2.0398
  487TMC3    H2 7248   3.083   4.686  12.917 -0.3945 -1.3317 -1.8444
  487TMC3    C7 7249   3.181   0.133  13.068 -0.4941 -0.4865  0.4422
  487TMC3    C8 7250   2.917   4.722  12.730  0.2712 -0.2364  0.2029
  487TMC3    O1 7251   3.144   0.230  13.127 -0.0172  0.2903 -0.3672
  487TMC3    O2 7252   2.943   4.609  12.760 -0.6644 -0.1761 -0.5893
  488MPD2     C 7253   3.030   2.862  16.565  0.0112 -0.3180 -0.1312
  488MPD2    C1 7254   3.012   2.997  16.579 -0.2471 -0.0033  0.6210
  488MPD2    C2 7255   2.962   3.047  16.702 -0.5538  0.4174  0.0544
  488MPD2    C3 7256   2.928   2.952  16.804 -0.2853  0.0234 -0.4062
  488MPD2    C4 7257   2.950   2.814  16.788 -0.3803 -0.1940 -0.5215
  488MPD2    C5 7258   3.005   2.776  16.673  0.0283 -0.2389  0.5625
  488MPD2     H 7259   2.950   3.152  16.726  1.3968  1.0139 -1.6061
  488MPD2    H1 7260   2.917   2.741  16.861  0.1550  1.7173  1.6509
  488MPD2    H2 7261   3.068   2.814  16.475 -1.0717 -1.3747 -0.0275
  488MPD2    H3 7262   3.026   2.671  16.661 -0.9660 -0.2861 -0.8476
  488MPD2     N 7263   2.889   3.010  16.932  0.0320 -0.6984 -0.3835
  488MPD2    H5 7264   2.880   3.111  16.934 -2.7386 -0.9083 -2.5051
  488MPD2    N1 7265   3.055   3.086  16.473  0.1204  0.3930  0.2549
  488MPD2    H7 7266   3.060   3.185  16.492 -0.1095  0.4278  0.1247
  489TMC3    C1 7267   2.832   3.027  17.154 -0.2052 -0.3136 -0.2273
  489TMC3    C2 7268   2.808   3.162  17.129 -0.1711 -0.3155  0.6110
  489TMC3    C3 7269   2.815   3.247  17.236 -0.0987 -0.2590 -0.2682
  489TMC3    C4 7270   2.851   2.984  17.281  0.2052  0.4819  0.0979
  489TMC3    C5 7271   2.865   3.082  17.383 -0.7290 -0.3702  0.1248
  489TMC3    C6 7272   2.851   3.214  17.360 -0.6254 -0.1956  0.6903
  489TMC3     C 7273   2.863   2.940  17.045 -0.5088  0.7254 -0.4514
  489TMC3     O 7274   2.858   2.820  17.077 -0.0618  0.0979  0.2377
  489TMC3     H 7275   2.780   3.192  17.029  0.3696  2.2499  1.2300
  489TMC3    H1 7276   2.876   2.879  17.284 -0.6749  0.2169 -2.0990
  489TMC3    H2 7277   2.850   3.284  17.444  0.7125  0.5859  0.0640
  489TMC3    C7 7278   2.885   3.038  17.515 -0.0196  0.4303  0.4285
  489TMC3    C8 7279   2.814   3.388  17.220  0.0965 -0.6324 -0.0809
  489TMC3    O1 7280   2.934   3.120  17.591 -0.7545 -0.2631 -0.2042
  489TMC3    O2 7281   2.881   3.452  17.299 -0.2419  0.3729 -0.0484
  490MPD2     C 7282   4.253   2.261  17.671 -0.7174  0.1618  0.3489
  490MPD2    C1 7283   4.147   2.264   0.053 -0.2663  0.5820  0.3540
  490MPD2    C2 7284   4.172   2.246   0.190 -0.0358 -0.0139  0.1423
  490MPD2    C3 7285   4.298   2.229   0.244 -0.0300  0.6489  0.1526
  490MPD2    C4 7286   4.400   2.217   0.155  0.0244 -0.3192 -0.1426
  490MPD2    C5 7287   4.375   2.235   0.027  0.0038  0.0248 -0.1237
  490MPD2     H 7288   4.084   2.248   0.254  0.1614  1.7386  0.3654
  490MPD2    H1 7289   4.505   2.202   0.177 -0.1824 -3.1649 -1.1429
  490MPD2    H2 7290   4.240   2.277  17.564 -1.3035  0.4197  0.4583
  490MPD2    H3 7291   4.458   2.217  17.663 -0.3442  0.3301 -0.6369
  490MPD2     N 7292   4.331   2.234   0.384 -0.8764  0.1401  0.9791
  490MPD2    H5 7293   4.428   2.219   0.406 -0.5272  1.3362  0.2976
  490MPD2    N1 7294   4.014   2.291   0.021  0.0698 -0.6533 -0.0862
  490MPD2    H7 7295   3.942   2.299   0.092  1.0651 -1.3591  1.0076
  491TMC3    C1 7296   3.827   2.337  17.584 -0.1301  0.2298 -0.0766
  491TMC3    C2 7297   3.768   2.392  17.695 -0.9990 -0.3783 -0.2776
  491TMC3    C3 7298   3.634   2.370   0.004  1.1385 -0.1070  0.7553
  491TMC3    C4 7299   3.763   2.267  17.488  0.7035 -0.0748 -0.2361
  491TMC3    C5 7300   3.631   2.234  17.509 -0.8100  0.1414 -0.2038
  491TMC3    C6 7301   3.567   2.284  17.618 -0.2589 -0.2683 -1.0089
  491TMC3     C 7302   3.973   2.300  17.589  0.3410  0.1885  0.3885
  491TMC3     O 7303   4.028   2.285  17.481 -0.5953  0.3382 -0.0928
  491TMC3     H 7304   3.832   2.446   0.060 -0.9032  0.9253 -1.3915
  491TMC3    H1 7305   3.816   2.234  17.399  0.0669  0.8816 -0.9735
  491TMC3    H2 7306   3.460   2.267  17.627 -0.2128 -1.1144 -2.0857
  491TMC3    C7 7307   3.593   2.095  17.482 -0.2838 -0.0143 -0.2067
  491TMC3    C8 7308   3.580   2.334   0.140  0.0620  0.1114 -0.1937
  491TMC3    O1 7309   3.618   2.050  17.371  0.3353  0.7003  0.2644
  491TMC3    O2 7310   3.524   2.222   0.150  0.2809  0.4474 -0.3897
  492MPD2     C 7311   4.390   2.094  11.313 -0.3256 -0.1239 -0.0843
  492MPD2    C1 7312   4.340   1.983  11.250 -0.4190  0.0531  0.1847
  492MPD2    C2 7313   4.245   1.904  11.319  0.5797  0.0604 -0.5926
  492MPD2    C3 7314   4.212   1.939  11.449 -0.5549  0.0951 -0.5141
  492MPD2    C4 7315   4.278   2.039  11.511 -0.3046  0.7706 -0.7529
  492MPD2    C5 7316   4.362   2.121  11.446 -0.2032 -0.6961  0.3450
  492MPD2     H 7317   4.196   1.819  11.273 -0.5070  1.1883 -1.5067
  492MPD2    H1 7318   4.252   2.072  11.611  1.1519 -0.0208 -0.1177
  492MPD2    H2 7319   4.460   2.164  11.267 -1.2566  0.8912  0.0486
  492MPD2    H3 7320   4.393   2.209  11.501  1.5790  1.5612 -4.3343
  492MPD2     N 7321   4.108   1.885  11.526 -0.7748 -0.0470  0.1320
  492MPD2    H5 7322   4.093   1.920  11.620 -1.1187  1.3842 -0.4634
  492MPD2    N1 7323   4.364   1.973  11.110 -0.0726  0.4659  0.4227
  492MPD2    H7 7324   4.427   2.043  11.073 -0.7901  0.6400 -0.4683
  493TMC3    C1 7325   4.357   1.875  10.887 -0.4437 -0.3314 -0.2488
  493TMC3    C2 7326   4.481   1.928  10.847  0.3589  0.1803  0.1240
  493TMC3    C3 7327   4.499   1.962  10.715  0.5687 -0.0924 -0.2789
  493TMC3    C4 7328   4.271   1.835  10.800  0.4079 -0.0330  0.4112
  493TMC3    C5 7329   4.296   1.854  10.665 -0.7759 -0.0086  0.2212
  493TMC3    C6 7330   4.405   1.924  10.619  0.4967  0.3565 -0.1445
  493TMC3     C 7331   4.315   1.875  11.025 -0.5355 -0.0743 -0.6063
  493TMC3     O 7332   4.226   1.789  11.044 -0.0084 -0.1375 -0.0823
  493TMC3     H 7333   4.562   1.943  10.918 -0.1658  2.0682  0.3322
  493TMC3    H1 7334   4.172   1.813  10.838 -0.2975  0.4296 -1.1553
  493TMC3    H2 7335   4.423   1.919  10.512 -1.5557 -1.1461 -0.4087
  493TMC3    C7 7336   4.224   1.767  10.574 -0.2159  0.4831 -0.1392
  493TMC3    C8 7337   4.630   2.015  10.683  0.0066 -0.6755 -0.6346
  493TMC3    O1 7338   4.204   1.792  10.456 -0.1331 -0.0472 -0.2380
  493TMC3    O2 7339   4.714   2.007  10.770  0.2416 -0.2936 -0.1759
  494TMC3    C1 7340   0.200   4.288   0.535  0.2897 -0.5641  0.0118
  494TMC3    C2 7341   0.181   4.157   0.550 -0.0289  0.2641  0.5739
  494TMC3    C3 7342   0.193   4.081   0.441 -0.5266  0.2594  0.1951
  494TMC3    C4 7343   0.231   4.347   0.415  0.3061  0.3436  0.3175
  494TMC3    C5 7344   0.236   4.264   0.304 -0.2674  0.2618 -0.0966
  494TMC3    C6 7345   0.233   4.127   0.319 -0.0822 -0.4401 -0.4306
  494TMC3     C 7346   0.180   4.372   0.652  0.4128 -0.5418 -0.4435
  494TMC3     O 7347   0.119   4.319   0.741  0.5187  0.3325 -0.4908
  494TMC3     H 7348   0.154   4.115   0.646 -2.7325  0.3813 -0.1265
  494TMC3    H1 7349   0.231   4.455   0.407  1.7981  0.1834 -1.9542
  494TMC3    H2 7350   0.276   4.064   0.242  1.3317 -0.7885  0.6341
  494TMC3    C7 7351   0.274   4.315   0.175 -0.5105 -0.0216 -0.2117
  494TMC3    C8 7352   0.189   3.938   0.465 -0.1729 -0.4105 -0.0380
  494TMC3    O1 7353   0.232   4.246   0.084 -0.0567  0.4973  0.1791
  494TMC3    O2 7354   0.227   3.898   0.571  0.2744 -0.1416 -0.6464
  495TMC3    C1 7355   3.646   1.425  14.460  0.6377  0.5588  0.3663
  495TMC3    C2 7356   3.540   1.355  14.416 -0.7678 -0.0804 -0.8102
  495TMC3    C3 7357   3.425   1.355  14.489 -0.5093 -0.0992 -0.6924
  495TMC3    C4 7358   3.649   1.472  14.584  0.4668 -0.0178  0.1102
  495TMC3    C5 7359   3.529   1.480  14.655 -0.3709 -0.1397  0.1187
  495TMC3    C6 7360   3.414   1.427  14.606  0.4274  0.4000  0.2669
  495TMC3     C 7361   3.771   1.371  14.407 -0.5631 -0.2670 -0.2477
  495TMC3     O 7362   3.764   1.310  14.304  0.1442 -0.1302  0.0969
  495TMC3     H 7363   3.533   1.321  14.313  1.2435 -1.7493 -0.3929
  495TMC3    H1 7364   3.738   1.519  14.626  2.1805 -2.6797 -0.5812
  495TMC3    H2 7365   3.327   1.423  14.670 -1.3690  1.1516 -2.1276
  495TMC3    C7 7366   3.550   1.485  14.797 -1.2098 -0.8864 -0.4182
  495TMC3    C8 7367   3.328   1.244  14.477  0.9438  0.2585  0.4718
  495TMC3    O1 7368   3.668   1.500  14.837 -0.1500 -0.2929  0.1161
  495TMC3    O2 7369   3.244   1.231  14.565  0.3691 -0.5024  0.0324
  496MPD2     C 7370   0.617   0.604  14.888 -0.3399  0.3965  0.2092
  496MPD2    C1 7371   0.691   0.550  14.998  0.2605  0.5153  0.1734
  496MPD2    C2 7372   0.633   0.543  15.123 -0.5011 -0.7410 -0.6911
  496MPD2    C3 7373   0.505   0.589  15.142  0.2483  0.2463 -0.2545
  496MPD2    C4 7374   0.432   0.647  15.039 -0.1079 -0.3291 -0.1869
  496MPD2    C5 7375   0.488   0.646  14.914 -0.9796  0.3559  0.8867
  496MPD2     H 7376   0.702   0.503  15.197 -2.0885 -0.5574  0.8800
  496MPD2    H1 7377   0.326   0.668  15.054 -0.1146 -1.5558  1.4980
  496MPD2    H2 7378   0.656   0.602  14.787  3.4770  1.9152  1.6606
  496MPD2    H3 7379   0.423   0.681  14.834 -0.5822  2.2280  1.3681
  496MPD2     N 7380   0.455   0.599  15.274 -0.3053  0.3527  1.0681
  496MPD2    H5 7381   0.366   0.647  15.285 -1.6201 -1.8898  0.0878
  496MPD2    N1 7382   0.806   0.481  14.965 -0.1342  0.2771  0.2920
  496MPD2    H7 7383   0.847   0.490  14.872  0.5450  0.2130  0.5814
  497TMC3    C1 7384   0.449   0.596  15.511 -0.4222 -0.1807  0.4557
  497TMC3    C2 7385   0.319   0.542  15.504 -0.2691  0.3524 -0.6909
  497TMC3    C3 7386   0.246   0.544  15.613  0.2171  0.9399 -0.2486
  497TMC3    C4 7387   0.508   0.638  15.626 -0.2022 -0.4145 -0.2369
  497TMC3    C5 7388   0.426   0.648  15.737  0.0281 -1.0116  0.4553
  497TMC3    C6 7389   0.300   0.596  15.733  0.6263 -0.2304  0.4415
  497TMC3     C 7390   0.527   0.579  15.392 -0.3955  0.5030 -0.0108
  497TMC3     O 7391   0.650   0.578  15.412 -0.1716  0.2554  0.0378
  497TMC3     H 7392   0.270   0.527  15.409  0.8415 -1.0079 -1.0410
  497TMC3    H1 7393   0.607   0.681  15.623 -0.9377  1.4732  1.3611
  497TMC3    H2 7394   0.236   0.593  15.821 -0.1471  2.3295 -0.0065
  497TMC3    C7 7395   0.483   0.692  15.861  0.2299  0.1223  0.3606
  497TMC3    C8 7396   0.122   0.472  15.613 -0.0614  0.6346  0.2229
  497TMC3    O1 7397   0.412   0.675  15.960 -0.1632  0.0878 -0.4674
  497TMC3    O2 7398   0.035   0.507  15.687  0.2789 -0.5672 -0.4985
  498MPD2     C 7399   1.087   1.745   9.302 -0.6436  0.4964  0.1541
  498MPD2    C1 7400   1.167   1.691   9.396  0.2534  0.4832  0.3820
  498MPD2    C2 7401   1.117   1.592   9.482  0.2226 -0.0590  0.4689
  498MPD2    C3 7402   0.991   1.540   9.465 -0.2393 -0.5035  0.5680
  498MPD2    C4 7403   0.922   1.583   9.355  0.1254 -0.7121 -0.0608
  498MPD2    C5 7404   0.968   1.688   9.282  0.1790  0.3639  0.2052
  498MPD2     H 7405   1.184   1.540   9.550  2.9068  1.8132 -0.7326
  498MPD2    H1 7406   0.824   1.541   9.334 -0.0932  0.1023 -0.7042
  498MPD2    H2 7407   1.109   1.831   9.240 -0.8397  1.2741  1.1547
  498MPD2    H3 7408   0.902   1.719   9.202  0.9452 -0.6930 -0.8394
  498MPD2     N 7409   0.944   1.457   9.569  0.4595  0.2491 -0.5147
  498MPD2    H5 7410   1.011   1.434   9.641  0.1718  1.6590  0.2004
  498MPD2    N1 7411   1.298   1.733   9.420 -0.2706  0.4483  0.0231
  498MPD2    H7 7412   1.335   1.675   9.494  1.5689 -0.6797 -1.7706
  499TMC3    C1 7413   1.504   1.868   9.421  0.0263 -0.1593  0.1701
  499TMC3    C2 7414   1.563   1.804   9.527 -0.8498 -0.3768 -0.2478
  499TMC3    C3 7415   1.704   1.811   9.541 -0.2049  0.4748 -0.2203
  499TMC3    C4 7416   1.580   1.935   9.333  0.3119 -0.4400 -0.3645
  499TMC3    C5 7417   1.716   1.952   9.356 -0.0848  0.1259  0.6800
  499TMC3    C6 7418   1.783   1.888   9.457 -0.0071  0.3259 -0.5559
  499TMC3     C 7419   1.370   1.841   9.374 -0.3703 -0.5524 -0.0635
  499TMC3     O 7420   1.334   1.916   9.283 -0.1647  0.0212 -0.0806
  499TMC3     H 7421   1.517   1.737   9.599  0.1892  1.4285  2.0844
  499TMC3    H1 7422   1.532   1.997   9.258 -0.4404 -0.7334 -0.1249
  499TMC3    H2 7423   1.891   1.883   9.461 -0.0728  0.2920  1.1725
  499TMC3    C7 7424   1.786   2.047   9.276 -0.2916  0.0752  0.6177
  499TMC3    C8 7425   1.774   1.725   9.634 -0.4261 -0.7193 -0.6793
  499TMC3    O1 7426   1.708   2.134   9.232 -0.2362  0.6417  0.0748
  499TMC3    O2 7427   1.706   1.637   9.688  0.4157  0.0516  0.0258
  500MPD2     C 7428   3.525   2.929  10.003  0.5526  0.4662  0.5214
  500MPD2    C1 7429   3.466   3.010  10.094  0.1618 -1.0876 -0.4557
  500MPD2    C2 7430   3.333   3.055  10.070 -0.1715 -0.3673 -0.1679
  500MPD2    C3 7431   3.267   3.019   9.947  0.3264  0.0417 -1.0011
  500MPD2    C4 7432   3.339   2.948   9.854 -0.2873  0.1623  0.5561
  500MPD2    C5 7433   3.466   2.906   9.882 -0.2333  0.5144 -0.3135
  500MPD2     H 7434   3.280   3.108  10.148  0.0476  1.3031 -1.1650
  500MPD2    H1 7435   3.292   2.928   9.758  0.8123 -3.0412  0.6912
  500MPD2    H2 7436   3.623   2.888  10.022  0.4427 -0.4379 -0.9444
  500MPD2    H3 7437   3.507   2.844   9.803  0.3920 -0.5235  0.8343
  500MPD2     N 7438   3.129   3.065   9.918  0.4356 -0.3185  0.4300
  500MPD2    H5 7439   3.083   3.104   9.999  0.7106  1.4217 -0.2496
  500MPD2    N1 7440   3.534   3.042  10.216  0.3297  0.1780  0.3694
  500MPD2    H7 7441   3.483   3.108  10.274  0.6706  0.1999  0.6419
  501TMC3    C1 7442   3.696   3.065  10.386  0.4560  0.3192 -0.6886
  501TMC3    C2 7443   3.656   3.199  10.408 -0.2254 -0.8653  0.1914
  501TMC3    C3 7444   3.729   3.267  10.499  0.8905  0.6411 -0.4531
  501TMC3    C4 7445   3.808   3.010  10.443  0.5285 -0.5732  0.3240
  501TMC3    C5 7446   3.880   3.089  10.531 -0.2532  0.0501  0.5175
  501TMC3    C6 7447   3.836   3.218  10.561  0.0634  0.4027 -0.3684
  501TMC3     C 7448   3.654   3.001  10.267 -0.0916 -0.3034  0.6184
  501TMC3     O 7449   3.742   2.938  10.217  1.2351 -0.3708  0.4293
  501TMC3     H 7450   3.572   3.242  10.355 -0.5482  0.1810  1.5540
  501TMC3    H1 7451   3.848   2.913  10.412 -0.8799 -1.2807  0.7369
  501TMC3    H2 7452   3.888   3.277  10.635  2.6577 -1.0904 -1.0024
  501TMC3    C7 7453   4.016   3.045  10.557  0.1642  0.4342  0.3832
  501TMC3    C8 7454   3.692   3.406  10.539  1.4181  0.5590 -0.4191
  501TMC3    O1 7455   4.055   2.935  10.517  0.2484  0.2570  0.1873
  501TMC3    O2 7456   3.730   3.432  10.651  0.0950  0.0891  0.0858
  502TMC3    C1 7457   2.833   1.877  15.176 -0.6060 -0.1498 -0.1325
  502TMC3    C2 7458   2.779   1.990  15.119  0.2526 -0.2804  0.4592
  502TMC3    C3 7459   2.654   1.981  15.083 -0.1432  0.0927  0.9136
  502TMC3    C4 7460   2.762   1.754  15.195  0.2564  0.0746 -1.3757
  502TMC3    C5 7461   2.632   1.754  15.164 -0.5090  0.4280  1.1644
  502TMC3    C6 7462   2.575   1.873  15.116  0.1780  0.5529  0.3557
  502TMC3     C 7463   2.945   1.911  15.264 -0.1671 -0.4735 -0.8703
  502TMC3     O 7464   3.045   1.966  15.224  0.0152  0.9718 -0.4015
  502TMC3     H 7465   2.827   2.087  15.131  0.3962 -0.2402 -0.4349
  502TMC3    H1 7466   2.803   1.680  15.263 -0.7641 -0.0048 -0.8530
  502TMC3    H2 7467   2.471   1.865  15.088  0.2069 -0.3534  0.5261
  502TMC3    C7 7468   2.550   1.660  15.231  0.6827  0.4012  0.9021
  502TMC3    C8 7469   2.584   2.099  15.025  0.0952 -0.2361 -0.2659
  502TMC3    O1 7470   2.595   1.547  15.248  0.1510 -0.0191  0.3633
  502TMC3    O2 7471   2.464   2.124  15.046  0.0406 -0.1957  0.3846
  503MPD2     C 7472   0.241   2.838  16.904  0.4582  0.4188  0.4128
  503MPD2    C1 7473   0.228   2.886  17.038  0.4508  0.1132 -0.0259
  503MPD2    C2 7474   0.236   2.803  17.141  0.6438 -0.4482  0.4862
  503MPD2    C3 7475   0.245   2.666  17.124  0.2676 -0.0537 -0.8173
  503MPD2    C4 7476   0.257   2.620  16.993  0.4206 -0.2444 -0.6915
  503MPD2    C5 7477   0.247   2.705  16.883 -0.3913  0.5009 -0.7974
  503MPD2     H 7478   0.247   2.845  17.241 -0.4867 -1.9696  1.2492
  503MPD2    H1 7479   0.263   2.513  16.974 -3.3479 -0.8508  1.4991
  503MPD2    H2 7480   0.235   2.909  16.822  2.3361 -0.4833 -0.4977
  503MPD2    H3 7481   0.260   2.660  16.785 -0.6972 -1.7495  0.2018
  503MPD2     N 7482   0.261   2.573  17.231 -0.2241 -0.9019 -0.0727
  503MPD2    H5 7483   0.269   2.474  17.208 -1.6074 -0.9075 -0.5347
  503MPD2    N1 7484   0.220   3.024  17.073 -0.0305 -0.2741  0.4561
  503MPD2    H7 7485   0.200   3.036  17.172  0.0747  2.8850  0.0774
  504TMC3    C1 7486   0.287   2.490  17.446 -0.4694 -0.2394  0.1009
  504TMC3    C2 7487   0.249   2.497  17.572  0.6699 -0.3276 -0.9672
  504TMC3    C3 7488   0.278   2.392  17.649 -0.0277 -0.4731  0.7268
  504TMC3    C4 7489   0.358   2.388  17.388 -0.1614  0.4419  0.4037
  504TMC3    C5 7490   0.374   2.280  17.465  0.3501 -0.2746 -0.0567
  504TMC3    C6 7491   0.346   2.280  17.599  0.3092  0.8508  0.0347
  504TMC3     C 7492   0.248   2.606  17.361 -0.0176  0.3528  0.6060
  504TMC3     O 7493   0.209   2.702  17.420  0.3295 -0.1436  0.5906
  504TMC3     H 7494   0.220   2.594  17.610 -1.4377 -0.1415 -3.0152
  504TMC3    H1 7495   0.381   2.363  17.285 -1.1808 -2.6068  0.9058
  504TMC3    H2 7496   0.352   2.190  17.659  1.0362 -0.0438 -1.3689
  504TMC3    C7 7497   0.493   2.203  17.416 -0.2077  0.3433  0.2092
  504TMC3    C8 7498   0.263   2.419   0.086  0.5062 -0.1518  0.4879
  504TMC3    O1 7499   0.490   2.178  17.297  0.5456  0.3777 -0.1156
  504TMC3    O2 7500   0.190   2.514   0.108 -0.0040  0.2453 -0.2074
  505MPD2     C 7501   0.444   0.936  10.601 -0.1569  0.6067 -0.4268
  505MPD2    C1 7502   0.557   0.866  10.632 -0.3548  0.1680 -0.1264
  505MPD2    C2 7503   0.665   0.938  10.687  1.1160 -0.0444  0.8555
  505MPD2    C3 7504   0.651   1.072  10.718  0.6991  0.4511 -0.9503
  505MPD2    C4 7505   0.540   1.138  10.671  0.3056 -0.0005 -0.1910
  505MPD2    C5 7506   0.437   1.072  10.615  0.1637 -0.4071 -0.2672
  505MPD2     H 7507   0.756   0.894  10.725  2.1482  0.6470 -0.8507
  505MPD2    H1 7508   0.524   1.241  10.700 -1.0341 -0.2509 -0.0743
  505MPD2    H2 7509   0.353   0.888  10.566 -0.7465  0.8438  0.7638
  505MPD2    H3 7510   0.342   1.113  10.581  1.7323  2.0529 -1.7182
  505MPD2     N 7511   0.739   1.151  10.785  0.0705 -0.0736 -0.0508
  505MPD2    H5 7512   0.717   1.250  10.784  1.3146  0.2140  1.3947
  505MPD2    N1 7513   0.563   0.731  10.604  0.5210  0.9411  0.3086
  505MPD2    H7 7514   0.485   0.679  10.565  0.0774  1.8354  0.0210
  506TMC3    C1 7515   0.669   0.527  10.555 -0.1598 -0.4445 -0.2605
  506TMC3    C2 7516   0.617   0.530  10.426 -0.0318  0.5215 -0.1204
  506TMC3    C3 7517   0.691   0.486  10.324  0.1926  0.6026  0.2446
  506TMC3    C4 7518   0.788   0.470  10.576  0.8284 -0.4559 -0.6718
  506TMC3    C5 7519   0.860   0.425  10.471 -0.6514 -0.0055  0.0441
  506TMC3    C6 7520   0.814   0.438  10.342  0.1456 -0.2580 -0.2015
  506TMC3     C 7521   0.668   0.652  10.625 -0.2434 -0.2810  0.1486
  506TMC3     O 7522   0.765   0.681  10.686  1.0889 -0.1933 -0.3246
  506TMC3     H 7523   0.527   0.584  10.403 -1.4327 -1.1712  1.3702
  506TMC3    H1 7524   0.828   0.445  10.673 -1.9503 -0.7876  0.3782
  506TMC3    H2 7525   0.881   0.403  10.264 -2.0440  0.9373 -2.6011
  506TMC3    C7 7526   0.996   0.471  10.479  0.2284 -0.1722 -0.5455
  506TMC3    C8 7527   0.669   0.523  10.186 -0.6166  0.1081  0.2587
  506TMC3    O1 7528   1.070   0.420  10.400 -0.1204 -0.0734 -0.6661
  506TMC3    O2 7529   0.765   0.531  10.117 -0.2272 -0.1076  0.0917
  507TMC3    C1 7530   1.594   1.886  14.656 -0.0849 -0.0399 -0.2444
  507TMC3    C2 7531   1.535   1.832  14.546  0.8363 -0.5126  0.6533
  507TMC3    C3 7532   1.575   1.868  14.419  0.2903  0.3742 -0.0797
  507TMC3    C4 7533   1.704   1.968  14.643  0.1493  0.5360  0.3385
  507TMC3    C5 7534   1.746   2.006  14.515 -0.3214  0.4623 -0.1994
  507TMC3    C6 7535   1.678   1.955  14.404  0.8974  0.2246  0.0251
  507TMC3     C 7536   1.520   1.910  14.780 -0.1596  0.4608 -0.1140
  507TMC3     O 7537   1.573   1.983  14.865 -0.2755  0.8230  0.3545
  507TMC3     H 7538   1.442   1.779  14.559 -0.2018  1.0297 -0.5881
  507TMC3    H1 7539   1.767   1.990  14.728 -2.9780  3.2926  1.9481
  507TMC3    H2 7540   1.700   1.981  14.301  0.6670 -0.0666 -0.0974
  507TMC3    C7 7541   1.711   2.147  14.509  0.6187 -0.1851  0.3840
  507TMC3    C8 7542   1.465   1.890  14.322 -0.2424 -0.4845 -0.6806
  507TMC3    O1 7543   1.656   2.185  14.406  0.1425 -0.4249  0.2674
  507TMC3    O2 7544   1.381   1.804  14.304 -0.2522  0.3036  0.1114
  508MPD2     C 7545   2.130   4.634  15.877 -0.1905 -0.0561  0.2125
  508MPD2    C1 7546   2.252   4.688  15.845  0.2726  0.1333  0.3695
  508MPD2    C2 7547   2.307   4.646  15.726  0.0413 -0.1308 -0.0513
  508MPD2    C3 7548   2.253   4.556  15.641 -0.4971 -0.5072 -1.0348
  508MPD2    C4 7549   2.140   4.488  15.680  0.5743 -0.3942  0.1648
  508MPD2    C5 7550   2.079   4.539  15.793  0.3867 -0.5687 -0.0398
  508MPD2     H 7551   2.404   4.685  15.696  0.2541  0.2300  1.0937
  508MPD2    H1 7552   2.084   4.412  15.626 -1.7156  1.7039 -0.4195
  508MPD2    H2 7553   2.088   4.655  15.975 -0.8153  0.3454 -0.1386
  508MPD2    H3 7554   1.988   4.484  15.818  0.7297 -0.2698  1.8233
  508MPD2     N 7555   2.318   4.539  15.515  0.5419 -0.3443 -0.4039
  508MPD2    H5 7556   2.375   4.618  15.489  0.4100 -0.5090 -1.1921
  508MPD2    N1 7557   2.320   0.046  15.937  0.3161 -0.4395 -0.1832
  508MPD2    H7 7558   2.265   0.074  16.018  1.2004  0.1661  0.2097
  509TMC3    C1 7559   2.337   4.492  15.077 -0.0358  0.0543 -0.4366
  509TMC3    C2 7560   2.459   4.558  15.070 -0.0060 -0.0062 -0.6864
  509TMC3    C3 7561   2.535   4.575  15.182  0.1137 -0.7131  0.1750
  509TMC3    C4 7562   2.284   4.443  15.192 -0.3783 -0.1941 -0.0746
  509TMC3    C5 7563   2.353   4.469  15.302 -0.1938  0.4672 -0.2363
  509TMC3    C6 7564   2.470   4.531  15.298 -0.7906 -0.0891 -0.0995
  509TMC3     C 7565   2.236   4.565  15.004  0.2113 -0.1797 -0.8552
  509TMC3     O 7566   2.132   4.502  14.993  0.2104 -0.0251 -0.0617
  509TMC3     H 7567   2.510   4.572  14.975 -1.3144 -2.0909 -1.6907
  509TMC3    H1 7568   2.177   4.427  15.204 -0.3664 -0.4145 -0.2632
  509TMC3    H2 7569   2.516   4.561  15.392 -0.8605 -0.1174 -0.0566
  509TMC3    C7 7570   2.281   4.447  15.426 -0.5728 -0.4119 -0.4796
  509TMC3    C8 7571   2.582   4.710  15.205 -0.5778  0.1550  0.7545
  509TMC3    O1 7572   2.212   4.345  15.432 -0.4033  0.7578  0.1335
  509TMC3    O2 7573   2.550   0.075  15.132  0.0922 -0.2279 -0.1029
  510MPD2     C 7574   0.143   1.590  14.958 -0.1026  0.0213  0.0052
  510MPD2    C1 7575   0.165   1.456  14.989  0.6444  1.0187  0.2066
  510MPD2    C2 7576   0.272   1.390  14.934 -0.0775 -0.7744 -0.1881
  510MPD2    C3 7577   0.359   1.459  14.848 -0.6858  0.6650  0.0594
  510MPD2    C4 7578   0.324   1.584  14.805  0.1967  0.0118 -0.4336
  510MPD2    C5 7579   0.221   1.647  14.860  0.5523 -0.1496 -1.0443
  510MPD2     H 7580   0.295   1.289  14.964  0.8827 -1.3227 -2.7797
  510MPD2    H1 7581   0.370   1.638  14.723  0.8382  0.9101  0.5187
  510MPD2    H2 7582   0.053   1.637  14.997  0.2543 -1.1728  2.2016
  510MPD2    H3 7583   0.211   1.752  14.838  2.0978 -0.6076 -3.9055
  510MPD2     N 7584   0.467   1.388  14.783  0.5740  0.2384  0.1113
  510MPD2    H5 7585   0.476   1.290  14.804 -0.1740  0.0277 -0.5653
  510MPD2    N1 7586   0.087   1.379  15.081  0.0946  1.0888 -1.2854
  510MPD2    H7 7587   0.136   1.296  15.113 -0.1995  0.2653 -3.0059
  511TMC3    C1 7588   4.629   1.306  15.211  0.6173 -0.3282  0.1677
  511TMC3    C2 7589   4.513   1.332  15.290 -0.7013  0.2826  0.2948
  511TMC3    C3 7590   4.440   1.229  15.337 -0.6537  0.3660 -0.2286
  511TMC3    C4 7591   4.679   1.180  15.191  0.2355  0.2251 -0.2506
  511TMC3    C5 7592   4.589   1.082  15.223 -0.5121 -0.4562  0.8621
  511TMC3    C6 7593   4.485   1.101  15.317  0.2282  0.3935  0.4316
  511TMC3     C 7594   4.690   1.420  15.133  0.1514  0.1955  0.2060
  511TMC3     O 7595   4.627   1.526  15.118  0.0606 -0.6202  0.3621
  511TMC3     H 7596   4.474   1.433  15.298 -0.4478  0.3010  1.2897
  511TMC3    H1 7597   0.019   1.155  15.109  1.4389 -0.4669  0.9244
  511TMC3    H2 7598   4.459   1.017  15.380  4.0498 -1.0051  0.1536
  511TMC3    C7 7599   4.620   0.954  15.163 -0.1010 -0.3538 -0.2683
  511TMC3    C8 7600   4.420   1.241  15.484  0.5688  0.1367  0.1144
  511TMC3    O1 7601   0.008   0.934  15.125 -0.1417  0.2120 -0.5917
  511TMC3    O2 7602   4.507   1.206  15.556  0.0779 -0.4447 -0.2144
  512TMC3    C1 7603   3.527   0.576  13.181  0.0418  0.0446  0.3138
  512TMC3    C2 7604   3.646   0.566  13.248 -0.1425  0.6378 -0.3163
  512TMC3    C3 7605   3.735   0.468  13.206  0.7238  0.2519 -0.4200
  512TMC3    C4 7606   3.493   0.494  13.081  0.6674  0.6725  0.1307
  512TMC3    C5 7607   3.577   0.390  13.056 -0.0635  0.6186  0.0737
  512TMC3    C6 7608   3.698   0.372  13.122 -0.1796  0.6350  0.1882
  512TMC3     C 7609   3.475   0.713  13.176 -0.1778 -0.6594 -0.2492
  512TMC3     O 7610   3.550   0.807  13.201  0.0467 -0.2040 -0.2356
  512TMC3     H 7611   3.669   0.637  13.327 -0.8991  0.7294 -0.1771
  512TMC3    H1 7612   3.405   0.507  13.019 -0.2658  2.6623  1.8506
  512TMC3    H2 7613   3.751   0.280  13.101 -0.2187  0.2009  2.0278
  512TMC3    C7 7614   3.561   0.313  12.936 -0.4475 -0.0073 -0.9274
  512TMC3    C8 7615   3.866   0.451  13.273 -0.4676  0.9072 -0.2303
  512TMC3    O1 7616   3.471   0.356  12.864 -0.0116 -0.1232  0.1656
  512TMC3    O2 7617   3.921   0.340  13.265  0.4909  0.1909 -0.5443
  513MPD2     C 7618   1.267   1.527  12.836 -0.3705 -0.5953 -0.2986
  513MPD2    C1 7619   1.160   1.441  12.824 -0.0482 -0.5404  0.7186
  513MPD2    C2 7620   1.160   1.319  12.894  0.0922  0.7583  0.5041
  513MPD2    C3 7621   1.272   1.283  12.968 -0.2181 -0.2851 -0.7250
  513MPD2    C4 7622   1.381   1.373  12.979 -0.3309 -0.0262  0.1669
  513MPD2    C5 7623   1.372   1.496  12.909 -0.1596 -0.0509  0.7707
  513MPD2     H 7624   1.079   1.246  12.897  0.3432  0.5379  1.9284
  513MPD2    H1 7625   1.457   1.353  13.054 -2.0806  1.4202  2.3152
  513MPD2    H2 7626   1.257   1.625  12.791  1.8979 -1.1255 -1.9344
  513MPD2    H3 7627   1.444   1.575  12.927 -1.2526  1.5028 -1.7171
  513MPD2     N 7628   1.260   1.159  13.036 -0.6649 -0.1588  0.3310
  513MPD2    H5 7629   1.166   1.121  13.029 -0.5008 -0.5766  0.4068
  513MPD2    N1 7630   1.055   1.473  12.734  0.0786 -0.3369  0.2698
  513MPD2    H7 7631   1.067   1.553  12.673 -0.0387 -0.5590 -0.0416
  514TMC3    C1 7632   0.856   1.464  12.620 -0.1387  0.0801  0.2964
  514TMC3    C2 7633   0.910   1.471  12.504 -0.0194 -0.0615  0.7740
  514TMC3    C3 7634   0.836   1.430  12.393 -0.3098  0.1164  0.3950
  514TMC3    C4 7635   0.722   1.417  12.636  0.3112  0.2636  0.2330
  514TMC3    C5 7636   0.667   1.351  12.531 -0.4771 -0.4075 -0.1753
  514TMC3    C6 7637   0.723   1.361  12.409 -0.4534 -0.2945  0.1668
  514TMC3     C 7638   0.948   1.400  12.708 -0.3180  0.2988 -0.4988
  514TMC3     O 7639   0.889   1.326  12.784 -0.4201  0.0403 -0.3528
  514TMC3     H 7640   1.007   1.515  12.487  0.0368 -0.2239  0.6774
  514TMC3    H1 7641   0.683   1.405  12.737  0.4539 -2.0064 -0.0039
  514TMC3    H2 7642   0.671   1.308  12.330 -1.1200  1.8140 -0.7986
  514TMC3    C7 7643   0.628   1.212  12.558  0.3561 -0.4908  0.0152
  514TMC3    C8 7644   0.873   1.489  12.272 -0.4519  0.8220 -0.8915
  514TMC3    O1 7645   0.562   1.151  12.472 -0.3549  0.5637 -0.1152
  514TMC3    O2 7646   0.978   1.555  12.270 -0.0764  0.3738  0.2030
  515MPD2     C 7647   3.519   2.384  14.562 -0.4274  0.4377  0.5898
  515MPD2    C1 7648   3.527   2.261  14.622  0.1124 -0.3082 -0.2956
  515MPD2    C2 7649   3.600   2.243  14.736 -0.2812 -0.0356  0.7575
  515MPD2    C3 7650   3.667   2.351  14.792  0.3761 -0.0951  0.4163
  515MPD2    C4 7651   3.669   2.467  14.721 -0.0129 -0.1580 -0.2239
  515MPD2    C5 7652   3.596   2.487  14.603  0.4568  0.4301 -0.5636
  515MPD2     H 7653   3.609   2.148  14.787 -0.9551 -0.5895 -0.1579
  515MPD2    H1 7654   3.729   2.546  14.764 -0.1098 -0.6843  0.8817
  515MPD2    H2 7655   3.459   2.395  14.472  1.1098 -0.7913 -0.5989
  515MPD2    H3 7656   3.591   2.585  14.557  0.1238 -0.6837 -2.9171
  515MPD2     N 7657   3.727   2.337  14.918 -0.4448 -0.0754  0.2052
  515MPD2    H5 7658   3.735   2.245  14.960  0.8063  0.0369  0.1890
  515MPD2    N1 7659   3.465   2.146  14.572 -0.0552 -0.0375 -0.0768
  515MPD2    H7 7660   3.491   2.061  14.620 -0.9849 -1.2285 -1.6707
  516TMC3    C1 7661   3.300   2.012  14.465 -0.4873 -0.4949 -0.4715
  516TMC3    C2 7662   3.192   2.010  14.381 -0.0228 -0.6787 -0.6836
  516TMC3    C3 7663   3.093   1.919  14.408 -0.5165  0.2608  0.2039
  516TMC3    C4 7664   3.328   1.913  14.558 -0.1740 -0.7007  0.2226
  516TMC3    C5 7665   3.235   1.812  14.568 -0.2333  0.5299 -0.4195
  516TMC3    C6 7666   3.118   1.813  14.486 -0.0119  0.4763 -0.2122
  516TMC3     C 7667   3.380   2.137  14.465  0.7148  0.2012 -0.4489
  516TMC3     O 7668   3.346   2.224  14.389  0.1420  0.2280  0.1849
  516TMC3     H 7669   3.185   2.093  14.312 -1.4586  1.2890  1.8500
  516TMC3    H1 7670   3.409   1.923  14.629  1.1842  1.7855 -1.6633
  516TMC3    H2 7671   3.055   1.724  14.483 -1.5044  1.5623 -1.1776
  516TMC3    C7 7672   3.222   1.752  14.698 -0.9630  0.3079  0.0490
  516TMC3    C8 7673   2.970   1.910  14.340  0.4227 -0.2916 -0.2819
  516TMC3    O1 7674   3.301   1.793  14.780  0.2027  0.1006  0.3613
  516TMC3    O2 7675   2.909   1.804  14.348 -1.1411 -0.1119  0.1340
  517MPD2     C 7676   3.360   4.334  17.416 -0.5520 -0.5556 -0.8195
  517MPD2    C1 7677   3.424   4.315  17.538  0.7450 -0.9485 -0.5487
  517MPD2    C2 7678   3.383   4.394  17.646 -0.5599  0.0734  0.4654
  517MPD2    C3 7679   3.273   4.480  17.639 -0.1711 -0.5977  0.2104
  517MPD2    C4 7680   3.205   4.476  17.524 -0.0254 -0.1011 -0.4312
  517MPD2    C5 7681   3.250   4.413  17.411  0.4065  0.0904 -0.6860
  517MPD2     H 7682   3.438   4.369   0.032  0.5069  2.2710  0.4369
  517MPD2    H1 7683   3.109   4.526  17.513  0.5536  0.7610 -1.5356
  517MPD2    H2 7684   3.386   4.284  17.323 -1.0518 -0.9610 -0.7407
  517MPD2    H3 7685   3.184   4.427  17.327  0.8009  0.1133 -0.9921
  517MPD2     N 7686   3.217   4.553   0.044  0.1224  0.0485  0.3888
  517MPD2    H5 7687   3.144   4.621   0.026 -1.7399 -1.9712  0.3385
  517MPD2    N1 7688   3.530   4.215  17.547 -0.0450  0.1905  0.1185
  517MPD2    H7 7689   3.564   4.202  17.642  0.1695  0.8365  0.1292
  518TMC3    C1 7690   3.630   4.006  17.522 -0.4671  0.1446  0.4825
  518TMC3    C2 7691   3.570   3.882  17.505  0.2626 -0.2177  0.3724
  518TMC3    C3 7692   3.632   3.776  17.563 -0.8328 -0.4387  0.7188
  518TMC3    C4 7693   3.744   4.023  17.597  0.7104 -0.6108  0.1804
  518TMC3    C5 7694   3.807   3.911  17.644 -0.2230 -0.2555 -0.5893
  518TMC3    C6 7695   3.754   3.784  17.632 -0.1150 -0.4654 -0.1003
  518TMC3     C 7696   3.568   4.120  17.451  0.0270 -0.5049  0.4596
  518TMC3     O 7697   3.504   4.100  17.348 -0.1859 -0.0969  0.0243
  518TMC3     H 7698   3.483   3.869  17.441 -0.7001  0.3802  1.5796
  518TMC3    H1 7699   3.794   4.119  17.595 -1.2366  0.3543 -1.5335
  518TMC3    H2 7700   3.807   3.696  17.665 -0.6957 -0.2924  1.2930
  518TMC3    C7 7701   3.950   3.918  17.653 -0.3249 -0.1263  0.1483
  518TMC3    C8 7702   3.578   3.644  17.559 -0.2839 -0.1771  0.3283
  518TMC3    O1 7703   3.994   4.030  17.653  0.4195 -0.0345  0.3879
  518TMC3    O2 7704   3.607   3.573  17.656 -0.1937  0.0368  0.4168
  519MPD2     C 7705   0.410   1.804  14.399  0.2047 -0.1560  0.1185
  519MPD2    C1 7706   0.373   1.894  14.307 -0.1135  0.3859  0.3375
  519MPD2    C2 7707   0.436   1.894  14.183  0.1734  0.1003  0.4913
  519MPD2    C3 7708   0.548   1.815  14.156  0.0152 -0.5743 -0.0443
  519MPD2    C4 7709   0.597   1.739  14.262  0.3076 -0.4922  0.3558
  519MPD2    C5 7710   0.518   1.727  14.376 -0.2620 -0.1666 -0.1557
  519MPD2     H 7711   0.385   1.956  14.110  1.3125  0.1687 -0.2431
  519MPD2    H1 7712   0.677   1.666  14.253 -0.4559 -1.0603 -1.9014
  519MPD2    H2 7713   0.358   1.793  14.494 -1.0960 -1.7568 -0.7839
  519MPD2    H3 7714   0.556   1.668  14.458 -0.5397 -0.9324 -0.5842
  519MPD2     N 7715   0.613   1.803  14.027  0.5573  0.5058  0.5092
  519MPD2    H5 7716   0.687   1.733  14.027  1.0160  0.9874 -1.6126
  519MPD2    N1 7717   0.256   1.972  14.334  0.6828 -0.2997 -0.2966
  519MPD2    H7 7718   0.208   1.947  14.419 -1.6614  1.1055 -1.2160
  520TMC3    C1 7719   0.625   1.821  13.790  0.0918 -0.1168 -0.1986
  520TMC3    C2 7720   0.559   1.859  13.678 -0.0606  0.3793  0.0599
  520TMC3    C3 7721   0.601   1.816  13.561 -0.1204  0.0629 -0.0268
  520TMC3    C4 7722   0.742   1.748  13.792  0.2564  0.2951 -0.4782
  520TMC3    C5 7723   0.781   1.704  13.671  0.5153  0.4123 -0.0730
  520TMC3    C6 7724   0.713   1.740  13.551  0.0689  0.4409  0.0156
  520TMC3     C 7725   0.577   1.878  13.917  0.2821 -0.1867  0.3872
  520TMC3     O 7726   0.509   1.981  13.914  0.2626  0.6472  0.0417
  520TMC3     H 7727   0.475   1.926  13.693 -0.5557 -0.3482  0.5863
  520TMC3    H1 7728   0.805   1.737  13.880 -0.6755 -2.0044 -0.1048
  520TMC3    H2 7729   0.742   1.696  13.456 -3.5796  1.5864 -1.6547
  520TMC3    C7 7730   0.908   1.641  13.650 -0.3542 -0.1464  0.6295
  520TMC3    C8 7731   0.515   1.824  13.444  0.2360 -0.2386  0.0749
  520TMC3    O1 7732   0.963   1.667  13.544  0.0659 -0.1562  0.1787
  520TMC3    O2 7733   0.558   1.787  13.336 -0.5102 -0.4088 -0.2793
  521MPD2     C 7734   1.231   1.076  16.921  0.1100 -0.1806  0.3745
  521MPD2    C1 7735   1.243   0.942  16.886  0.0205  0.4725 -0.6571
  521MPD2    C2 7736   1.351   0.915  16.800 -0.2142 -0.2894  1.2825
  521MPD2    C3 7737   1.441   1.006  16.749 -0.4394  0.2868  0.1370
  521MPD2    C4 7738   1.421   1.137  16.787  0.7097  0.4872  0.0376
  521MPD2    C5 7739   1.317   1.164  16.870  0.1867  0.0909  0.7002
  521MPD2     H 7740   1.372   0.815  16.764 -2.1970 -0.4739  0.6620
  521MPD2    H1 7741   1.487   1.216  16.754  1.4103 -1.0529 -2.2279
  521MPD2    H2 7742   1.144   1.113  16.974 -0.1188  0.2722 -0.3162
  521MPD2    H3 7743   1.299   1.270  16.886 -1.3926  0.2938 -2.2842
  521MPD2     N 7744   1.528   0.959  16.649 -0.2733  0.2383  0.5897
  521MPD2    H5 7745   1.529   0.859  16.636 -1.8337  0.5098 -1.7033
  521MPD2    N1 7746   1.149   0.850  16.938 -0.3005 -0.2680 -0.0332
  521MPD2    H7 7747   1.088   0.893  17.007 -0.4018 -0.2180 -0.1549
  522TMC3    C1 7748   1.689   0.950  16.489 -0.9215  0.1250  0.3777
  522TMC3    C2 7749   1.820   0.972  16.488  0.1558  0.5388  0.5507
  522TMC3    C3 7750   1.907   0.877  16.447  0.3990  0.0809 -0.4380
  522TMC3    C4 7751   1.630   0.846  16.439 -0.2875  0.0208 -0.2370
  522TMC3    C5 7752   1.717   0.756  16.376  0.4438  0.1744 -0.1514
  522TMC3    C6 7753   1.854   0.777  16.380 -0.1221  0.5598 -0.6555
  522TMC3     C 7754   1.627   1.031  16.589  0.1323 -0.1955 -0.6707
  522TMC3     O 7755   1.654   1.146  16.601  0.3854 -0.4882  0.2232
  522TMC3     H 7756   1.866   1.048  16.550  2.9731  0.3125 -1.2638
  522TMC3    H1 7757   1.529   0.846  16.398  0.7200  1.4267 -2.6779
  522TMC3    H2 7758   1.915   0.705  16.327 -0.7429 -0.5157  0.0901
  522TMC3    C7 7759   1.667   0.645  16.295 -0.2815  0.3506 -0.3253
  522TMC3    C8 7760   2.051   0.914  16.429  0.4145  0.1788 -0.2328
  522TMC3    O1 7761   1.747   0.593  16.219  0.4361 -0.0688  0.2720
  522TMC3    O2 7762   2.084   1.029  16.420 -0.7671 -0.1424 -0.3647
  523MPD2     C 7763   4.022   4.509  10.412  0.3074 -0.6114 -0.7466
  523MPD2    C1 7764   3.955   4.451  10.305  0.1451 -1.1373 -0.3016
  523MPD2    C2 7765   3.898   4.534  10.207  0.4180  0.4205 -0.1709
  523MPD2    C3 7766   3.921   4.671  10.222 -0.8168  0.1228 -0.3556
  523MPD2    C4 7767   3.973   0.003  10.331 -0.3294  0.0060 -0.1744
  523MPD2    C5 7768   4.031   4.643  10.423 -0.0246  1.0184 -0.7279
  523MPD2     H 7769   3.838   4.491  10.128 -1.3088 -1.3908  2.1201
  523MPD2    H1 7770   3.986   0.108  10.354 -2.1366  0.1546  0.2057
  523MPD2    H2 7771   4.063   4.446  10.490  1.0184 -1.3781 -1.7282
  523MPD2    H3 7772   4.087   4.689  10.504  0.2219  0.3527 -0.5228
  523MPD2     N 7773   3.886   0.040  10.122 -0.6948 -0.2674  0.6169
  523MPD2    H5 7774   3.891   0.138  10.147 -0.6389  0.0972 -0.8254
  523MPD2    N1 7775   3.956   4.301  10.306  0.1742 -0.0804  0.0444
  523MPD2    H7 7776   4.012   4.254  10.377  2.2557 -2.9018 -3.4069
  524TMC3    C1 7777   3.826   0.123   9.910 -0.0038  0.0354 -0.0241
  524TMC3    C2 7778   3.722   0.121   9.820  1.0937 -0.2020 -0.1076
  524TMC3    C3 7779   3.699   0.244   9.769 -0.4526 -0.5531  0.0336
  524TMC3    C4 7780   3.913   0.221   9.942  0.1200  0.0729  0.1769
  524TMC3    C5 7781   3.895   0.342   9.883  0.0397 -0.0980  0.5470
  524TMC3    C6 7782   3.782   0.354   9.795 -0.1679 -0.0579 -0.0593
  524TMC3     C 7783   3.838   0.008   9.993  0.7378  0.6226  0.0169
  524TMC3     O 7784   3.783   4.633   9.955 -0.2644 -0.6175 -0.0068
  524TMC3     H 7785   3.648   0.042   9.807  0.4531  0.4471 -0.3837
  524TMC3    H1 7786   4.005   0.200   9.997 -1.4070 -1.8732  1.9846
  524TMC3    H2 7787   3.781   0.441   9.730  1.9578  0.2959  0.3793
  524TMC3    C7 7788   3.943   0.456   9.960  0.1355 -0.1196 -0.1444
  524TMC3    C8 7789   3.611   0.268   9.656 -0.0702  0.0784 -0.5470
  524TMC3    O1 7790   4.015   0.436  10.056  0.5112  0.2607  0.1852
  524TMC3    O2 7791   3.584   0.386   9.641  0.1555 -0.4189  0.2232
  525MPD2     C 7792   1.795   1.571  14.364  0.3789  0.2133  0.4749
  525MPD2    C1 7793   1.893   1.586  14.463 -0.2488 -0.3610  0.5272
  525MPD2    C2 7794   2.000   1.676  14.441  0.1486 -0.5164  0.4918
  525MPD2    C3 7795   2.000   1.765  14.338 -0.3545 -0.9613 -0.1693
  525MPD2    C4 7796   1.899   1.759  14.242 -0.1840  0.3250  0.3789
  525MPD2    C5 7797   1.798   1.669  14.262 -0.2479  0.0305 -1.3095
  525MPD2     H 7798   2.072   1.677  14.522 -0.0917 -3.2337  0.7176
  525MPD2    H1 7799   1.900   1.820  14.152 -0.2628 -1.0109 -0.5311
  525MPD2    H2 7800   1.721   1.493  14.373 -0.1961  0.7746  0.5407
  525MPD2    H3 7801   1.713   1.651  14.196 -0.4846 -1.6357 -0.5701
  525MPD2     N 7802   2.096   1.860  14.318  0.0132  0.2660 -0.2029
  525MPD2    H5 7803   2.074   1.934  14.253 -0.4762 -1.2926 -1.8109
  525MPD2    N1 7804   1.904   1.506  14.572 -0.2911 -0.2862  0.9718
  525MPD2    H7 7805   1.992   1.499  14.622  0.6691 -3.0997 -1.1061
  526TMC3    C1 7806   1.831   1.425  14.776 -0.7568 -0.0526  0.3329
  526TMC3    C2 7807   1.761   1.317  14.823 -0.3990 -0.3442  0.5385
  526TMC3    C3 7808   1.822   1.245  14.925 -0.1439 -0.3427 -0.7498
  526TMC3    C4 7809   1.947   1.475  14.830  0.3822 -0.5720 -0.8752
  526TMC3    C5 7810   2.010   1.387  14.917 -0.6883  0.8680  0.4642
  526TMC3    C6 7811   1.958   1.273  14.962 -0.6595 -0.1716 -0.5646
  526TMC3     C 7812   1.796   1.457  14.639 -0.0525 -0.3624  0.0343
  526TMC3     O 7813   1.679   1.440  14.601  0.7773  0.9306  0.1111
  526TMC3     H 7814   1.668   1.276  14.783  0.1479 -1.5552  0.5027
  526TMC3    H1 7815   2.005   1.553  14.782  0.0054 -1.1679 -2.2954
  526TMC3    H2 7816   2.013   1.204  15.025  0.8259  0.1773 -1.4845
  526TMC3    C7 7817   2.148   1.412  14.947  0.6359 -0.6208  0.5675
  526TMC3    C8 7818   1.739   1.199  15.035 -0.4498  0.1513  0.3879
  526TMC3    O1 7819   2.187   1.526  14.963 -0.2681 -0.7924 -0.0095
  526TMC3    O2 7820   1.791   1.153  15.136 -0.2117  0.2272 -0.2630
  527MPD2     C 7821   0.075   4.363   1.391  0.5721 -0.0445  0.1323
  527MPD2    C1 7822   0.164   4.337   1.490  0.2545 -0.2570 -0.4002
  527MPD2    C2 7823   0.296   4.305   1.453  0.4712  0.4455  1.3254
  527MPD2    C3 7824   0.342   4.300   1.327 -0.1672 -0.0310  0.2724
  527MPD2    C4 7825   0.248   4.329   1.234  0.7699  0.3259  0.3886
  527MPD2    C5 7826   0.120   4.348   1.263 -0.1534 -0.2360 -0.4127
  527MPD2     H 7827   0.370   4.280   1.528  1.6303 -0.4188 -0.1212
  527MPD2    H1 7828   0.271   4.304   1.131 -0.1601  2.5299 -0.3591
  527MPD2    H2 7829   4.698   4.388   1.413  0.5320 -0.6206  0.6046
  527MPD2    H3 7830   0.050   4.370   1.183 -1.0989 -0.9562  0.2171
  527MPD2     N 7831   0.475   4.259   1.294 -0.3658  0.5768  0.4810
  527MPD2    H5 7832   0.537   4.226   1.367 -0.6258 -2.2911 -0.5678
  527MPD2    N1 7833   0.127   4.335   1.627  0.5303  0.4917 -0.2699
  527MPD2    H7 7834   0.206   4.318   1.689  0.9190  2.0441 -0.3357
  528TMC3    C1 7835   4.703   4.381   1.817 -0.1292  0.4739  0.0193
  528TMC3    C2 7836   0.093   4.402   1.884  0.0193  1.1016 -0.6657
  528TMC3    C3 7837   0.090   4.400   2.020  0.0040  0.0530 -0.5250
  528TMC3    C4 7838   4.580   4.360   1.885  0.1521  0.0813  0.2241
  528TMC3    C5 7839   4.584   4.371   2.022 -0.1819 -0.3727 -0.3225
  528TMC3    C6 7840   4.700   4.388   2.090  0.0433 -0.2055  0.0462
  528TMC3     C 7841   4.721   4.334   1.680 -0.4092 -0.5889 -0.2019
  528TMC3     O 7842   4.622   4.304   1.610  0.4279 -0.9284 -0.8009
  528TMC3     H 7843   0.188   4.415   1.833  0.2942  0.5091 -0.3028
  528TMC3    H1 7844   4.492   4.324   1.834 -0.5375  3.0922 -0.6959
  528TMC3    H2 7845   4.708   4.416   2.194  0.2564 -1.1667  0.2902
  528TMC3    C7 7846   4.468   4.323   2.092  0.2509 -0.1333 -0.2370
  528TMC3    C8 7847   0.212   4.458   2.078 -0.5703  0.0696  0.3402
  528TMC3    O1 7848   4.359   4.321   2.034 -0.9293 -0.0324  0.1878
  528TMC3    O2 7849   0.272   4.536   2.003  0.3805  0.5189 -0.4246
  529MPD2     C 7850   1.693   2.923   0.812  0.1296  0.1823 -0.4556
  529MPD2    C1 7851   1.786   2.858   0.745 -0.1723  0.0648 -0.0245
  529MPD2    C2 7852   1.820   2.902   0.619  0.3861 -0.3707  0.5533
  529MPD2    C3 7853   1.750   3.008   0.556  0.5112  0.5242 -0.0946
  529MPD2    C4 7854   1.662   3.082   0.633 -0.5627  0.5795  0.0794
  529MPD2    C5 7855   1.635   3.037   0.758 -0.1190  0.6629  0.0728
  529MPD2     H 7856   1.893   2.844   0.564  1.0041  1.5417 -0.6649
  529MPD2    H1 7857   1.605   3.163   0.591 -0.3343  1.9666  2.4489
  529MPD2    H2 7858   1.662   2.904   0.914  0.7866  0.7148 -0.1556
  529MPD2    H3 7859   1.564   3.090   0.821 -1.3835  1.0890 -1.6818
  529MPD2     N 7860   1.776   3.051   0.424 -0.7737  0.7518 -0.7835
  529MPD2    H5 7861   1.709   3.111   0.377 -1.3877 -1.1618 -2.3742
  529MPD2    N1 7862   1.875   2.763   0.808 -0.4000 -0.4269  0.5951
  529MPD2    H7 7863   1.958   2.731   0.758 -0.1806 -1.1234  1.4142
  530TMC3    C1 7864   1.958   2.631   0.987 -0.4584 -0.6533 -0.5184
  530TMC3    C2 7865   2.023   2.641   1.107  0.2859 -0.6004  0.5224
  530TMC3    C3 7866   2.119   2.548   1.127  0.4011 -0.0052  0.5894
  530TMC3    C4 7867   1.981   2.534   0.902 -0.0550  0.4431 -0.0494
  530TMC3    C5 7868   2.076   2.443   0.932 -0.2163 -0.0583  0.1109
  530TMC3    C6 7869   2.152   2.445   1.045  0.1063  0.1705 -0.6450
  530TMC3     C 7870   1.872   2.737   0.946 -1.4378  0.0919 -0.9023
  530TMC3     O 7871   1.816   2.790   1.040  0.1810  0.3838  0.1755
  530TMC3     H 7872   1.989   2.708   1.185  1.6211 -1.0855  1.5230
  530TMC3    H1 7873   1.924   2.522   0.810  1.3986 -0.2747 -0.8566
  530TMC3    H2 7874   2.232   2.374   1.062 -1.0642 -1.1726 -0.7677
  530TMC3    C7 7875   2.082   2.318   0.861 -0.1019  0.1888  0.8678
  530TMC3    C8 7876   2.188   2.567   1.252  0.5053 -0.0973  0.1336
  530TMC3    O1 7877   2.074   2.322   0.738  0.3629 -0.1128 -0.0442
  530TMC3    O2 7878   2.164   2.674   1.306  0.0693 -0.0333 -0.3291
  531MPD2     C 7879   0.758   0.764  12.763  0.2293 -0.1153  0.0335
  531MPD2    C1 7880   0.834   0.863  12.823  0.0654 -0.0757  0.4120
  531MPD2    C2 7881   0.818   0.990  12.781 -0.5699 -0.1310 -0.5363
  531MPD2    C3 7882   0.729   1.022  12.687  0.1316 -0.1049 -0.1742
  531MPD2    C4 7883   0.648   0.928  12.627  0.0698  0.1844 -0.2807
  531MPD2    C5 7884   0.664   0.794  12.670  0.1728 -0.2904  0.5037
  531MPD2     H 7885   0.873   1.073  12.823 -0.2195 -0.8183  0.3413
  531MPD2    H1 7886   0.566   0.952  12.559  0.2681 -0.0181 -0.5911
  531MPD2    H2 7887   0.766   0.660  12.790  1.6831 -0.5661 -2.1899
  531MPD2    H3 7888   0.605   0.715  12.625  1.6745 -0.6579 -0.8129
  531MPD2     N 7889   0.709   1.157  12.654  0.5139 -0.4171 -0.1182
  531MPD2    H5 7890   0.768   1.223  12.702  1.6881 -2.0800  0.6989
  531MPD2    N1 7891   0.930   0.830  12.925  0.5366 -0.0813 -0.7135
  531MPD2    H7 7892   0.945   0.733  12.949  1.0253  0.0338 -0.5495
  532TMC3    C1 7893   1.089   0.870  13.119  0.1238  0.1542 -0.0511
  532TMC3    C2 7894   1.158   0.976  13.161 -0.0825  0.2083  0.2887
  532TMC3    C3 7895   1.295   0.977  13.158  0.9086 -0.4652  0.3935
  532TMC3    C4 7896   1.160   0.755  13.088  0.5513  0.4443 -0.2257
  532TMC3    C5 7897   1.292   0.751  13.104 -0.2089  0.2766 -0.5452
  532TMC3    C6 7898   1.363   0.864  13.141 -0.4343 -0.8635 -0.8073
  532TMC3     C 7899   0.991   0.922  13.010 -0.7649  0.2167 -0.2022
  532TMC3     O 7900   0.992   1.044  13.004  0.4222  0.4034  0.1668
  532TMC3     H 7901   1.106   1.067  13.190  1.0705  1.3563 -1.2708
  532TMC3    H1 7902   1.110   0.669  13.046  1.5746 -0.6093  0.7493
  532TMC3    H2 7903   1.470   0.868  13.123  0.0080 -0.7524  1.7641
  532TMC3    C7 7904   1.369   0.624  13.106  0.2317 -0.3446  0.2731
  532TMC3    C8 7905   1.358   1.094  13.104 -0.2657  0.3298  0.4524
  532TMC3    O1 7906   1.489   0.632  13.112 -0.0280 -0.7645 -0.3511
  532TMC3    O2 7907   1.476   1.123  13.112 -0.1426 -0.8829 -0.2905
  533TMC3    C1 7908   2.260   2.009  14.391  0.3337 -0.3711 -0.5444
  533TMC3    C2 7909   2.386   2.039  14.423 -1.1124 -0.2104 -0.5084
  533TMC3    C3 7910   2.419   2.147  14.500 -0.1911  0.0246 -0.0368
  533TMC3    C4 7911   2.159   2.089  14.439  0.7473 -0.0858 -0.7370
  533TMC3    C5 7912   2.190   2.192  14.528 -0.1287 -0.9624 -0.2040
  533TMC3    C6 7913   2.322   2.225  14.557 -0.0081 -0.0530 -0.1981
  533TMC3     C 7914   2.216   1.869  14.382 -0.0638 -0.1418 -0.5027
  533TMC3     O 7915   2.270   1.801  14.468  0.8842 -0.6281  0.3583
  533TMC3     H 7916   2.465   1.982  14.375  0.7039  2.1534 -0.3178
  533TMC3    H1 7917   2.057   2.055  14.423  0.8982 -0.6054 -0.5991
  533TMC3    H2 7918   2.337   2.296  14.637  0.4840  1.6146 -1.7761
  533TMC3    C7 7919   2.106   2.177  14.644 -0.3844  0.3329 -0.6343
  533TMC3    C8 7920   2.557   2.175  14.535 -0.0818 -0.8367 -0.4513
  533TMC3    O1 7921   2.024   2.087  14.651  0.4179  0.2791 -0.1017
  533TMC3    O2 7922   2.601   2.285  14.514  0.1880  0.4022  0.3022
  534MPD2     C 7923   4.029   3.605   2.365 -0.2464  0.1735 -0.6164
  534MPD2    C1 7924   4.065   3.622   2.233 -0.6746 -0.2547 -0.2020
  534MPD2    C2 7925   3.995   3.569   2.129 -0.0067  0.5233  0.8406
  534MPD2    C3 7926   3.881   3.490   2.157  0.6260  0.1762 -0.0353
  534MPD2    C4 7927   3.848   3.465   2.291 -0.3676  0.0028  0.5808
  534MPD2    C5 7928   3.921   3.522   2.390 -0.2453 -0.0782  0.1363
  534MPD2     H 7929   4.026   3.592   2.028 -0.0985 -0.1957  0.6544
  534MPD2    H1 7930   3.758   3.409   2.312 -0.7985 -0.1712 -1.6459
  534MPD2    H2 7931   4.077   3.648   2.453 -1.2154  0.2739 -0.1437
  534MPD2    H3 7932   3.877   3.519   2.489 -1.1289 -0.2927 -0.2615
  534MPD2     N 7933   3.803   3.421   2.057 -0.2352  0.2927  0.1487
  534MPD2    H5 7934   3.723   3.377   2.102 -0.6092  0.5030 -0.3153
  534MPD2    N1 7935   4.181   3.700   2.193  0.7720 -0.7208 -0.2276
  534MPD2    H7 7936   4.207   3.700   2.095  2.7190  3.5172  0.3015
  535TMC3    C1 7937   3.726   3.364   1.845 -0.3977 -0.2915  0.1597
  535TMC3    C2 7938   3.602   3.339   1.897 -0.1644  0.5102 -0.2861
  535TMC3    C3 7939   3.501   3.326   1.803  0.9011 -0.4863 -0.3528
  535TMC3    C4 7940   3.753   3.359   1.714  0.1576 -0.6469 -0.1319
  535TMC3    C5 7941   3.653   3.355   1.628 -0.5943  0.6742 -0.7360
  535TMC3    C6 7942   3.520   3.329   1.671 -0.0209 -0.4153 -0.1147
  535TMC3     C 7943   3.821   3.434   1.922  0.4124  0.4025  0.1994
  535TMC3     O 7944   3.911   3.481   1.857  0.0605  0.0850  0.3972
  535TMC3     H 7945   3.566   3.366   1.995 -0.8387  0.2819 -0.4702
  535TMC3    H1 7946   3.856   3.364   1.681  0.7726 -1.6485  1.6352
  535TMC3    H2 7947   3.437   3.319   1.602 -1.2991  0.0149  1.3491
  535TMC3    C7 7948   3.684   3.334   1.492 -0.6574  0.7150 -0.0928
  535TMC3    C8 7949   3.362   3.290   1.840  0.2667  0.2228  0.1270
  535TMC3    O1 7950   3.795   3.303   1.450 -0.0465 -0.6946  0.7254
  535TMC3    O2 7951   3.278   3.331   1.763  0.1424 -0.3518  0.3198
  536MPD2     C 7952   3.454   1.683  16.575  0.3638 -0.4540 -0.4658
  536MPD2    C1 7953   3.337   1.626  16.613  0.3235  0.3298  0.0835
  536MPD2    C2 7954   3.221   1.642  16.546 -0.9958  0.5320 -0.5186
  536MPD2    C3 7955   3.217   1.698  16.420  0.6734 -0.1211 -0.6240
  536MPD2    C4 7956   3.335   1.741  16.378 -0.4100  1.3013  0.0296
  536MPD2    C5 7957   3.449   1.746  16.457 -0.0855  0.0042  0.2068
  536MPD2     H 7958   3.127   1.605  16.587 -0.3745 -0.2359  0.2133
  536MPD2    H1 7959   3.338   1.789  16.281 -0.3865  0.2325 -0.4969
  536MPD2    H2 7960   3.549   1.663  16.624  1.4591 -0.9151 -2.7837
  536MPD2    H3 7961   3.539   1.791  16.417  0.4188  0.3293  1.7189
  536MPD2     N 7962   3.111   1.706  16.332  0.1168  0.1321 -0.2780
  536MPD2    H5 7963   3.124   1.762  16.248  2.6381  0.7888  0.5607
  536MPD2    N1 7964   3.340   1.573  16.746 -0.6434 -0.0637 -0.0807
  536MPD2    H7 7965   3.430   1.574  16.793 -0.1357  0.1279 -1.0701
  537TMC3    C1 7966   3.258   1.483  16.946  0.0066  0.1581  1.3374
  537TMC3    C2 7967   3.336   1.560  17.031  0.2885  0.7507  0.7897
  537TMC3    C3 7968   3.330   1.538  17.165  0.0180  0.3664  0.0615
  537TMC3    C4 7969   3.205   1.368  16.995  0.6047  0.0348  0.6221
  537TMC3    C5 7970   3.227   1.337  17.126  0.0549  0.3891  0.5464
  537TMC3    C6 7971   3.280   1.422  17.215 -0.4817 -0.3958 -0.1444
  537TMC3     C 7972   3.229   1.515  16.808  0.4201  0.7995  0.5237
  537TMC3     O 7973   3.130   1.463  16.759 -0.2200  0.1314 -0.3314
  537TMC3     H 7974   3.384   1.652  16.999  1.5782  0.0676  0.7559
  537TMC3    H1 7975   3.137   1.308  16.936  0.4151 -0.8022  1.6951
  537TMC3    H2 7976   3.311   1.390  17.314 -1.4507 -0.5579  0.1014
  537TMC3    C7 7977   3.161   1.226  17.183  0.1056 -0.2944 -0.4274
  537TMC3    C8 7978   3.393   1.635  17.255 -0.1914 -0.8699  0.2224
  537TMC3    O1 7979   3.143   1.238  17.303 -0.1012 -0.5238  0.2467
  537TMC3    O2 7980   3.456   1.728  17.199 -0.2366  0.6055 -0.4390
  538TMC3    C1 7981   0.052   4.691  11.176 -0.7218  0.0223  0.3837
  538TMC3    C2 7982   0.079   4.563  11.139 -0.5028 -0.0953 -0.2982
  538TMC3    C3 7983   0.013   4.516  11.032 -0.0374  0.6630  0.1553
  538TMC3    C4 7984   4.670   0.029  11.129  0.0273  0.2634 -0.6935
  538TMC3    C5 7985   4.602   4.707  11.021  0.1699 -0.3946 -0.1089
  538TMC3    C6 7986   4.631   4.581  10.978 -0.2747 -0.3547  0.4135
  538TMC3     C 7987   0.118   0.008  11.293  0.0501 -0.3687  0.9380
  538TMC3     O 7988   0.053   0.066  11.383 -0.3863 -0.9599 -0.1687
  538TMC3     H 7989   0.161   4.512  11.188 -1.7887 -1.2082  0.6867
  538TMC3    H1 7990   4.660   0.134  11.154  1.1829  0.3322 -0.5372
  538TMC3    H2 7991   4.578   4.536  10.895  0.1770  0.6007 -0.3905
  538TMC3    C7 7992   4.498   0.052  10.950  0.0779  0.2864 -0.0035
  538TMC3    C8 7993   0.088   4.414  10.954 -0.5530 -0.1188  0.1758
  538TMC3    O1 7994   4.443   4.725  10.853  0.1630  0.4141 -0.5020
  538TMC3    O2 7995   0.207   4.411  10.986  0.0749  0.1831 -0.2244
  539MPD2     C 7996   4.427   4.097  12.074  0.3102  0.4236  0.3949
  539MPD2    C1 7997   4.432   4.102  11.940  0.1192  0.5148 -0.5051
  539MPD2    C2 7998   4.411   4.231  11.874  1.0162 -0.6769  1.0126
  539MPD2    C3 7999   4.373   4.346  11.943 -0.1948 -0.7605  0.2809
  539MPD2    C4 8000   4.354   4.324  12.078  0.0051  0.0020 -0.1275
  539MPD2    C5 8001   4.383   4.207  12.145 -0.0902  0.2341 -0.3014
  539MPD2     H 8002   4.402   4.238  11.766  2.5465 -2.4734  0.7612
  539MPD2    H1 8003   4.325   4.406  12.143 -0.4296  0.2568 -0.6431
  539MPD2    H2 8004   4.445   4.001  12.119  0.9757  0.3778  0.0261
  539MPD2    H3 8005   4.371   4.203  12.252  4.2920 -1.2406  0.1279
  539MPD2     N 8006   4.332   4.463  11.882 -0.2907 -0.8003  0.4997
  539MPD2    H5 8007   4.290   4.529  11.947 -0.5680 -0.2803 -0.2083
  539MPD2    N1 8008   4.447   3.972  11.874 -0.1900  0.3567 -0.2949
  539MPD2    H7 8009   4.469   3.895  11.936 -0.1604 -1.0291 -2.0322
  540TMC3    C1 8010   4.281   4.616  11.713  0.0680  0.2614  0.3791
  540TMC3    C2 8011   4.309   4.668  11.587 -0.0610  0.3882 -0.4463
  540TMC3    C3 8012   4.197   4.697  11.515  0.0884 -0.0248 -0.6730
  540TMC3    C4 8013   4.160   4.642  11.766  0.3823 -0.3655  0.1286
  540TMC3    C5 8014   4.061   4.713  11.692  0.8110  0.1387 -0.1440
  540TMC3    C6 8015   4.073   0.010  11.565  0.7153  0.0381 -0.2245
  540TMC3     C 8016   4.353   4.503  11.757 -0.3313 -0.0627  0.1466
  540TMC3     O 8017   4.418   4.450  11.668 -0.3106  0.0938  0.6897
  540TMC3     H 8018   4.403   4.651  11.536  0.0909 -2.0852  0.6839
  540TMC3    H1 8019   4.132   4.613  11.866 -0.4598  2.7379  0.7933
  540TMC3    H2 8020   3.988   0.029  11.500  0.6383  0.8131  0.0978
  540TMC3    C7 8021   3.934   0.022  11.760 -0.6718 -0.4836  0.0881
  540TMC3    C8 8022   4.213   4.664  11.371  0.1569  0.1599 -0.7616
  540TMC3    O1 8023   3.901   4.687  11.865  0.1292 -0.2410 -0.0636
  540TMC3    O2 8024   4.318   4.691  11.313 -0.0052 -0.9430 -0.1763
  541MPD2     C 8025   2.473   0.164  12.922 -0.6876 -0.5203  0.1871
  541MPD2    C1 8026   2.337   0.148  12.904 -1.1023 -1.3542 -0.3570
  541MPD2    C2 8027   2.266   0.224  12.818  0.8031  0.8923  0.7872
  541MPD2    C3 8028   2.329   0.321  12.742 -0.1255  0.0544 -1.0193
  541MPD2    C4 8029   2.464   0.347  12.768  0.3574  0.2939  0.3042
  541MPD2    C5 8030   2.536   0.267  12.859 -0.1768  0.3131 -0.2879
  541MPD2     H 8031   2.160   0.208  12.803  0.5301  2.7973  0.7883
  541MPD2    H1 8032   2.519   0.415  12.704 -0.8414  1.5550  0.5937
  541MPD2    H2 8033   2.531   0.099  12.987 -0.7226 -1.0363 -0.3020
  541MPD2    H3 8034   2.643   0.279  12.873  0.0335 -0.8297 -0.8752
  541MPD2     N 8035   2.263   0.376  12.633 -0.1719 -0.3601 -0.4692
  541MPD2    H5 8036   2.323   0.429  12.571  1.4409  0.6294  1.9608
  541MPD2    N1 8037   2.285   0.043  12.979  0.2228 -0.8579  0.8172
  541MPD2    H7 8038   2.345   4.713  13.039 -0.5879  1.4268  3.7692
  542TMC3    C1 8039   2.090   0.436  12.490  0.2198  0.0098  0.2260
  542TMC3    C2 8040   2.183   0.495  12.407  0.2238  0.0234 -0.1586
  542TMC3    C3 8041   2.129   0.564  12.301 -0.1670  0.9289 -0.2406
  542TMC3    C4 8042   1.961   0.442  12.471  0.4013  0.5236 -0.5682
  542TMC3    C5 8043   1.910   0.503  12.358 -0.2679 -0.3226  0.2443
  542TMC3    C6 8044   1.994   0.574  12.277  0.1318  0.9459  0.4049
  542TMC3     C 8045   2.128   0.371  12.612  0.0630  0.1669  0.1110
  542TMC3     O 8046   2.040   0.331  12.688  0.2921 -0.2335  0.6620
  542TMC3     H 8047   2.290   0.486  12.423  0.4066 -2.0487 -2.4925
  542TMC3    H1 8048   1.895   0.389  12.539 -0.1758  0.8286 -0.8846
  542TMC3    H2 8049   1.955   0.639  12.199  1.1523  1.5205  0.3629
  542TMC3    C7 8050   1.767   0.525  12.365  0.2099 -0.9542 -0.5054
  542TMC3    C8 8051   2.217   0.603  12.190  0.3706  0.3361 -0.2662
  542TMC3    O1 8052   1.723   0.526  12.480  0.0489 -0.0452 -0.2523
  542TMC3    O2 8053   2.163   0.638  12.088 -0.7215 -0.0420 -0.4350
  543TMC3    C1 8054   1.614   2.609  17.183 -0.0497 -0.3525  0.3903
  543TMC3    C2 8055   1.610   2.483  17.232  0.6450  0.0517 -0.0564
  543TMC3    C3 8056   1.545   2.467  17.351  0.7621 -0.4954  0.0530
  543TMC3    C4 8057   1.539   2.714  17.236 -0.1815 -0.2628 -0.2512
  543TMC3    C5 8058   1.463   2.692  17.354 -0.0469  0.0494 -0.4150
  543TMC3    C6 8059   1.472   2.568  17.410 -0.3612 -0.3136  0.7103
  543TMC3     C 8060   1.690   2.616  17.074  0.1038 -0.8968  0.3375
  543TMC3     O 8061   1.791   2.548  17.076 -0.1807  0.7901  0.1402
  543TMC3     H 8062   1.662   2.399  17.185 -1.7254 -1.8453  0.7455
  543TMC3    H1 8063   1.535   2.807  17.180  3.1556 -0.3984 -0.6904
  543TMC3    H2 8064   1.411   2.550  17.498 -0.3080  3.5826  1.5402
  543TMC3    C7 8065   1.367   2.789  17.392 -0.2478 -0.4434 -0.5880
  543TMC3    C8 8066   1.577   2.345  17.425  0.4580 -0.3425 -0.3356
  543TMC3    O1 8067   1.361   2.885  17.318 -0.3937  0.1814 -0.0593
  543TMC3    O2 8068   1.619   2.250  17.362 -0.2542 -0.5747 -0.2250
  544MPD2     C 8069   1.726   2.109   0.143 -0.2209 -0.3485 -0.3757
  544MPD2    C1 8070   1.700   2.055   0.020 -0.1168 -0.5478  0.3208
  544MPD2    C2 8071   1.646   2.137  17.628  0.5178 -0.9444  0.0416
  544MPD2    C3 8072   1.612   2.269  17.662 -0.3559  0.2174 -0.5614
  544MPD2    C4 8073   1.639   2.319   0.083 -0.0381 -0.1026  0.4656
  544MPD2    C5 8074   1.697   2.236   0.175  0.5285 -0.4446 -0.2907
  544MPD2     H 8075   1.635   2.098  17.527  0.1721  0.2343 -0.3742
  544MPD2    H1 8076   1.625   2.425   0.101 -1.3887 -0.2314  0.1699
  544MPD2    H2 8077   1.776   2.048   0.217 -0.5530  0.8654  0.8498
  544MPD2    H3 8078   1.728   2.277   0.271 -0.8383 -1.8621  0.7716
  544MPD2     N 8079   1.580   2.365  17.566  0.0800  0.3983 -0.0542
  544MPD2    H5 8080   1.560   2.459  17.596  0.7361  0.6663 -0.4654
  544MPD2    N1 8081   1.760   1.928  17.700  0.4518  0.2752  0.0099
  544MPD2    H7 8082   1.795   1.878   0.078  1.0905 -0.5893 -0.7841
  545TMC3    C1 8083   1.839   1.742  17.584  0.3326  0.4502 -0.3252
  545TMC3    C2 8084   1.901   1.706  17.471 -0.6939  0.1473 -0.1750
  545TMC3    C3 8085   1.980   1.591  17.480  0.0567 -0.0668 -0.7155
  545TMC3    C4 8086   1.849   1.668  17.701  0.0763 -0.0818  0.6268
  545TMC3    C5 8087   1.917   1.549  17.698  0.7129 -0.0595 -0.0650
  545TMC3    C6 8088   1.982   1.508  17.583  0.2317  0.0655 -0.1369
  545TMC3     C 8089   1.760   1.865  17.581 -0.2818 -0.3466  1.1809
  545TMC3     O 8090   1.712   1.894  17.475 -0.5375 -0.2000 -0.3324
  545TMC3     H 8091   1.885   1.764  17.381 -0.6743  2.2720  1.2097
  545TMC3    H1 8092   1.802   1.701   0.090  1.6607  1.2064  0.9618
  545TMC3    H2 8093   2.051   1.426  17.597 -0.1340 -0.5120 -1.6869
  545TMC3    C7 8094   1.890   1.451   0.105 -0.2915 -0.0743  0.0553
  545TMC3    C8 8095   2.070   1.571  17.366  0.4014  0.0084 -0.3476
  545TMC3    O1 8096   1.785   1.480   0.162  0.1559 -0.7107 -0.5545
  545TMC3    O2 8097   2.074   1.667  17.290 -0.4195 -0.0509 -0.1299
  546MPD2     C 8098   3.121   2.100   0.045 -0.2329  0.8288 -0.7441
  546MPD2    C1 8099   3.151   2.173  17.632  0.2389  0.4342  0.6845
  546MPD2    C2 8100   3.200   2.300  17.639  0.0491 -0.2533 -0.2390
  546MPD2    C3 8101   3.203   2.367   0.063 -0.8488 -0.1711 -0.6504
  546MPD2    C4 8102   3.171   2.295   0.174  0.2459 -0.5924 -0.2110
  546MPD2    C5 8103   3.132   2.168   0.163  0.0392  0.0992  0.6389
  546MPD2     H 8104   3.233   2.348  17.548 -4.6569  0.7367 -1.4506
  546MPD2    H1 8105   3.192   2.332   0.274  2.3269 -1.3110 -0.3837
  546MPD2    H2 8106   3.091   1.996   0.045 -0.3066  0.8416  1.5166
  546MPD2    H3 8107   3.096   2.120   0.253  0.4038 -0.5974  0.4118
  546MPD2     N 8108   3.249   2.499   0.069 -0.0610 -0.2923  0.7031
  546MPD2    H5 8109   3.280   2.538   0.158  0.6804 -2.5006  1.4041
  546MPD2    N1 8110   3.141   2.101  17.510 -0.4372 -0.2426 -0.0000
  546MPD2    H7 8111   3.103   2.007  17.513  1.6036 -1.0033  2.1506
  547TMC3    C1 8112   3.105   2.078  17.281 -0.3341 -0.2548 -0.3699
  547TMC3    C2 8113   3.036   2.137  17.180 -0.4036  0.1413 -0.0717
  547TMC3    C3 8114   2.952   2.049  17.122 -0.4612  0.1417 -0.1053
  547TMC3    C4 8115   3.097   1.941  17.301 -0.3184 -0.2492 -0.2212
  547TMC3    C5 8116   3.030   1.854  17.221 -0.5465  0.5320 -0.0515
  547TMC3    C6 8117   2.949   1.909  17.125  0.4369 -0.2019  0.4915
  547TMC3     C 8118   3.146   2.165  17.388  0.6350  0.1708  0.2078
  547TMC3     O 8119   3.165   2.283  17.355 -0.2479 -0.3338  0.4291
  547TMC3     H 8120   3.044   2.245  17.175 -1.6602  0.3267  1.7571
  547TMC3    H1 8121   3.160   1.901  17.380 -1.6194 -0.7712  0.5478
  547TMC3    H2 8122   2.890   1.855  17.052 -0.3233  0.7720  0.3743
  547TMC3    C7 8123   3.010   1.715  17.266 -0.1866  0.2098  0.6305
  547TMC3    C8 8124   2.851   2.116  17.045  0.3820  0.0922 -0.0964
  547TMC3    O1 8125   3.044   1.695  17.384  0.0471 -0.6749  0.1163
  547TMC3    O2 8126   2.741   2.073  17.073 -0.1702  0.5555 -0.1001
  548MPD2     C 8127   3.504   2.621  12.407 -0.0818 -0.3802 -0.2782
  548MPD2    C1 8128   3.451   2.516  12.343 -0.5317 -0.4113  0.0966
  548MPD2    C2 8129   3.525   2.453  12.248 -0.3202  0.4228  0.6888
  548MPD2    C3 8130   3.652   2.496  12.217  0.0682  0.1820  0.4982
  548MPD2    C4 8131   3.711   2.595  12.297 -0.3570  0.2209 -0.2970
  548MPD2    C5 8132   3.634   2.659  12.384 -0.2332 -0.5170  0.6283
  548MPD2     H 8133   3.478   2.373  12.193  1.9366 -1.0524  0.9129
  548MPD2    H1 8134   3.813   2.631  12.293  0.5035 -2.4342 -2.3069
  548MPD2    H2 8135   3.460   2.677  12.489 -0.0356 -1.2689  0.3541
  548MPD2    H3 8136   3.666   2.738  12.451  2.2689 -1.5491  0.6157
  548MPD2     N 8137   3.725   2.447  12.106 -0.0837 -0.0690 -0.6831
  548MPD2    H5 8138   3.821   2.470  12.082 -0.0532  1.6242  1.0458
  548MPD2    N1 8139   3.310   2.500  12.355 -0.3430 -0.3982  0.0203
  548MPD2    H7 8140   3.249   2.561  12.409  0.1785 -2.3161  2.7851
  549TMC3    C1 8141   3.100   2.393  12.360 -0.3071  0.1271  0.7981
  549TMC3    C2 8142   3.028   2.506  12.335  0.0257  0.3127 -0.4489
  549TMC3    C3 8143   2.892   2.493  12.363 -0.0212  0.8331  0.6209
  549TMC3    C4 8144   3.044   2.280  12.407  0.4880 -0.4338 -0.3057
  549TMC3    C5 8145   2.907   2.273  12.428 -0.3473  0.5655 -0.0582
  549TMC3    C6 8146   2.831   2.379  12.408  0.3772 -0.0087 -0.0618
  549TMC3     C 8147   3.244   2.383  12.328 -0.0290 -0.0027 -0.0412
  549TMC3     O 8148   3.290   2.274  12.297 -0.1914 -0.5148 -0.5339
  549TMC3     H 8149   3.075   2.596  12.297  1.1672  0.5163  1.4318
  549TMC3    H1 8150   3.104   2.196  12.442 -0.6571 -1.0728  0.1058
  549TMC3    H2 8151   2.724   2.370  12.427  0.2611  0.1581 -0.6243
  549TMC3    C7 8152   2.854   2.178  12.527 -0.5021  0.4997  0.1341
  549TMC3    C8 8153   2.809   2.612  12.340  0.7184  0.5853  0.4320
  549TMC3    O1 8154   2.750   2.203  12.585 -0.0399 -0.4555  0.2880
  549TMC3    O2 8155   2.692   2.581  12.318 -0.0882  0.3172 -0.2805
  550TMC3    C1 8156   1.734   0.145  11.619 -0.1950  0.5024 -0.7823
  550TMC3    C2 8157   1.750   0.136  11.758 -0.7515 -0.1517  0.2769
  550TMC3    C3 8158   1.668   0.210  11.836  0.4748 -0.1660  0.8664
  550TMC3    C4 8159   1.652   0.248  11.569  0.0500  0.2443 -0.0321
  550TMC3    C5 8160   1.568   0.315  11.653 -0.2953 -0.3356 -0.5804
  550TMC3    C6 8161   1.573   0.301  11.790  0.0647  0.0317 -0.2965
  550TMC3     C 8162   1.842   0.088  11.538  0.5608  0.0191 -0.0385
  550TMC3     O 8163   1.933   0.053  11.607 -0.2187  0.1000 -0.4879
  550TMC3     H 8164   1.810   0.055  11.798  2.0735  1.2154 -1.1921
  550TMC3    H1 8165   1.645   0.254  11.461  2.3043  1.8783 -0.0907
  550TMC3    H2 8166   1.504   0.344  11.861  1.3238  3.4601 -1.1342
  550TMC3    C7 8167   1.485   0.424  11.603  0.1720 -0.1509  0.2473
  550TMC3    C8 8168   1.669   0.197  11.985  0.1771  0.3748  0.0236
  550TMC3    O1 8169   1.380   0.458  11.659 -0.4811 -0.8605 -0.3320
  550TMC3    O2 8170   1.577   0.249  12.048  0.3586 -0.1658 -0.2690
  551TMC3    C1 8171   4.147   3.186  13.222  0.3204  0.4923 -0.1647
  551TMC3    C2 8172   4.189   3.273  13.126 -0.0959 -0.0829  0.1331
  551TMC3    C3 8173   4.228   3.397  13.161  0.6700  0.3716 -0.2876
  551TMC3    C4 8174   4.174   3.207  13.355 -0.5017 -1.0068  0.4469
  551TMC3    C5 8175   4.228   3.329  13.383 -0.4829  0.5816  0.0973
  551TMC3    C6 8176   4.240   3.433  13.291  0.5065 -0.2445  0.3575
  551TMC3     C 8177   4.125   3.056  13.176  0.5945  0.3203 -0.4480
  551TMC3     O 8178   4.179   3.010  13.080 -0.2053 -0.3938  0.6501
  551TMC3     H 8179   4.194   3.236  13.024  2.6346 -1.3286  0.7104
  551TMC3    H1 8180   4.165   3.124  13.423  1.2230 -1.4506  0.1515
  551TMC3    H2 8181   4.302   3.520  13.310  0.4215 -0.2337  0.5869
  551TMC3    C7 8182   4.293   3.339  13.511 -0.1358  0.3193 -0.0029
  551TMC3    C8 8183   4.346   3.416  13.084 -1.1410  0.4521 -0.5272
  551TMC3    O1 8184   4.314   3.236  13.573 -0.5756 -0.4967 -0.1263
  551TMC3    O2 8185   4.405   3.316  13.041  0.5552 -0.1627 -0.4069
  552MPD2     C 8186   1.589   0.028  13.685 -0.1960  0.2069 -0.2075
  552MPD2    C1 8187   1.483   0.060  13.769 -0.1352 -0.5485  0.0718
  552MPD2    C2 8188   1.503   0.140  13.879 -0.4123 -0.5746  0.1955
  552MPD2    C3 8189   1.627   0.191  13.918 -0.3291  0.5819 -0.2837
  552MPD2    C4 8190   1.734   0.162  13.833 -0.1655  0.2132  0.0294
  552MPD2    C5 8191   1.711   0.085  13.718  0.5056  0.2963  0.8946
  552MPD2     H 8192   1.418   0.154  13.944  0.8847 -0.5601  1.9014
  552MPD2    H1 8193   1.835   0.198  13.844  0.7025 -2.5203  0.9494
  552MPD2    H2 8194   1.574   4.688  13.600 -1.3512 -0.4602  0.5038
  552MPD2    H3 8195   1.803   0.067  13.663 -0.7440  1.7867 -1.6850
  552MPD2     N 8196   1.648   0.271  14.030  0.7082 -0.2960  0.1563
  552MPD2    H5 8197   1.746   0.291  14.048  0.8082 -1.5318  0.9264
  552MPD2    N1 8198   1.351   0.008  13.752 -0.1966  0.1341  0.4965
  552MPD2    H7 8199   1.273   0.039  13.809 -1.7147  0.4793 -1.7678
  553TMC3    C1 8200   1.177   4.584  13.672  0.1631  0.5827 -0.2374
  553TMC3    C2 8201   1.078   4.675  13.672  0.3683  0.3665  0.2867
  553TMC3    C3 8202   0.950   4.636  13.663  0.0616  0.1725 -0.3545
  553TMC3    C4 8203   1.159   4.451  13.662  0.0842 -0.3537 -0.0043
  553TMC3    C5 8204   1.026   4.419  13.662 -0.2062  0.2420 -0.2089
  553TMC3    C6 8205   0.921   4.506  13.668 -0.0070  0.5307 -0.0891
  553TMC3     C 8206   1.318   4.628  13.667  0.3920  0.0516 -0.3813
  553TMC3     O 8207   1.391   4.551  13.611  0.2151  0.0082 -0.0754
  553TMC3     H 8208   1.105   0.054  13.658  0.1390  0.5563  1.2707
  553TMC3    H1 8209   1.241   4.383  13.682  1.1324  0.6638 -0.8728
  553TMC3    H2 8210   0.824   4.457  13.663  1.2196 -1.8605 -0.2981
  553TMC3    C7 8211   0.997   4.278  13.680 -0.5461 -0.3402  0.0540
  553TMC3    C8 8212   0.884   4.704  13.552  0.3342  0.3331  1.0192
  553TMC3    O1 8213   0.900   4.237  13.744  0.1184 -0.1667 -0.1078
  553TMC3    O2 8214   0.951   0.046  13.475  0.3192 -0.2426 -0.6397
  554TMC3    C1 8215   3.266   3.963  11.676 -0.1868  0.4164 -0.4272
  554TMC3    C2 8216   3.226   3.919  11.557  1.2140  0.2981  0.4117
  554TMC3    C3 8217   3.288   3.971  11.454 -0.5318 -0.5823  0.4379
  554TMC3    C4 8218   3.355   4.058  11.704  0.5451  0.1118  0.2095
  554TMC3    C5 8219   3.406   4.124  11.599 -0.0455  0.0759  0.5100
  554TMC3    C6 8220   3.377   4.078  11.472  0.5633 -0.3999  0.2573
  554TMC3     C 8221   3.204   3.893  11.780 -0.4743  0.2089 -0.1876
  554TMC3     O 8222   3.089   3.854  11.765  0.4048  0.4557  0.7932
  554TMC3     H 8223   3.144   3.849  11.551  2.1029 -0.6595 -0.5536
  554TMC3    H1 8224   3.358   4.096  11.805  0.9288 -2.0223  1.0069
  554TMC3    H2 8225   3.434   4.119  11.389 -1.7804 -0.2438 -1.2772
  554TMC3    C7 8226   3.450   4.258  11.622  0.6469  0.0946 -0.2689
  554TMC3    C8 8227   3.269   3.923  11.315 -0.8928  0.2309  1.0297
  554TMC3    O1 8228   3.487   4.288  11.733 -0.2302 -0.5198  0.2368
  554TMC3    O2 8229   3.328   3.985  11.228 -0.3173 -0.2512  0.4020
  555TMC3    C1 8230   1.909   3.289  14.935  0.0737 -0.2675  0.4029
  555TMC3    C2 8231   1.814   3.361  15.003 -0.1409 -0.6551 -0.5642
  555TMC3    C3 8232   1.828   3.381  15.139 -0.6028  0.7036 -0.7824
  555TMC3    C4 8233   2.008   3.215  14.997 -0.5297  0.0648 -0.0831
  555TMC3    C5 8234   2.014   3.225  15.138 -0.2029  1.0066 -0.1574
  555TMC3    C6 8235   1.921   3.305  15.207  0.3813  0.4903  0.2044
  555TMC3     C 8236   1.936   3.314  14.797 -0.5821  0.8847  0.4514
  555TMC3     O 8237   2.047   3.290  14.752  0.1857 -0.0720  0.3260
  555TMC3     H 8238   1.741   3.420  14.948  1.3110  3.2664  1.7262
  555TMC3    H1 8239   2.081   3.157  14.943  0.5691  0.8353  0.5763
  555TMC3    H2 8240   1.925   3.306  15.316 -1.2131 -1.3153  0.2918
  555TMC3    C7 8241   2.047   3.108  15.223 -0.2905 -0.4199  0.2680
  555TMC3    C8 8242   1.783   3.502  15.202 -0.5968  0.6848 -0.3228
  555TMC3    O1 8243   1.998   3.104  15.331 -0.5414  0.4433 -0.2175
  555TMC3    O2 8244   1.680   3.546  15.157 -0.3426  0.1445 -0.0709
  556MPD2     C 8245   0.077   0.316  10.876  0.2894  0.7764 -0.2620
  556MPD2    C1 8246   0.196   0.311  10.952 -0.6190 -0.6317 -0.0540
  556MPD2    C2 8247   0.316   0.261  10.894  0.0298  0.3026  0.0494
  556MPD2    C3 8248   0.317   0.237  10.757 -0.2841 -0.2666 -1.0636
  556MPD2    C4 8249   0.203   0.256  10.684  0.9514  0.6880 -0.2772
  556MPD2    C5 8250   0.088   0.292  10.741 -0.0515 -0.6115  0.2255
  556MPD2     H 8251   0.396   0.236  10.963  0.8434  1.2738 -0.5383
  556MPD2    H1 8252   0.198   0.222  10.581  0.0112  1.5411 -0.5130
  556MPD2    H2 8253   4.705   0.341  10.914  1.0455 -0.3749  2.3958
  556MPD2    H3 8254   4.724   0.289  10.680 -0.2976  2.8996  0.4292
  556MPD2     N 8255   0.432   0.177  10.701 -0.1094 -0.2499  0.1028
  556MPD2    H5 8256   0.500   0.134  10.763 -0.3016 -1.4700 -0.5218
  556MPD2    N1 8257   0.203   0.343  11.086 -0.0566  0.1429  0.5599
  556MPD2    H7 8258   0.293   0.321  11.126  0.3887 -1.0996 -1.1324
  557TMC3    C1 8259   0.556   0.088  10.515  0.2365 -0.4267  0.0741
  557TMC3    C2 8260   0.605   0.133  10.397 -0.5674  0.3348  0.0707
  557TMC3    C3 8261   0.590   0.050  10.292  0.1220 -0.4118  0.3173
  557TMC3    C4 8262   0.499   4.689  10.521  0.4159 -0.8401 -0.0170
  557TMC3    C5 8263   0.511   4.600  10.423  0.2494 -1.2186 -0.2700
  557TMC3    C6 8264   0.557   4.641  10.304 -0.0374  0.0676  0.7450
  557TMC3     C 8265   0.471   0.194  10.575 -0.0210  0.5961  0.1435
  557TMC3     O 8266   0.426   0.272  10.494  0.2576  0.1939 -0.3189
  557TMC3     H 8267   0.632   0.238  10.390 -2.2361  0.6062 -2.0410
  557TMC3    H1 8268   0.438   4.669  10.609  1.9465  2.1472  1.7331
  557TMC3    H2 8269   0.563   4.575  10.219  0.6032 -0.3366  1.1003
  557TMC3    C7 8270   0.438   4.474  10.421  0.0777 -0.2007 -0.2767
  557TMC3    C8 8271   0.651   0.087  10.161  0.1991 -0.0900  0.6243
  557TMC3    O1 8272   0.389   4.439  10.318  0.2342  0.1574  0.3700
  557TMC3    O2 8273   0.738   0.172  10.157 -0.8864  0.2595  0.3057
  558TMC3    C1 8274   2.931   3.084   9.824  0.3796 -0.9643  0.5631
  558TMC3    C2 8275   2.872   3.011   9.927  0.6240  0.4911  0.3104
  558TMC3    C3 8276   2.735   3.037   9.951 -0.8571 -0.1250  0.0927
  558TMC3    C4 8277   2.861   3.168   9.750  0.3860  0.2694  0.5880
  558TMC3    C5 8278   2.728   3.177   9.772  0.6178 -0.5615  0.2083
  558TMC3    C6 8279   2.657   3.113   9.867  0.5159 -0.1694 -1.1945
  558TMC3     C 8280   3.069   3.067   9.799 -0.2539  0.1700 -0.8531
  558TMC3     O 8281   3.112   3.038   9.689  0.4772  0.2431  0.2123
  558TMC3     H 8282   2.931   2.936   9.979  1.2871 -0.1636 -1.3765
  558TMC3    H1 8283   2.901   3.215   9.661 -0.4252 -2.6754 -1.3464
  558TMC3    H2 8284   2.551   3.127   9.883  1.1304 -0.3885  2.9240
  558TMC3    C7 8285   2.660   3.215   9.649  0.9003 -0.6591 -0.0947
  558TMC3    C8 8286   2.677   2.961  10.056  0.2059  0.8246  0.5124
  558TMC3    O1 8287   2.711   3.297   9.575 -0.0033  0.4510  0.6078
  558TMC3    O2 8288   2.554   2.957  10.060 -0.2859 -0.4649 -0.4754
  559MPD2     C 8289   3.296   3.356  10.677 -0.0698 -0.1551 -0.1166
  559MPD2    C1 8290   3.232   3.294  10.778  0.5727 -0.3917 -0.6311
  559MPD2    C2 8291   3.279   3.293  10.913  0.8125 -0.4031 -0.0104
  559MPD2    C3 8292   3.394   3.367  10.942  0.1425  0.6690 -0.3185
  559MPD2    C4 8293   3.467   3.426  10.840  0.0650 -0.2524 -0.0946
  559MPD2    C5 8294   3.405   3.431  10.715  0.1437  0.0502 -0.6024
  559MPD2     H 8295   3.224   3.239  10.989  0.7551  1.5132  1.3001
  559MPD2    H1 8296   3.565   3.471  10.852 -0.4900  0.8749  0.1978
  559MPD2    H2 8297   3.263   3.367  10.575  0.1835  1.4601 -0.0253
  559MPD2    H3 8298   3.446   3.501  10.644  0.4213 -0.5341 -1.0243
  559MPD2     N 8299   3.435   3.372  11.079  0.0511 -0.4460 -0.1660
  559MPD2    H5 8300   3.373   3.324  11.144 -2.8795  0.1894 -2.4681
  559MPD2    N1 8301   3.104   3.240  10.745 -0.0557  0.1873 -0.2998
  559MPD2    H7 8302   3.057   3.280  10.664 -1.3414  0.4808  0.5811
  560TMC3    C1 8303   3.564   3.405  11.266 -0.5766  0.1530 -0.1266
  560TMC3    C2 8304   3.526   3.277  11.307  0.0850  0.0997  0.0819
  560TMC3    C3 8305   3.587   3.217  11.417  0.6838  0.5673  0.1336
  560TMC3    C4 8306   3.653   3.487  11.335 -0.3400  0.3403  0.4122
  560TMC3    C5 8307   3.709   3.423  11.447 -0.0336  0.0132  0.6972
  560TMC3    C6 8308   3.689   3.288  11.473  0.3417 -0.6854 -0.4132
  560TMC3     C 8309   3.539   3.444  11.132 -0.3648  0.0920 -0.7252
  560TMC3     O 8310   3.616   3.523  11.075 -0.3979  0.3168 -0.0892
  560TMC3     H 8311   3.457   3.211  11.256 -1.2006  0.7395  0.9963
  560TMC3    H1 8312   3.682   3.587  11.303 -0.9180 -0.4195 -2.5361
  560TMC3    H2 8313   3.743   3.229  11.546  1.9322  0.2970 -0.7723
  560TMC3    C7 8314   3.773   3.494  11.551 -0.3436 -0.6170 -0.1987
  560TMC3    C8 8315   3.595   3.073  11.382 -0.4597 -0.5799  0.6467
  560TMC3    O1 8316   3.815   3.426  11.646 -0.4659 -0.1602  0.0834
  560TMC3    O2 8317   3.657   3.048  11.278  0.1691  0.0181 -0.3800
  561TMC3    C1 8318   1.044   2.256  11.493 -0.3265  0.4648 -0.2791
  561TMC3    C2 8319   0.975   2.230  11.600  0.0993  0.5700  1.0933
  561TMC3    C3 8320   0.897   2.328  11.654  0.9932 -0.0491 -1.0107
  561TMC3    C4 8321   1.053   2.379  11.439 -0.1250 -0.4471  0.1496
  561TMC3    C5 8322   0.983   2.479  11.504  0.3092 -0.9317  0.0931
  561TMC3    C6 8323   0.893   2.453  11.604  0.2511  0.8862  0.5404
  561TMC3     C 8324   1.135   2.146  11.462  0.2745  0.5067  0.1142
  561TMC3     O 8325   1.154   2.063  11.549  0.2188 -0.5550  0.1203
  561TMC3     H 8326   0.972   2.129  11.640 -0.5206  0.3452  0.4785
  561TMC3    H1 8327   1.120   2.403  11.357  0.6896  0.3694  1.0583
  561TMC3    H2 8328   0.849   2.536  11.659  0.6992  0.5537  1.4026
  561TMC3    C7 8329   0.982   2.622  11.457 -0.3519  0.2329 -0.3252
  561TMC3    C8 8330   0.861   2.310  11.798  0.6958 -0.0475  0.4768
  561TMC3    O1 8331   0.891   2.685  11.510 -0.7494  0.0126  0.6131
  561TMC3    O2 8332   0.907   2.212  11.854  0.6616 -0.3195 -0.1925
  562TMC3    C1 8333   1.987   4.256  16.129  0.6867  0.4724  0.5162
  562TMC3    C2 8334   1.856   4.261  16.089 -0.5617 -0.3351  0.1638
  562TMC3    C3 8335   1.802   4.164  16.014 -0.7554  0.2071  0.4006
  562TMC3    C4 8336   2.073   4.158  16.091 -0.4695 -0.3032 -0.3380
  562TMC3    C5 8337   2.012   4.047  16.029 -0.3193 -0.0419  0.5434
  562TMC3    C6 8338   1.885   4.059  15.982  0.3444  0.0587 -0.1275
  562TMC3     C 8339   2.043   4.374  16.185 -0.0320 -0.0283 -0.6805
  562TMC3     O 8340   1.963   4.466  16.218  0.0528  0.2881 -0.2483
  562TMC3     H 8341   1.802   4.353  16.110  0.4308  0.1378  0.6927
  562TMC3    H1 8342   2.171   4.147  16.136 -0.8262  1.5955  0.9260
  562TMC3    H2 8343   1.848   3.987  15.911  0.2130  1.1565 -1.1646
  562TMC3    C7 8344   2.081   3.912  16.030 -0.4930 -0.2393  0.4974
  562TMC3    C8 8345   1.683   4.187  15.942  0.0342  0.0076  0.3471
  562TMC3    O1 8346   2.019   3.820  15.983 -0.4904 -0.2423  0.5352
  562TMC3    O2 8347   1.600   4.255  15.997  0.2144  0.4226 -0.1295
  563MPD2     C 8348   4.036   0.665  15.708  0.3721 -0.8900  0.8144
  563MPD2    C1 8349   4.140   0.750  15.729 -0.3876  0.0779 -0.6154
  563MPD2    C2 8350   4.264   0.693  15.731  0.4397  0.6992 -0.5790
  563MPD2    C3 8351   4.289   0.559  15.724  0.8493  0.1736 -0.3309
  563MPD2    C4 8352   4.179   0.476  15.712  0.6110  0.8924  0.1830
  563MPD2    C5 8353   4.054   0.530  15.688 -0.5508 -0.3955 -0.3383
  563MPD2     H 8354   4.347   0.762  15.740 -0.6410  1.9857 -0.4380
  563MPD2    H1 8355   4.187   0.368  15.711 -1.5019  0.7598 -0.7077
  563MPD2    H2 8356   3.939   0.712  15.715  0.8440  0.7296 -3.4274
  563MPD2    H3 8357   3.972   0.460  15.676 -0.9709  0.0334  0.0071
  563MPD2     N 8358   4.415   0.509  15.749 -0.5408 -0.4910 -0.3088
  563MPD2    H5 8359   4.484   0.581  15.765 -1.4529  0.8604 -2.4845
  563MPD2    N1 8360   4.108   0.888  15.752 -0.6207  0.1112  0.1798
  563MPD2    H7 8361   4.008   0.908  15.747 -0.2191  2.0465  0.2853
  564TMC3    C1 8362   4.179   1.056  15.905 -0.2373 -0.5655 -0.5646
  564TMC3    C2 8363   4.046   1.056  15.945 -0.2512 -0.5601 -0.5677
  564TMC3    C3 8364   4.026   1.074  16.083  0.2074  0.7794  0.5330
  564TMC3    C4 8365   4.276   1.042  15.998  0.4465 -0.7782 -0.2915
  564TMC3    C5 8366   4.257   1.057  16.135 -1.1566  0.1696  0.0969
  564TMC3    C6 8367   4.130   1.086  16.177  0.3196  0.4856  0.5152
  564TMC3     C 8368   4.203   0.988  15.780 -0.3877  0.0618  0.1085
  564TMC3     O 8369   4.325   0.987  15.756 -0.1812 -0.2742  0.1620
  564TMC3     H 8370   3.973   1.082  15.869 -0.1048  2.0542  0.1751
  564TMC3    H1 8371   4.380   1.035  15.968  1.2291  2.2982  1.7003
  564TMC3    H2 8372   4.116   1.104  16.283  0.0927  0.0990  0.5502
  564TMC3    C7 8373   4.312   0.940  16.197  0.1734  0.9263  0.4141
  564TMC3    C8 8374   3.933   0.976  16.135 -0.2098  0.5906  0.6802
  564TMC3    O1 8375   4.339   0.941  16.319 -0.2079  0.5014  0.0653
  564TMC3    O2 8376   3.925   0.977  16.258 -0.5104  0.5874 -0.2730
  565TMC3    C1 8377   0.210   1.721   9.911 -0.0681  0.4210  0.3140
  565TMC3    C2 8378   0.222   1.649  10.029  0.4874 -0.3245 -0.2210
  565TMC3    C3 8379   0.163   1.534  10.034  0.1593  0.1598  0.3669
  565TMC3    C4 8380   0.148   1.682   9.798 -0.5461  0.3136  0.3807
  565TMC3    C5 8381   0.086   1.554   9.812  0.0777  0.5348 -0.1975
  565TMC3    C6 8382   0.085   1.488   9.934  0.1316  0.0616 -0.5858
  565TMC3     C 8383   0.294   1.839   9.904  0.3598 -0.1845  0.0219
  565TMC3     O 8384   0.304   1.888   9.793  0.5160 -0.2134  0.1519
  565TMC3     H 8385   0.286   1.686  10.108  0.7262 -0.3959 -0.3788
  565TMC3    H1 8386   0.126   1.759   9.725  2.6470  1.5046  0.6700
  565TMC3    H2 8387   0.084   1.380   9.921 -2.0162  0.0287 -0.0395
  565TMC3    C7 8388   4.711   1.497   9.721 -0.4578  0.2509 -0.8680
  565TMC3    C8 8389   0.147   1.480  10.166 -0.0165  1.1508 -0.1513
  565TMC3    O1 8390   4.670   1.385   9.748 -0.1035  0.0530  0.1851
  565TMC3    O2 8391   0.234   1.519  10.246 -0.0394 -0.2554  0.2967
  566MPD2     C 8392   1.311   3.242  13.974  0.3505 -0.0214 -0.2275
  566MPD2    C1 8393   1.392   3.137  14.015  0.1763 -0.5244 -0.0811
  566MPD2    C2 8394   1.351   3.008  13.975 -0.0364 -0.2088  0.4623
  566MPD2    C3 8395   1.229   2.993  13.908  0.1501  0.3209  0.2986
  566MPD2    C4 8396   1.147   3.098  13.892 -0.6961 -0.2027  0.1870
  566MPD2    C5 8397   1.189   3.224  13.926 -0.3398  0.0730  0.3704
  566MPD2     H 8398   1.422   2.927  13.988  0.1710 -0.2451 -0.9554
  566MPD2    H1 8399   1.058   3.098  13.830 -0.2626  0.3264 -0.4357
  566MPD2    H2 8400   1.343   3.345  13.987  0.9168  0.0282 -2.0125
  566MPD2    H3 8401   1.118   3.305  13.915  0.3786  0.6907  0.3184
  566MPD2     N 8402   1.198   2.868  13.846 -0.3832  0.1297  0.0049
  566MPD2    H5 8403   1.112   2.861  13.792 -0.2854 -0.8158 -0.0253
  566MPD2    N1 8404   1.518   3.152  14.074  0.3116  0.1014 -0.2866
  566MPD2    H7 8405   1.552   3.248  14.069 -0.6525  0.4633  0.1423
  567TMC3    C1 8406   1.714   3.105  14.204  0.3585 -0.0063  0.0614
  567TMC3    C2 8407   1.786   3.183  14.121 -0.0684 -0.2980 -0.1921
  567TMC3    C3 8408   1.919   3.190  14.143 -0.5295 -0.5559 -0.0870
  567TMC3    C4 8409   1.770   3.040  14.310 -1.1412 -0.2205 -0.5260
  567TMC3    C5 8410   1.905   3.049  14.325  0.1559  0.0174 -0.3617
  567TMC3    C6 8411   1.978   3.124  14.245  0.0076 -0.4717  0.0602
  567TMC3     C 8412   1.591   3.055  14.146 -1.0906 -0.2203  0.5571
  567TMC3     O 8413   1.567   2.938  14.170 -0.3060  0.1847 -0.0659
  567TMC3     H 8414   1.741   3.223  14.031 -0.9873 -1.2886 -0.1738
  567TMC3    H1 8415   1.717   2.959  14.359 -1.2556 -0.5015 -1.1181
  567TMC3    H2 8416   2.084   3.131  14.265 -0.1466  0.2851  0.6020
  567TMC3    C7 8417   1.964   2.992  14.444 -0.6483 -0.4456  0.5699
  567TMC3    C8 8418   1.994   3.179  14.017 -0.3064 -0.1356  0.4410
  567TMC3    O1 8419   2.083   2.982  14.462  0.7595  0.2301 -0.4845
  567TMC3    O2 8420   1.924   3.126  13.931 -0.2157 -0.0830  0.0340
  568MPD2     C 8421   4.366   4.347  16.528 -0.5805 -0.6379  0.3032
  568MPD2    C1 8422   4.239   4.358  16.569  0.2311  0.1286 -0.0801
  568MPD2    C2 8423   4.174   4.481  16.589 -0.3124  0.3083 -0.0549
  568MPD2    C3 8424   4.248   4.593  16.581  0.2011 -0.3945  0.7835
  568MPD2    C4 8425   4.386   4.581  16.547  0.7073 -0.2150 -0.3194
  568MPD2    C5 8426   4.442   4.460  16.523  0.4074 -0.0228  0.0013
  568MPD2     H 8427   4.072   4.485  16.625 -0.0455 -0.3606  0.7799
  568MPD2    H1 8428   4.455   4.664  16.550 -2.1964  2.1670  0.3791
  568MPD2    H2 8429   4.419   4.257  16.500  0.1538 -0.3768  0.8523
  568MPD2    H3 8430   4.548   4.453  16.498  0.1049  0.3435 -1.3875
  568MPD2     N 8431   4.184   4.720  16.610 -0.1079 -0.0957 -0.2378
  568MPD2    H5 8432   4.084   0.006  16.620  0.6960  4.2975  2.4522
  568MPD2    N1 8433   4.167   4.236  16.594  0.1187 -0.3794 -0.0541
  568MPD2    H7 8434   4.216   4.147  16.592  1.0222  0.0970  0.9719
  569TMC3    C1 8435   4.182   0.230  16.639  0.2528  0.0688  0.2333
  569TMC3    C2 8436   4.243   0.333  16.706 -0.5145 -0.4971  0.4144
  569TMC3    C3 8437   4.194   0.459  16.682  0.0815  0.6319  0.2128
  569TMC3    C4 8438   4.095   0.254  16.538  0.1189  0.6599 -0.5287
  569TMC3    C5 8439   4.068   0.385  16.506  0.2783 -0.4364  0.7797
  569TMC3    C6 8440   4.101   0.494  16.584 -0.0821  0.5766 -0.8268
  569TMC3     C 8441   4.257   0.103  16.643 -0.0970 -0.1697  0.0598
  569TMC3     O 8442   4.376   0.123  16.648  0.7209 -0.2668 -0.0731
  569TMC3     H 8443   4.312   0.319  16.788  1.4549 -0.8470 -1.3182
  569TMC3    H1 8444   4.066   0.173  16.473 -0.6316 -0.2077  0.8959
  569TMC3    H2 8445   4.060   0.592  16.562  2.2585  1.7228 -0.1062
  569TMC3    C7 8446   3.991   0.397  16.387  0.1304  0.6553  1.0853
  569TMC3    C8 8447   4.277   0.560  16.751  0.2022 -0.6477 -0.0798
  569TMC3    O1 8448   3.958   0.289  16.339  0.1846  0.5158  0.2293
  569TMC3    O2 8449   4.319   0.531  16.860 -0.0405  0.3842 -0.1268
  570TMC3    C1 8450   3.154   3.149  16.265  0.4411  0.1291 -0.9149
  570TMC3    C2 8451   3.215   3.112  16.153 -0.7106  0.8465 -0.2501
  570TMC3    C3 8452   3.300   3.201  16.093 -0.0565  0.1473 -0.2585
  570TMC3    C4 8453   3.164   3.279  16.306  0.5990  0.5008 -0.1787
  570TMC3    C5 8454   3.239   3.366  16.240 -0.2250 -0.1559 -0.5600
  570TMC3    C6 8455   3.312   3.334  16.135  0.3535 -0.4876 -0.0912
  570TMC3     C 8456   3.080   3.049  16.343  0.8234  0.3414  0.8785
  570TMC3     O 8457   3.064   2.943  16.287  0.0093 -0.7689  0.3428
  570TMC3     H 8458   3.192   3.012  16.118  1.1877  1.1426 -2.3303
  570TMC3    H1 8459   3.114   3.308  16.397 -1.9915 -0.5976 -1.2672
  570TMC3    H2 8460   3.358   3.409  16.073 -1.2930 -1.7559 -2.8393
  570TMC3    C7 8461   3.256   3.494  16.304 -0.5895  0.2281  0.4774
  570TMC3    C8 8462   3.398   3.165  15.994 -0.5699  1.0511  0.4847
  570TMC3    O1 8463   3.217   3.500  16.420  0.3499  0.0190  0.2419
  570TMC3    O2 8464   3.472   3.255  15.960  0.0448  0.7349 -0.0065
  571MPD2     C 8465   1.369   4.581  16.786 -0.8612  0.2213 -0.1940
  571MPD2    C1 8466   1.450   4.670  16.853 -0.2472 -0.0249 -0.2494
  571MPD2    C2 8467   1.394   0.017  16.956 -0.2657 -0.3772  0.0763
  571MPD2    C3 8468   1.262   0.001  16.996 -0.3457  0.0818  0.3281
  571MPD2    C4 8469   1.184   4.630  16.929  0.3354 -0.5238 -0.1969
  571MPD2    C5 8470   1.234   4.567  16.819  0.6078 -0.1310 -0.3460
  571MPD2     H 8471   1.455   0.098  16.994  0.9486 -2.0578  1.7126
  571MPD2    H1 8472   1.083   4.597  16.950 -1.4623  3.6923 -2.3058
  571MPD2    H2 8473   1.408   4.533  16.697 -0.7743 -2.0589  1.0793
  571MPD2    H3 8474   1.167   4.510  16.755  1.6095 -1.2489 -0.3925
  571MPD2     N 8475   1.209   0.073  17.112  0.0965  0.7832  0.1147
  571MPD2    H5 8476   1.112   0.057  17.138 -0.2552  1.3988 -0.7940
  571MPD2    N1 8477   1.584   4.670  16.811 -0.7342 -0.0695  0.0451
  571MPD2    H7 8478   1.604   4.614  16.728  0.5783  0.7432 -0.1932
  572TMC3    C1 8479   1.200   0.235  17.287 -0.4613  0.1108  0.5911
  572TMC3    C2 8480   1.108   0.162  17.360  0.3356  0.1713 -0.0937
  572TMC3    C3 8481   1.078   0.205  17.488  0.4791  0.1632  0.3017
  572TMC3    C4 8482   1.247   0.352  17.335  0.3511 -0.5572  0.7655
  572TMC3    C5 8483   1.208   0.394  17.454 -0.1051  0.8155  0.3052
  572TMC3    C6 8484   1.127   0.322  17.535  0.0058  0.3736 -0.3432
  572TMC3     C 8485   1.274   0.171  17.177 -0.0068  0.7122 -0.2190
  572TMC3     O 8486   1.384   0.219  17.158  0.3637 -0.0700  0.3823
  572TMC3     H 8487   1.086   0.058  17.338 -1.6328  0.3003  1.2154
  572TMC3    H1 8488   1.319   0.408  17.275 -0.4536 -0.4446 -0.0966
  572TMC3    H2 8489   1.087   0.369  17.625 -2.7489 -1.3444 -0.6700
  572TMC3    C7 8490   1.235   0.530  17.491  0.2215 -0.2977  0.0377
  572TMC3    C8 8491   0.995   0.115  17.569  0.5889  0.1304  0.2142
  572TMC3    O1 8492   1.244   0.622  17.409 -0.3184  0.2907  0.1438
  572TMC3    O2 8493   0.941   0.020  17.515  0.2789 -0.1321  0.3857
  573MPD2     C 8494   2.725   0.930   1.141 -0.0626 -0.2846 -0.1324
  573MPD2    C1 8495   2.773   0.818   1.072 -0.3852 -0.6119  0.3901
  573MPD2    C2 8496   2.740   0.805   0.935 -0.0249  0.6525 -0.1908
  573MPD2    C3 8497   2.637   0.886   0.885 -0.0556  0.3155 -0.1753
  573MPD2    C4 8498   2.593   0.992   0.961 -0.1958  0.4404  0.0752
  573MPD2    C5 8499   2.636   1.023   1.084 -0.3719  0.4198  0.3435
  573MPD2     H 8500   2.772   0.720   0.877  1.4154  1.0605  0.0155
  573MPD2    H1 8501   2.510   1.048   0.920 -0.0976  0.6767  0.2008
  573MPD2    H2 8502   2.765   0.955   1.238 -2.2212  1.9755  0.1823
  573MPD2    H3 8503   2.587   1.098   1.145 -0.0438 -0.7154  1.9824
  573MPD2     N 8504   2.578   0.857   0.754  0.0776 -0.1287 -0.0417
  573MPD2    H5 8505   2.503   0.917   0.722 -0.2608 -1.3800 -1.6127
  573MPD2    N1 8506   2.868   0.735   1.137  0.1498 -0.1185  0.4366
  573MPD2    H7 8507   2.887   0.755   1.235  2.3549 -0.5071  0.0834
  574TMC3    C1 8508   2.547   0.787   0.536  0.4479  0.7378  0.4439
  574TMC3    C2 8509   2.410   0.818   0.550 -1.0862 -0.3632 -0.0659
  574TMC3    C3 8510   2.343   0.824   0.427  0.8339 -0.2782  0.4206
  574TMC3    C4 8511   2.607   0.763   0.419  0.1273 -0.0916  0.7010
  574TMC3    C5 8512   2.527   0.761   0.308  0.5555 -0.2066  0.3117
  574TMC3    C6 8513   2.395   0.790   0.306  0.0300  0.2624  0.2327
  574TMC3     C 8514   2.625   0.775   0.654  0.3703  0.5895  0.8837
  574TMC3     O 8515   2.718   0.693   0.652  0.4936 -0.1030  0.1660
  574TMC3     H 8516   2.363   0.821   0.647 -2.9320  0.6906 -0.9931
  574TMC3    H1 8517   2.710   0.732   0.406  0.3698  0.9598  0.0937
  574TMC3    H2 8518   2.337   0.787   0.215  2.1637  0.8934 -1.1551
  574TMC3    C7 8519   2.575   0.696   0.184 -0.0542  0.9449  0.7136
  574TMC3    C8 8520   2.204   0.866   0.417  0.3212  0.6421  0.4802
  574TMC3    O1 8521   2.485   0.638   0.122  0.0630 -0.0465  0.3003
  574TMC3    O2 8522   2.124   0.837   0.504 -0.6736  0.0176 -0.4652
  575TMC3    C1 8523   0.447   1.475  10.949  0.0469  0.0162  0.1752
  575TMC3    C2 8524   0.431   1.391  11.052  0.7573  0.1656  0.0040
  575TMC3    C3 8525   0.339   1.293  11.023 -0.0654 -0.0106 -0.4285
  575TMC3    C4 8526   0.372   1.473  10.837  0.6896  1.2485  1.2168
  575TMC3    C5 8527   0.283   1.371  10.816  0.2921 -0.1085  0.3071
  575TMC3    C6 8528   0.278   1.269  10.904 -0.2872  0.3014  0.2603
  575TMC3     C 8529   0.553   1.568  10.969 -0.0780 -0.3286  0.5357
  575TMC3     O 8530   0.581   1.608  11.082 -0.0135  0.0742 -0.1161
  575TMC3     H 8531   0.496   1.385  11.138  0.3252  0.7152  0.3690
  575TMC3    H1 8532   0.390   1.548  10.761 -0.4484 -0.3571 -0.6154
  575TMC3    H2 8533   0.201   1.193  10.894  1.5146 -1.2176 -2.0977
  575TMC3    C7 8534   0.212   1.380  10.688  0.5817 -0.2134  0.0915
  575TMC3    C8 8535   0.280   1.240  11.142 -0.3688 -0.1830 -0.6021
  575TMC3    O1 8536   0.237   1.488  10.630 -0.3477 -0.2648 -0.4158
  575TMC3    O2 8537   0.212   1.137  11.137  0.3232 -0.0814 -0.4582
  576MPD2     C 8538   4.634   3.110  12.634 -0.1138 -0.5972  0.0825
  576MPD2    C1 8539   4.689   3.166  12.523 -0.3731 -0.2859 -0.5547
  576MPD2    C2 8540   4.644   3.294  12.486 -0.2743  0.2240  0.3494
  576MPD2    C3 8541   4.550   3.365  12.562 -0.5567  0.6864  1.1401
  576MPD2    C4 8542   4.513   3.307  12.678  0.3815 -0.2988  0.0484
  576MPD2    C5 8543   4.552   3.175  12.718 -0.0097 -0.0491 -0.0951
  576MPD2     H 8544   4.679   3.336  12.392 -1.8628 -0.9031 -0.7573
  576MPD2    H1 8545   4.457   3.370  12.747  2.9950  1.3910  0.6432
  576MPD2    H2 8546   4.641   3.005  12.662 -2.1299 -1.0739 -1.1893
  576MPD2    H3 8547   4.522   3.135  12.814 -1.1083 -0.1543 -0.4864
  576MPD2     N 8548   4.512   3.501  12.532  0.3196 -0.4688 -0.7028
  576MPD2    H5 8549   4.580   3.545  12.470  0.6016 -2.1569 -1.6090
  576MPD2    N1 8550   0.025   3.091  12.418 -0.4424 -0.3951  0.5215
  576MPD2    H7 8551   0.050   3.138  12.332 -1.6261 -0.1085  0.3410
  577TMC3    C1 8552   0.155   2.904  12.332  0.7450 -0.0176 -0.0797
  577TMC3    C2 8553   0.244   2.806  12.354  0.1173  0.0684  0.1596
  577TMC3    C3 8554   0.313   2.759  12.240 -0.3370 -0.2480  0.6307
  577TMC3    C4 8555   0.122   2.946  12.206  0.3593 -0.0120 -0.2544
  577TMC3    C5 8556   0.178   2.872  12.104  0.0863 -0.1587  0.0275
  577TMC3    C6 8557   0.278   2.780  12.112  0.3240 -0.6243  0.1016
  577TMC3     C 8558   0.088   2.971  12.444 -0.4076  0.3237  0.3171
  577TMC3     O 8559   0.110   2.916  12.552 -0.3538  0.6434  0.2133
  577TMC3     H 8560   0.277   2.779  12.454  1.8553 -1.6914 -0.8993
  577TMC3    H1 8561   0.033   3.005  12.186  1.3631  1.4783 -0.3097
  577TMC3    H2 8562   0.321   2.729  12.027  0.6284 -0.4329  0.1407
  577TMC3    C7 8563   0.160   2.917  11.969  0.6278 -0.0947 -0.7007
  577TMC3    C8 8564   0.416   2.660  12.263 -0.1498 -0.3892  0.0114
  577TMC3    O1 8565   0.157   2.828  11.884 -0.0705 -0.4539 -0.2497
  577TMC3    O2 8566   0.419   2.614  12.374  0.5913  0.1806  0.3020
  578MPD2     C 8567   1.969   3.098   1.477  0.3436  0.7339  0.8820
  578MPD2    C1 8568   2.051   3.049   1.379 -0.5328 -0.4356 -0.3290
  578MPD2    C2 8569   2.168   2.990   1.418  0.2990  0.0942  0.1104
  578MPD2    C3 8570   2.202   2.985   1.554 -0.3718 -0.0133 -0.5317
  578MPD2    C4 8571   2.124   3.049   1.657  0.0489  0.5381 -0.2599
  578MPD2    C5 8572   2.007   3.115   1.611 -0.1315  0.3634  0.5171
  578MPD2     H 8573   2.223   2.936   1.342 -2.7349 -2.4941 -0.2361
  578MPD2    H1 8574   2.139   3.036   1.764 -0.0792  1.1914 -0.1608
  578MPD2    H2 8575   1.874   3.139   1.443 -0.6009 -0.3068  2.2442
  578MPD2    H3 8576   1.934   3.147   1.685 -0.7986 -1.4543  0.6373
  578MPD2     N 8577   2.333   2.930   1.591 -0.3262  0.0524 -0.6454
  578MPD2    H5 8578   2.396   2.896   1.520  0.7558  0.1398  0.2595
  578MPD2    N1 8579   2.011   3.074   1.247 -0.8100  0.9862  0.3201
  578MPD2    H7 8580   1.915   3.101   1.230 -0.2877  0.9755 -2.6996
  579TMC3    C1 8581   2.521   2.882   1.712  0.8484 -0.4819 -0.0093
  579TMC3    C2 8582   2.593   2.919   1.823 -0.4664 -0.5696  0.3104
  579TMC3    C3 8583   2.724   2.926   1.817 -0.4206 -0.1358 -0.1676
  579TMC3    C4 8584   2.581   2.843   1.600 -0.2364  0.1457  0.6659
  579TMC3    C5 8585   2.718   2.844   1.592 -0.2105 -0.3094  0.3389
  579TMC3    C6 8586   2.790   2.887   1.700  0.6052  0.8831  0.0528
  579TMC3     C 8587   2.380   2.924   1.718  0.0440 -0.1632  0.3628
  579TMC3     O 8588   2.333   2.951   1.833  0.3873  0.0455  0.4263
  579TMC3     H 8589   2.543   2.954   1.913  1.6115 -0.7110  1.5208
  579TMC3    H1 8590   2.526   2.783   1.528  1.8045 -1.0799  0.1285
  579TMC3    H2 8591   2.897   2.878   1.689  0.5319  1.2207 -0.9823
  579TMC3    C7 8592   2.788   2.754   1.502 -0.0278  0.2475  0.6625
  579TMC3    C8 8593   2.791   2.982   1.932 -0.6862 -0.3742 -0.2428
  579TMC3    O1 8594   2.901   2.716   1.533  0.3426  0.7083  0.3984
  579TMC3    O2 8595   2.738   2.964   2.041 -0.2158 -0.3174  0.0173
  580TMC3    C1 8596   2.535   1.835  11.671  0.1254  0.2119  0.3161
  580TMC3    C2 8597   2.491   1.841  11.543 -0.0735 -0.6150 -0.2177
  580TMC3    C3 8598   2.433   1.731  11.489  0.0087 -0.6705 -0.0675
  580TMC3    C4 8599   2.509   1.726  11.752 -0.4725  0.3178 -0.4443
  580TMC3    C5 8600   2.430   1.629  11.704 -1.1883  0.4256 -0.0397
  580TMC3    C6 8601   2.394   1.627  11.571 -0.0699  0.0442  0.0199
  580TMC3     C 8602   2.619   1.949  11.711 -0.2792 -0.4363  0.3478
  580TMC3     O 8603   2.641   2.036  11.630 -0.2442  0.2174  0.9890
  580TMC3     H 8604   2.501   1.933  11.487 -1.6387 -0.4580 -0.2421
  580TMC3    H1 8605   2.545   1.728  11.854  2.0718  2.9984 -1.3881
  580TMC3    H2 8606   2.358   1.536  11.526  2.8790 -1.0425 -0.0743
  580TMC3    C7 8607   2.395   1.511  11.782  0.1175  0.1712 -0.1751
  580TMC3    C8 8608   2.473   1.693  11.352 -0.5516  0.0018  1.2050
  580TMC3    O1 8609   2.305   1.434  11.748  0.3997  0.4559 -0.5218
  580TMC3    O2 8610   2.407   1.611  11.289 -0.5379 -0.5231 -0.3347
  581MPD2     C 8611   0.370   2.268  15.511 -0.1596 -0.4350 -0.1960
  581MPD2    C1 8612   0.373   2.157  15.433 -0.0789  0.1508 -0.1614
  581MPD2    C2 8613   0.272   2.144  15.341  0.1828  0.3876 -0.2012
  581MPD2    C3 8614   0.167   2.235  15.333  0.7123  0.3521  0.2075
  581MPD2    C4 8615   0.173   2.353  15.412 -0.1401  0.4009 -0.1181
  581MPD2    C5 8616   0.274   2.365  15.502 -0.0880  0.1688 -0.5573
  581MPD2     H 8617   0.278   2.065  15.267  1.0916  0.0532  0.2275
  581MPD2    H1 8618   0.101   2.432  15.395 -0.4607 -0.2005 -1.5707
  581MPD2    H2 8619   0.451   2.291  15.580  0.0628  2.0423 -1.2728
  581MPD2    H3 8620   0.279   2.451  15.567 -2.2211  1.2863 -1.8544
  581MPD2     N 8621   0.072   2.213  15.229 -0.2266  0.3124 -0.0759
  581MPD2    H5 8622   0.081   2.125  15.178 -5.3571  0.5890 -1.4046
  581MPD2    N1 8623   0.477   2.058  15.460  0.3469  0.2241 -0.2670
  581MPD2    H7 8624   0.549   2.084  15.526  0.2840  2.3328 -1.0194
  582TMC3    C1 8625   0.585   1.845  15.437  0.0323  0.5354 -0.7603
  582TMC3    C2 8626   0.665   1.881  15.542  0.6585  0.0290 -0.4990
  582TMC3    C3 8627   0.712   1.787  15.630  0.2449  0.2421 -0.0030
  582TMC3    C4 8628   0.576   1.713  15.406 -0.1266 -0.4536 -0.0229
  582TMC3    C5 8629   0.643   1.621  15.482  0.5650  0.4932  0.5605
  582TMC3    C6 8630   0.710   1.658  15.599 -0.3674  0.5423 -0.4779
  582TMC3     C 8631   0.476   1.931  15.400 -0.7118 -0.2724 -0.7168
  582TMC3     O 8632   0.393   1.885  15.318  0.1263 -0.1918  0.2440
  582TMC3     H 8633   0.682   1.984  15.571 -3.4990  0.0164  1.8992
  582TMC3    H1 8634   0.516   1.677  15.323 -0.3003  1.8306 -0.9054
  582TMC3    H2 8635   0.767   1.586  15.656 -0.9628  1.4705  1.2635
  582TMC3    C7 8636   0.595   1.487  15.471  0.1207 -0.5093  0.7174
  582TMC3    C8 8637   0.694   1.819  15.765  0.3911  0.3664 -0.1204
  582TMC3    O1 8638   0.670   1.395  15.487 -0.0188 -0.0316  0.1879
  582TMC3    O2 8639   0.645   1.931  15.786 -0.2973 -0.2100  0.2740
  583MPD2     C 8640   0.152   3.706  16.640 -0.1561 -0.4179 -0.1161
  583MPD2    C1 8641   0.286   3.738  16.629 -0.2927  0.2640 -0.6114
  583MPD2    C2 8642   0.341   3.825  16.717 -0.6085 -0.7201 -0.2188
  583MPD2    C3 8643   0.268   3.880  16.821  0.0680 -0.5640  0.1181
  583MPD2    C4 8644   0.136   3.840  16.837  0.4552 -0.2965  0.0550
  583MPD2    C5 8645   0.081   3.756  16.743  0.5940  0.2560 -0.1000
  583MPD2     H 8646   0.446   3.852  16.716 -0.4702 -1.2427  0.2497
  583MPD2    H1 8647   0.071   3.879  16.914  1.6207  0.7257  0.5161
  583MPD2    H2 8648   0.095   3.651  16.566 -1.1827 -2.4554  2.2150
  583MPD2    H3 8649   4.701   3.730  16.749  0.3157  1.8234  1.7966
  583MPD2     N 8650   0.334   3.972  16.906 -0.0682  0.8057 -0.7142
  583MPD2    H5 8651   0.430   3.991  16.880  0.2986  1.8134  1.3665
  583MPD2    N1 8652   0.364   3.696  16.521 -0.1378  0.0804 -0.2209
  583MPD2    H7 8653   0.455   3.739  16.516 -2.0660  4.0988 -0.9712
  584TMC3    C1 8654   0.360   4.161  17.046 -0.9446 -0.0745  0.3549
  584TMC3    C2 8655   0.457   4.212  16.970  0.1248 -0.3426  0.1293
  584TMC3    C3 8656   0.525   4.323  17.007  0.1606 -0.4186  0.4919
  584TMC3    C4 8657   0.322   4.225  17.154  0.0670 -0.6367  0.2604
  584TMC3    C5 8658   0.390   4.336  17.199  0.5416 -0.3771  0.1097
  584TMC3    C6 8659   0.493   4.388  17.130  0.0250 -0.0595  0.4170
  584TMC3     C 8660   0.273   4.048  17.001  0.0207  0.0632  0.0298
  584TMC3     O 8661   0.165   4.022  17.062  0.3504  0.7531 -0.3576
  584TMC3     H 8662   0.470   4.163  16.874  0.0887 -0.3474  0.1265
  584TMC3    H1 8663   0.242   4.187  17.216 -0.3485 -1.8212 -1.0044
  584TMC3    H2 8664   0.563   4.463  17.163 -0.8145  0.2182  1.5652
  584TMC3    C7 8665   0.379   4.356  17.345  0.2561  0.1229 -0.7247
  584TMC3    C8 8666   0.616   4.382  16.910  1.1021 -0.7108  0.2144
  584TMC3    O1 8667   0.320   4.267  17.406  1.1259 -0.2179 -0.3935
  584TMC3    O2 8668   0.657   4.300  16.830  0.5215 -0.2508  0.0950
  585MPD2     C 8669   4.147   2.858   1.184 -0.2799  0.0135  0.7098
  585MPD2    C1 8670   4.137   2.845   1.050  0.4081  0.5920  0.2273
  585MPD2    C2 8671   4.196   2.731   0.991  0.3481  0.0782  0.3308
  585MPD2    C3 8672   4.279   2.644   1.069 -0.5929 -0.1806  0.8453
  585MPD2    C4 8673   4.298   2.675   1.203 -0.6438 -0.0169  0.0490
  585MPD2    C5 8674   4.235   2.783   1.260  0.2956  0.2764 -0.0157
  585MPD2     H 8675   4.181   2.709   0.886  2.3708  0.9311 -0.1303
  585MPD2    H1 8676   4.361   2.614   1.267  1.8955  0.4344 -1.9750
  585MPD2    H2 8677   4.107   2.945   1.234  0.2985  0.7455 -0.0958
  585MPD2    H3 8678   4.243   2.812   1.364  0.0944 -0.3262  0.1665
  585MPD2     N 8679   4.337   2.519   1.019  0.3124 -0.8833  0.2841
  585MPD2    H5 8680   4.420   2.478   1.061  1.1020 -0.4053 -0.8108
  585MPD2    N1 8681   4.062   2.941   0.974  0.0591  0.3924 -0.1270
  585MPD2    H7 8682   4.019   3.016   1.028 -1.3910  0.8035 -1.8648
  586TMC3    C1 8683   4.330   2.357   0.837  0.4932  0.2984 -0.0044
  586TMC3    C2 8684   4.463   2.325   0.843  0.3843  0.1497  0.4533
  586TMC3    C3 8685   4.516   2.263   0.734  0.5075 -0.3188 -0.1926
  586TMC3    C4 8686   4.256   2.323   0.723  0.2401  0.4004  0.5118
  586TMC3    C5 8687   4.315   2.252   0.617 -0.6244 -0.0105  0.7902
  586TMC3    C6 8688   4.445   2.221   0.625 -0.3380  0.1688 -0.0866
  586TMC3     C 8689   4.261   2.454   0.919  0.5149  0.0219  0.5698
  586TMC3     O 8690   4.139   2.468   0.902  0.4580 -0.4965 -0.4237
  586TMC3     H 8691   4.531   2.375   0.912  1.5939  0.6724 -1.1087
  586TMC3    H1 8692   4.154   2.354   0.706  0.5374  1.5843  0.9237
  586TMC3    H2 8693   4.495   2.168   0.545 -0.8128 -4.1204  2.4595
  586TMC3    C7 8694   4.243   2.259   0.490  0.0048 -0.0646  0.3558
  586TMC3    C8 8695   4.658   2.235   0.731 -0.2710  0.8008  0.4815
  586TMC3    O1 8696   4.126   2.290   0.495  0.1393  0.0522  0.0874
  586TMC3    O2 8697   4.705   2.187   0.831 -0.2140  0.4137  0.5269
  587TMC3    C1 8698   1.985   1.278  16.643 -0.2300  0.7402 -0.3865
  587TMC3    C2 8699   1.884   1.281  16.737  0.2190  0.0671 -0.4386
  587TMC3    C3 8700   1.901   1.210  16.852  0.1417  0.1813 -0.3849
  587TMC3    C4 8701   2.103   1.214  16.667  0.4354 -0.4239  0.2052
  587TMC3    C5 8702   2.118   1.147  16.786 -0.2849  0.6654 -0.5314
  587TMC3    C6 8703   2.016   1.141  16.875 -0.2614  0.2716 -0.1157
  587TMC3     C 8704   1.969   1.341  16.514  0.7381 -0.6068 -0.3660
  587TMC3     O 8705   2.063   1.401  16.465 -0.3379  0.3151  0.2493
  587TMC3     H 8706   1.789   1.330  16.718 -0.1937 -0.2348  0.8246
  587TMC3    H1 8707   2.178   1.213  16.588  0.7779  2.5118  0.4586
  587TMC3    H2 8708   2.038   1.094  16.970  0.2315 -0.4235 -0.5795
  587TMC3    C7 8709   2.241   1.065  16.811  0.0998  0.2277  0.3529
  587TMC3    C8 8710   1.787   1.174  16.939  0.2756 -0.5369  0.5299
  587TMC3    O1 8711   2.226   0.971  16.885 -0.1540 -0.5457  0.4267
  587TMC3    O2 8712   1.795   1.061  16.980  1.0140  0.3825  0.2516
  588TMC3    C1 8713   4.505   3.682   9.656 -0.2267  0.7010 -0.9984
  588TMC3    C2 8714   4.540   3.558   9.610  0.0934 -0.5288  0.0167
  588TMC3    C3 8715   4.526   3.453   9.695  0.2150  0.3776  0.1697
  588TMC3    C4 8716   4.460   3.710   9.783 -0.2332  0.1879 -0.1609
  588TMC3    C5 8717   4.441   3.597   9.867 -0.5755 -0.0356  0.0211
  588TMC3    C6 8718   4.484   3.470   9.820  0.4205  0.4881  0.1880
  588TMC3     C 8719   4.505   3.790   9.557 -0.1792  0.2892  0.3154
  588TMC3     O 8720   4.586   3.774   9.462 -0.2331 -0.9215  0.1781
  588TMC3     H 8721   4.582   3.531   9.514  0.6241 -1.3575  0.4819
  588TMC3    H1 8722   4.447   3.811   9.820 -1.8187 -1.0243  2.5470
  588TMC3    H2 8723   4.459   3.381   9.876 -0.7113  0.6448 -0.0786
  588TMC3    C7 8724   4.452   3.633  10.008 -0.7116 -0.5164 -0.5835
  588TMC3    C8 8725   4.572   3.324   9.640  0.0202  0.0537  0.3092
  588TMC3    O1 8726   4.529   3.565  10.077  0.6435  0.6057 -0.0093
  588TMC3    O2 8727   4.552   3.305   9.522 -0.0238  0.1933 -0.6692
  589TMC3    C1 8728   3.774   1.285   0.913 -0.6295  0.2591  0.5569
  589TMC3    C2 8729   3.838   1.377   0.989  0.0749 -0.8163  0.7081
  589TMC3    C3 8730   3.975   1.385   0.971 -0.3842  0.9072 -0.3440
  589TMC3    C4 8731   3.840   1.198   0.834 -0.0556  0.2313  0.3936
  589TMC3    C5 8732   3.975   1.207   0.830  0.0235  0.6048  0.8366
  589TMC3    C6 8733   4.048   1.299   0.896  0.4348  1.6213 -0.3172
  589TMC3     C 8734   3.629   1.268   0.920 -0.2470  0.2913  0.3335
  589TMC3     O 8735   3.581   1.175   0.860 -0.3830  0.3668 -0.3563
  589TMC3     H 8736   3.783   1.456   1.039  0.9253 -0.3072  0.8526
  589TMC3    H1 8737   3.788   1.121   0.779 -0.7373  1.0504 -0.1174
  589TMC3    H2 8738   4.156   1.298   0.887  0.6282  2.5682  1.9186
  589TMC3    C7 8739   4.046   1.091   0.782 -0.1611 -0.1212 -0.5293
  589TMC3    C8 8740   4.037   1.493   1.042  0.4249 -0.5548 -1.4353
  589TMC3    O1 8741   3.999   0.981   0.820  0.4092 -0.1277 -0.7711
  589TMC3    O2 8742   3.965   1.592   1.044 -0.0908 -0.3748  0.2567
  590MPD2     C 8743   3.054   0.204  16.460 -0.1517 -0.1927 -0.5353
  590MPD2    C1 8744   3.011   0.221  16.334  0.0454 -0.1117 -0.2746
  590MPD2    C2 8745   3.107   0.246  16.236  0.1381 -0.2079 -0.3592
  590MPD2    C3 8746   3.242   0.251  16.264  0.3540 -0.1634  0.1591
  590MPD2    C4 8747   3.283   0.228  16.391  0.4282 -0.0290 -0.5429
  590MPD2    C5 8748   3.185   0.211  16.489 -0.3333 -0.2959  0.3401
  590MPD2     H 8749   3.079   0.261  16.132  1.4859 -0.9447 -0.8260
  590MPD2    H1 8750   3.387   0.229  16.421  0.4069  1.5329 -0.5508
  590MPD2    H2 8751   2.985   0.187  16.542  2.2175  1.6576  1.8309
  590MPD2    H3 8752   3.209   0.196  16.593  2.9931 -1.2627 -0.5736
  590MPD2     N 8753   3.337   0.281  16.161 -0.6128 -0.0237  0.8059
  590MPD2    H5 8754   3.307   0.332  16.078  0.7763 -0.3156  0.1379
  590MPD2    N1 8755   2.877   0.207  16.314  0.7821  0.0529 -0.3781
  590MPD2    H7 8756   2.808   0.217  16.389  2.9653  0.0619  1.6264
  591TMC3    C1 8757   3.549   0.314  16.056  0.1186 -0.7393 -0.1188
  591TMC3    C2 8758   3.630   0.215  15.992 -0.2745  0.5134  0.3870
  591TMC3    C3 8759   3.659   0.229  15.859 -0.6117 -0.0587 -0.5343
  591TMC3    C4 8760   3.496   0.421  15.989  0.0947  0.0345 -0.2277
  591TMC3    C5 8761   3.536   0.431  15.855  0.1152  0.4316  0.3421
  591TMC3    C6 8762   3.606   0.337  15.789  0.2188 -1.0313 -0.5815
  591TMC3     C 8763   3.477   0.258  16.171  0.0710  0.1740 -0.0049
  591TMC3     O 8764   3.539   0.180  16.244 -0.1685  0.7125  0.2399
  591TMC3     H 8765   3.667   0.135  16.055  0.3671  0.2187 -0.3678
  591TMC3    H1 8766   3.446   0.502  16.042  0.4514  0.5230 -0.6362
  591TMC3    H2 8767   3.638   0.352  15.686 -1.7166  1.8445 -0.7679
  591TMC3    C7 8768   3.536   0.562  15.800 -0.7207  0.3425  0.4922
  591TMC3    C8 8769   3.709   0.115  15.791  0.4741  0.6604 -0.2632
  591TMC3    O1 8770   3.629   0.582  15.722 -0.2123  0.0954  0.0503
  591TMC3    O2 8771   3.763   0.026  15.856 -0.0829  0.2443 -0.1500
  592MPD2     C 8772   3.567   1.726  10.960  0.3474  0.2020  0.4606
  592MPD2    C1 8773   3.604   1.762  11.090  0.1586 -0.5277  0.7098
  592MPD2    C2 8774   3.547   1.702  11.201 -0.2568 -0.2402 -0.3938
  592MPD2    C3 8775   3.447   1.613  11.185 -0.1437 -0.6482 -0.4380
  592MPD2    C4 8776   3.403   1.589  11.056  0.0753 -0.3457  0.1154
  592MPD2    C5 8777   3.466   1.640  10.944 -0.2403 -0.3263 -0.4076
  592MPD2     H 8778   3.579   1.725  11.302  0.3810  0.3538 -0.7347
  592MPD2    H1 8779   3.322   1.517  11.048  0.9368 -1.4135  0.8849
  592MPD2    H2 8780   3.614   1.773  10.875 -0.4674 -0.0571 -0.1376
  592MPD2    H3 8781   3.426   1.609  10.849 -0.2055 -0.0571 -0.5102
  592MPD2     N 8782   3.397   1.549  11.304 -0.1886 -0.0711  0.0032
  592MPD2    H5 8783   3.456   1.554  11.386  0.1550  0.8789 -0.3025
  592MPD2    N1 8784   3.712   1.852  11.104  0.0301 -0.0224 -0.2161
  592MPD2    H7 8785   3.765   1.869  11.019 -1.9282  0.4578 -1.3528
  593TMC3    C1 8786   3.857   2.013  11.217 -0.4685  0.2824 -0.7851
  593TMC3    C2 8787   3.876   2.082  11.331  0.0173  0.6023 -0.8281
  593TMC3    C3 8788   3.981   2.167  11.345 -0.0927  0.3410 -0.4404
  593TMC3    C4 8789   3.930   2.039  11.106 -0.1790 -0.2657 -0.4311
  593TMC3    C5 8790   4.042   2.115  11.128  0.6426 -0.3617  0.2853
  593TMC3    C6 8791   4.073   2.178  11.250  0.2069 -0.5861  0.5436
  593TMC3     C 8792   3.742   1.921  11.222 -0.3839  0.4059 -0.1464
  593TMC3     O 8793   3.666   1.925  11.318  0.1503 -0.6667  0.0415
  593TMC3     H 8794   3.805   2.073  11.412  1.4932 -2.5515  0.1079
  593TMC3    H1 8795   3.914   1.982  11.015  0.0084  0.5019 -0.9477
  593TMC3    H2 8796   4.148   2.256  11.259  0.3674 -0.6636 -0.1008
  593TMC3    C7 8797   4.115   2.155  11.012  0.1915  0.0828 -0.5798
  593TMC3    C8 8798   3.953   2.275  11.434  0.5686 -0.5685 -0.7465
  593TMC3    O1 8799   4.198   2.245  11.030 -0.6468 -0.0284  0.5342
  593TMC3    O2 8800   3.842   2.323  11.428  0.9375  0.7904 -0.6315
  594MPD2     C 8801   2.122   0.642  14.072  0.1446 -0.1562  0.8860
  594MPD2    C1 8802   2.105   0.583  14.202 -0.7110 -0.4631 -0.4259
  594MPD2    C2 8803   2.211   0.593  14.290 -0.8378 -0.6400 -0.3640
  594MPD2    C3 8804   2.334   0.650  14.246 -0.7620  0.1661  0.3687
  594MPD2    C4 8805   2.351   0.692  14.111 -0.2276  0.9350  0.6337
  594MPD2    C5 8806   2.247   0.684  14.027  0.3356  0.4524  0.0515
  594MPD2     H 8807   2.209   0.562  14.394  1.7646  0.6788  0.0782
  594MPD2    H1 8808   2.449   0.711  14.067 -0.9825  1.5216 -0.7927
  594MPD2    H2 8809   2.038   0.638  14.005  0.5679  0.6548  0.3222
  594MPD2    H3 8810   2.253   0.706  13.921 -2.0551 -0.0955 -0.1982
  594MPD2     N 8811   2.434   0.673  14.345 -0.1104 -0.8825 -0.2922
  594MPD2    H5 8812   2.414   0.647  14.441  1.2809  1.4745  0.6267
  594MPD2    N1 8813   1.977   0.538  14.227 -0.5840 -0.0558  0.2596
  594MPD2    H7 8814   1.894   0.554  14.170 -0.4264 -0.4092 -0.0641
  595TMC3    C1 8815   2.824   0.797  14.564  0.4089 -0.1757  0.1470
  595TMC3    C2 8816   2.764   0.743  14.453 -0.0350  0.3071  0.0905
  595TMC3    C3 8817   2.626   0.742  14.451 -0.3306  0.1107  0.1514
  595TMC3    C4 8818   2.755   0.831  14.678  0.7278  0.0820 -0.6850
  595TMC3    C5 8819   2.619   0.816  14.678 -0.1390 -0.2869  0.1879
  595TMC3    C6 8820   2.553   0.776  14.562  0.1996 -0.7301 -0.2969
  595TMC3     C 8821   2.957   0.854  14.551 -0.2038 -0.1427  0.7265
  595TMC3     O 8822   2.987   0.938  14.632  0.4497  0.9352  0.6073
  595TMC3     H 8823   2.813   0.751  14.357 -0.7995 -0.5933 -0.3795
  595TMC3    H1 8824   2.809   0.875  14.762 -1.3969  0.9636  0.2131
  595TMC3    H2 8825   2.445   0.784  14.550  0.3012 -0.7445 -1.2298
  595TMC3    C7 8826   2.540   0.904  14.758  0.1204 -0.4277  0.3579
  595TMC3    C8 8827   2.555   0.727  14.325 -1.2249 -0.1046 -0.0622
  595TMC3    O1 8828   2.420   0.879  14.749 -0.0972  0.5684  0.3566
  595TMC3    O2 8829   2.611   0.760  14.221 -0.0996  0.0631 -1.5761
  596MPD2     C 8830   0.988   3.221  16.746 -0.0162 -1.2625  0.1878
  596MPD2    C1 8831   1.024   3.327  16.661 -0.4699 -0.0262 -0.5255
  596MPD2    C2 8832   1.047   3.301  16.526  0.2448 -1.1148  0.1482
  596MPD2    C3 8833   1.047   3.173  16.478  0.1302 -0.4097 -0.7640
  596MPD2    C4 8834   1.022   3.071  16.568  0.8499  0.0778 -0.2911
  596MPD2    C5 8835   0.984   3.098  16.695  0.7171  0.0466  0.0723
  596MPD2     H 8836   1.052   3.390  16.464  1.4137 -0.8780  0.5847
  596MPD2    H1 8837   1.015   2.965  16.546 -1.4474  0.0410  0.5624
  596MPD2    H2 8838   0.973   3.233  16.853 -1.5805  0.6824 -0.2555
  596MPD2    H3 8839   0.961   3.010  16.754 -0.0378 -1.2663 -2.1749
  596MPD2     N 8840   1.082   3.139  16.346  0.3995 -0.3308 -0.3204
  596MPD2    H5 8841   1.053   3.052  16.304  0.8651 -0.5137 -0.2672
  596MPD2    N1 8842   1.058   3.459  16.706  0.2840 -0.5958 -0.4323
  596MPD2    H7 8843   1.088   3.521  16.631 -0.0076 -1.1905 -1.0438
  597TMC3    C1 8844   1.098   3.635  16.856  0.9478 -0.3688 -0.1357
  597TMC3    C2 8845   1.198   3.682  16.771 -0.1178 -0.4232  0.5891
  597TMC3    C3 8846   1.232   3.814  16.792  0.2795  0.9098  0.5410
  597TMC3    C4 8847   1.032   3.709  16.953  0.0951 -0.2649  0.0264
  597TMC3    C5 8848   1.065   3.838  16.967  0.1865 -0.3523 -0.1897
  597TMC3    C6 8849   1.166   3.892  16.882  0.6820 -0.0768 -0.0809
  597TMC3     C 8850   1.064   3.497  16.841 -0.1444 -0.2384  0.1310
  597TMC3     O 8851   1.023   3.445  16.941 -0.0543  0.2403 -0.6016
  597TMC3     H 8852   1.245   3.608  16.708 -1.7492 -0.7936 -0.1987
  597TMC3    H1 8853   0.958   3.665  17.018 -1.2288  0.1941 -1.1715
  597TMC3    H2 8854   1.198   3.996  16.882 -1.1173  0.4809  0.5262
  597TMC3    C7 8855   1.015   3.918  17.080 -0.5171 -0.4103  0.1491
  597TMC3    C8 8856   1.314   3.881  16.700  0.5633 -0.2331 -0.4447
  597TMC3    O1 8857   0.953   3.849  17.159  0.0862  0.2736 -0.0471
  597TMC3    O2 8858   1.332   4.004  16.710 -0.2265 -0.2125 -0.6078
  598TMC3    C1 8859   4.110   0.123  15.249  0.3312 -0.5691  0.1273
  598TMC3    C2 8860   4.028   0.039  15.172 -0.8692 -0.4696  0.3080
  598TMC3    C3 8861   4.002   0.070  15.037  0.3062 -0.1209 -0.3785
  598TMC3    C4 8862   4.158   0.243  15.191  0.3914  1.0731  0.0048
  598TMC3    C5 8863   4.146   0.258  15.059 -0.3997 -0.3465 -0.1089
  598TMC3    C6 8864   4.072   0.170  14.983  0.2630 -0.1688  0.1892
  598TMC3     C 8865   4.149   0.098  15.386 -0.7808  0.6097 -0.0457
  598TMC3     O 8866   4.211   0.189  15.439 -0.3571 -0.6566  0.8162
  598TMC3     H 8867   3.991   4.671  15.212 -1.4314 -0.5932 -0.4829
  598TMC3    H1 8868   4.228   0.306  15.246 -0.8509  1.7320  0.8246
  598TMC3    H2 8869   4.065   0.183  14.875  0.3839  0.3235  0.2427
  598TMC3    C7 8870   4.249   0.340  14.992  0.2971  0.5262 -0.4259
  598TMC3    C8 8871   3.931   4.698  14.963  0.0486  0.5842 -0.3076
  598TMC3    O1 8872   4.280   0.314  14.873  0.4427  0.6073  0.2913
  598TMC3    O2 8873   3.852   4.632  15.031  0.2123 -0.4287 -0.2677
  599MPD2     C 8874   4.167   2.924  16.111 -0.2087  0.3424  0.2075
  599MPD2    C1 8875   4.089   2.812  16.095 -0.6245 -0.5979 -0.4736
  599MPD2    C2 8876   3.959   2.812  16.125 -0.4611 -0.3378  0.2998
  599MPD2    C3 8877   3.902   2.938  16.154  0.1288 -0.2766 -0.5004
  599MPD2    C4 8878   3.979   3.046  16.167  0.2112 -0.7354  0.5060
  599MPD2    C5 8879   4.111   3.043  16.149 -1.0064 -0.0798 -0.0562
  599MPD2     H 8880   3.897   2.724  16.114 -1.3027  0.2340  0.4572
  599MPD2    H1 8881   3.928   3.137  16.195 -0.0176 -0.1403 -1.8368
  599MPD2    H2 8882   4.269   2.917  16.073 -0.1955  0.9804  0.1307
  599MPD2    H3 8883   4.176   3.128  16.168 -0.2223 -0.2422 -2.0020
  599MPD2     N 8884   3.763   2.953  16.184  0.4403 -0.0699 -0.1190
  599MPD2    H5 8885   3.743   3.051  16.203  0.1452 -0.1298 -0.1178
  599MPD2    N1 8886   4.162   2.695  16.066  0.3748  0.0909 -0.3062
  599MPD2    H7 8887   4.259   2.708  16.037  0.5881  1.1869  0.8464
  600TMC3    C1 8888   3.556   2.890  16.279 -0.8204 -0.2918  0.0664
  600TMC3    C2 8889   3.459   2.802  16.308  0.1380 -0.1288 -0.4530
  600TMC3    C3 8890   3.366   2.833  16.400 -0.4722 -0.5315  0.4142
  600TMC3    C4 8891   3.567   3.006  16.357 -0.0699  0.0425 -0.0111
  600TMC3    C5 8892   3.471   3.035  16.450  0.1749  0.1435  0.5516
  600TMC3    C6 8893   3.374   2.942  16.474 -0.2915 -0.3070  0.8260
  600TMC3     C 8894   3.670   2.857  16.195  0.1567  0.2641  0.0771
  600TMC3     O 8895   3.670   2.740  16.163 -0.5052  0.0585  0.4574
  600TMC3     H 8896   3.463   2.700  16.270  0.1167  0.0563 -0.9517
  600TMC3    H1 8897   3.643   3.081  16.342  1.8744 -2.4702 -2.6747
  600TMC3    H2 8898   3.298   2.966  16.548 -1.3210 -0.8459 -0.0499
  600TMC3    C7 8899   3.475   3.153  16.542 -0.4653  0.6901  0.0147
  600TMC3    C8 8900   3.342   2.717  16.483  0.1319 -0.1146  0.8146
  600TMC3    O1 8901   3.371   3.184  16.600  0.2361  0.4205 -0.0269
  600TMC3    O2 8902   3.390   2.719  16.594 -0.0506  0.8555  0.9446
  601MPD2     C 8903   1.237   0.907   0.130 -0.6509  0.5656 -0.1422
  601MPD2    C1 8904   1.168   0.900   0.008 -0.2742  0.0395 -0.0458
  601MPD2    C2 8905   1.178   0.785  17.641  0.1507  0.0482  0.5316
  601MPD2    C3 8906   1.233   0.670  17.690  0.1920 -0.2896  0.5287
  601MPD2    C4 8907   1.285   0.674   0.115 -0.2470  0.4096 -0.0850
  601MPD2    C5 8908   1.282   0.788   0.189  0.1372  0.6100 -0.2196
  601MPD2     H 8909   1.131   0.781  17.543 -0.7736  0.2950  0.9598
  601MPD2    H1 8910   1.331   0.582   0.147  1.2514  1.0306 -0.4452
  601MPD2    H2 8911   1.256   0.996   0.188  0.6331 -0.9771  1.7601
  601MPD2    H3 8912   1.349   0.806   0.273 -0.5749  0.3331  0.4072
  601MPD2     N 8913   1.231   0.539  17.625 -0.0613 -0.6517 -0.1204
  601MPD2    H5 8914   1.249   0.455  17.678  0.1009 -1.5010 -1.5249
  601MPD2    N1 8915   1.105   1.005  17.646 -0.6371 -0.3569  0.0743
  601MPD2    H7 8916   1.074   0.990  17.550 -1.7739  1.0956  0.1998
  602TMC3    C1 8917   0.980   1.214  17.633 -0.5442  1.0024 -1.1517
  602TMC3    C2 8918   1.018   1.236  17.505 -0.3462 -0.7874 -0.7062
  602TMC3    C3 8919   0.961   1.325  17.423  0.3099  0.3228  0.6586
  602TMC3    C4 8920   0.872   1.280  17.680 -0.2540 -0.0189  0.3439
  602TMC3    C5 8921   0.814   1.371  17.598 -0.2772  0.0871 -0.1032
  602TMC3    C6 8922   0.840   1.379  17.465  0.3409 -0.4534 -0.0375
  602TMC3     C 8923   1.048   1.114   0.011  0.3410  0.0828  0.0336
  602TMC3     O 8924   1.035   1.126   0.135 -0.3365 -0.7445  0.0679
  602TMC3     H 8925   1.103   1.188  17.458  1.0261  1.0606 -0.1284
  602TMC3    H1 8926   0.837   1.259   0.077 -1.7994  0.8401  0.0040
  602TMC3    H2 8927   0.768   1.429  17.401  0.3548 -1.4820 -0.8691
  602TMC3    C7 8928   0.676   1.384  17.629  0.2024 -0.3425  0.3761
  602TMC3    C8 8929   0.974   1.326  17.280  0.2979 -0.0571  0.2819
  602TMC3    O1 8930   0.622   1.277  17.647  0.0839  0.9763 -0.0624
  602TMC3    O2 8931   1.048   1.240  17.226  0.0007  0.0821  0.0815
  603TMC3    C1 8932   4.633   1.026  11.307  0.0501  0.0618 -0.2566
  603TMC3    C2 8933   4.615   1.025  11.442  0.1246 -0.2229  0.1820
  603TMC3    C3 8934   4.615   1.146  11.502 -0.6089  0.1874  0.8454
  603TMC3    C4 8935   4.641   1.136  11.232 -0.1503  0.4565 -0.2460
  603TMC3    C5 8936   4.642   1.261  11.292  1.2720  0.2558 -0.2053
  603TMC3    C6 8937   4.629   1.268  11.426 -0.6208  0.3843 -0.2973
  603TMC3     C 8938   4.670   0.898  11.255  0.5813  1.4021 -0.4286
  603TMC3     O 8939   4.601   0.804  11.287 -0.8269  0.2237 -0.1805
  603TMC3     H 8940   4.609   0.927  11.488 -2.0868 -0.3020 -0.2446
  603TMC3    H1 8941   4.667   1.123  11.128  1.2329  0.1180  0.1389
  603TMC3    H2 8942   4.594   1.364  11.462 -0.1191  0.2759  0.4760
  603TMC3    C7 8943   4.644   1.373  11.207  0.0772  0.3447 -0.1739
  603TMC3    C8 8944   4.596   1.134  11.644 -0.4060 -0.1108 -0.4148
  603TMC3    O1 8945   4.670   1.482  11.261  0.4841 -0.1514 -0.0733
  603TMC3    O2 8946   4.626   1.034  11.703  0.6222 -0.1636  0.3073
  604MPD2     C 8947   0.364   4.655  16.591 -0.4312 -0.3475 -0.0522
  604MPD2    C1 8948   0.252   4.664  16.508 -0.4010 -0.2195  0.1982
  604MPD2    C2 8949   0.238   4.590  16.395  0.3835 -0.2030 -0.2969
  604MPD2    C3 8950   0.334   4.503  16.359  0.2130  0.7565  0.6023
  604MPD2    C4 8951   0.450   4.501  16.436  0.0130  0.0820  0.5102
  604MPD2    C5 8952   0.466   4.581  16.546  0.1254 -0.1393 -0.3023
  604MPD2     H 8953   0.147   4.592  16.336 -1.4219 -0.4516  2.4965
  604MPD2    H1 8954   0.532   4.436  16.406 -1.7894 -1.5081 -1.0066
  604MPD2    H2 8955   0.384   4.711  16.682 -2.0078 -0.4598  0.3804
  604MPD2    H3 8956   0.561   4.576  16.599 -0.7205 -2.2111  1.0199
  604MPD2     N 8957   0.316   4.432  16.242  0.0430  0.2531  0.4535
  604MPD2    H5 8958   0.226   4.449  16.199  0.2523  1.0499  0.3282
  604MPD2    N1 8959   0.157   0.034  16.561  0.2202 -0.1835  0.7424
  604MPD2    H7 8960   0.192   0.091  16.638 -1.2845  0.4821  0.9228
  605TMC3    C1 8961   0.001   0.207  16.558  0.4470  0.0974 -0.5041
  605TMC3    C2 8962   0.032   0.243  16.685 -0.0214  0.4481  0.1520
  605TMC3    C3 8963   0.016   0.371  16.732 -0.4318  1.2321 -0.2792
  605TMC3    C4 8964   4.669   0.301  16.476 -0.0550 -0.8554  0.1929
  605TMC3    C5 8965   4.641   0.423  16.532 -0.1059 -0.2124  0.5184
  605TMC3    C6 8966   4.683   0.470  16.656 -0.4038 -0.5546 -0.3073
  605TMC3     C 8967   0.038   0.074  16.496  0.1864 -0.1802  0.0839
  605TMC3     O 8968   4.717   0.037  16.393  0.0255  0.3366 -0.6652
  605TMC3     H 8969   0.064   0.162  16.750  0.9965  1.0336  0.3852
  605TMC3    H1 8970   4.635   0.272  16.377 -2.1954  1.4017  0.2812
  605TMC3    H2 8971   4.648   0.561  16.705  0.1775 -0.5974  0.1917
  605TMC3    C7 8972   4.557   0.514  16.448  0.0392  0.2328  0.0638
  605TMC3    C8 8973   0.137   0.415  16.796 -0.6430 -0.2359 -0.1865
  605TMC3    O1 8974   4.552   0.627  16.489 -0.2500  0.7982 -0.4612
  605TMC3    O2 8975   0.206   0.331  16.851 -0.3918 -0.0886  0.9462
  606TMC3    C1 8976   1.397   3.353  17.003  0.4152  0.2505 -0.1231
  606TMC3    C2 8977   1.326   3.372  17.121  0.1403  0.6035  1.4047
  606TMC3    C3 8978   1.227   3.288  17.148  0.7126  0.0050  0.3340
  606TMC3    C4 8979   1.353   3.258  16.916 -0.6481 -0.4810 -0.0790
  606TMC3    C5 8980   1.255   3.165  16.951  0.0615  0.4470 -0.2870
  606TMC3    C6 8981   1.184   3.186  17.066 -0.7784  0.3859  0.0170
  606TMC3     C 8982   1.455   3.469  16.936 -0.0133  0.5453 -0.4253
  606TMC3     O 8983   1.499   3.441  16.826  0.5243 -0.0421  0.1689
  606TMC3     H 8984   1.353   3.446  17.196  1.7323  1.0784  0.3593
  606TMC3    H1 8985   1.415   3.228  16.832  0.0042  1.4676 -0.2861
  606TMC3    H2 8986   1.115   3.114  17.110 -1.3806 -0.9274 -3.0954
  606TMC3    C7 8987   1.309   3.030  16.948 -0.1918 -0.2868  0.0465
  606TMC3    C8 8988   1.197   3.270  17.285 -0.2025  1.1465 -0.5957
  606TMC3    O1 8989   1.422   3.011  16.902  0.2465  0.1234 -0.2479
  606TMC3    O2 8990   1.077   3.252  17.315 -0.2598 -0.6108 -0.3580
  607MPD2     C 8991   3.523   1.330  11.667 -0.0298 -0.6799  0.3238
  607MPD2    C1 8992   3.509   1.433  11.761 -0.5203 -0.2444  0.0824
  607MPD2    C2 8993   3.460   1.409  11.887  0.2271  0.2242 -0.1161
  607MPD2    C3 8994   3.423   1.278  11.914 -0.1056  0.4667  0.6222
  607MPD2    C4 8995   3.413   1.175  11.823 -0.3436  0.2788  0.1662
  607MPD2    C5 8996   3.465   1.207  11.702  0.0091  0.4991 -0.4808
  607MPD2     H 8997   3.463   1.478  11.970  0.2836  0.6688 -0.4879
  607MPD2    H1 8998   3.390   1.070  11.838  0.3949  0.1582  0.4726
  607MPD2    H2 8999   3.570   1.346  11.570  0.3599  1.7958  0.9219
  607MPD2    H3 9000   3.479   1.129  11.628 -1.4647 -0.9594  0.7723
  607MPD2     N 9001   3.372   1.251  12.049 -0.0079 -0.1639  0.0224
  607MPD2    H5 9002   3.388   1.316  12.124 -0.0823  0.9658 -0.9428
  607MPD2    N1 9003   3.567   1.564  11.738 -0.0478  0.1040 -0.3974
  607MPD2    H7 9004   3.549   1.631  11.812 -1.3236  0.4157 -0.9782
  608TMC3    C1 9005   3.706   1.729  11.640  0.7933 -0.0900  0.3815
  608TMC3    C2 9006   3.732   1.755  11.770 -0.2857 -0.5199  0.3534
  608TMC3    C3 9007   3.867   1.759  11.805 -0.5752 -0.2479  0.3111
  608TMC3    C4 9008   3.800   1.724  11.545  0.3227  0.0675 -0.2638
  608TMC3    C5 9009   3.927   1.762  11.580 -0.2141 -0.2687 -0.0904
  608TMC3    C6 9010   3.964   1.773  11.705  0.1388 -0.2475 -0.3981
  608TMC3     C 9011   3.614   1.615  11.619  0.0035 -0.1777  0.5980
  608TMC3     O 9012   3.614   1.564  11.507 -0.5839 -0.1721 -0.0125
  608TMC3     H 9013   3.652   1.751  11.843 -0.3262 -0.7590  0.2966
  608TMC3    H1 9014   3.771   1.710  11.441  1.0914 -0.9901 -0.3295
  608TMC3    H2 9015   4.064   1.792  11.741 -0.2048  0.1255  0.3586
  608TMC3    C7 9016   4.017   1.798  11.481  1.0038 -0.8105 -0.6211
  608TMC3    C8 9017   3.917   1.682  11.922  0.2719  0.1627 -0.1947
  608TMC3    O1 9018   4.002   1.745  11.371  0.0238 -0.0856 -0.3615
  608TMC3    O2 9019   4.038   1.671  11.929 -0.1803  0.2990 -0.2538
  609TMC3    C1 9020   2.482   0.571   8.762 -0.1115  0.1439 -0.0607
  609TMC3    C2 9021   2.543   0.694   8.763 -0.4651 -0.2654 -0.3771
  609TMC3    C3 9022   2.677   0.701   8.787  0.0876 -0.3929 -0.3212
  609TMC3    C4 9023   2.555   0.460   8.791 -0.2726  0.2488 -0.2079
  609TMC3    C5 9024   2.687   0.467   8.816  0.6983  0.6088 -0.0769
  609TMC3    C6 9025   2.750   0.598   8.822  0.3299 -0.2010 -0.2308
  609TMC3     C 9026   2.344   0.559   8.764 -0.1471 -0.0830 -0.3558
  609TMC3     O 9027   2.280   0.651   8.813 -0.1245 -0.7199 -0.3725
  609TMC3     H 9028   2.486   0.778   8.725 -1.6271 -0.7023  0.4126
  609TMC3    H1 9029   2.504   0.364   8.795  1.0961 -0.4174  1.3686
  609TMC3    H2 9030   2.847   0.606   8.870  0.4571  0.2344 -0.5623
  609TMC3    C7 9031   2.764   0.347   8.850 -0.3664  0.5866  0.5412
  609TMC3    C8 9032   2.745   0.820   8.772 -0.0074 -0.5339 -0.0284
  609TMC3    O1 9033   2.868   0.369   8.912  0.1854  0.2352  0.2162
  609TMC3    O2 9034   2.859   0.809   8.737 -0.3125 -0.4029 -0.0061
  610TMC3    C1 9035   3.946   1.323  12.655  0.4392  0.2135  0.0216
  610TMC3    C2 9036   4.001   1.374  12.543 -0.0169 -0.2930 -0.7567
  610TMC3    C3 9037   4.125   1.335  12.518  0.4874  0.3029 -0.2635
  610TMC3    C4 9038   4.008   1.229  12.737 -0.4591 -0.8094  0.3307
  610TMC3    C5 9039   4.132   1.190  12.701 -0.0016  0.2023 -0.8667
  610TMC3    C6 9040   4.194   1.239  12.589 -0.4963  0.3247 -1.5254
  610TMC3     C 9041   3.809   1.373  12.692 -0.0234 -0.0550  0.3155
  610TMC3     O 9042   3.771   1.346  12.804 -0.2643  0.5608 -0.1463
  610TMC3     H 9043   3.962   1.458  12.488  0.4836 -0.3954 -1.2641
  610TMC3    H1 9044   3.946   1.183  12.814 -0.8845  2.9454  2.2576
  610TMC3    H2 9045   4.292   1.198  12.566  0.6638  1.9822  0.5009
  610TMC3    C7 9046   4.190   1.071  12.759 -0.0893 -0.8870 -0.4405
  610TMC3    C8 9047   4.212   1.425  12.448  0.3695  0.0964 -0.3805
  610TMC3    O1 9048   4.309   1.051  12.744 -0.3790  0.3269 -0.3274
  610TMC3    O2 9049   4.195   1.548  12.458  0.2530  0.2048  0.1064
  611MPD2     C 9050   3.960   0.873  10.537  0.2117 -0.6302  0.3515
  611MPD2    C1 9051   3.905   0.971  10.450  0.2458 -0.0566 -0.3576
  611MPD2    C2 9052   3.989   1.062  10.386 -0.1558 -0.5626 -0.0305
  611MPD2    C3 9053   4.126   1.059  10.418 -0.3230  0.4170 -0.5963
  611MPD2    C4 9054   4.173   0.957  10.492  0.4831 -0.4455  0.1072
  611MPD2    C5 9055   4.095   0.868  10.552  0.9258 -0.1831  0.3000
  611MPD2     H 9056   3.944   1.140  10.325  2.5259  2.4311  1.8207
  611MPD2    H1 9057   4.280   0.952  10.507  0.2107  1.3859  2.6686
  611MPD2    H2 9058   3.900   0.817  10.607  0.5158  2.1786  2.8903
  611MPD2    H3 9059   4.137   0.794  10.619 -1.5750 -1.2839  0.6678
  611MPD2     N 9060   4.216   1.155  10.374 -0.6130 -0.6891 -0.1716
  611MPD2    H5 9061   4.302   1.156  10.427 -1.3287  1.7158  0.9237
  611MPD2    N1 9062   3.766   0.983  10.437 -0.2252 -0.0014  0.1995
  611MPD2    H7 9063   3.710   0.912  10.483  1.3761 -0.7414  1.0387
  612TMC3    C1 9064   4.289   1.355  10.286  0.2627 -0.0817  0.2580
  612TMC3    C2 9065   4.361   1.371  10.399  0.1064 -0.0210 -0.0054
  612TMC3    C3 9066   4.455   1.464  10.389  0.4754  0.0469 -0.5350
  612TMC3    C4 9067   4.322   1.410  10.166  0.4430  0.9314 -0.3353
  612TMC3    C5 9068   4.426   1.502  10.160  0.8175 -0.4870 -0.9031
  612TMC3    C6 9069   4.493   1.525  10.272  0.4020 -0.3595  0.3281
  612TMC3     C 9070   4.188   1.250  10.281 -0.5642  0.5239 -0.5778
  612TMC3     O 9071   4.100   1.259  10.199 -0.4349  0.3718 -0.0428
  612TMC3     H 9072   4.314   1.344  10.494 -0.2077 -0.2866 -0.2355
  612TMC3    H1 9073   4.253   1.408  10.082 -0.3597  2.2728  0.2957
  612TMC3    H2 9074   4.578   1.592  10.264 -0.0818  0.1224 -0.7760
  612TMC3    C7 9075   4.462   1.567  10.032  0.4499  0.5247  0.3473
  612TMC3    C8 9076   4.502   1.538  10.509  0.4466  0.5166  0.8050
  612TMC3    O1 9077   4.425   1.515   9.931 -0.1344 -0.2914 -0.3146
  612TMC3    O2 9078   4.555   1.646  10.489 -0.0146 -0.2470  0.1934
  613MPD2     C 9079   2.687   4.486  15.913 -0.6159  0.7283 -0.1423
  613MPD2    C1 9080   2.608   4.380  15.944 -0.1318 -0.1852  0.2440
  613MPD2    C2 9081   2.661   4.284  16.030  0.7333 -0.5864  0.8162
  613MPD2    C3 9082   2.781   4.307  16.099 -0.0161  0.3248  0.8501
  613MPD2    C4 9083   2.850   4.426  16.083  0.4262  0.0699 -0.7531
  613MPD2    C5 9084   2.799   4.515  15.993  0.2171  1.0981 -0.5137
  613MPD2     H 9085   2.594   4.204  16.060  0.6041 -0.5912  0.5092
  613MPD2    H1 9086   2.942   4.458  16.130 -0.1195 -0.9355  1.0121
  613MPD2    H2 9087   2.667   4.557  15.832 -1.1102 -0.3604 -0.9694
  613MPD2    H3 9088   2.838   4.614  15.972  3.7054 -0.3332 -0.7031
  613MPD2     N 9089   2.848   4.211  16.175 -0.8115  0.5112 -0.3475
  613MPD2    H5 9090   2.941   4.237  16.204 -0.9195  0.5403 -0.0268
  613MPD2    N1 9091   2.486   4.367  15.879  0.2459 -0.6634  0.0654
  613MPD2    H7 9092   2.479   4.433  15.802 -1.0453  0.0577  0.8153
  614TMC3    C1 9093   2.342   4.209  15.780  0.3739  0.3003 -0.1025
  614TMC3    C2 9094   2.444   4.179  15.697  0.3153 -0.6781  0.4973
  614TMC3    C3 9095   2.418   4.076  15.606  0.0701 -0.1252  0.4170
  614TMC3    C4 9096   2.227   4.130  15.776 -0.3036  0.4421  0.2021
  614TMC3    C5 9097   2.206   4.032  15.683 -0.0231 -0.0508  0.6779
  614TMC3    C6 9098   2.302   4.007  15.592 -0.0997  0.0719 -0.6393
  614TMC3     C 9099   2.390   4.270  15.902  0.7072  0.0936 -0.5522
  614TMC3     O 9100   2.354   4.216  16.007 -0.1209 -0.8065 -0.3901
  614TMC3     H 9101   2.538   4.232  15.682 -0.5025  0.5727 -0.2336
  614TMC3    H1 9102   2.141   4.153  15.838 -2.8176  1.1289 -3.4968
  614TMC3    H2 9103   2.301   3.927  15.519  0.2653  0.1721 -0.7569
  614TMC3    C7 9104   2.065   3.999  15.660 -0.3575  0.7946 -0.4400
  614TMC3    C8 9105   2.531   3.991  15.600 -0.0035 -0.0302  0.0753
  614TMC3    O1 9106   1.979   4.072  15.711  0.7813 -0.1312  0.1747
  614TMC3    O2 9107   2.534   3.901  15.514 -0.3542 -0.2200  0.0990
  615MPD2     C 9108   2.544   0.403  15.818  0.3224 -0.2733  0.6621
  615MPD2    C1 9109   2.411   0.436  15.838 -0.1150 -0.0437 -0.9286
  615MPD2    C2 9110   2.312   0.368  15.762 -0.4059  0.3162 -0.2202
  615MPD2    C3 9111   2.349   0.285  15.656 -0.4831 -0.4172 -0.2830
  615MPD2    C4 9112   2.485   0.245  15.648  0.2192  0.7971 -0.3934
  615MPD2    C5 9113   2.576   0.306  15.732 -0.2229 -0.0874  0.4554
  615MPD2     H 9114   2.206   0.386  15.778 -0.4109  1.1741 -1.2538
  615MPD2    H1 9115   2.518   0.172  15.575 -1.7422 -0.5113  0.0298
  615MPD2    H2 9116   2.627   0.458  15.860  1.4129 -0.0893 -1.7542
  615MPD2    H3 9117   2.682   0.294  15.711 -0.2181 -2.0387  1.5773
  615MPD2     N 9118   2.251   0.239  15.564  0.2419  0.2284  0.4382
  615MPD2    H5 9119   2.170   0.300  15.555  0.7686  0.8392 -0.1464
  615MPD2    N1 9120   2.367   0.529  15.931 -0.6206 -0.4400 -0.7311
  615MPD2    H7 9121   2.267   0.536  15.948 -0.6703 -2.1551 -0.3091
  616TMC3    C1 9122   2.364   0.731  16.042  0.6084  0.9523  0.1507
  616TMC3    C2 9123   2.434   0.843  16.075 -0.3353 -0.2567 -0.1261
  616TMC3    C3 9124   2.359   0.949  16.101  0.5573  0.1622 -0.2821
  616TMC3    C4 9125   2.228   0.729  16.022 -0.1857  0.3208  0.0824
  616TMC3    C5 9126   2.157   0.832  16.072  0.1871  0.9050 -0.4270
  616TMC3    C6 9127   2.223   0.953  16.104  0.4346  0.0537 -0.0260
  616TMC3     C 9128   2.447   0.626  15.991 -0.2575  0.5152 -0.3457
  616TMC3     O 9129   2.567   0.636  15.990  0.3673  0.2330  0.2059
  616TMC3     H 9130   2.541   0.840  16.097 -0.4759  0.3151  0.6510
  616TMC3    H1 9131   2.166   0.640  16.013 -0.0233  0.3220 -1.0326
  616TMC3    H2 9132   2.179   1.045  16.140 -0.5169 -0.2148 -0.5068
  616TMC3    C7 9133   2.017   0.822  16.076  0.9083  0.1550  0.0250
  616TMC3    C8 9134   2.429   1.056  16.176 -0.2946  0.0615 -0.2730
  616TMC3    O1 9135   1.982   0.703  16.068  0.3058 -0.1932 -0.7060
  616TMC3    O2 9136   2.360   1.144  16.227  0.2738  0.3148 -0.1546
  617MPD2     C 9137   0.254   3.015  13.850 -0.4403 -0.0466  0.6926
  617MPD2    C1 9138   0.282   2.899  13.932  0.8872  0.0303  0.1493
  617MPD2    C2 9139   0.174   2.830  13.995 -0.2408  0.6095 -0.1674
  617MPD2    C3 9140   0.045   2.875  13.971  0.2846 -0.2515  0.3693
  617MPD2    C4 9141   0.022   2.977  13.880 -0.1580  0.6483  0.4400
  617MPD2    C5 9142   0.125   3.050  13.826  0.1710 -0.5416 -0.4091
  617MPD2     H 9143   0.192   2.738  14.048  2.0548  1.7044  0.9801
  617MPD2    H1 9144   4.644   3.001  13.856  0.1244  0.4783 -0.9882
  617MPD2    H2 9145   0.334   3.072  13.804 -1.7593  1.8723  0.7983
  617MPD2    H3 9146   0.109   3.137  13.763  1.1757  0.4692  0.7383
  617MPD2     N 9147   4.654   2.808  14.020 -0.2196  0.0787  0.1831
  617MPD2    H5 9148   4.566   2.837  13.979  1.0609  2.2444 -1.0438
  617MPD2    N1 9149   0.415   2.849  13.937  0.1861  0.3258 -0.4336
  617MPD2    H7 9150   0.486   2.889  13.877  0.1427  0.7779 -0.1804
  618TMC3    C1 9151   0.614   2.733  14.005 -0.1986  0.0699  0.1254
  618TMC3    C2 9152   0.674   2.630  14.075  0.0770  0.1938 -0.6091
  618TMC3    C3 9153   0.810   2.617  14.061 -0.0876 -0.2465 -0.1134
  618TMC3    C4 9154   0.689   2.815  13.920  0.8383  0.2689  0.2380
  618TMC3    C5 9155   0.819   2.794  13.901 -0.2811 -0.7816  0.1071
  618TMC3    C6 9156   0.881   2.700  13.977  0.3383  0.1214  0.1513
  618TMC3     C 9157   0.467   2.754  14.025  0.0377  0.2735 -0.1897
  618TMC3     O 9158   0.408   2.693  14.116  0.0437 -0.0436 -0.1881
  618TMC3     H 9159   0.613   2.566  14.139  0.2142  0.5470 -0.1207
  618TMC3    H1 9160   0.654   2.896  13.858 -1.4410 -0.4475  0.5724
  618TMC3    H2 9161   0.983   2.678  13.949 -0.0946 -0.0166 -1.3119
  618TMC3    C7 9162   0.852   2.783  13.758  0.6454 -0.3463  0.5108
  618TMC3    C8 9163   0.841   2.477  14.046 -0.1996 -0.4679  0.1474
  618TMC3    O1 9164   0.967   2.792  13.729  0.1294  0.0250 -0.0253
  618TMC3    O2 9165   0.797   2.399  14.126 -0.6741  0.6304 -0.0472
  619MPD2     C 9166   0.950   4.001  12.901  0.0007 -0.1260  0.3111
  619MPD2    C1 9167   0.934   4.120  12.977  0.4229  0.5101  0.3221
  619MPD2    C2 9168   0.900   4.109  13.113 -0.5345 -0.0139 -0.2232
  619MPD2    C3 9169   0.873   3.983  13.165 -0.1857 -0.3163 -0.1706
  619MPD2    C4 9170   0.899   3.871  13.091 -0.2740  0.3937 -0.1693
  619MPD2    C5 9171   0.936   3.884  12.965 -0.0673 -0.9084 -0.3391
  619MPD2     H 9172   0.882   4.200  13.170  0.5615  1.3979 -2.1130
  619MPD2    H1 9173   0.889   3.769  13.127 -0.2671  1.0314  1.6038
  619MPD2    H2 9174   0.985   3.988  12.799  0.6318 -0.4812  0.5671
  619MPD2    H3 9175   0.954   3.798  12.901 -2.7676 -0.3101 -1.9010
  619MPD2     N 9176   0.810   3.960  13.295 -0.1109  0.7877 -0.1970
  619MPD2    H5 9177   0.786   3.868  13.329 -0.7644 -0.6924 -4.7783
  619MPD2    N1 9178   0.944   4.246  12.918  0.0365 -0.6408  0.5937
  619MPD2    H7 9179   0.935   4.321  12.986 -0.7091 -0.7425  0.6094
  620TMC3    C1 9180   0.962   4.417  12.757  0.1706  0.2257  0.5810
  620TMC3    C2 9181   0.839   4.474  12.790  0.1655  0.7218 -0.4660
  620TMC3    C3 9182   0.831   4.598  12.833  0.4705 -0.3415 -0.2251
  620TMC3    C4 9183   1.078   4.483  12.762 -0.5173 -0.2177  0.5370
  620TMC3    C5 9184   1.059   4.611  12.807  0.1548 -0.5050 -0.2337
  620TMC3    C6 9185   0.943   4.672  12.842 -0.0374  0.1972 -0.7293
  620TMC3     C 9186   0.967   4.274  12.782 -0.3731  0.0651  0.3706
  620TMC3     O 9187   1.006   4.197  12.698 -0.3007 -0.1730 -0.3713
  620TMC3     H 9188   0.752   4.412  12.806  0.4391  0.2834 -0.6621
  620TMC3    H1 9189   1.175   4.434  12.764  0.0965  1.0675  2.1214
  620TMC3    H2 9190   0.944   0.034  12.905 -2.8050 -1.5007  1.6793
  620TMC3    C7 9191   1.179   4.687  12.832 -0.3944  0.2787  0.2414
  620TMC3    C8 9192   0.721   4.624  12.931  0.1105  0.0028 -0.1453
  620TMC3    O1 9193   1.283   4.643  12.786 -0.1733  0.5817 -0.2615
  620TMC3    O2 9194   0.615   4.566  12.902 -0.3739 -0.5586 -0.4641
  621MPD2     C 9195   1.854   3.906  10.154  0.3240  0.2113  0.0957
  621MPD2    C1 9196   1.867   4.014  10.073 -0.3020  0.2530 -0.3273
  621MPD2    C2 9197   1.987   4.081  10.092 -0.3075 -0.2832 -0.1195
  621MPD2    C3 9198   2.094   4.037  10.162 -0.1483 -0.3975 -0.2998
  621MPD2    C4 9199   2.089   3.919  10.221 -0.3287 -0.3545 -0.4138
  621MPD2    C5 9200   1.964   3.859  10.225  0.0875  0.5560 -1.1790
  621MPD2     H 9201   1.988   4.179  10.046 -3.3848 -0.2852 -0.2306
  621MPD2    H1 9202   2.176   3.871  10.265 -0.3962 -0.7099 -0.6662
  621MPD2    H2 9203   1.760   3.852  10.160  0.4625 -0.0663 -0.2740
  621MPD2    H3 9204   1.970   3.768  10.284  1.5667  2.1106  1.0826
  621MPD2     N 9205   2.200   4.124  10.159  0.3103  0.0449 -0.6682
  621MPD2    H5 9206   2.185   4.205  10.101  3.5081  0.3576 -1.0405
  621MPD2    N1 9207   1.758   4.081  10.014  0.4076  0.0790 -0.0809
  621MPD2    H7 9208   1.764   4.171   9.967 -0.2174 -0.9557 -2.1333
  622TMC3    C1 9209   1.532   4.117   9.945 -0.3275  0.0231 -0.1150
  622TMC3    C2 9210   1.444   4.152  10.048  0.2877 -0.2548  0.0756
  622TMC3    C3 9211   1.438   4.284  10.095 -0.2657  0.0201 -0.1443
  622TMC3    C4 9212   1.590   4.208   9.868  0.0278 -0.6481 -0.4247
  622TMC3    C5 9213   1.587   4.338   9.918  0.0321  0.8649  0.2330
  622TMC3    C6 9214   1.514   4.377  10.026 -0.2415 -0.6479  0.0668
  622TMC3     C 9215   1.629   4.025  10.006 -0.7524 -0.1628  0.7710
  622TMC3     O 9216   1.582   3.926  10.063  0.1410 -0.1336  0.6296
  622TMC3     H 9217   1.399   4.080  10.116 -0.0043 -0.7766 -0.6771
  622TMC3    H1 9218   1.654   4.184   9.784  0.3962 -1.3165  0.0417
  622TMC3    H2 9219   1.508   4.481  10.055  0.4130 -1.1030  1.8557
  622TMC3    C7 9220   1.684   4.433   9.868  0.3520 -0.1303  0.4959
  622TMC3    C8 9221   1.310   4.313  10.147  0.8656  0.2995  0.2831
  622TMC3    O1 9222   1.730   4.506   9.953  0.1611 -0.2089 -0.0893
  622TMC3    O2 9223   1.275   4.248  10.244 -0.1177 -0.4313 -0.3895
  623MPD2     C 9224   0.314   0.005  15.979 -0.3212 -0.1575  0.7309
  623MPD2    C1 9225   0.299   0.093  16.081 -0.1245  0.6545 -0.5762
  623MPD2    C2 9226   0.385   0.110  16.181 -0.0394 -0.0488  0.4297
  623MPD2    C3 9227   0.505   0.044  16.178  0.5560 -0.4134 -0.0883
  623MPD2    C4 9228   0.528   4.685  16.069  0.3276  0.3353  0.5113
  623MPD2    C5 9229   0.427   4.661  15.980 -0.2474  0.3919  0.0869
  623MPD2     H 9230   0.364   0.176  16.264 -2.1886  0.4911 -0.5625
  623MPD2    H1 9231   0.619   4.628  16.054  0.4266  0.5925  0.1070
  623MPD2    H2 9232   0.248   4.712  15.895  0.1951 -1.4835  0.6115
  623MPD2    H3 9233   0.457   4.598  15.897  0.9148  0.4400  0.4736
  623MPD2     N 9234   0.594   0.062  16.282  0.2340 -0.4748  0.2218
  623MPD2    H5 9235   0.563   0.116  16.363 -1.5961 -1.2983  0.0826
  623MPD2    N1 9236   0.194   0.189  16.084  0.2940  0.1583 -0.0087
  623MPD2    H7 9237   0.210   0.260  16.154 -0.1400  1.1334 -0.8905
  624TMC3    C1 9238   0.938   0.293  16.434 -0.1843 -0.3431  0.1829
  624TMC3    C2 9239   0.875   0.325  16.551 -1.1899 -0.5270 -0.6969
  624TMC3    C3 9240   0.757   0.250  16.576  0.6554  0.1017  0.2673
  624TMC3    C4 9241   0.901   0.185  16.357  0.1362  0.1443 -0.1587
  624TMC3    C5 9242   0.786   0.113  16.394 -0.4920  0.2891 -0.3116
  624TMC3    C6 9243   0.712   0.149  16.497  0.3371 -0.1001 -0.9349
  624TMC3     C 9244   1.064   0.364  16.419  0.0078 -0.1436 -0.5802
  624TMC3     O 9245   1.106   0.439  16.507  0.3396  0.5745  0.3278
  624TMC3     H 9246   0.904   0.408  16.614  0.2070 -1.7268  0.2574
  624TMC3    H1 9247   0.970   0.139  16.287  0.4303  1.6119 -0.8211
  624TMC3    H2 9248   0.620   0.102  16.530  0.2108 -0.2242 -1.4676
  624TMC3    C7 9249   0.728   0.029  16.283  0.6042 -0.2065 -0.0208
  624TMC3    C8 9250   0.647   0.305  16.656 -0.5148  0.3496  0.6058
  624TMC3    O1 9251   0.805   4.711  16.198  0.1729 -0.5412 -0.0522
  624TMC3    O2 9252   0.556   0.232  16.697 -0.1653 -0.2369 -0.5175
  625MPD2     C 9253   1.065   1.505   0.756  0.7051 -0.4193  0.0872
  625MPD2    C1 9254   1.080   1.642   0.768  0.3839  0.2456 -0.3145
  625MPD2    C2 9255   1.204   1.684   0.785 -0.3308 -0.1055 -0.5542
  625MPD2    C3 9256   1.314   1.604   0.807 -0.4578 -0.0051 -0.1916
  625MPD2    C4 9257   1.295   1.472   0.808  0.2583  1.0661 -0.7658
  625MPD2    C5 9258   1.169   1.422   0.773 -0.6577  0.1544  0.0581
  625MPD2     H 9259   1.215   1.792   0.791 -0.6914 -0.1881  1.5136
  625MPD2    H1 9260   1.379   1.403   0.810  0.1082  0.8590 -1.4976
  625MPD2    H2 9261   0.971   1.459   0.727 -1.2913  2.5462  1.8439
  625MPD2    H3 9262   1.140   1.318   0.767  0.0497 -0.0722  0.6301
  625MPD2     N 9263   1.437   1.665   0.836  0.2121  0.2702 -0.2476
  625MPD2    H5 9264   1.433   1.762   0.806  0.7476  0.9940  1.9740
  625MPD2    N1 9265   0.989   1.749   0.763  0.6978  0.3687 -0.3893
  625MPD2    H7 9266   1.025   1.843   0.777  0.6293  0.2294  0.7161
  626TMC3    C1 9267   0.802   1.864   0.753 -0.1965 -0.1993 -0.4927
  626TMC3    C2 9268   0.716   1.909   0.663 -0.0215 -0.4615 -0.8065
  626TMC3    C3 9269   0.679   2.042   0.669 -0.8161 -0.3572  0.3006
  626TMC3    C4 9270   0.847   1.945   0.856 -0.3115 -0.6686  0.2694
  626TMC3    C5 9271   0.814   2.083   0.851  0.0150  0.6506 -0.7359
  626TMC3    C6 9272   0.733   2.139   0.754  0.3863 -0.5609  0.4961
  626TMC3     C 9273   0.857   1.732   0.741  0.5999 -0.2166 -0.0136
  626TMC3     O 9274   0.784   1.643   0.698 -0.2381  0.4044 -0.5383
  626TMC3     H 9275   0.677   1.848   0.583 -0.1979 -3.3966  1.5326
  626TMC3    H1 9276   0.907   1.909   0.939  0.8507 -0.7701 -0.6194
  626TMC3    H2 9277   0.724   2.247   0.748  0.1263 -0.5918  0.3241
  626TMC3    C7 9278   0.870   2.158   0.961 -0.1374 -0.5222 -0.5177
  626TMC3    C8 9279   0.584   2.081   0.567 -0.0081  0.5403 -0.1061
  626TMC3    O1 9280   0.974   2.111   1.012 -0.1347  0.3308 -0.2927
  626TMC3    O2 9281   0.565   2.005   0.471 -0.0121 -0.0937 -0.3510
  627MPD2     C 9282   4.618   1.724  14.766 -0.1369 -0.4971 -0.0620
  627MPD2    C1 9283   4.538   1.817  14.708 -0.2052 -0.1355  0.0445
  627MPD2    C2 9284   4.444   1.777  14.620  0.1736  0.6134  0.2676
  627MPD2    C3 9285   4.425   1.644  14.583 -0.0653  1.0942  0.3330
  627MPD2    C4 9286   4.494   1.551  14.653  0.5106 -0.5826 -0.2244
  627MPD2    C5 9287   4.593   1.598  14.738 -0.0666  0.5970 -0.3123
  627MPD2     H 9288   4.385   1.855  14.573 -0.7913 -0.2475  0.0331
  627MPD2    H1 9289   4.481   1.444  14.660 -0.1282 -0.5366 -0.7051
  627MPD2    H2 9290   4.683   1.735  14.852 -0.9801 -0.4150  0.5703
  627MPD2    H3 9291   4.638   1.513  14.789  0.6992  1.8791  1.1544
  627MPD2     N 9292   4.330   1.607  14.481 -0.1278 -0.4494  0.8152
  627MPD2    H5 9293   4.285   1.681  14.428  1.9645 -0.7690 -1.4252
  627MPD2    N1 9294   4.535   1.953  14.752 -0.1959 -0.1268  0.2564
  627MPD2    H7 9295   4.452   2.001  14.718  1.6806  1.6734 -1.7497
  628TMC3    C1 9296   4.569   2.119  14.904  0.5261 -0.2193  0.6028
  628TMC3    C2 9297   4.651   2.156  15.006 -0.4000  0.4911 -0.0570
  628TMC3    C3 9298   4.597   2.231  15.101 -0.1561 -0.9148  0.3675
  628TMC3    C4 9299   4.435   2.154  14.898  0.0280  0.9643 -0.4380
  628TMC3    C5 9300   4.384   2.227  15.005  0.2388  0.0817  0.0370
  628TMC3    C6 9301   4.466   2.262  15.106  0.0293  0.1001  0.2200
  628TMC3     C 9302   4.625   2.007  14.831  0.7249  0.4709 -0.5291
  628TMC3     O 9303   0.006   1.960  14.863 -0.6123  0.2283  0.2824
  628TMC3     H 9304   0.033   2.139  15.007 -0.2402  1.5407  0.6853
  628TMC3    H1 9305   4.369   2.115  14.822 -0.1626 -2.3114  1.3944
  628TMC3    H2 9306   4.429   2.340  15.171  0.3791  0.7728 -0.3884
  628TMC3    C7 9307   4.274   2.317  14.978 -0.0663 -0.3194  0.1401
  628TMC3    C8 9308   4.683   2.282  15.212 -0.6526 -1.0147  0.3279
  628TMC3    O1 9309   4.226   2.384  15.067  0.3321 -0.3957  0.6444
  628TMC3    O2 9310   4.639   2.376  15.277  0.6372 -0.6104  1.1381
  629MPD2     C 9311   2.852   1.302  16.341 -0.1768  0.2056  0.0069
  629MPD2    C1 9312   2.885   1.211  16.239  0.3223  0.4205 -0.0736
  629MPD2    C2 9313   2.785   1.125  16.189  0.0524  0.4551 -0.1886
  629MPD2    C3 9314   2.656   1.137  16.234  0.1871  0.3981 -0.5559
  629MPD2    C4 9315   2.625   1.234  16.333  1.0837 -0.3064 -0.2398
  629MPD2    C5 9316   2.724   1.317  16.384 -0.2544 -0.2912 -0.1801
  629MPD2     H 9317   2.805   1.062  16.104  0.8535 -0.4025  0.6355
  629MPD2    H1 9318   2.529   1.247  16.382  0.4824  0.7796 -1.7020
  629MPD2    H2 9319   2.937   1.358  16.378  0.6027 -0.3522 -0.9060
  629MPD2    H3 9320   2.704   1.386  16.465 -0.6517  0.1783 -0.6831
  629MPD2     N 9321   2.565   1.053  16.168  0.4395  0.0811  0.1404
  629MPD2    H5 9322   2.602   0.981  16.107 -0.9656  0.7526 -1.4880
  629MPD2    N1 9323   3.019   1.210  16.188  0.0638  0.5330  0.6716
  629MPD2    H7 9324   3.076   1.282  16.231 -1.1545  0.5241  2.2959
  630TMC3    C1 9325   3.215   1.128  16.090 -0.2149  0.7177 -1.0704
  630TMC3    C2 9326   3.272   1.250  16.081 -0.4757 -0.0581  0.0129
  630TMC3    C3 9327   3.396   1.251  16.131  0.5125 -0.0654 -0.3431
  630TMC3    C4 9328   3.282   1.011  16.110  0.1925 -0.5324  0.9129
  630TMC3    C5 9329   3.411   1.013  16.162  0.2008  0.3877 -0.1323
  630TMC3    C6 9330   3.464   1.138  16.177  0.4370  0.3614 -0.1237
  630TMC3     C 9331   3.069   1.112  16.108 -0.1745  0.2902  0.3652
  630TMC3     O 9332   3.017   1.005  16.092  0.5063  0.2583 -0.1504
  630TMC3     H 9333   3.214   1.337  16.051 -1.2984 -0.2608  1.0366
  630TMC3    H1 9334   3.221   0.922  16.113  1.0687 -1.0957  2.4630
  630TMC3    H2 9335   3.563   1.145  16.221  0.1485 -1.9764  0.8918
  630TMC3    C7 9336   3.430   0.924  16.276 -1.1175  0.1028 -0.2598
  630TMC3    C8 9337   3.459   1.378  16.159 -0.4144 -0.5720 -0.1159
  630TMC3    O1 9338   3.392   0.812  16.261 -0.1995  0.8966  0.1613
  630TMC3    O2 9339   3.555   1.372  16.230 -0.2520 -0.0192 -0.0321
  631MPD2     C 9340   1.415   0.024  15.323  0.4785 -0.1415  0.0760
  631MPD2    C1 9341   1.458   0.111  15.229  0.8416 -0.3387  0.5107
  631MPD2    C2 9342   1.586   0.124  15.192  0.0833  0.2700  0.0644
  631MPD2    C3 9343   1.682   0.054  15.248  0.1031 -0.1759  0.1595
  631MPD2    C4 9344   1.652   4.702  15.358 -0.2191 -0.4731 -1.2363
  631MPD2    C5 9345   1.514   4.668  15.388 -0.1515 -0.9661 -0.0076
  631MPD2     H 9346   1.624   0.189  15.114  1.3122  0.2570  0.6380
  631MPD2    H1 9347   1.733   4.644  15.401 -1.0705 -0.6885  0.0803
  631MPD2    H2 9348   1.309   0.003  15.331  0.4136 -0.4365 -1.5527
  631MPD2    H3 9349   1.484   4.587  15.453  0.5819 -2.6497 -1.7419
  631MPD2     N 9350   1.813   0.072  15.198  0.3380  0.5287  1.1325
  631MPD2    H5 9351   1.829   0.152  15.137 -0.0744 -0.2507 -0.0076
  631MPD2    N1 9352   1.353   0.178  15.160 -0.1234  0.2488 -0.2360
  631MPD2    H7 9353   1.257   0.148  15.166 -0.1894  0.1777 -1.6298
  632TMC3    C1 9354   1.263   0.335  15.007 -0.7082 -0.4936  0.4434
  632TMC3    C2 9355   1.132   0.324  15.057 -0.4103 -0.3229  0.3314
  632TMC3    C3 9356   1.029   0.380  14.977  0.3179  0.1708  0.3542
  632TMC3    C4 9357   1.296   0.407  14.897  0.1513  0.2142  0.4529
  632TMC3    C5 9358   1.186   0.461  14.827  0.1819 -0.1335  0.2622
  632TMC3    C6 9359   1.056   0.452  14.862 -0.4206  0.0828 -0.0805
  632TMC3     C 9360   1.380   0.282  15.069 -0.2573  0.0944  0.4728
  632TMC3     O 9361   1.486   0.334  15.026 -0.2648 -0.5685 -0.5258
  632TMC3     H 9362   1.122   0.284  15.157 -1.5238 -0.4639  0.1631
  632TMC3    H1 9363   1.387   0.401  14.838 -1.6237  0.1971 -2.2953
  632TMC3    H2 9364   0.986   0.509  14.802 -0.6874  1.0328  1.1462
  632TMC3    C7 9365   1.212   0.506  14.690  0.2562  0.0189  0.4932
  632TMC3    C8 9366   0.904   0.418  15.049 -0.0734  0.0548  0.4816
  632TMC3    O1 9367   1.134   0.480  14.599 -0.8189  0.2958  0.3276
  632TMC3    O2 9368   0.900   0.390  15.165 -0.4467  0.2529 -0.4660
  633MPD2     C 9369   0.558   2.982  17.349 -0.3506  0.0409 -0.3416
  633MPD2    C1 9370   0.584   2.922  17.227 -0.7175 -0.0522 -0.5724
  633MPD2    C2 9371   0.592   2.787  17.212 -0.2068  0.4886 -0.0533
  633MPD2    C3 9372   0.594   2.712  17.326 -0.7905 -0.2648 -0.0266
  633MPD2    C4 9373   0.585   2.773  17.450 -0.4952 -0.7714 -0.1690
  633MPD2    C5 9374   0.554   2.905  17.464  0.3807  0.5074  0.0931
  633MPD2     H 9375   0.594   2.752  17.110 -1.2406 -1.2877  0.5462
  633MPD2    H1 9376   0.587   2.718  17.543  0.0429 -0.0763  0.2308
  633MPD2    H2 9377   0.540   3.089  17.350  0.4199  0.1612  0.3398
  633MPD2    H3 9378   0.529   2.942  17.563 -0.8633 -0.6159  0.1965
  633MPD2     N 9379   0.616   2.575  17.314  0.3463  0.4497  0.5882
  633MPD2    H5 9380   0.650   2.535  17.401 -1.2204  0.5692  1.2653
  633MPD2    N1 9381   0.597   2.991  17.109  0.2751 -0.2612  0.3534
  633MPD2    H7 9382   0.612   2.941  17.022  0.8878  1.0971 -0.3197
  634TMC3    C1 9383   0.615   3.169  16.958 -0.1657 -0.3318  0.7143
  634TMC3    C2 9384   0.580   3.088  16.856  0.0027  0.0447 -0.0990
  634TMC3    C3 9385   0.591   3.143  16.732 -0.2898 -0.1373  0.0266
  634TMC3    C4 9386   0.654   3.301  16.936 -0.3354  0.0333  0.2408
  634TMC3    C5 9387   0.659   3.352  16.813 -0.2267 -0.2144  0.0985
  634TMC3    C6 9388   0.624   3.272  16.704 -0.9508  0.1844  0.8510
  634TMC3     C 9389   0.582   3.125  17.092  0.9714  0.1198 -0.1952
  634TMC3     O 9390   0.514   3.207  17.152  0.4297  0.2220  0.0387
  634TMC3     H 9391   0.557   2.982  16.864  1.2012 -0.2146 -0.0997
  634TMC3    H1 9392   0.700   3.358  17.017 -1.0219  0.6775  0.1836
  634TMC3    H2 9393   0.625   3.307  16.601 -1.6232 -0.2406  0.6987
  634TMC3    C7 9394   0.657   3.495  16.787 -0.2782 -0.0154 -0.3414
  634TMC3    C8 9395   0.615   3.047  16.630  0.5272  0.0529 -0.1765
  634TMC3    O1 9396   0.684   3.526  16.671 -0.2898 -0.1636 -0.5122
  634TMC3    O2 9397   0.647   2.935  16.665  0.2902 -0.1140 -0.4115
  635TMC3    C1 9398   1.811   4.712  16.792 -0.3883 -0.2813  0.7215
  635TMC3    C2 9399   1.821   4.590  16.726  0.7961 -0.4936 -0.5975
  635TMC3    C3 9400   1.946   4.579  16.663  0.0494  0.2921  0.1854
  635TMC3    C4 9401   1.901   0.091  16.785  0.3764  0.5102  0.1295
  635TMC3    C5 9402   2.016   0.072  16.716  0.9194 -0.2725 -0.3948
  635TMC3    C6 9403   2.042   4.681  16.655  0.0333 -0.2037 -0.4017
  635TMC3     C 9404   1.692   0.005  16.871  0.0877 -0.0488 -0.2300
  635TMC3     O 9405   1.688   0.084  16.963 -0.5255 -0.5532  0.9774
  635TMC3     H 9406   1.757   4.508  16.754 -1.1363  1.1961 -0.0521
  635TMC3    H1 9407   1.877   0.179  16.844  2.7306  1.3839 -0.2042
  635TMC3    H2 9408   2.128   4.656  16.593  1.3848 -0.5683  1.6152
  635TMC3    C7 9409   2.116   0.182  16.720 -0.2501  0.3837 -0.1240
  635TMC3    C8 9410   1.977   4.446  16.617  0.5857  0.6625 -0.1026
  635TMC3    O1 9411   2.079   0.293  16.751 -0.5656 -0.0520 -0.2057
  635TMC3    O2 9412   1.880   4.375  16.607 -1.0063  0.1240 -0.1187
  636MPD2     C 9413   2.267   3.677  16.096 -0.3301 -0.6550 -0.2061
  636MPD2    C1 9414   2.296   3.810  16.117  0.5654 -0.4606  0.0369
  636MPD2    C2 9415   2.420   3.842  16.171  0.5339 -0.3189 -0.1973
  636MPD2    C3 9416   2.507   3.744  16.215  0.4205  0.0059 -0.1746
  636MPD2    C4 9417   2.471   3.610  16.193  0.9349  0.7258  0.0675
  636MPD2    C5 9418   2.353   3.573  16.138  0.3917  0.3969 -0.1975
  636MPD2     H 9419   2.453   3.945  16.178 -0.6324  0.3933 -5.3276
  636MPD2    H1 9420   2.538   3.528  16.214 -0.9153 -0.4511  1.4875
  636MPD2    H2 9421   2.165   3.647  16.072  0.0107 -2.4057  0.4723
  636MPD2    H3 9422   2.329   3.468  16.141 -1.8858  0.9171 -0.4423
  636MPD2     N 9423   2.626   3.778  16.271  0.1890 -0.2783 -0.3926
  636MPD2    H5 9424   2.646   3.878  16.274 -0.5716 -0.0863 -1.4414
  636MPD2    N1 9425   2.206   3.916  16.085 -0.2287 -0.5016  0.2720
  636MPD2    H7 9426   2.249   4.004  16.111 -0.1019 -0.4478 -0.1103
  637TMC3    C1 9427   2.845   3.773  16.351  0.6745 -0.4013  0.4594
  637TMC3    C2 9428   2.815   3.908  16.374  0.3888 -0.1055  0.7675
  637TMC3    C3 9429   2.882   4.010  16.312  0.3285 -0.3936  0.7867
  637TMC3    C4 9430   2.962   3.742  16.278 -0.3310 -0.3194  0.3458
  637TMC3    C5 9431   3.029   3.844  16.216  0.7532  0.3069 -0.4034
  637TMC3    C6 9432   2.992   3.982  16.240  0.1627 -0.0003 -1.0110
  637TMC3     C 9433   2.727   3.695  16.321  0.8540 -0.2346  0.1130
  637TMC3     O 9434   2.746   3.577  16.334 -0.4197 -0.2287 -0.0500
  637TMC3     H 9435   2.717   3.926  16.419 -0.6470 -0.6569 -1.2871
  637TMC3    H1 9436   2.999   3.640  16.277 -0.8676 -0.5043 -0.6106
  637TMC3    H2 9437   3.049   4.060  16.192  1.1001  0.7299  1.2801
  637TMC3    C7 9438   3.025   3.812  16.079 -0.3319 -0.3471 -0.3970
  637TMC3    C8 9439   2.789   4.102  16.238  0.5817  0.0865  0.4199
  637TMC3    O1 9440   3.046   3.694  16.047  0.3241  0.0735  0.1088
  637TMC3    O2 9441   2.674   4.064  16.237  0.0360 -0.2976 -0.1615
  638MPD2     C 9442   2.103   2.369  14.962 -0.5657  0.0474  0.5693
  638MPD2    C1 9443   2.077   2.263  14.877  0.1723 -0.4848  0.1891
  638MPD2    C2 9444   2.007   2.150  14.928 -0.1169 -0.3019 -0.4769
  638MPD2    C3 9445   1.956   2.157  15.056 -0.1531 -0.5780 -0.5858
  638MPD2    C4 9446   1.981   2.267  15.135 -0.1089 -0.2918 -0.0854
  638MPD2    C5 9447   2.060   2.371  15.089 -0.8155  0.5439 -0.4599
  638MPD2     H 9448   1.990   2.058  14.873  2.8978 -2.5918  2.4534
  638MPD2    H1 9449   1.938   2.283  15.234  0.0134 -1.7001  0.1887
  638MPD2    H2 9450   2.161   2.457  14.937  0.6833 -1.5579 -2.1259
  638MPD2    H3 9451   2.070   2.465  15.143  0.0509  0.9124 -1.2572
  638MPD2     N 9452   1.885   2.038  15.105  0.3489 -0.3527 -0.0052
  638MPD2    H5 9453   1.878   1.960  15.040  2.4113  0.1900 -0.8885
  638MPD2    N1 9454   2.122   2.273  14.743 -0.4258  0.0109  0.2077
  638MPD2    H7 9455   2.177   2.356  14.724 -1.5520  0.9515  0.9806
  639TMC3    C1 9456   1.776   1.879  15.242 -0.3185 -0.3409  0.3687
  639TMC3    C2 9457   1.734   1.819  15.126 -0.0141  0.4759  0.1917
  639TMC3    C3 9458   1.673   1.704  15.145  0.3833 -0.4935 -0.5749
  639TMC3    C4 9459   1.785   1.814  15.358  0.0467  0.8970  0.4376
  639TMC3    C5 9460   1.738   1.688  15.366  0.0796 -0.0301 -0.2090
  639TMC3    C6 9461   1.673   1.636  15.259 -1.2214  0.5692 -0.4097
  639TMC3     C 9462   1.839   2.010  15.233  0.1752 -0.5853  0.3408
  639TMC3     O 9463   1.861   2.061  15.341  0.0417  0.7223  0.5264
  639TMC3     H 9464   1.705   1.871  15.035 -0.9048  3.0245  1.9238
  639TMC3    H1 9465   1.821   1.862  15.448  1.0145 -0.9473  1.0539
  639TMC3    H2 9466   1.634   1.536  15.272 -2.3761  0.9961 -0.5935
  639TMC3    C7 9467   1.844   1.598  15.412  0.1145  0.6612  0.4277
  639TMC3    C8 9468   1.605   1.654  15.027 -0.1460  0.9945  0.7432
  639TMC3    O1 9469   1.813   1.480  15.429  0.0149 -0.4553  0.1449
  639TMC3    O2 9470   1.662   1.654  14.918  0.0943  0.1467 -0.3894
  640MPD2     C 9471   2.533   0.895   9.535  0.2346 -0.2465 -0.2966
  640MPD2    C1 9472   2.626   0.992   9.517 -1.0956 -0.0313 -0.2918
  640MPD2    C2 9473   2.575   1.121   9.518  0.6780  0.1743 -0.2305
  640MPD2    C3 9474   2.440   1.154   9.555  0.3227 -1.1544  0.0575
  640MPD2    C4 9475   2.356   1.057   9.589 -0.5138 -0.3247  0.1059
  640MPD2    C5 9476   2.402   0.927   9.577  0.2541 -0.3461 -0.1459
  640MPD2     H 9477   2.646   1.201   9.500 -0.0880  0.8904 -0.0605
  640MPD2    H1 9478   2.255   1.076   9.623 -1.1192 -1.1734 -1.2369
  640MPD2    H2 9479   2.560   0.791   9.520  2.0148  0.1301  0.2932
  640MPD2    H3 9480   2.330   0.848   9.588 -1.6264  1.3153 -0.5200
  640MPD2     N 9481   2.393   1.286   9.541  0.8523  0.0984  0.0784
  640MPD2    H5 9482   2.292   1.290   9.533  0.9130 -2.9101 -2.0397
  640MPD2    N1 9483   2.757   0.952   9.489  1.0059  0.0932 -0.5440
  640MPD2    H7 9484   2.770   0.852   9.490 -1.6291 -0.2137  1.9373
  641TMC3    C1 9485   2.990   0.963   9.461 -0.5136  0.0497 -0.2773
  641TMC3    C2 9486   3.000   0.829   9.476 -0.4369  0.1466 -0.2894
  641TMC3    C3 9487   3.128   0.774   9.475 -0.1886 -0.2756 -0.1836
  641TMC3    C4 9488   3.102   1.037   9.443  0.1019 -0.2528 -0.1950
  641TMC3    C5 9489   3.228   0.984   9.443 -0.6045  0.0668 -0.6681
  641TMC3    C6 9490   3.242   0.848   9.460  0.6177  0.4455  0.0588
  641TMC3     C 9491   2.863   1.036   9.477  0.1961 -0.4449  0.1239
  641TMC3     O 9492   2.863   1.157   9.489 -0.4710  0.1956 -0.2606
  641TMC3     H 9493   2.915   0.764   9.464  0.2174 -0.5316 -1.2810
  641TMC3    H1 9494   3.081   1.143   9.432  0.2578 -0.3597 -1.4898
  641TMC3    H2 9495   3.332   0.795   9.431  0.8423  0.2177  1.1917
  641TMC3    C7 9496   3.341   1.063   9.413 -0.2066 -0.0186 -0.0698
  641TMC3    C8 9497   3.150   0.630   9.496  0.5048  0.1361  0.1773
  641TMC3    O1 9498   3.327   1.172   9.365 -0.2474 -0.4871  0.3557
  641TMC3    O2 9499   3.232   0.569   9.435 -0.6206 -0.0896 -0.3122
  642TMC3    C1 9500   3.749   2.354  11.885 -1.0502  0.2828 -0.4125
  642TMC3    C2 9501   3.869   2.296  11.911 -0.5436 -0.0447 -0.1742
  642TMC3    C3 9502   3.907   2.186  11.838  0.0337 -0.0416  0.0408
  642TMC3    C4 9503   3.675   2.316  11.776 -0.0241  0.6739 -0.1952
  642TMC3    C5 9504   3.715   2.204  11.707 -0.5509  0.1793  0.0663
  642TMC3    C6 9505   3.834   2.139  11.732  0.1385 -1.2689  0.2148
  642TMC3     C 9506   3.662   2.389  11.993  0.1245  0.4603  0.2255
  642TMC3     O 9507   3.544   2.363  11.975  0.0274  0.3687  0.2331
  642TMC3     H 9508   3.925   2.335  11.996  0.3700  0.7381 -1.1440
  642TMC3    H1 9509   3.578   2.364  11.762 -0.5172  0.5261  2.6897
  642TMC3    H2 9510   3.868   2.057  11.671  0.6365 -0.7922 -0.1427
  642TMC3    C7 9511   3.614   2.108  11.697  0.4362 -0.7642 -0.5487
  642TMC3    C8 9512   4.032   2.121  11.858 -0.0379 -0.5286  0.1958
  642TMC3    O1 9513   3.624   2.027  11.603 -0.2265 -0.2327 -0.3842
  642TMC3    O2 9514   4.065   2.041  11.772  0.3637 -0.3797 -0.2889
  643TMC3    C1 9515   2.697   1.489   0.211  0.4209 -0.5547  0.2006
  643TMC3    C2 9516   2.561   1.521   0.187 -0.4332 -0.6737  0.3373
  643TMC3    C3 9517   2.507   1.467   0.074 -0.8087  0.4464 -0.2355
  643TMC3    C4 9518   2.776   1.401   0.132 -0.4300 -0.1322  0.7372
  643TMC3    C5 9519   2.714   1.353   0.015  0.2167  0.2587  0.8314
  643TMC3    C6 9520   2.582   1.382  17.702 -0.3248 -0.6159  0.1481
  643TMC3     C 9521   2.745   1.549   0.334  0.0624  0.0343 -0.3243
  643TMC3     O 9522   2.691   1.656   0.360 -0.1454 -0.0173 -0.4798
  643TMC3     H 9523   2.507   1.575   0.264 -0.6943  1.9447 -1.7027
  643TMC3    H1 9524   2.883   1.406   0.147 -0.3332  2.4542 -0.7908
  643TMC3    H2 9525   2.527   1.328  17.626  0.3008 -0.8891 -0.1114
  643TMC3    C7 9526   2.795   1.361  17.600 -0.9598 -0.3040 -0.4549
  643TMC3    C8 9527   2.417   1.551  17.698  0.3801  0.2694 -0.1410
  643TMC3    O1 9528   2.918   1.380  17.608  0.6000 -0.1125 -0.2319
  643TMC3    O2 9529   2.361   1.488  17.608  0.3896 -0.0716  0.6373
  644MPD2     C 9530   3.207   1.627   9.540  0.7985  0.1500 -0.2070
  644MPD2    C1 9531   3.195   1.493   9.572 -0.2264  0.0960  0.1197
  644MPD2    C2 9532   3.086   1.426   9.520 -0.5739 -1.3034 -0.0723
  644MPD2    C3 9533   2.995   1.494   9.439 -0.4807  0.9066 -0.1794
  644MPD2    C4 9534   3.003   1.629   9.422 -0.8470 -0.1552 -0.3857
  644MPD2    C5 9535   3.108   1.693   9.484  0.1843  0.1072  0.1812
  644MPD2     H 9536   3.080   1.319   9.540  0.7393 -1.7634 -2.1291
  644MPD2    H1 9537   2.933   1.694   9.371 -0.6134 -0.3607 -0.9588
  644MPD2    H2 9538   3.291   1.688   9.573  1.8284 -0.7082 -1.2498
  644MPD2    H3 9539   3.119   1.801   9.476 -1.3205  0.2778  0.4122
  644MPD2     N 9540   2.888   1.420   9.387  0.3586 -0.7053  0.4219
  644MPD2    H5 9541   2.869   1.325   9.418  1.0291 -0.9647  0.0262
  644MPD2    N1 9542   3.308   1.443   9.632 -0.2471 -0.1363  0.1780
  644MPD2    H7 9543   3.378   1.515   9.642 -0.5089 -0.0773  1.6122
  645TMC3    C1 9544   2.720   1.362   9.234 -0.2122  0.3917  0.2274
  645TMC3    C2 9545   2.587   1.373   9.209 -0.6871  0.4127  0.0809
  645TMC3    C3 9546   2.522   1.266   9.166  0.2842  0.2083  0.3446
  645TMC3    C4 9547   2.796   1.253   9.207  0.1317  0.6234  0.7651
  645TMC3    C5 9548   2.722   1.144   9.166 -0.5822 -0.1298  0.5681
  645TMC3    C6 9549   2.587   1.150   9.142  0.2641 -0.2706 -0.8536
  645TMC3     C 9550   2.790   1.466   9.306  0.4864 -0.1968 -0.6990
  645TMC3     O 9551   2.770   1.580   9.260  0.0740 -0.0063 -0.6275
  645TMC3     H 9552   2.527   1.462   9.224  2.0315  2.0634  1.1858
  645TMC3    H1 9553   2.903   1.255   9.221  0.2793  1.1797 -0.4367
  645TMC3    H2 9554   2.533   1.063   9.104  2.7645 -2.8951  1.7206
  645TMC3    C7 9555   2.788   1.016   9.131  0.2786  0.6417 -0.3848
  645TMC3    C8 9556   2.378   1.263   9.191  0.6059 -0.3955 -0.2461
  645TMC3    O1 9557   2.714   0.922   9.115 -0.6144  0.2122  0.0404
  645TMC3    O2 9558   2.309   1.364   9.183 -0.0266 -0.3210  0.1984
  646MPD2     C 9559   2.181   1.021  14.549  0.2870  0.1328  0.2202
  646MPD2    C1 9560   2.088   1.013  14.648 -0.2715 -0.1569  0.5958
  646MPD2    C2 9561   1.962   1.066  14.636  0.5441 -0.0106  0.1196
  646MPD2    C3 9562   1.923   1.119  14.509 -0.3985  0.6839 -0.0681
  646MPD2    C4 9563   2.019   1.129  14.409  0.2437  0.3606 -0.1007
  646MPD2    C5 9564   2.150   1.087  14.425 -0.4212  0.3918  0.4353
  646MPD2     H 9565   1.884   1.063  14.711  1.2356 -1.5797  0.7607
  646MPD2    H1 9566   1.996   1.182  14.317  0.0630  1.7793  0.7611
  646MPD2    H2 9567   2.280   0.976  14.552 -0.4772 -1.4251  1.6751
  646MPD2    H3 9568   2.223   1.096  14.345  2.8085  0.4808  3.4053
  646MPD2     N 9569   1.788   1.150  14.480 -0.0797 -0.5827 -0.3988
  646MPD2    H5 9570   1.728   1.135  14.561 -3.5431  0.2070 -2.8130
  646MPD2    N1 9571   2.138   0.950  14.768 -0.0182  0.2717  0.2235
  646MPD2    H7 9572   2.232   0.912  14.762 -0.3556 -0.6995  1.0002
  647TMC3    C1 9573   2.154   0.828  14.973 -0.6071 -0.2906 -0.3538
  647TMC3    C2 9574   2.171   0.699  14.942 -0.3567 -0.4584 -0.1440
  647TMC3    C3 9575   2.284   0.626  14.966  0.0956 -0.2280  0.1319
  647TMC3    C4 9576   2.260   0.887  15.044  0.1778  0.5232 -0.2182
  647TMC3    C5 9577   2.362   0.803  15.085  0.3722  0.5512  0.0133
  647TMC3    C6 9578   2.376   0.672  15.055  0.3032 -0.2895 -1.0058
  647TMC3     C 9579   2.075   0.915  14.884 -0.3132  0.4041  0.2875
  647TMC3     O 9580   1.963   0.949  14.918 -0.6831 -0.2668  0.3474
  647TMC3     H 9581   2.099   0.666  14.868 -0.8753 -1.6794  0.9193
  647TMC3    H1 9582   2.251   0.989  15.077 -0.5967  0.4918 -0.3174
  647TMC3    H2 9583   2.461   0.610  15.081 -0.1081 -0.8638 -1.0354
  647TMC3    C7 9584   2.483   0.855  15.146  0.9379 -0.1828 -0.3871
  647TMC3    C8 9585   2.293   0.480  14.931  0.4019  0.8381 -0.3987
  647TMC3    O1 9586   2.579   0.789  15.126  0.3717 -0.5888  0.5994
  647TMC3    O2 9587   2.395   0.421  14.975  0.0636 -0.0201 -0.7664
  648TMC3    C1 9588   1.112   3.190  16.122 -0.0831 -0.0256  0.1278
  648TMC3    C2 9589   1.099   3.055  16.089  0.8607  0.0517 -0.1536
  648TMC3    C3 9590   1.027   3.029  15.967  0.3180 -0.5352 -0.0933
  648TMC3    C4 9591   1.050   3.291  16.046  0.1800  0.2491 -0.3019
  648TMC3    C5 9592   0.983   3.254  15.933  0.2860 -0.3530  0.3264
  648TMC3    C6 9593   0.967   3.122  15.895  0.1334  0.2174 -0.4649
  648TMC3     C 9594   1.150   3.220  16.260 -0.0196 -0.6902  0.1547
  648TMC3     O 9595   1.216   3.317  16.286  0.3530  0.1075  0.1702
  648TMC3     H 9596   1.146   2.973  16.142 -2.0881 -2.4059 -1.3264
  648TMC3    H1 9597   1.056   3.393  16.081 -0.8643  0.2583 -0.1531
  648TMC3    H2 9598   0.913   3.099  15.804  0.4074  0.9444 -0.8160
  648TMC3    C7 9599   0.894   3.347  15.868 -0.3625 -0.1106 -0.0077
  648TMC3    C8 9600   1.043   2.895  15.904 -0.3981  0.4092 -0.1264
  648TMC3    O1 9601   0.831   3.297  15.775  0.0875  0.2792 -0.4003
  648TMC3    O2 9602   0.954   2.855  15.826 -0.0602 -0.0676  0.2973
  649TMC3    C1 9603   0.279   4.480  12.413 -0.4856  0.0313  0.5389
  649TMC3    C2 9604   0.385   4.574  12.407 -0.5587 -0.3115 -0.0176
  649TMC3    C3 9605   0.474   4.580  12.508 -0.3168  0.5562  0.5451
  649TMC3    C4 9606   0.276   4.395  12.514 -0.0783  0.7046 -0.0882
  649TMC3    C5 9607   0.358   4.412  12.620  0.1916 -0.0312 -0.1994
  649TMC3    C6 9608   0.465   4.503  12.626 -0.7097 -0.3846  0.7515
  649TMC3     C 9609   0.145   4.519  12.362 -0.3746 -0.3703 -0.4591
  649TMC3     O 9610   0.057   4.497  12.443 -0.0505 -0.5302 -0.5219
  649TMC3     H 9611   0.389   4.646  12.326 -0.2111  0.5066  0.7136
  649TMC3    H1 9612   0.183   4.340  12.529 -0.7759  1.4799 -1.5693
  649TMC3    H2 9613   0.542   4.513  12.702 -1.8098 -0.2446  1.8404
  649TMC3    C7 9614   0.304   4.360  12.738 -0.3854  0.6358  0.1015
  649TMC3    C8 9615   0.598   4.654  12.504 -0.8007  0.1823  0.0249
  649TMC3    O1 9616   0.205   4.288  12.735  0.2220 -0.1353  0.1468
  649TMC3    O2 9617   0.641   4.700  12.609 -0.2678 -0.0291 -0.5123
  650TMC3    C1 9618   3.040   1.206  12.594 -0.1880  0.1025  0.1372
  650TMC3    C2 9619   3.076   1.339  12.602  0.5746 -0.4077  0.3731
  650TMC3    C3 9620   3.029   1.414  12.498 -0.7906 -0.0924  0.5305
  650TMC3    C4 9621   2.960   1.158  12.498 -0.9432 -0.4612  0.1021
  650TMC3    C5 9622   2.904   1.244  12.412  0.0141 -0.0109  0.6151
  650TMC3    C6 9623   2.945   1.375  12.401  0.4626  0.0452 -0.7229
  650TMC3     C 9624   3.131   1.121  12.656 -0.5528 -0.2122  0.3482
  650TMC3     O 9625   3.224   1.184  12.703 -0.6055  0.0019 -0.1511
  650TMC3     H 9626   3.152   1.384  12.665 -0.2442  0.0904  1.0196
  650TMC3    H1 9627   2.948   1.051  12.487  0.4508 -0.5508 -0.6711
  650TMC3    H2 9628   2.908   1.450  12.333  0.8899  0.7749 -0.1524
  650TMC3    C7 9629   2.796   1.198  12.325 -0.6559 -0.9705 -1.1905
  650TMC3    C8 9630   3.044   1.558  12.514 -0.2851 -0.1388 -0.3457
  650TMC3    O1 9631   2.745   1.093  12.365  0.0287  0.6163 -0.0015
  650TMC3    O2 9632   3.049   1.627  12.415 -0.6505  0.5221 -0.5015
  651MPD2     C 9633   2.168   2.684  10.940  0.3189  0.4576  0.0549
  651MPD2    C1 9634   2.135   2.815  10.905  0.3199  0.2656  0.5169
  651MPD2    C2 9635   2.243   2.906  10.887 -0.7949  0.8226  0.4648
  651MPD2    C3 9636   2.373   2.867  10.906 -0.1737  0.5527  0.0111
  651MPD2    C4 9637   2.397   2.743  10.951 -0.0095 -0.1518 -0.2878
  651MPD2    C5 9638   2.295   2.652  10.962 -0.0077  0.1573  0.3389
  651MPD2     H 9639   2.235   3.009  10.854 -0.0996  0.8251  0.3181
  651MPD2    H1 9640   2.498   2.712  10.975  0.6565  0.7265 -1.9523
  651MPD2    H2 9641   2.097   2.603  10.954  1.0218 -0.0931  0.4586
  651MPD2    H3 9642   2.314   2.554  11.004 -0.1519  0.2343  0.5902
  651MPD2     N 9643   2.479   2.957  10.881  1.7011  0.8069 -0.0327
  651MPD2    H5 9644   2.458   3.049  10.843 -1.2378  0.7110  1.3251
  651MPD2    N1 9645   2.007   2.870  10.887  0.3920 -0.6469 -0.4105
  651MPD2    H7 9646   2.004   2.971  10.876 -1.9085 -0.6608  0.1296
  652TMC3    C1 9647   2.895   3.165  10.800  0.0548  0.0693 -0.2282
  652TMC3    C2 9648   2.825   3.042  10.810  0.1879 -0.2584  0.1239
  652TMC3    C3 9649   2.701   3.048  10.868  0.7382  0.4207  0.7006
  652TMC3    C4 9650   2.854   3.278  10.860  0.1314  0.4919 -0.4569
  652TMC3    C5 9651   2.733   3.276  10.925  0.3493  0.1726  0.3345
  652TMC3    C6 9652   2.663   3.158  10.937  0.2625  0.5590 -0.0391
  652TMC3     C 9653   3.036   3.141  10.813  0.0871  0.2507 -0.0172
  652TMC3     O 9654   3.065   3.056  10.894 -0.1033  0.2837  0.2467
  652TMC3     H 9655   2.867   2.956  10.759 -2.4940 -1.4155 -0.1340
  652TMC3    H1 9656   2.914   3.368  10.855 -0.6821  1.0819  0.5626
  652TMC3    H2 9657   2.563   3.162  10.978 -0.0936  2.5058 -1.0629
  652TMC3    C7 9658   2.692   3.384  11.013  0.1993 -0.5993  0.5237
  652TMC3    C8 9659   2.616   2.930  10.875  0.4087  0.4277  0.2631
  652TMC3    O1 9660   2.628   3.346  11.109  0.0506  0.3280 -0.0409
  652TMC3    O2 9661   2.666   2.821  10.868  0.5216  0.1568  0.1244
  653MPD2     C 9662   0.393   3.637   0.103  0.3701 -0.5093  0.3207
  653MPD2    C1 9663   0.419   3.716  17.697  0.3013  0.3691  0.0439
  653MPD2    C2 9664   0.383   3.669  17.574  0.7811  1.1175 -0.0412
  653MPD2    C3 9665   0.325   3.553  17.551  0.4611 -0.0924  1.0274
  653MPD2    C4 9666   0.290   3.478  17.656  0.1976 -0.2996  1.2390
  653MPD2    C5 9667   0.340   3.514   0.078  0.9394 -0.3739 -0.6085
  653MPD2     H 9668   0.418   3.728  17.490 -1.0261  1.8225 -0.3032
  653MPD2    H1 9669   0.256   3.375  17.646  1.7068 -0.8146  1.4083
  653MPD2    H2 9670   0.408   3.660   0.208 -1.0494 -2.2765  0.9225
  653MPD2    H3 9671   0.330   3.439   0.155  1.6156  1.3445  1.1480
  653MPD2     N 9672   0.279   3.527  17.423 -0.0737 -0.3578  0.2453
  653MPD2    H5 9673   0.295   3.597  17.350 -1.1173  0.0397  0.4085
  653MPD2    N1 9674   0.467   3.848   0.003  0.2303  0.4453  0.1823
  653MPD2    H7 9675   0.466   3.903  17.621 -0.5051  0.9144  0.4960
  654TMC3    C1 9676   0.191   3.384  17.248 -0.1772  0.6072 -0.0072
  654TMC3    C2 9677   0.119   3.480  17.184  0.4527 -0.1958  0.3055
  654TMC3    C3 9678   0.076   3.452  17.060 -0.0627 -0.5000 -0.3284
  654TMC3    C4 9679   0.205   3.256  17.198 -0.3258  0.4118 -0.2628
  654TMC3    C5 9680   0.164   3.237  17.068 -0.7031 -0.0093  0.1167
  654TMC3    C6 9681   0.105   3.335  16.996 -0.1375  0.3865  0.1015
  654TMC3     C 9682   0.242   3.401  17.380 -0.4545 -0.0209 -0.3730
  654TMC3     O 9683   0.252   3.296  17.432  0.0607 -0.2362  0.0909
  654TMC3     H 9684   0.098   3.572  17.237 -0.6819 -1.1971  1.6015
  654TMC3    H1 9685   0.273   3.186  17.245 -1.8685 -1.6989 -1.1401
  654TMC3    H2 9686   0.096   3.315  16.889  1.7849 -0.1108  0.0358
  654TMC3    C7 9687   0.211   3.127  16.988 -0.1248 -0.3365  0.4911
  654TMC3    C8 9688   4.676   3.510  17.019  0.2190  0.2688 -0.3607
  654TMC3    O1 9689   0.208   3.126  16.864  0.1660  0.0330 -0.3380
  654TMC3    O2 9690   4.629   3.605  17.077 -0.6485 -0.1232  0.0722
  655MPD2     C 9691   1.762   3.553  15.694  0.2019  0.0457  0.2094
  655MPD2    C1 9692   1.624   3.552  15.677  0.6893 -0.2830 -0.6640
  655MPD2    C2 9693   1.566   3.458  15.593  0.2217  0.1727 -0.3555
  655MPD2    C3 9694   1.648   3.367  15.536  0.6811  0.1359  0.7572
  655MPD2    C4 9695   1.780   3.360  15.558  0.0179 -0.4121 -0.0121
  655MPD2    C5 9696   1.837   3.453  15.647 -0.4412 -0.4304  0.7492
  655MPD2     H 9697   1.460   3.447  15.574 -0.2369  1.4288  1.5575
  655MPD2    H1 9698   1.843   3.283  15.516 -0.8132  0.6468 -3.1364
  655MPD2    H2 9699   1.819   3.620  15.757 -0.4646  2.8410 -2.1772
  655MPD2    H3 9700   1.941   3.445  15.674  0.3170  1.2543 -1.6828
  655MPD2     N 9701   1.605   3.262  15.448  0.1781 -0.0205 -0.0596
  655MPD2    H5 9702   1.663   3.182  15.426  1.1702  0.3902  1.0964
  655MPD2    N1 9703   1.539   3.648  15.731  0.4589  0.4728  0.6929
  655MPD2    H7 9704   1.446   3.655  15.691  0.8474 -2.5216 -0.7635
  656TMC3    C1 9705   1.474   3.819  15.869 -0.2806 -0.0102  0.1310
  656TMC3    C2 9706   1.433   3.820  16.000  0.1379 -0.3020  0.0382
  656TMC3    C3 9707   1.312   3.876  16.037 -0.0808  0.6961  0.6755
  656TMC3    C4 9708   1.393   3.870  15.774 -0.0002 -0.2101  0.7334
  656TMC3    C5 9709   1.273   3.930  15.815 -0.0142  0.0534  0.3562
  656TMC3    C6 9710   1.237   3.937  15.942 -0.8405  0.7926 -0.3701
  656TMC3     C 9711   1.578   3.739  15.826 -0.3489 -0.1373  0.1563
  656TMC3     O 9712   1.676   3.723  15.900  0.1540  0.3052 -0.4306
  656TMC3     H 9713   1.501   3.761  16.061  0.6419  0.5326  0.2901
  656TMC3    H1 9714   1.419   3.859  15.670 -0.5292  0.2390  0.5515
  656TMC3    H2 9715   1.141   3.979  15.971 -1.8767 -0.7335 -1.5605
  656TMC3    C7 9716   1.169   3.948  15.714  0.5305 -0.0788 -0.4760
  656TMC3    C8 9717   1.247   3.809  16.146 -1.1082 -0.5102  0.0079
  656TMC3    O1 9718   1.194   3.903  15.603 -0.1297 -0.3828  0.1085
  656TMC3    O2 9719   1.261   3.686  16.149 -0.2341 -0.0118 -0.1155
  657TMC3    C1 9720   0.945   2.686  14.663  0.5847 -1.0652 -0.0479
  657TMC3    C2 9721   0.823   2.644  14.695 -0.7667  0.5227  0.0659
  657TMC3    C3 9722   0.738   2.730  14.756 -0.2857  0.2606 -0.4216
  657TMC3    C4 9723   0.990   2.806  14.698  0.4261  0.3933  0.0035
  657TMC3    C5 9724   0.904   2.891  14.753 -0.4677 -0.6204  0.1953
  657TMC3    C6 9725   0.776   2.858  14.775 -0.2989 -0.3195 -0.2142
  657TMC3     C 9726   1.030   2.587  14.601  0.4605 -0.0768  0.2577
  657TMC3     O 9727   0.985   2.516  14.516  0.4616  0.0191  0.1647
  657TMC3     H 9728   0.790   2.550  14.653 -1.2383  0.9588 -0.5390
  657TMC3    H1 9729   1.098   2.817  14.702  0.3438  1.0290  0.4330
  657TMC3    H2 9730   0.696   2.926  14.801 -1.3173 -0.6033 -2.5583
  657TMC3    C7 9731   0.950   3.020  14.804  0.0844 -0.7320  0.3131
  657TMC3    C8 9732   0.613   2.684  14.812  0.8131  0.3469  0.2083
  657TMC3    O1 9733   0.868   3.067  14.878 -0.5181 -0.2209 -0.3185
  657TMC3    O2 9734   0.523   2.763  14.819 -0.9429 -0.7964 -0.6252
  658MPD2     C 9735   1.934   2.882  14.943 -0.3347 -0.3845  0.6449
  658MPD2    C1 9736   1.822   2.942  14.905 -0.2215  0.0026  0.1477
  658MPD2    C2 9737   1.803   2.980  14.775  0.2524 -0.0937 -0.4514
  658MPD2    C3 9738   1.897   2.954  14.678 -0.4334  0.3747  0.0126
  658MPD2    C4 9739   2.014   2.892  14.718 -0.4758 -0.9981 -0.2263
  658MPD2    C5 9740   2.034   2.864  14.855  0.8178 -0.4530 -0.2592
  658MPD2     H 9741   1.715   3.035  14.746 -1.0926 -2.6828 -1.2572
  658MPD2    H1 9742   2.096   2.865  14.653 -1.0735 -3.1220 -0.1292
  658MPD2    H2 9743   1.955   2.862  15.048  0.7546 -1.4604  0.2125
  658MPD2    H3 9744   2.129   2.822  14.884  0.6978  0.9711  2.1688
  658MPD2     N 9745   1.870   2.997  14.544  0.3092 -1.2306 -0.1835
  658MPD2    H5 9746   1.778   3.038  14.528 -0.0355 -1.8863  0.1405
  658MPD2    N1 9747   1.731   2.973  15.008 -0.1862 -0.0593 -0.1649
  658MPD2    H7 9748   1.777   2.972  15.098 -2.0574 -0.1571  0.7737
  659TMC3    C1 9749   1.513   3.029  15.106  0.1057  0.3517 -0.5504
  659TMC3    C2 9750   1.561   3.110  15.210 -0.0784 -0.1793 -0.4879
  659TMC3    C3 9751   1.462   3.143  15.303 -0.5163 -0.4259  0.0857
  659TMC3    C4 9752   1.387   2.988  15.089 -0.1304 -0.3489  1.2268
  659TMC3    C5 9753   1.298   3.022  15.180 -0.0805 -0.0163  0.3952
  659TMC3    C6 9754   1.332   3.103  15.290  0.3198 -0.6052  0.2336
  659TMC3     C 9755   1.597   3.011  14.988  0.2933 -0.5167 -0.6402
  659TMC3     O 9756   1.529   3.008  14.887 -0.2546  0.0887 -0.1980
  659TMC3     H 9757   1.663   3.142  15.224 -0.2454 -0.6374  1.7845
  659TMC3    H1 9758   1.350   2.938  15.000  2.2467 -0.7561  0.4918
  659TMC3    H2 9759   1.255   3.136  15.358 -0.6821  0.3819 -1.3748
  659TMC3    C7 9760   1.160   2.967  15.162  0.1064 -0.1349 -0.4190
  659TMC3    C8 9761   1.476   3.256  15.397 -0.4814 -0.5331  0.4620
  659TMC3    O1 9762   1.065   3.023  15.221  0.7045 -0.7205  0.5316
  659TMC3    O2 9763   1.376   3.321  15.409 -0.2828  0.0034 -0.9950
  660MPD2     C 9764   0.029   2.316  12.678  0.4044 -0.1102 -0.0626
  660MPD2    C1 9765   4.630   2.332  12.641 -0.1138 -0.3978 -0.1832
  660MPD2    C2 9766   4.527   2.294  12.727  0.0125  0.8266  0.8480
  660MPD2    C3 9767   4.547   2.233  12.844 -0.0280 -0.4130 -0.3988
  660MPD2    C4 9768   4.677   2.225  12.885  0.7013  0.4219  0.0846
  660MPD2    C5 9769   0.052   2.271  12.803 -0.0174 -0.4589 -0.3701
  660MPD2     H 9770   4.427   2.300  12.685 -0.3496  1.4036  1.7822
  660MPD2    H1 9771   4.713   2.161  12.965  0.7488 -0.9171 -1.0099
  660MPD2    H2 9772   0.115   2.340  12.617  0.7282  0.2466  0.5467
  660MPD2    H3 9773   0.154   2.253  12.832  0.2149  0.1490 -0.8122
  660MPD2     N 9774   4.447   2.156  12.905 -0.4472  0.0959 -0.2326
  660MPD2    H5 9775   4.480   2.114  12.991  2.4345 -0.4325 -1.5786
  660MPD2    N1 9776   4.615   2.386  12.509  0.3960  0.9541  0.4310
  660MPD2    H7 9777   4.700   2.415  12.463  0.0994  0.5986 -0.3501
  661TMC3    C1 9778   4.512   2.412  12.297  0.6081  0.0988  0.1963
  661TMC3    C2 9779   4.623   2.354  12.237 -0.2721  0.4753  0.3865
  661TMC3    C3 9780   4.626   2.358  12.098  0.0202  0.1658  1.0706
  661TMC3    C4 9781   4.405   2.466  12.227  0.0101 -0.4659 -0.1367
  661TMC3    C5 9782   4.408   2.458  12.090 -0.7778  0.3575 -0.1415
  661TMC3    C6 9783   4.517   2.401  12.025 -0.4081 -0.1317 -0.2904
  661TMC3     C 9784   4.495   2.382  12.443  0.1221 -0.0660  0.6795
  661TMC3     O 9785   4.378   2.368  12.484  0.2976  0.3201 -0.3449
  661TMC3     H 9786   4.689   2.290  12.295  0.0961 -2.0225 -2.7723
  661TMC3    H1 9787   4.319   2.499  12.283  0.2542  0.6171 -0.4005
  661TMC3    H2 9788   4.518   2.401  11.917 -2.0928  0.8675 -0.2935
  661TMC3    C7 9789   4.299   2.511  12.012  0.5306 -0.4629 -0.1555
  661TMC3    C8 9790   0.012   2.304  12.022  0.3920  0.0239  0.5597
  661TMC3    O1 9791   4.224   2.590  12.068  0.1848  0.0071 -0.2304
  661TMC3    O2 9792   4.723   2.306  11.901 -0.3348  0.4079  0.4181
  662MPD2     C 9793   0.234   1.978   0.432 -0.0166 -0.0066  0.0370
  662MPD2    C1 9794   0.225   1.967   0.568 -0.1450  0.0849  0.0630
  662MPD2    C2 9795   0.142   2.056   0.625 -0.0542  0.2320  0.2521
  662MPD2    C3 9796   0.084   2.160   0.552 -0.6863  0.4881 -0.1478
  662MPD2    C4 9797   0.084   2.166   0.414  0.6748 -0.5282 -0.2291
  662MPD2    C5 9798   0.169   2.076   0.358  0.2033  0.1279  0.2805
  662MPD2     H 9799   0.145   2.052   0.734 -0.7533 -1.3908  0.2071
  662MPD2    H1 9800   0.047   2.244   0.348 -2.0017 -3.1070 -1.8037
  662MPD2    H2 9801   0.292   1.916   0.365  1.2984 -1.9939  3.0053
  662MPD2    H3 9802   0.174   2.074   0.249 -1.3326  0.6892  0.2035
  662MPD2     N 9803   4.708   2.245   0.607  0.0400 -0.1540  0.0500
  662MPD2    H5 9804   4.656   2.303   0.543  0.0125 -1.1998 -0.8888
  662MPD2    N1 9805   0.283   1.858   0.639 -0.4066 -0.3350  0.1272
  662MPD2    H7 9806   0.283   1.859   0.741  0.9244  1.3120  0.1050
  663TMC3    C1 9807   0.405   1.652   0.665 -0.0114  0.2285  0.2357
  663TMC3    C2 9808   0.439   1.680   0.792 -0.0752 -0.4005  0.2077
  663TMC3    C3 9809   0.473   1.574   0.877  0.4722 -0.1115  0.1866
  663TMC3    C4 9810   0.402   1.520   0.624 -0.1915 -0.0907  0.4473
  663TMC3    C5 9811   0.434   1.419   0.706  0.5515  0.0660 -0.1896
  663TMC3    C6 9812   0.476   1.446   0.830 -0.1542  0.1561 -1.1786
  663TMC3     C 9813   0.345   1.749   0.571  0.8639  0.0416 -0.3350
  663TMC3     O 9814   0.342   1.724   0.451  0.0694 -0.3067  0.3895
  663TMC3     H 9815   0.451   1.785   0.815 -0.3273  0.1298 -2.0766
  663TMC3    H1 9816   0.387   1.505   0.518  3.0435  0.4244 -0.0705
  663TMC3    H2 9817   0.472   1.374   0.910  1.0272 -1.1928 -2.3325
  663TMC3    C7 9818   0.388   1.286   0.666  0.2238  0.5079 -0.7722
  663TMC3    C8 9819   0.565   1.605   0.984 -0.1875 -0.5690  0.0387
  663TMC3    O1 9820   0.436   1.193   0.730  0.1658 -0.4821 -0.0017
  663TMC3    O2 9821   0.638   1.519   1.037 -0.0596  0.8554 -0.3137
  664MPD2     C 9822   3.131   0.170  17.251  0.0916  0.8202 -0.4771
  664MPD2    C1 9823   3.162   0.305  17.266 -0.2167  0.0710 -0.5149
  664MPD2    C2 9824   3.167   0.367  17.394 -0.9552 -0.3240 -0.0859
  664MPD2    C3 9825   3.119   0.299  17.507  0.0573 -1.0531  0.4985
  664MPD2    C4 9826   3.086   0.165  17.490 -0.3134 -0.3067 -0.2579
  664MPD2    C5 9827   3.096   0.103  17.367  0.3568  0.2069  0.0677
  664MPD2     H 9828   3.178   0.474  17.411  1.3230 -0.4285 -0.9386
  664MPD2    H1 9829   3.053   0.109  17.577  2.8572  0.3115  1.3150
  664MPD2    H2 9830   3.116   0.122  17.155 -0.1485 -1.6803  0.8321
  664MPD2    H3 9831   3.051   0.004  17.363  0.4757  0.1122  1.1201
  664MPD2     N 9832   3.112   0.372  17.629 -0.0256  0.3661 -0.0458
  664MPD2    H5 9833   3.133   0.471  17.616 -1.0455  0.8253  1.8957
  664MPD2    N1 9834   3.179   0.389  17.152 -0.0927 -0.2018 -0.5720
  664MPD2    H7 9835   3.171   0.490  17.156 -0.6795 -0.2167 -1.2498
  665TMC3    C1 9836   3.051   0.424   0.145  0.1468 -0.4264  0.1490
  665TMC3    C2 9837   2.950   0.393   0.232 -1.3158 -0.1146  0.0375
  665TMC3    C3 9838   2.949   0.447   0.357  0.9957 -0.5822 -0.0989
  665TMC3    C4 9839   3.144   0.513   0.177  0.3213  0.3423  0.2417
  665TMC3    C5 9840   3.145   0.559   0.304 -0.0871  0.0475 -0.3502
  665TMC3    C6 9841   3.039   0.536   0.400 -0.2991  0.2207  0.6119
  665TMC3     C 9842   3.072   0.321   0.043  0.1666 -0.6593 -0.5929
  665TMC3     O 9843   3.031   0.209   0.067  0.3476  0.4182  0.3061
  665TMC3     H 9844   2.879   0.313   0.210 -0.6404 -0.9443  0.8629
  665TMC3    H1 9845   3.227   0.523   0.108  0.5176  1.4631  0.6434
  665TMC3    H2 9846   3.031   0.586   0.495  0.8428  0.0208  0.8111
  665TMC3    C7 9847   3.225   0.681   0.320 -0.3639  0.2544  0.1260
  665TMC3    C8 9848   2.841   0.429   0.449  0.6714  0.2842 -0.1703
  665TMC3    O1 9849   3.253   0.745   0.224  0.0141 -0.1189  0.2358
  665TMC3    O2 9850   2.873   0.428   0.566 -0.2193  0.3804 -0.3250
  666TMC3    C1 9851   2.420   4.220  10.195 -0.6463 -0.0810 -0.6486
  666TMC3    C2 9852   2.550   4.198  10.232  0.1449  0.4453 -0.3702
  666TMC3    C3 9853   2.644   4.290  10.202  0.5328  0.2245 -0.2157
  666TMC3    C4 9854   2.380   4.342  10.152  0.5290 -0.1093 -0.6386
  666TMC3    C5 9855   2.484   4.433  10.121  0.2495  0.0489 -0.0202
  666TMC3    C6 9856   2.616   4.415  10.142  0.0390  0.2090  0.0380
  666TMC3     C 9857   2.323   4.105  10.204 -0.3413 -0.1353 -0.6510
  666TMC3     O 9858   2.375   4.005  10.252  0.1278 -0.1828 -0.1273
  666TMC3     H 9859   2.576   4.107  10.285  1.5563  0.5622 -0.8480
  666TMC3    H1 9860   2.277   4.366  10.127  0.4125 -1.2640 -1.2809
  666TMC3    H2 9861   2.690   4.492  10.125  0.4008  0.0056  0.6954
  666TMC3    C7 9862   2.446   4.568  10.095 -0.3706  0.6509 -0.4308
  666TMC3    C8 9863   2.765   4.268  10.276 -0.6108 -0.6910  0.9510
  666TMC3    O1 9864   2.342   4.603  10.149 -0.3967 -0.1666  0.8403
  666TMC3    O2 9865   2.790   4.166  10.335 -0.3632  0.2876 -0.0304
  667MPD2     C 9866   4.065   0.332  14.472  0.4307  0.0109 -0.2510
  667MPD2    C1 9867   3.977   0.350  14.574  0.2554 -0.2795 -0.4014
  667MPD2    C2 9868   3.865   0.275  14.598  0.7657 -0.1385  0.7133
  667MPD2    C3 9869   3.831   0.169  14.514 -0.2037 -0.2351  0.5299
  667MPD2    C4 9870   3.922   0.141  14.412  0.0644  0.1357 -0.2979
  667MPD2    C5 9871   4.033   0.223  14.390  0.0402  0.2773  0.3503
  667MPD2     H 9872   3.804   0.308  14.681 -3.2431  2.0596 -3.0895
  667MPD2    H1 9873   3.903   0.057  14.347  0.0601  0.6406 -0.9512
  667MPD2    H2 9874   4.152   0.388  14.442 -0.2048  1.6838  1.0686
  667MPD2    H3 9875   4.087   0.211  14.297 -1.7741 -0.0188 -0.6678
  667MPD2     N 9876   3.715   0.086  14.531  0.1724 -0.2655  0.2743
  667MPD2    H5 9877   3.683   0.023  14.458 -0.4305 -0.1496  0.4405
  667MPD2    N1 9878   3.996   0.463  14.659 -0.2081 -0.1852 -0.4068
  667MPD2    H7 9879   3.943   0.461  14.746  0.4179  0.4710 -0.0082
  668TMC3    C1 9880   4.084   0.657  14.756  0.2949 -0.3682 -0.0127
  668TMC3    C2 9881   4.188   0.733  14.791 -0.4669 -0.2502 -0.7288
  668TMC3    C3 9882   4.173   0.803  14.908 -0.0524 -0.8954  0.1335
  668TMC3    C4 9883   3.967   0.656  14.820  0.0016 -0.2616  0.6679
  668TMC3    C5 9884   3.963   0.714  14.944  0.0852  0.1794 -0.1395
  668TMC3    C6 9885   4.072   0.776  14.990 -0.0015 -0.5057  0.7480
  668TMC3     C 9886   4.096   0.558  14.651  0.1444  0.4526 -0.6042
  668TMC3     O 9887   4.194   0.567  14.583  0.0115 -0.0124 -0.4679
  668TMC3     H 9888   4.279   0.726  14.734 -0.7610 -1.3532 -1.0733
  668TMC3    H1 9889   3.876   0.628  14.767 -0.8949  1.0708  1.5187
  668TMC3    H2 9890   4.068   0.803  15.095  0.9751  1.4102  0.2814
  668TMC3    C7 9891   3.859   0.679  15.034  0.0057  0.0549  0.5213
  668TMC3    C8 9892   4.250   0.925  14.934  0.6325  0.5402  0.2029
  668TMC3    O1 9893   3.887   0.612  15.133  0.2831  0.2976  0.2623
  668TMC3    O2 9894   4.208   1.006  15.015 -0.2897 -0.2661 -0.7248
  669TMC3    C1 9895   1.648   0.294  14.460 -0.4798 -0.1725 -0.3508
  669TMC3    C2 9896   1.567   0.292  14.356  0.4803 -0.8057  0.1937
  669TMC3    C3 9897   1.610   0.356  14.243 -0.3786  0.3992 -0.3175
  669TMC3    C4 9898   1.773   0.359  14.458 -0.4960  0.3290  0.3100
  669TMC3    C5 9899   1.808   0.423  14.349  0.0642  0.1924  0.0687
  669TMC3    C6 9900   1.728   0.422  14.235  0.9169 -0.6777 -0.2417
  669TMC3     C 9901   1.618   0.233  14.582  0.0917  0.1828 -0.0484
  669TMC3     O 9902   1.705   0.225  14.664 -0.1759 -0.3952 -0.2361
  669TMC3     H 9903   1.467   0.250  14.353 -0.8364  2.2373  1.1250
  669TMC3    H1 9904   1.821   0.365  14.555 -1.1073 -0.5794  0.6772
  669TMC3    H2 9905   1.770   0.458  14.142  0.0547  0.1400 -0.3117
  669TMC3    C7 9906   1.944   0.469  14.344 -0.4878  0.2541  1.1856
  669TMC3    C8 9907   1.555   0.306  14.122  0.9297 -0.2140  0.1329
  669TMC3    O1 9908   2.018   0.438  14.439 -0.4830 -0.3966  0.3802
  669TMC3    O2 9909   1.434   0.290  14.123 -0.3364  0.3094 -0.3091
  670MPD2     C 9910   4.536   2.354  13.603  0.8810 -0.2024 -0.0821
  670MPD2    C1 9911   4.671   2.338  13.631  0.1803 -0.4016  0.1282
  670MPD2    C2 9912   4.697   2.320  13.764 -0.0662  0.9330  0.1040
  670MPD2    C3 9913   4.598   2.313  13.861 -0.1540 -0.0805 -0.1944
  670MPD2    C4 9914   4.468   2.331  13.824  1.1620 -0.4732 -0.0518
  670MPD2    C5 9915   4.440   2.358  13.696 -0.6714 -0.9714 -0.3479
  670MPD2     H 9916   0.075   2.311  13.795  0.0671  1.1446 -0.2871
  670MPD2    H1 9917   4.383   2.320  13.889  1.1019  2.7402  0.4299
  670MPD2    H2 9918   4.499   2.373  13.503  0.3066 -0.8054  0.0151
  670MPD2    H3 9919   4.336   2.365  13.664 -0.9629  1.7473  1.2144
  670MPD2     N 9920   4.639   2.288  13.995  0.1504 -0.2136  0.5239
  670MPD2    H5 9921   0.012   2.287  14.021  0.5532 -0.4960 -1.0509
  670MPD2    N1 9922   0.049   2.337  13.534 -0.2572 -0.5933  0.0688
  670MPD2    H7 9923   0.141   2.307  13.566  0.3964 -0.7465 -1.9010
  671TMC3    C1 9924   4.611   2.238  14.222  0.5168 -0.3129 -0.6874
  671TMC3    C2 9925   0.025   2.219  14.226  0.0908  0.3635 -0.3417
  671TMC3    C3 9926   0.076   2.116  14.304  0.6405 -0.5003  0.3681
  671TMC3    C4 9927   4.528   2.149  14.288 -0.0313 -0.2631 -0.7311
  671TMC3    C5 9928   4.585   2.040  14.353  0.6028 -0.2408  0.2035
  671TMC3    C6 9929   4.720   2.027  14.369  0.0122  0.3796  0.1710
  671TMC3     C 9930   4.551   2.271  14.096 -0.3940 -0.1965 -0.0454
  671TMC3     O 9931   4.434   2.250  14.090 -0.2826 -0.1281 -0.4184
  671TMC3     H 9932   0.095   2.290  14.182  0.2419  0.6689  0.4013
  671TMC3    H1 9933   4.419   2.148  14.282 -0.0452  0.3726 -0.5835
  671TMC3    H2 9934   0.031   1.936  14.415 -0.3396  0.8631  1.4225
  671TMC3    C7 9935   4.537   1.920  14.289 -0.5953 -0.1557 -0.8071
  671TMC3    C8 9936   0.201   2.070  14.252 -0.3766  0.7641 -0.7453
  671TMC3    O1 9937   4.553   1.818  14.359 -0.3214  0.3985  0.6316
  671TMC3    O2 9938   0.248   2.119  14.146  0.7017  0.2182  0.0226
  672MPD2     C 9939   0.410   3.269   1.248 -0.5104 -0.2586 -0.1496
  672MPD2    C1 9940   0.529   3.223   1.192 -0.0625 -0.6044  0.0495
  672MPD2    C2 9941   0.634   3.187   1.273 -0.0033  0.3199  0.0196
  672MPD2    C3 9942   0.626   3.222   1.412  0.0917  0.6180  0.0203
  672MPD2    C4 9943   0.506   3.268   1.463 -0.4065 -0.4720 -0.2075
  672MPD2    C5 9944   0.400   3.285   1.385 -0.4178 -0.3306 -0.5876
  672MPD2     H 9945   0.725   3.150   1.228 -0.2125  1.3421 -1.2506
  672MPD2    H1 9946   0.502   3.287   1.570  0.9852  1.3710 -0.4744
  672MPD2    H2 9947   0.320   3.287   1.190 -1.9248  1.1188  2.4853
  672MPD2    H3 9948   0.303   3.323   1.417 -0.2018 -0.4423  0.1932
  672MPD2     N 9949   0.749   3.235   1.488 -0.0083  0.5140  0.2396
  672MPD2    H5 9950   0.752   3.280   1.579 -0.9367 -0.9439  0.9961
  672MPD2    N1 9951   0.551   3.211   1.052 -0.4950 -0.3468 -0.3219
  672MPD2    H7 9952   0.618   3.141   1.022 -0.3422 -0.5708  0.5339
  673TMC3    C1 9953   0.489   3.230   0.830 -0.2897  0.1252  0.4613
  673TMC3    C2 9954   0.558   3.111   0.801 -0.3866  0.0995  0.0831
  673TMC3    C3 9955   0.561   3.068   0.670 -0.4917 -0.2640 -0.3222
  673TMC3    C4 9956   0.434   3.313   0.731 -0.2091  0.5707  0.4242
  673TMC3    C5 9957   0.426   3.259   0.610  0.0684 -0.1620 -0.6481
  673TMC3    C6 9958   0.490   3.146   0.575  0.3190  0.3670 -0.0177
  673TMC3     C 9959   0.482   3.282   0.961  0.0989  0.6666 -0.4501
  673TMC3     O 9960   0.434   3.395   0.969 -0.5475 -0.0256 -0.1164
  673TMC3     H 9961   0.604   3.050   0.878 -0.7889  2.2576  2.0013
  673TMC3    H1 9962   0.397   3.410   0.762  0.2911  0.9765 -0.2434
  673TMC3    H2 9963   0.494   3.104   0.475  1.1014 -1.2224  0.6784
  673TMC3    C7 9964   0.331   3.307   0.517 -0.3827 -0.3902 -0.0677
  673TMC3    C8 9965   0.565   2.922   0.651  0.4082 -0.3344  0.0298
  673TMC3    O1 9966   0.308   3.231   0.428  0.5686  0.3276 -0.0124
  673TMC3    O2 9967   0.485   2.871   0.569  0.3751 -0.1619  0.2150
  674MPD2     C 9968   4.444   3.357   0.145  0.2728 -0.3493  0.7187
  674MPD2    C1 9969   4.493   3.276   0.240  0.0997  0.0518  0.2491
  674MPD2    C2 9970   4.421   3.247   0.359 -0.2133  0.7145 -0.1166
  674MPD2    C3 9971   4.301   3.315   0.376 -0.1635  0.1156  0.5136
  674MPD2    C4 9972   4.260   3.414   0.283  0.1156 -0.3111  0.1367
  674MPD2    C5 9973   4.332   3.438   0.173 -0.2138 -0.0708  0.0393
  674MPD2     H 9974   4.451   3.167   0.426 -3.5358 -1.7908 -1.5962
  674MPD2    H1 9975   4.165   3.464   0.293  0.6504  0.0025  3.4765
  674MPD2    H2 9976   4.499   3.381   0.055 -0.2831  0.0004  0.4754
  674MPD2    H3 9977   4.290   3.517   0.113 -0.5016 -2.6954 -3.2050
  674MPD2     N 9978   4.219   3.272   0.487 -0.0085  0.5812 -0.4095
  674MPD2    H5 9979   4.265   3.222   0.562  1.2038  1.6521 -0.4311
  674MPD2    N1 9980   4.609   3.197   0.219 -0.1795 -0.3704  0.6241
  674MPD2    H7 9981   4.616   3.123   0.287 -0.5918  1.1458  2.3081
  675TMC3    C1 9982   0.052   3.067   0.121  0.2540  0.0703  0.2203
  675TMC3    C2 9983   0.016   2.990   0.221  0.4034  0.3935 -0.5543
  675TMC3    C3 9984   0.110   2.950   0.314  0.1727  0.1857 -0.4701
  675TMC3    C4 9985   0.180   3.098   0.085 -0.4217 -0.5749 -0.5242
  675TMC3    C5 9986   0.272   3.051   0.178 -0.6861  0.3991  0.6211
  675TMC3    C6 9987   0.241   2.970   0.288  0.2443 -0.9329  0.0051
  675TMC3     C 9988   4.692   3.182   0.111  1.1325 -0.0391  0.0756
  675TMC3     O 9989   4.710   3.258   0.016  0.3060 -0.1234  0.2727
  675TMC3     H 9990   4.638   2.959   0.233  1.6475 -2.5863  2.3987
  675TMC3    H1 9991   0.210   3.176   0.017  1.2079  0.9836  1.9939
  675TMC3    H2 9992   0.321   2.949   0.359 -0.1966  0.0070  0.7738
  675TMC3    C7 9993   0.415   3.086   0.169  0.2415 -0.4070 -0.2359
  675TMC3    C8 9994   0.065   2.997   0.442 -0.2994  0.1491  0.1766
  675TMC3    O1 9995   0.493   3.021   0.239  0.0608 -0.3702  0.2473
  675TMC3    O2 9996   4.675   3.040   0.439 -0.2897  0.6272  0.0860
  676MPD2     C 9997   2.738   1.075  10.947  0.2284 -0.2495  0.7002
  676MPD2    C1 9998   2.721   1.006  11.061 -0.2405  0.2673 -0.1773
  676MPD2    C2 9999   2.742   0.866  11.061  0.1065  0.3767 -0.6028
  676MPD2    C310000   2.777   0.791  10.947  0.0406 -0.0430  0.2251
  676MPD2    C410001   2.782   0.864  10.834 -0.9561  0.5489  0.0897
  676MPD2    C510002   2.769   0.999  10.837  0.4139 -0.2197 -0.0608
  676MPD2     H10003   2.734   0.815  11.156  0.6278  1.7068  0.1520
  676MPD2    H110004   2.803   0.818  10.738 -1.1946 -0.8047  0.6940
  676MPD2    H210005   2.743   1.183  10.935  0.2988 -0.3518 -0.1849
  676MPD2    H310006   2.775   1.051  10.742 -2.0087  0.2997  0.0637
  676MPD2     N10007   2.783   0.652  10.949 -0.0237  0.8859  0.0154
  676MPD2    H510008   2.758   0.596  11.030  1.6779  0.7982  0.4872
  676MPD2    N110009   2.684   1.073  11.181 -0.3025  0.3859  0.0315
  676MPD2    H710010   2.674   1.032  11.273  0.1138  1.2162  0.4424
  677TMC3    C110011   2.598   1.240  11.317 -0.0555 -0.5717 -0.5201
  677TMC3    C210012   2.567   1.136  11.397 -0.2464  0.2004 -0.0468
  677TMC3    C310013   2.575   1.151  11.529 -0.5693 -0.2891 -0.1380
  677TMC3    C410014   2.646   1.361  11.361  0.3650  0.1554 -0.4387
  677TMC3    C510015   2.642   1.378  11.497  0.4037 -0.5460  0.9517
  677TMC3    C610016   2.607   1.274  11.581  0.1961  0.2634 -0.4006
  677TMC3     C10017   2.626   1.201  11.179 -0.5731 -0.6613 -0.1945
  677TMC3     O10018   2.605   1.285  11.091 -0.6904 -0.9145  0.0306
  677TMC3     H10019   2.513   1.052  11.355 -1.1969 -0.1196  1.8173
  677TMC3    H110020   2.688   1.432  11.290 -0.2762  0.6768 -0.3012
  677TMC3    H210021   2.616   1.277  11.689  0.0036  0.3658 -0.3867
  677TMC3    C710022   2.719   1.490  11.556  0.4542 -0.0293  1.6403
  677TMC3    C810023   2.511   1.043  11.610  0.5486 -1.0400  0.3178
  677TMC3    O110024   2.709   1.503  11.676  0.1081 -0.2539  0.0483
  677TMC3    O210025   2.418   0.996  11.553 -0.5161 -0.5856  0.5263
  678MPD2     C10026   4.428   1.744   1.251  0.1119  0.0815  0.2670
  678MPD2    C110027   4.439   1.611   1.272 -0.0439 -0.6381 -0.3781
  678MPD2    C210028   4.349   1.522   1.223  0.0008 -0.6195 -0.5414
  678MPD2    C310029   4.243   1.568   1.156 -0.3681 -0.1717  0.4464
  678MPD2    C410030   4.221   1.701   1.137 -0.7926 -0.1976  0.6683
  678MPD2    C510031   4.316   1.789   1.189 -0.6921  0.6101  0.2150
  678MPD2     H10032   4.358   1.414   1.233 -0.5837 -0.8641 -2.7739
  678MPD2    H110033   4.124   1.731   1.098 -0.4501 -1.3698 -1.1034
  678MPD2    H210034   4.502   1.812   1.291 -2.1059  2.0347  1.0637
  678MPD2    H310035   4.288   1.893   1.176 -1.2894  0.4662  0.3596
  678MPD2     N10036   4.160   1.467   1.096 -0.1496  0.2352 -0.4425
  678MPD2    H510037   4.199   1.374   1.103  1.5926  1.2061  2.5225
  678MPD2    N110038   4.557   1.576   1.342 -0.3091 -0.5892  0.8269
  678MPD2    H710039   4.620   1.649   1.375  1.5296 -0.9955 -1.7958
  679TMC3    C110040   0.186   1.390   1.534  0.5446  0.4030  0.4369
  679TMC3    C210041   0.063   1.364   1.479 -0.3693 -0.6713  0.4799
  679TMC3    C310042   4.699   1.466   1.482 -0.1371 -0.2923 -0.6102
  679TMC3    C410043   0.229   1.508   1.590  0.3512 -0.0983 -0.1725
  679TMC3    C510044   0.136   1.609   1.577 -0.4839 -0.6286  0.9607
  679TMC3    C610045   0.005   1.594   1.523 -0.0575  0.4219 -0.6119
  679TMC3     C10046   0.277   1.275   1.543 -0.0881  0.2169 -0.2726
  679TMC3     O10047   0.293   1.197   1.454  0.1953  0.5503  0.2381
  679TMC3     H10048   0.033   1.266   1.443 -1.0326  0.3353 -1.6437
  679TMC3    H110049   0.325   1.527   1.638 -0.5200  2.4609  0.5170
  679TMC3    H210050   4.663   1.679   1.524  1.3354  1.5054  1.8946
  679TMC3    C710051   0.150   1.737   1.642  0.1791 -0.4157  0.2513
  679TMC3    C810052   4.606   1.455   1.378 -0.5463  0.6538 -0.3053
  679TMC3    O110053   0.072   1.825   1.614 -0.1724  0.6887  0.2171
  679TMC3    O210054   4.569   1.343   1.347  0.2843 -0.4586  0.5176
  680MPD2     C10055   4.455   4.669  13.517  0.0552  0.1917  0.3743
  680MPD2    C110056   4.481   4.587  13.621 -0.0685 -0.3926  0.2483
  680MPD2    C210057   4.511   4.637  13.745 -0.6549  0.0820  0.0356
  680MPD2    C310058   4.516   0.053  13.758 -0.3063  1.0350 -0.3280
  680MPD2    C410059   4.481   0.136  13.658  0.1258  0.5199  0.3345
  680MPD2    C510060   4.442   0.076  13.540 -0.1000 -0.1696  0.3857
  680MPD2     H10061   4.551   4.566  13.817  0.5886 -0.3010 -1.0246
  680MPD2    H110062   4.490   0.243  13.651 -0.1326  0.5024 -0.2785
  680MPD2    H210063   4.431   4.645  13.414  1.3253  0.9131 -0.0853
  680MPD2    H310064   4.414   0.138  13.456  1.5761 -0.4071 -0.3465
  680MPD2     N10065   4.571   0.112  13.878 -1.0440 -0.6834  0.1216
  680MPD2    H510066   4.586   0.212  13.874  0.7321 -0.9385  0.2938
  680MPD2    N110067   4.494   4.447  13.599  0.0175 -0.0734  0.4038
  680MPD2    H710068   4.541   4.402  13.677 -0.1731 -0.8576  0.0711
  681TMC3    C110069   4.566   4.251  13.492 -0.3492 -0.1246 -0.2820
  681TMC3    C210070   4.551   4.171  13.603 -0.7658  0.2018 -0.0025
  681TMC3    C310071   4.635   4.071  13.619 -0.2178  0.1516 -0.0072
  681TMC3    C410072   4.656   4.220  13.392 -0.1689  0.3317  0.0734
  681TMC3    C510073   0.021   4.122  13.413 -0.2963 -0.9517 -0.2463
  681TMC3    C610074   0.012   4.042  13.530  0.4363  0.3786 -1.0357
  681TMC3     C10075   4.507   4.384  13.474 -0.3915  0.0720 -0.3260
  681TMC3     O10076   4.503   4.437  13.362 -0.1850 -0.3417 -0.3628
  681TMC3     H10077   4.474   4.201  13.673 -1.0850  0.6116 -0.5303
  681TMC3    H110078   4.677   4.300  13.322  4.8123 -1.2208 -0.2003
  681TMC3    H210079   0.084   3.964  13.551  0.4695  0.6829 -0.0273
  681TMC3    C710080   0.157   4.130  13.358  0.7366  0.6396  0.1123
  681TMC3    C810081   4.651   4.000  13.750  0.7739 -0.6107 -0.1109
  681TMC3    O110082   0.248   4.106  13.439  0.0518  0.3005 -0.8950
  681TMC3    O210083   4.716   3.893  13.750  0.4631  0.1577 -0.1774
  682MPD2     C10084   2.174   1.098  10.457  0.5979 -0.8376 -0.7180
  682MPD2    C110085   2.088   1.000  10.497 -0.5203 -0.3530  0.0848
  682MPD2    C210086   2.008   1.030  10.608  0.2476 -0.4298 -0.2682
  682MPD2    C310087   2.006   1.153  10.669  0.5595  0.0089  0.6239
  682MPD2    C410088   2.100   1.250  10.626 -1.0072 -0.4004  0.2039
  682MPD2    C510089   2.186   1.219  10.522 -0.0229  0.3492 -0.2275
  682MPD2     H10090   1.951   0.946  10.645  1.7313 -1.3663 -0.0709
  682MPD2    H110091   2.093   1.351  10.664 -2.2276 -1.0922  1.7986
  682MPD2    H210092   2.237   1.084  10.369  0.6265 -2.3811 -0.4567
  682MPD2    H310093   2.252   1.295  10.481  0.3814  1.3638  2.3265
  682MPD2     N10094   1.921   1.191  10.773 -0.0940  0.2882  0.6474
  682MPD2    H510095   1.932   1.286  10.807  1.0598  0.2780  0.2999
  682MPD2    N110096   2.080   0.872  10.431  0.2635  0.7902  0.2248
  682MPD2    H710097   2.026   0.796  10.472  1.5740  0.0051  0.5059
  683TMC3    C110098   1.707   1.240  11.137  0.0304 -0.0125  0.0658
  683TMC3    C210099   1.571   1.246  11.114 -0.2327 -0.1747  0.1119
  683TMC3    C310100   1.516   1.222  10.991 -0.1460  0.2711 -0.3623
  683TMC3    C410101   1.793   1.223  11.028 -0.4717 -0.7420  0.1288
  683TMC3    C510102   1.730   1.204  10.903  0.0602 -0.0743 -0.2429
  683TMC3    C610103   1.600   1.217  10.882  0.5473  0.6077  0.2173
  683TMC3     C10104   1.743   1.207  11.270  0.1789  0.3784 -0.0925
  683TMC3     O10105   1.674   1.249  11.359 -0.0220  0.6789  0.7016
  683TMC3     H10106   1.509   1.247  11.202  0.8734 -1.1490  0.9009
  683TMC3    H110107   1.900   1.210  11.038 -0.8208 -2.3523  1.7725
  683TMC3    H210108   1.570   1.194  10.780 -1.3401 -1.1934  1.1953
  683TMC3    C710109   1.801   1.130  10.796 -0.2544 -0.3047  0.1801
  683TMC3    C810110   1.437   1.109  10.994 -0.3740 -0.0837  0.4667
  683TMC3    O110111   1.745   1.039  10.737 -0.1383 -0.0849 -0.4668
  683TMC3    O210112   1.347   1.119  11.077  0.0328  0.0849  0.2461
  684MPD2     C10113   4.663   0.901  16.260 -1.1672  0.6086 -0.7599
  684MPD2    C110114   4.665   0.890  16.123 -0.7288  0.3772  0.6324
  684MPD2    C210115   4.656   1.012  16.048  0.3969 -0.3248  0.2951
  684MPD2    C310116   4.639   1.132  16.122 -1.2178  0.6847  0.8615
  684MPD2    C410117   4.610   1.129  16.258  0.4228  0.0633  0.3924
  684MPD2    C510118   4.636   1.019  16.324  0.4646 -0.0317 -0.4531
  684MPD2     H10119   4.666   1.021  15.941  1.9088 -2.4812  0.2660
  684MPD2    H110120   4.597   1.219  16.317 -1.7644 -0.0724  0.1205
  684MPD2    H210121   4.680   0.812  16.318  1.4951  0.8359 -1.1748
  684MPD2    H310122   4.649   1.008  16.431 -0.8283 -0.3009 -0.3181
  684MPD2     N10123   4.621   1.265  16.064 -0.1813 -0.4775 -0.2453
  684MPD2    H510124   4.629   1.342  16.130  0.1148 -0.5218 -0.2271
  684MPD2    N110125   4.678   0.765  16.052 -0.3923 -0.5086 -0.2559
  684MPD2    H710126   4.660   0.766  15.952 -0.2726 -0.1863 -0.2766
  685TMC3    C110127   4.693   0.528  16.029 -0.7746  0.4340 -1.0549
  685TMC3    C210128   4.579   0.524  15.957 -0.4353  0.2839 -0.2739
  685TMC3    C310129   4.540   0.401  15.914  0.4539  0.4328  0.0712
  685TMC3    C410130   0.040   0.417  16.062 -0.5066 -0.1977  0.4820
  685TMC3    C510131   0.001   0.301  16.001  0.3672 -0.3484  0.4708
  685TMC3    C610132   4.608   0.286  15.934  0.3256 -0.0207 -0.5465
  685TMC3     C10133   4.721   0.645  16.114  0.1352  0.1986 -0.6438
  685TMC3     O10134   0.052   0.626  16.219  0.1820 -0.2817  0.0658
  685TMC3     H10135   4.514   0.611  15.952  1.7543  1.9528  0.1505
  685TMC3    H110136   0.129   0.427  16.124 -1.6517 -2.1762  2.4384
  685TMC3    H210137   4.581   0.189  15.891  1.2581 -0.1512 -0.8324
  685TMC3    C710138   0.084   0.188  15.996  0.0010 -0.1579  0.3863
  685TMC3    C810139   4.437   0.392  15.812 -0.0402 -0.4301  0.0956
  685TMC3    O110140   0.079   0.126  15.894 -0.3488 -0.0544 -0.3617
  685TMC3    O210141   4.392   0.280  15.795  0.2572 -0.3426 -0.4185
  686MPD2     C10142   1.505   0.546  15.319 -0.3296  0.5759 -0.2499
  686MPD2    C110143   1.544   0.431  15.392 -0.3082 -0.0877 -0.6859
  686MPD2    C210144   1.680   0.393  15.385 -0.0726  0.0469  0.5109
  686MPD2    C310145   1.769   0.464  15.306  0.3856  0.2419 -0.1529
  686MPD2    C410146   1.726   0.570  15.231  0.1083  0.1043 -0.2620
  686MPD2    C510147   1.592   0.615  15.240  0.6963  0.2732 -0.1315
  686MPD2     H10148   1.722   0.304  15.431  2.4633  0.6961 -0.5442
  686MPD2    H110149   1.788   0.621  15.159  2.4006 -3.3630 -0.7269
  686MPD2    H210150   1.399   0.569  15.320 -0.9236 -2.1158 -0.1803
  686MPD2    H310151   1.564   0.699  15.178 -0.5837  2.8771  4.0071
  686MPD2     N10152   1.899   0.409  15.293  0.0271  0.7147 -0.4569
  686MPD2    H510153   1.927   0.340  15.362  1.6311  2.0983  0.2863
  686MPD2    N110154   1.447   0.356  15.463 -0.1797 -0.8467  0.1844
  686MPD2    H710155   1.356   0.401  15.463  1.6529  2.8168  0.8406
  687TMC3    C110156   2.077   0.320  15.199 -0.6949 -0.0682  0.2404
  687TMC3    C210157   2.019   0.209  15.144 -1.2725 -0.1804 -0.3945
  687TMC3    C310158   2.050   0.075  15.188  0.7170  0.5278  0.3882
  687TMC3    C410159   2.157   0.306  15.313  0.4200 -0.1444  0.0548
  687TMC3    C510160   2.193   0.178  15.347  0.4030 -0.1816 -0.5442
  687TMC3    C610161   2.155   0.068  15.280  0.0444 -0.0594  0.3556
  687TMC3     C10162   1.992   0.434  15.198 -0.1308  0.3091  0.6257
  687TMC3     O10163   1.990   0.512  15.106  0.0102  0.3879  0.2434
  687TMC3     H10164   1.965   0.219  15.050 -0.7041 -1.5772 -0.8716
  687TMC3    H110165   2.200   0.397  15.352 -1.9333  0.5696  0.9734
  687TMC3    H210166   2.184   4.696  15.318  2.3881 -0.6820 -2.9830
  687TMC3    C710167   2.279   0.159  15.456  0.7882  0.3090  0.2073
  687TMC3    C810168   1.933   0.011  15.240 -0.3071 -0.2732  0.5643
  687TMC3    O110169   2.362   0.071  15.443  0.5498  0.0422  0.4860
  687TMC3    O210170   1.941   4.648  15.323  0.1223 -0.3254  0.2354
  688MPD2     C10171   0.803   4.339  17.293 -1.5098 -0.4987 -0.3465
  688MPD2    C110172   0.815   4.213  17.341  0.8266  0.0537 -0.7555
  688MPD2    C210173   0.871   4.116  17.264  0.2718 -0.0204  0.9647
  688MPD2    C310174   0.941   4.147  17.142  0.0849  0.1754 -0.3297
  688MPD2    C410175   0.939   4.279  17.101 -0.0744 -0.0535  0.8153
  688MPD2    C510176   0.868   4.367  17.174  0.3465 -0.8113  0.4162
  688MPD2     H10177   0.870   4.017  17.309 -1.6168 -0.8591 -0.9478
  688MPD2    H110178   0.989   4.308  17.010  2.1236  0.5736  2.2066
  688MPD2    H210179   0.747   4.415  17.345 -1.5324 -0.7116 -0.0638
  688MPD2    H310180   0.870   4.468  17.135 -2.3998 -0.2790  1.6183
  688MPD2     N10181   1.013   4.051  17.059  0.3165  0.0534  0.2719
  688MPD2    H510182   1.050   4.090  16.973  2.3832 -0.8948  0.7268
  688MPD2    N110183   0.741   4.167  17.460  0.2181  0.3724 -0.6873
  688MPD2    H710184   0.710   4.072  17.476 -0.4043  0.4946 -1.1634
  689TMC3    C110185   0.654   4.215  17.689 -0.2807 -0.0029 -0.0777
  689TMC3    C210186   0.674   4.289   0.095 -0.0992 -0.5605 -0.5701
  689TMC3    C310187   0.633   4.235   0.216  0.1811  0.0327 -0.6310
  689TMC3    C410188   0.591   4.095  17.683 -0.3108 -0.3247  0.4568
  689TMC3    C510189   0.550   4.047   0.099  0.3086  0.1944  0.0331
  689TMC3    C610190   0.564   4.119   0.219  0.6397 -0.3060  0.2619
  689TMC3     C10191   0.730   4.256  17.569 -0.6137 -0.4070  0.0164
  689TMC3     O10192   0.783   4.369  17.584 -0.5008  0.0320  0.1023
  689TMC3     H10193   0.737   4.377   0.086  0.4833 -1.0346 -1.1971
  689TMC3    H110194   0.560   4.049  17.590 -0.7392  0.5315  0.1774
  689TMC3    H210195   0.542   4.071   0.313 -1.0699  2.1080  1.0855
  689TMC3    C710196   0.505   3.908   0.123 -0.6394  0.0079  0.8324
  689TMC3    C810197   0.678   4.285   0.345 -0.5313  0.4631 -0.8664
  689TMC3    O110198   0.485   3.873   0.241  0.4508  0.0314  0.0915
  689TMC3    O210199   0.622   4.241   0.440 -1.0427  0.3082  0.0651
  690MPD2     C10200   2.760   1.182  15.867 -0.7470 -0.3222  0.5729
  690MPD2    C110201   2.814   1.113  15.762  0.3573 -0.5068 -0.4230
  690MPD2    C210202   2.930   1.153  15.707 -0.0849 -0.2369 -0.4461
  690MPD2    C310203   2.990   1.271  15.755  0.3079 -0.0023  0.0636
  690MPD2    C410204   2.938   1.345  15.866 -0.2323 -0.0940 -0.2268
  690MPD2    C510205   2.817   1.301  15.915 -0.2728 -0.7565  0.3765
  690MPD2     H10206   2.978   1.090  15.632  1.5696  0.9642 -0.4021
  690MPD2    H110207   2.986   1.432  15.910 -0.0428 -0.7005  0.7664
  690MPD2    H210208   2.659   1.159  15.899 -1.2048 -1.3472 -1.5736
  690MPD2    H310209   2.780   1.362  15.997 -1.2591  0.3228 -0.8767
  690MPD2     N10210   3.114   1.316  15.691  0.3583  0.5964  0.1751
  690MPD2    H510211   3.132   1.273  15.601  1.5071  0.5943  0.4124
  690MPD2    N110212   2.753   0.999  15.710 -0.1581  0.6794 -0.4993
  690MPD2    H710213   2.815   0.943  15.653  0.7991  0.7823  0.4266
  691TMC3    C110214   2.586   0.848  15.634 -0.8511  0.5494 -0.2203
  691TMC3    C210215   2.451   0.826  15.632  0.6920  0.0432  0.5211
  691TMC3    C310216   2.416   0.726  15.546  0.1915 -0.1556  0.3969
  691TMC3    C410217   2.678   0.764  15.578  0.4066 -0.4157 -0.2905
  691TMC3    C510218   2.632   0.663  15.490 -0.8467  0.1680 -0.0388
  691TMC3    C610219   2.495   0.650  15.470 -0.0152 -0.6501  0.4330
  691TMC3     C10220   2.622   0.961  15.720  0.4246 -0.4474 -0.6792
  691TMC3     O10221   2.533   1.008  15.790 -0.8824  0.1446  0.3609
  691TMC3     H10222   2.382   0.881  15.696 -1.5806  0.0463 -1.9422
  691TMC3    H110223   2.783   0.775  15.602  1.0889 -0.5762 -3.1399
  691TMC3    H210224   2.461   0.580  15.394  0.4592 -0.8356  0.3945
  691TMC3    C710225   2.730   0.559  15.463 -0.1893  0.0010 -0.1388
  691TMC3    C810226   2.273   0.707  15.522  0.5007  0.0136  0.5593
  691TMC3    O110227   2.849   0.598  15.468  0.2498  0.7801 -0.6232
  691TMC3    O210228   2.243   0.599  15.473 -0.7549  0.2104  0.4812
  692TMC3    C110229   4.199   2.495  15.957 -1.0157 -0.1786 -0.1020
  692TMC3    C210230   4.331   2.498  15.996 -0.4294 -0.9866  0.3702
  692TMC3    C310231   4.424   2.449  15.904 -0.1224  0.1949  0.2919
  692TMC3    C410232   4.161   2.452  15.836 -0.0760  0.7592 -0.7867
  692TMC3    C510233   4.255   2.401  15.749 -0.6602 -0.3414  0.3548
  692TMC3    C610234   4.386   2.406  15.779  1.3011 -0.1688 -0.6642
  692TMC3     C10235   4.104   2.576  16.032  0.4889  0.5604  0.6507
  692TMC3     O10236   3.986   2.553  16.009 -0.0639 -0.1130  0.1273
  692TMC3     H10237   4.349   2.515  16.102  1.1573  1.3514 -0.2709
  692TMC3    H110238   4.060   2.457  15.798 -0.6495  2.1420  0.9600
  692TMC3    H210239   4.453   2.352  15.712  1.2620  0.7000 -1.4079
  692TMC3    C710240   4.206   2.281  15.685  0.3419  0.0990  0.2422
  692TMC3    C810241   4.505   2.346  15.965  0.2327 -0.0615 -0.1284
  692TMC3    O110242   4.093   2.274  15.641 -0.2073 -0.0583  0.4266
  692TMC3    O210243   4.476   2.233  15.932 -0.4986 -0.2214  0.5611
  693MPD2     C10244   4.184   0.454  10.914  0.1642  0.2964  0.1639
  693MPD2    C110245   4.163   0.321  10.884 -0.3950  0.0382 -0.6115
  693MPD2    C210246   4.266   0.231  10.899  0.8382 -0.1563  0.5918
  693MPD2    C310247   4.385   0.277  10.950 -0.1832 -0.5696  0.3854
  693MPD2    C410248   4.404   0.411  10.972 -0.1354  0.1487  0.5070
  693MPD2    C510249   4.309   0.505  10.936  0.1663 -0.4648  0.1935
  693MPD2     H10250   4.243   0.126  10.886  0.6368 -0.0645  0.1998
  693MPD2    H110251   4.503   0.443  11.005  1.1165 -2.5715 -0.5767
  693MPD2    H210252   4.107   0.526  10.891  1.1736  0.4956 -2.6391
  693MPD2    H310253   4.338   0.609  10.944 -0.6436 -0.2143 -0.1696
  693MPD2     N10254   4.483   0.183  10.992 -0.3041  0.1187  0.1713
  693MPD2    H510255   4.553   0.222  11.054 -0.2488  0.2066  0.0520
  693MPD2    N110256   4.029   0.281  10.859 -0.6332 -0.1239 -0.1196
  693MPD2    H710257   3.951   0.339  10.888  1.1869  2.2957 -0.0097
  694TMC3    C110258   3.863   0.120  10.835 -0.2438  0.5877  0.1441
  694TMC3    C210259   3.810   0.030  10.751 -0.0321 -0.4516  0.2029
  694TMC3    C310260   3.718   4.667  10.802 -1.1193 -0.2498 -1.0103
  694TMC3    C410261   3.829   0.128  10.969  0.2762 -0.0899  0.6335
  694TMC3    C510262   3.735   0.033  11.012 -0.4183 -0.0252 -0.4095
  694TMC3    C610263   3.668   4.675  10.927 -0.6137  0.4812  0.4596
  694TMC3     C10264   3.999   0.158  10.807 -0.7494 -0.2779 -0.3871
  694TMC3     O10265   4.060   0.094  10.719 -0.0995 -0.4660  0.3754
  694TMC3     H10266   3.844   0.017  10.649 -0.8842 -2.3032  0.1673
  694TMC3    H110267   3.889   0.183  11.040  1.4052 -1.0535  0.4198
  694TMC3    H210268   3.582   4.616  10.955 -0.6249  0.9867  1.4984
  694TMC3    C710269   3.679   0.040  11.140  0.7080  0.4084  0.5545
  694TMC3    C810270   3.656   4.570  10.718  0.7980  0.6192  0.7530
  694TMC3    O110271   3.696   0.149  11.190  0.5529  0.2333 -0.6085
  694TMC3    O210272   3.602   4.475  10.778  0.0639 -0.0741 -0.7005
  695MPD2     C10273   0.312   1.923  13.242 -0.1441 -0.3078  0.8034
  695MPD2    C110274   0.287   1.913  13.378  0.1730  0.5182 -0.7361
  695MPD2    C210275   0.158   1.934  13.418  0.9099 -0.2354  0.0864
  695MPD2    C310276   0.051   1.968  13.330 -0.1421 -0.6655  0.2446
  695MPD2    C410277   0.080   1.968  13.199 -0.4759 -0.0356 -0.3408
  695MPD2    C510278   0.213   1.963  13.156  0.5724  0.0816 -0.2393
  695MPD2     H10279   0.124   1.916  13.520 -2.2363 -1.8036 -1.2317
  695MPD2    H110280   0.015   1.994  13.117 -0.3795 -0.3662 -0.5188
  695MPD2    H210281   0.409   1.898  13.199 -0.6702 -2.9661  1.1805
  695MPD2    H310282   0.247   1.965  13.054  0.7053 -0.4991 -0.2060
  695MPD2     N10283   4.641   1.986  13.376 -0.0094 -0.3932 -0.3490
  695MPD2    H510284   4.629   1.967  13.475  2.1613 -0.4502 -0.0970
  695MPD2    N110285   0.386   1.875  13.473  0.0070 -0.0505 -0.3690
  695MPD2    H710286   0.355   1.866  13.570 -1.2687  2.5026 -0.5276
  696TMC3    C110287   4.414   2.034  13.363 -0.0982 -0.5596  0.2216
  696TMC3    C210288   4.391   1.969  13.480  0.7344 -0.4243  0.1436
  696TMC3    C310289   4.285   2.014  13.556  0.8706 -0.3255 -0.6034
  696TMC3    C410290   4.330   2.135  13.326 -0.1009  0.0439 -0.4783
  696TMC3    C510291   4.217   2.166  13.400  0.7752 -0.0507 -0.1683
  696TMC3    C610292   4.189   2.100  13.518 -0.3742  0.4771  0.2871
  696TMC3     C10293   4.538   2.022  13.293  0.8014 -0.1072  0.3366
  696TMC3     O10294   4.529   2.040  13.171 -0.2017 -0.0978  0.2918
  696TMC3     H10295   4.459   1.894  13.517 -1.4317 -2.2107  0.4835
  696TMC3    H110296   4.357   2.204  13.246 -1.2153  0.1284 -0.7840
  696TMC3    H210297   4.106   2.121  13.584 -0.1986 -0.3215  0.7657
  696TMC3    C710298   4.167   2.300  13.389  0.0307  0.8038  0.5014
  696TMC3    C810299   4.280   1.980  13.701 -0.7306  0.3442 -0.9273
  696TMC3    O110300   4.183   2.355  13.282 -0.1098 -0.2278  0.1360
  696TMC3    O210301   4.256   2.072  13.771 -0.3411 -0.0279  0.3933
  697MPD2     C10302   4.211   3.774  15.664  0.1938  0.2674  0.0995
  697MPD2    C110303   4.160   3.734  15.545  0.3243  0.4183 -0.8497
  697MPD2    C210304   4.167   3.815  15.437 -0.0855 -0.0511 -0.9504
  697MPD2    C310305   4.231   3.937  15.435 -0.0642  0.2078 -0.0285
  697MPD2    C410306   4.274   3.980  15.557  0.4431 -0.0158  0.6971
  697MPD2    C510307   4.263   3.896  15.663 -0.0491 -0.3350 -0.2886
  697MPD2     H10308   4.137   3.785  15.337 -0.8018 -0.9267 -0.4748
  697MPD2    H110309   4.322   4.074  15.581  2.9151 -1.0353 -0.3124
  697MPD2    H210310   4.208   3.712  15.753  0.7926 -0.2270 -0.2264
  697MPD2    H310311   4.316   3.924  15.753 -0.5117 -1.1633  0.2307
  697MPD2     N10312   4.238   4.011  15.316  0.1408 -0.1214 -0.1530
  697MPD2    H510313   4.213   3.959  15.232 -2.3422 -0.3800  0.7517
  697MPD2    N110314   4.098   3.607  15.529  0.4711 -0.1679  0.5680
  697MPD2    H710315   4.081   3.578  15.433  1.8855  0.3399  0.1666
  698TMC3    C110316   4.281   4.204  15.184 -0.4926 -0.0320 -0.2271
  698TMC3    C210317   4.304   4.337  15.179 -0.1621 -0.1259 -0.1527
  698TMC3    C310318   4.283   4.402  15.063 -0.0617 -0.4502  0.1960
  698TMC3    C410319   4.259   4.131  15.067 -0.0975  0.1018 -0.0986
  698TMC3    C510320   4.236   4.197  14.951 -0.5129  0.0885  0.6205
  698TMC3    C610321   4.249   4.336  14.943  0.2428 -0.1957 -0.6321
  698TMC3     C10322   4.272   4.143  15.313  0.0083 -0.1975  0.1224
  698TMC3     O10323   4.271   4.222  15.410  0.1771  0.0317  0.2674
  698TMC3     H10324   4.311   4.398  15.269 -1.9941  0.4517 -0.4099
  698TMC3    H110325   4.259   4.023  15.076 -0.4452  0.1464  0.4247
  698TMC3    H210326   4.255   4.393  14.851  0.8072  0.9376  0.1098
  698TMC3    C710327   4.257   4.131  14.818  0.6312  0.0524  0.4474
  698TMC3    C810328   4.320   4.538  15.046 -0.9655  0.1314 -0.1211
  698TMC3    O110329   4.234   4.197  14.716 -0.8979 -0.2456 -0.3695
  698TMC3    O210330   4.254   4.618  14.979 -0.4034 -0.7281 -1.1164
  699TMC3    C110331   4.234   2.058  12.959  0.1251  0.0199 -0.4108
  699TMC3    C210332   4.300   1.947  13.005  0.1246  0.1280  0.0843
  699TMC3    C310333   4.224   1.878  13.094  0.0010  0.1259 -0.0086
  699TMC3    C410334   4.124   2.112  13.019 -0.0891  0.4566  0.6611
  699TMC3    C510335   4.057   2.038  13.114  0.6244  0.0166 -0.1833
  699TMC3    C610336   4.109   1.922  13.155  0.4689  0.7339  0.2110
  699TMC3     C10337   4.313   2.149  12.874  0.9882  0.6890 -0.3791
  699TMC3     O10338   4.252   2.216  12.791 -0.3285 -0.3450 -0.0422
  699TMC3     H10339   4.394   1.916  12.961  1.1436  0.1005  2.2611
  699TMC3    H110340   4.091   2.210  12.986  1.1002  0.6383  0.0273
  699TMC3    H210341   4.056   1.858  13.224 -1.6457  0.2649 -1.8116
  699TMC3    C710342   3.941   2.088  13.186  0.0075 -0.4199 -0.1674
  699TMC3    C810343   4.274   1.748  13.142 -0.4903  0.1107 -0.5297
  699TMC3    O110344   3.935   2.043  13.298  0.6288  0.1309 -0.0761
  699TMC3    O210345   4.186   1.673  13.182 -0.5340  0.8931  0.8780
  700TMC3    C110346   3.471   0.110  17.033 -0.1134 -0.4284 -0.2868
  700TMC3    C210347   3.476   4.703  17.051  0.3684 -0.3828  0.3134
  700TMC3    C310348   3.512   4.663  17.176  0.4550 -0.3730 -0.3858
  700TMC3    C410349   3.483   0.199  17.138  0.1776 -0.1536  0.0552
  700TMC3    C510350   3.509   0.161  17.266 -0.0419  0.2432 -0.2019
  700TMC3    C610351   3.520   0.024  17.287  0.6117 -0.1430  0.3336
  700TMC3     C10352   3.501   0.159  16.901  0.0330  0.5634  0.6437
  700TMC3     O10353   3.477   0.079  16.809 -0.2525 -0.5849 -0.0775
  700TMC3     H10354   3.476   4.626  16.975  1.2501 -0.8944  0.8300
  700TMC3    H110355   3.459   0.302  17.114 -1.1811 -0.3935  0.3807
  700TMC3    H210356   3.546   4.708  17.383 -0.8651  0.2944  0.9210
  700TMC3    C710357   3.489   0.245  17.377 -0.4549  0.1415  0.7062
  700TMC3    C810358   3.544   4.525  17.179 -0.0754 -0.0724 -0.3089
  700TMC3    O110359   3.488   0.190  17.484  0.4775 -0.0726  0.1432
  700TMC3    O210360   3.492   4.447  17.100 -0.3424 -0.1208  0.4651
  701TMC3    C110361   3.278   3.176  15.610  0.2504 -0.2298  0.0311
  701TMC3    C210362   3.312   3.099  15.502  0.1779 -0.3503 -0.0017
  701TMC3    C310363   3.440   3.101  15.455  0.0285  0.1135  0.3405
  701TMC3    C410364   3.372   3.262  15.668 -0.0115  0.1689 -0.5283
  701TMC3    C510365   3.498   3.271  15.607 -0.0630  0.6856 -1.1307
  701TMC3    C610366   3.531   3.187  15.505 -0.2175 -0.5175  0.0997
  701TMC3     C10367   3.147   3.157  15.674  0.5560 -0.5025 -0.6305
  701TMC3     O10368   3.087   3.047  15.665  0.5071  0.4512  0.4415
  701TMC3     H10369   3.242   3.024  15.468  1.6389 -1.3256 -0.8931
  701TMC3    H110370   3.339   3.342  15.735  1.8545 -0.2119  0.8430
  701TMC3    H210371   3.619   3.211  15.447  1.6835 -0.4818  2.9594
  701TMC3    C710372   3.593   3.378  15.641  0.5068  0.6429  0.8990
  701TMC3    C810373   3.494   2.984  15.377 -0.5170 -0.3457  0.0142
  701TMC3    O110374   3.659   3.417  15.549  0.2098 -0.8413  0.0536
  701TMC3    O210375   3.617   2.973  15.375 -0.3452 -0.1535  0.2036
  702MPD2     C10376   3.210   0.323  10.376 -0.2601 -0.2263  0.0851
  702MPD2    C110377   3.173   0.418  10.467 -0.1373  0.2174 -0.0490
  702MPD2    C210378   3.226   0.543  10.457  0.0827 -0.5335 -0.3781
  702MPD2    C310379   3.295   0.583  10.344  0.4361 -0.1026  0.0789
  702MPD2    C410380   3.331   0.489  10.252 -0.2962 -0.4532 -0.5857
  702MPD2    C510381   3.284   0.362  10.269 -0.0677  0.3618 -0.3466
  702MPD2     H10382   3.212   0.610  10.541  2.8065 -1.1352  0.5417
  702MPD2    H110383   3.400   0.511  10.170 -0.5895 -0.5254 -0.8521
  702MPD2    H210384   3.166   0.224  10.385 -0.7852 -0.0943 -1.0856
  702MPD2    H310385   3.328   0.288  10.203  0.0640  1.1555 -1.1494
  702MPD2     N10386   3.351   0.714  10.329 -0.2842 -0.2952 -0.1732
  702MPD2    H510387   3.411   0.733  10.249  0.2525 -3.4882 -0.5282
  702MPD2    N110388   3.096   0.387  10.583 -0.1660  0.5271 -0.3696
  702MPD2    H710389   3.077   0.470  10.637  2.1055 -0.0646  1.3197
  703TMC3    C110390   3.355   0.944  10.374  0.0240 -0.1108  0.2900
  703TMC3    C210391   3.284   1.054  10.421 -0.3110  0.6943 -0.0248
  703TMC3    C310392   3.347   1.155  10.483 -0.5236 -0.4518 -0.6750
  703TMC3    C410393   3.496   0.946  10.372 -0.3603  0.3800  0.2346
  703TMC3    C510394   3.552   1.063  10.404 -0.0655  0.2448  0.1611
  703TMC3    C610395   3.481   1.172  10.450 -0.1523 -0.1291 -0.0363
  703TMC3     C10396   3.289   0.816  10.392  0.2072  0.1864  0.3358
  703TMC3     O10397   3.181   0.819  10.452  0.1178 -0.4580 -0.1823
  703TMC3     H10398   3.178   1.043  10.441 -0.1473  1.3855  1.2328
  703TMC3    H110399   3.552   0.860  10.337  0.2838  1.4476 -1.3796
  703TMC3    H210400   3.539   1.251  10.496  1.2133  0.8180 -3.4066
  703TMC3    C710401   3.694   1.083  10.386  0.0319 -0.3928 -0.2670
  703TMC3    C810402   3.291   1.237  10.594 -0.0185  0.1372 -0.4485
  703TMC3    O110403   3.726   1.187  10.339  0.0266  0.0070 -0.0569
  703TMC3    O210404   3.367   1.321  10.648 -0.2860 -0.0409  0.1319
  704TMC3    C110405   0.544   3.536  11.714 -0.0363 -0.0204 -0.2672
  704TMC3    C210406   0.615   3.493  11.598  0.0251 -0.5991  0.0142
  704TMC3    C310407   0.648   3.363  11.586  0.2363  0.3988 -0.5159
  704TMC3    C410408   0.493   3.449  11.803  0.1808 -0.5042 -0.2608
  704TMC3    C510409   0.508   3.318  11.779 -0.0014  0.4033  0.3201
  704TMC3    C610410   0.593   3.275  11.675  0.4538  0.0864 -0.4367
  704TMC3     C10411   0.511   3.678  11.730  0.8346  0.4859 -0.4352
  704TMC3     O10412   0.401   3.700  11.782 -0.0673  0.4000 -0.0585
  704TMC3     H10413   0.644   3.563  11.521 -0.4686 -0.3577  0.0466
  704TMC3    H110414   0.429   3.488  11.882 -1.1057  0.2771 -1.6968
  704TMC3    H210415   0.620   3.170  11.667 -0.0111 -0.0986  0.3714
  704TMC3    C710416   0.494   3.222  11.894 -0.2505  0.0955  0.4063
  704TMC3    C810417   0.760   3.317  11.512 -0.1096  0.6071  0.5900
  704TMC3    O110418   0.521   3.106  11.870  0.1419  0.0050  0.0420
  704TMC3    O210419   0.799   3.202  11.543 -0.2339 -0.2910 -0.4244
  705MPD2     C10420   0.269   2.204  17.070  0.1580 -0.2532  0.0708
  705MPD2    C110421   0.210   2.266  16.964 -0.5492 -0.7262  0.4284
  705MPD2    C210422   0.077   2.312  16.977  0.3162 -1.0162 -0.0728
  705MPD2    C310423   0.004   2.306  17.095  0.2238 -0.4971  0.2038
  705MPD2    C410424   0.064   2.236  17.198 -0.4030 -0.1500 -0.0745
  705MPD2    C510425   0.194   2.200  17.186  0.4753  0.4468 -0.1169
  705MPD2     H10426   0.036   2.353  16.886  0.4438 -0.2084  0.2277
  705MPD2    H110427   0.007   2.200  17.283  0.7380  0.5864  1.0028
  705MPD2    H210428   0.371   2.167  17.075 -0.1825 -1.1313  0.4795
  705MPD2    H310429   0.235   2.139  17.266  2.3017  1.9760  0.1044
  705MPD2     N10430   4.593   2.353  17.113  0.0112 -0.3952  0.5919
  705MPD2    H510431   4.557   2.356  17.208 -0.1237  0.4591  0.5184
  705MPD2    N110432   0.264   2.268  16.832 -0.5591 -0.0435  0.0134
  705MPD2    H710433   0.206   2.315  16.764 -0.4200 -0.2244 -0.2292
  706TMC3    C110434   0.434   2.059  16.450  0.2305  0.0072  0.5283
  706TMC3    C210435   0.401   2.169  16.370 -0.3610  0.7780  0.2123
  706TMC3    C310436   0.375   2.290  16.437 -0.8353 -0.7393  0.1479
  706TMC3    C410437   0.441   2.075  16.583  0.0943 -0.4982 -0.6247
  706TMC3    C510438   0.404   2.186  16.646  0.2528 -0.4306  0.2995
  706TMC3    C610439   0.373   2.296  16.577  0.1421  0.8054  0.2968
  706TMC3     C10440   0.479   1.933  16.395 -0.0433 -0.8334  0.8185
  706TMC3     O10441   0.494   1.848  16.478  0.5493 -0.1483  0.3595
  706TMC3     H10442   0.390   2.153  16.263  1.4738 -0.7592  0.2402
  706TMC3    H110443   0.478   1.996  16.647  0.4973  0.0713 -0.1560
  706TMC3    H210444   0.364   2.387  16.635  0.4718  0.5876  0.6894
  706TMC3    C710445   0.372   2.188  16.788  0.1205  0.1220  0.3601
  706TMC3    C810446   0.316   2.393  16.355 -0.0267 -0.2106  0.3928
  706TMC3    O110447   0.440   2.121  16.859  0.8753  0.0581  0.7947
  706TMC3    O210448   0.306   2.383  16.232 -0.2222  0.0930  0.0939
  707TMC3    C110449   2.654   1.251   1.861 -0.4126 -0.1544  0.2231
  707TMC3    C210450   2.600   1.254   1.732 -0.4055  0.0576  0.1836
  707TMC3    C310451   2.467   1.294   1.726  0.3625  0.1388 -0.6136
  707TMC3    C410452   2.593   1.312   1.971  0.6492  0.5681 -0.1042
  707TMC3    C510453   2.463   1.351   1.951 -0.6733 -0.5143 -0.2863
  707TMC3    C610454   2.398   1.339   1.837  0.1061  0.1940  0.6663
  707TMC3     C10455   2.786   1.188   1.884 -0.3748 -0.2494  0.5309
  707TMC3     O10456   2.839   1.230   1.984  0.2549  0.3147 -0.7286
  707TMC3     H10457   2.652   1.198   1.656  1.9048  2.4449 -0.0114
  707TMC3    H110458   2.649   1.332   2.061  2.8704  2.6505 -1.9604
  707TMC3    H210459   2.298   1.377   1.821  0.8874  1.9705  0.0655
  707TMC3    C710460   2.387   1.398   2.067 -0.3660 -0.5501 -0.7155
  707TMC3    C810461   2.396   1.277   1.608 -0.1003 -0.5557  0.6831
  707TMC3    O110462   2.411   1.368   2.183  0.3014 -0.1245 -0.2685
  707TMC3    O210463   2.307   1.359   1.591 -0.8385  0.6174  0.2771
  708MPD2     C10464   3.161   0.870  13.863 -0.3440  0.2222 -0.0827
  708MPD2    C110465   3.208   0.743  13.835 -0.6559 -0.1833 -0.0617
  708MPD2    C210466   3.341   0.711  13.860 -0.2625  0.1793 -0.3577
  708MPD2    C310467   3.432   0.802  13.912 -0.1391 -0.0770 -0.2549
  708MPD2    C410468   3.389   0.930  13.925  0.0162 -0.0524 -0.5776
  708MPD2    C510469   3.259   0.962  13.892  0.1435 -0.0984  1.0999
  708MPD2     H10470   3.380   0.610  13.851 -1.0747 -0.1534 -0.1322
  708MPD2    H110471   3.455   1.011  13.953  0.2382 -0.5435  0.3364
  708MPD2    H210472   3.070   0.909  13.818 -0.6489 -0.2585  0.1134
  708MPD2    H310473   3.224   1.064  13.898  1.0352  0.3953 -2.2525
  708MPD2     N10474   3.560   0.763  13.961 -0.7354 -0.1520 -0.0884
  708MPD2    H510475   3.612   0.831  14.016 -1.5475 -0.7565  1.4296
  708MPD2    N110476   3.122   0.639  13.798  0.4827  0.1153 -0.0823
  708MPD2    H710477   3.025   0.671  13.801  0.1387 -0.8651 -0.9993
  709TMC3    C110478   3.051   0.411  13.785  0.5987  0.3646  0.0625
  709TMC3    C210479   3.093   0.301  13.717  0.2294 -0.4504  0.1530
  709TMC3    C310480   3.110   0.185  13.789  0.0525  0.2233  0.1423
  709TMC3    C410481   3.038   0.405  13.926  0.2928 -0.4232 -0.0490
  709TMC3    C510482   3.061   0.286  13.984 -0.2147 -0.5129 -0.2219
  709TMC3    C610483   3.089   0.170  13.920  0.2237  0.6214 -0.5531
  709TMC3     C10484   3.153   0.516  13.758 -0.0968 -0.2117  0.9148
  709TMC3     O10485   3.258   0.472  13.711 -0.0684  0.2450 -0.3278
  709TMC3     H10486   3.121   0.314  13.613 -0.3387 -0.2529  0.0238
  709TMC3    H110487   3.015   0.495  13.981  1.3383 -0.5683  0.6220
  709TMC3    H210488   3.119   0.076  13.965  0.1867  0.6324 -0.5053
  709TMC3    C710489   3.102   0.291  14.127  0.0206 -0.2645  0.8541
  709TMC3    C810490   3.184   0.082  13.724  0.4956  0.6253 -0.1199
  709TMC3    O110491   3.040   0.359  14.205 -0.2795 -0.0380  0.4469
  709TMC3    O210492   3.263   0.023  13.794  0.2645  0.6290  0.1824
  710TMC3    C110493   0.269   2.446   1.297 -0.0033  0.4413 -0.3304
  710TMC3    C210494   0.378   2.390   1.239 -0.3806 -0.1596  0.1256
  710TMC3    C310495   0.468   2.315   1.307 -0.4184  0.0136  0.6212
  710TMC3    C410496   0.256   2.434   1.437  0.0249  0.3511 -0.0828
  710TMC3    C510497   0.343   2.349   1.494 -0.0844  0.1793  0.0432
  710TMC3    C610498   0.455   2.301   1.438 -0.5715 -1.1853 -0.0960
  710TMC3     C10499   0.189   2.537   1.225 -0.3068 -0.5923 -0.1885
  710TMC3     O10500   0.124   2.611   1.298 -0.3549 -0.5088  0.3041
  710TMC3     H10501   0.397   2.402   1.133  0.2759  1.8709  0.4734
  710TMC3    H110502   0.163   2.469   1.480  0.6126 -1.7402  2.9558
  710TMC3    H210503   0.526   2.242   1.496  1.1947 -0.0224 -1.0959
  710TMC3    C710504   0.286   2.258   1.591  0.1836 -0.4380 -0.0011
  710TMC3    C810505   0.510   2.199   1.239  0.0768  0.5808 -0.3029
  710TMC3    O110506   0.177   2.208   1.566 -0.7004 -0.7845 -0.0052
  710TMC3    O210507   0.472   2.185   1.124 -0.5760  0.1514 -0.0457
  711TMC3    C110508   3.836   2.373  15.100  0.2589 -0.3400 -0.8749
  711TMC3    C210509   3.815   2.438  15.221 -1.0102 -0.3538 -0.5515
  711TMC3    C310510   3.885   2.408  15.331  0.2076  0.5455 -0.2096
  711TMC3    C410511   3.906   2.257  15.096  0.1740 -0.0588  0.5269
  711TMC3    C510512   3.973   2.227  15.215 -0.8034  0.1278  0.4853
  711TMC3    C610513   3.973   2.301  15.330  0.1215  0.2270 -0.5972
  711TMC3     C10514   3.796   2.435  14.983 -0.4087 -0.3808  0.6457
  711TMC3     O10515   3.801   2.555  14.978 -0.1983  0.2966  0.4849
  711TMC3     H10516   3.750   2.525  15.216  1.4780  1.5741  0.3099
  711TMC3    H110517   3.928   2.213  14.999 -0.9007  1.1237 -0.2545
  711TMC3    H210518   4.020   2.273  15.423 -1.5429 -2.0317 -0.4305
  711TMC3    C710519   4.088   2.137  15.212  1.0295  0.1442  0.1483
  711TMC3    C810520   3.889   2.504  15.436 -0.6408  0.4526 -0.9178
  711TMC3    O110521   4.166   2.145  15.303  0.2916  0.1673  0.4563
  711TMC3    O210522   3.787   2.564  15.460  0.8316 -0.0842 -0.6645
  712MPD2     C10523   0.464   3.297  13.657  0.2659 -0.9945 -0.0864
  712MPD2    C110524   0.421   3.344  13.537  0.9056 -0.4290  0.2488
  712MPD2    C210525   0.410   3.482  13.532  0.2120  0.4326 -0.0603
  712MPD2    C310526   0.439   3.574  13.639 -0.4667  0.2172 -0.0751
  712MPD2    C410527   0.490   3.515  13.758 -0.3436 -0.1817 -0.3032
  712MPD2    C510528   0.503   3.379  13.764  0.0260  1.1636 -0.0207
  712MPD2     H10529   0.386   3.523  13.434 -0.1316  0.4919  0.0472
  712MPD2    H110530   0.521   3.578  13.840  0.7997  1.7090 -2.1730
  712MPD2    H210531   0.481   3.190  13.668 -1.2559 -1.3543 -1.1642
  712MPD2    H310532   0.550   3.322  13.843  0.0965  1.5709  0.2281
  712MPD2     N10533   0.447   3.714  13.619  0.0115  0.3547  0.1694
  712MPD2    H510534   0.498   3.764  13.691  2.8713  0.6393 -2.0763
  712MPD2    N110535   0.385   3.259  13.432  0.0217 -0.5783  0.1576
  712MPD2    H710536   0.375   3.299  13.339  1.0616  2.1468  1.2439
  713TMC3    C110537   0.468   3.916  13.526  0.2480 -0.1971  0.2213
  713TMC3    C210538   0.568   3.942  13.437 -1.0853  0.0266  0.1901
  713TMC3    C310539   0.654   4.041  13.462  0.8179  0.2063  0.9948
  713TMC3    C410540   0.452   3.969  13.642 -0.2425 -0.4886 -0.0829
  713TMC3    C510541   0.539   4.078  13.665  0.2651 -0.0429  0.4040
  713TMC3    C610542   0.633   4.118  13.573 -0.5446  0.7866  0.6660
  713TMC3     C10543   0.421   3.782  13.508 -0.6741 -0.3860 -0.3863
  713TMC3     O10544   0.404   3.737  13.395 -0.1474 -0.2136 -0.3219
  713TMC3     H10545   0.577   3.887  13.345 -0.5529  1.5979 -0.6981
  713TMC3    H110546   0.367   3.948  13.706  0.2117 -0.4927  0.5230
  713TMC3    H210547   0.703   4.198  13.595  0.5716  0.2644 -0.9919
  713TMC3    C710548   0.474   4.195  13.732 -0.2761 -0.3690 -0.0364
  713TMC3    C810549   0.767   4.067  13.376  0.7693  0.1240  0.1005
  713TMC3    O110550   0.535   4.273  13.802 -0.1502 -0.2050  0.0786
  713TMC3    O210551   0.805   4.180  13.384 -0.5139 -0.2866  0.0591
  714MPD2     C10552   2.555   2.492   1.601 -0.6845  0.8020 -0.0203
  714MPD2    C110553   2.587   2.421   1.482  0.2283 -0.1304 -0.3694
  714MPD2    C210554   2.495   2.421   1.383  0.3550 -0.2872 -0.2553
  714MPD2    C310555   2.377   2.494   1.387  0.2033  0.2645 -0.3306
  714MPD2    C410556   2.338   2.560   1.506  0.2328  0.0531  0.1283
  714MPD2    C510557   2.433   2.558   1.614 -0.4476  0.4943 -0.6299
  714MPD2     H10558   2.516   2.367   1.291  0.0922 -0.1206 -0.4154
  714MPD2    H110559   2.247   2.618   1.509 -0.4477 -1.1113  1.7257
  714MPD2    H210560   2.622   2.493   1.686 -0.8347 -0.3352  0.1166
  714MPD2    H310561   2.412   2.607   1.709  0.9559 -0.0570 -0.0275
  714MPD2     N10562   2.296   2.487   1.269  0.0182 -0.2095  0.0055
  714MPD2    H510563   2.320   2.415   1.201 -0.9755 -0.6004  0.0636
  714MPD2    N110564   2.714   2.356   1.466 -0.3816 -0.0008  0.6452
  714MPD2    H710565   2.775   2.354   1.547  0.9460  2.2081 -0.3082
  715TMC3    C110566   2.915   2.309   1.351 -0.6605 -0.0228 -0.0377
  715TMC3    C210567   2.979   2.231   1.262  0.1607 -0.0876 -0.5265
  715TMC3    C310568   3.119   2.231   1.260 -0.5312  0.4318  0.7104
  715TMC3    C410569   2.985   2.389   1.429  0.1720 -0.1581 -0.3640
  715TMC3    C510570   3.127   2.391   1.431 -0.6362 -0.2282  0.0344
  715TMC3    C610571   3.195   2.309   1.348 -0.2620  0.0893 -0.1800
  715TMC3     C10572   2.766   2.302   1.346  0.2414 -0.8034  0.4747
  715TMC3     O10573   2.713   2.274   1.239  0.0046  0.5741 -0.3730
  715TMC3     H10574   2.928   2.170   1.188  1.1362 -1.4808 -0.0523
  715TMC3    H110575   2.927   2.459   1.489  1.6701  1.3340 -0.6614
  715TMC3    H210576   3.301   2.291   1.357 -0.2487  0.2125 -0.0942
  715TMC3    C710577   3.198   2.435   1.546  0.7167 -0.0962 -0.1634
  715TMC3    C810578   3.196   2.158   1.159 -0.4404 -0.2999  0.4317
  715TMC3    O110579   3.312   2.393   1.558 -0.6014 -0.0634  0.1858
  715TMC3    O210580   3.145   2.062   1.106  0.6396  0.2437 -0.4944
  716MPD2     C10581   2.988   0.421   9.758 -0.3739 -0.8349  0.1284
  716MPD2    C110582   3.053   0.451   9.638 -0.1799  0.2601  0.1353
  716MPD2    C210583   3.105   0.343   9.565  0.4944 -0.0134 -0.0873
  716MPD2    C310584   3.083   0.212   9.608 -0.6840  0.2112  0.4865
  716MPD2    C410585   3.022   0.185   9.723 -0.3166 -0.0079 -0.6108
  716MPD2    C510586   2.973   0.290   9.799 -0.3806  0.0685 -0.6214
  716MPD2     H10587   3.158   0.359   9.472 -3.8994  1.8717 -2.2669
  716MPD2    H110588   3.004   0.085   9.758  0.7226  0.4968  1.3471
  716MPD2    H210589   2.953   0.498   9.825  2.2232  0.1633  0.3501
  716MPD2    H310590   2.928   0.268   9.896 -0.1090 -1.9524 -0.9658
  716MPD2     N10591   3.131   0.113   9.522 -0.2512 -0.4019 -0.7257
  716MPD2    H510592   3.165   0.149   9.433  1.7190  2.0302  0.9911
  716MPD2    N110593   3.061   0.585   9.594 -0.0675 -0.3697  0.0406
  716MPD2    H710594   3.008   0.655   9.645 -1.5062 -1.7155  0.3949
  717TMC3    C110595   3.177   4.634   9.422  0.0533  0.1418 -0.4139
  717TMC3    C210596   3.145   4.697   9.303 -0.1550  0.3574  0.6033
  717TMC3    C310597   3.126   4.611   9.204 -0.0003 -0.5981  0.3293
  717TMC3    C410598   3.193   4.498   9.428  0.3875 -0.4368 -0.2525
  717TMC3    C510599   3.175   4.419   9.324 -0.5133  0.0821 -0.0167
  717TMC3    C610600   3.135   4.473   9.205  0.1656 -0.5908 -0.5525
  717TMC3     C10601   3.132   4.703   9.541  0.0257  0.3064 -0.1190
  717TMC3     O10602   3.120   4.640   9.645 -0.0079  0.5288 -0.0682
  717TMC3     H10603   3.152   0.078   9.283 -2.0511 -0.3796 -3.9518
  717TMC3    H110604   3.236   4.469   9.523  0.3117  1.4440  0.3637
  717TMC3    H210605   3.118   4.414   9.116  2.0944  0.6044 -1.6971
  717TMC3    C710606   3.236   4.292   9.328  0.6263 -0.6236 -0.0189
  717TMC3    C810607   3.085   4.677   9.082 -0.4072  0.5053  0.4884
  717TMC3    O110608   3.324   4.275   9.414  0.3047 -0.5523 -0.1950
  717TMC3    O210609   3.100   0.073   9.085 -0.4890  0.3696 -0.2431
  718MPD2     C10610   2.540   3.599  12.808 -0.3806  0.7663 -0.0732
  718MPD2    C110611   2.524   3.633  12.675 -0.4140  0.0714 -0.7807
  718MPD2    C210612   2.419   3.577  12.607 -0.2735 -0.0988 -0.6945
  718MPD2    C310613   2.329   3.488  12.664  0.2156 -0.1655  0.7638
  718MPD2    C410614   2.336   3.471  12.799  0.0279  0.3982  0.1059
  718MPD2    C510615   2.443   3.525  12.874 -0.1439 -0.0030 -0.4050
  718MPD2     H10616   2.413   3.606  12.503 -0.0571 -0.0517 -0.6947
  718MPD2    H110617   2.260   3.418  12.855  0.2694 -0.8752 -0.7790
  718MPD2    H210618   2.621   3.636  12.870 -0.0723 -0.6700  0.3910
  718MPD2    H310619   2.457   3.489  12.975  3.7011 -0.4660 -1.1054
  718MPD2     N10620   2.226   3.439  12.579 -0.3936  0.6087 -0.4531
  718MPD2    H510621   2.240   3.462  12.481  0.4887 -0.6420 -0.6057
  718MPD2    N110622   2.615   3.716  12.611 -0.9180  0.0341 -0.3588
  718MPD2    H710623   2.586   3.738  12.516 -1.8103  1.3490  0.2295
  719TMC3    C110624   2.770   3.883  12.557  0.1785  0.4174  0.2666
  719TMC3    C210625   2.742   3.839  12.430  0.4031 -1.1187 -0.3076
  719TMC3    C310626   2.676   3.923  12.344  0.3588  0.0080 -0.4216
  719TMC3    C410627   2.747   4.015  12.593 -0.0495 -0.1764 -0.5873
  719TMC3    C510628   2.675   4.098  12.507  0.2288 -0.1713 -0.3976
  719TMC3    C610629   2.638   4.044  12.385 -0.4331  0.3196  0.1732
  719TMC3     C10630   2.722   3.796  12.666  0.4507 -0.2676 -0.1661
  719TMC3     O10631   2.749   3.807  12.783 -0.3946  0.4001  0.1503
  719TMC3     H10632   2.751   3.733  12.414  0.0336 -1.1499 -0.3008
  719TMC3    H110633   2.783   4.054  12.688  1.8323 -1.6568 -0.6868
  719TMC3    H210634   2.600   4.121  12.319  1.5806 -2.1568 -3.8466
  719TMC3    C710635   2.721   4.239  12.499  0.4819 -0.2914  0.8764
  719TMC3    C810636   2.575   3.842  12.274 -0.3442  0.0260 -0.7976
  719TMC3    O110637   2.832   4.263  12.543  0.3744 -0.2593 -0.5187
  719TMC3    O210638   2.562   3.730  12.320 -0.0840  0.1039  0.4505
  720MPD2     C10639   0.654   0.277  13.771 -0.0807 -0.1022  0.2689
  720MPD2    C110640   0.686   0.404  13.740  0.2008 -0.4848  0.1759
  720MPD2    C210641   0.813   0.441  13.776  0.1721 -0.5096  0.7339
  720MPD2    C310642   0.905   0.359  13.841  0.2581  0.0777  0.6412
  720MPD2    C410643   0.869   0.231  13.867 -0.5029  0.3810  0.1186
  720MPD2    C510644   0.743   0.189  13.830  0.3621 -0.6309 -0.0093
  720MPD2     H10645   0.850   0.543  13.765  0.0340 -0.5918 -0.4797
  720MPD2    H110646   0.944   0.159  13.899 -0.4139 -1.0131 -3.3019
  720MPD2    H210647   0.561   0.229  13.747 -0.5593  0.4455  1.0216
  720MPD2    H310648   0.713   0.085  13.841  0.2159 -0.5848  0.0226
  720MPD2     N10649   1.036   0.413  13.848 -0.7382 -0.0192  0.3413
  720MPD2    H510650   1.060   0.508  13.820 -1.0919  0.3277  1.2230
  720MPD2    N110651   0.604   0.500  13.684 -0.2072 -0.3792 -0.4198
  720MPD2    H710652   0.646   0.588  13.657 -1.8536  0.3816 -0.4719
  721TMC3    C110653   1.266   0.421  13.864 -0.0933 -0.0207 -0.0873
  721TMC3    C210654   1.273   0.516  13.965  0.3282 -0.4934 -0.2347
  721TMC3    C310655   1.386   0.606  13.963  0.5350 -1.3463 -0.3340
  721TMC3    C410656   1.355   0.414  13.770  0.1246 -0.2721 -0.5067
  721TMC3    C510657   1.469   0.486  13.772  0.4995  0.1779 -0.2343
  721TMC3    C610658   1.482   0.590  13.866 -0.4964 -0.5550  0.1741
  721TMC3     C10659   1.149   0.338  13.858 -0.1263 -0.2533 -0.4509
  721TMC3     O10660   1.169   0.218  13.834 -0.1572 -0.0602 -0.7880
  721TMC3     H10661   1.202   0.520  14.046 -1.8614 -1.1453 -2.0974
  721TMC3    H110662   1.351   0.329  13.703 -0.0001  0.0882 -0.9557
  721TMC3    H210663   1.560   0.664  13.855  0.2922 -1.2645  0.9058
  721TMC3    C710664   1.572   0.466  13.668 -0.1492 -0.0919  0.5062
  721TMC3    C810665   1.418   0.685  14.083 -0.1740 -0.2204 -0.0707
  721TMC3    O110666   1.676   0.531  13.670  0.0610  0.2832 -0.2444
  721TMC3    O210667   1.500   0.770  14.061  0.1790 -0.5146 -0.3222
  722MPD2     C10668   4.456   4.147  13.079 -0.2069  0.4427 -0.0800
  722MPD2    C110669   4.410   4.261  13.020  0.1628 -0.5388 -0.7167
  722MPD2    C210670   4.280   4.259  12.962 -0.3390 -0.4489 -0.0150
  722MPD2    C310671   4.192   4.153  12.975  0.2290 -0.3878  0.3078
  722MPD2    C410672   4.240   4.043  13.049 -0.0351 -0.1623 -0.8221
  722MPD2    C510673   4.372   4.039  13.086 -0.2395  0.0652 -0.3286
  722MPD2     H10674   4.258   4.349  12.905 -0.2064 -1.5883 -1.8576
  722MPD2    H110675   4.186   3.949  13.052 -0.1508 -0.0984 -0.9157
  722MPD2    H210676   4.561   4.134  13.103 -0.5223 -0.1194  0.9763
  722MPD2    H310677   4.406   3.939  13.109  2.5022  0.9283 -0.5506
  722MPD2     N10678   4.068   4.157  12.908  0.2913  0.0037 -0.1583
  722MPD2    H510679   4.044   4.244  12.861  1.6059  1.1449  1.3013
  722MPD2    N110680   4.478   4.383  13.007  0.6008  0.0335 -0.1580
  722MPD2    H710681   4.437   4.461  12.957  0.2325 -0.2244 -0.2585
  723TMC3    C110682   3.858   4.079  12.830  0.2590 -0.6044 -0.1048
  723TMC3    C210683   3.785   3.975  12.794  0.6828  0.6457  0.4765
  723TMC3    C310684   3.663   4.000  12.738 -0.1772 -0.3910 -0.4774
  723TMC3    C410685   3.810   4.203  12.821 -0.0703 -0.3623  0.2412
  723TMC3    C510686   3.679   4.225  12.770  0.7522  0.4394  0.6371
  723TMC3    C610687   3.610   4.124  12.728 -0.0467 -0.0395 -0.1457
  723TMC3     C10688   3.980   4.053  12.898  0.1362 -0.5875  0.4391
  723TMC3     O10689   3.998   3.931  12.932  0.1336  0.4229 -0.3654
  723TMC3     H10690   3.842   3.883  12.787  1.8061  1.5020 -1.5831
  723TMC3    H110691   3.860   4.293  12.854 -0.8155  0.1048  0.0953
  723TMC3    H210692   3.528   4.130  12.658  0.1985  1.3944 -0.3112
  723TMC3    C710693   3.641   4.342  12.706 -0.7040  0.3580  0.0008
  723TMC3    C810694   3.585   3.882  12.688  0.2328  0.0827 -0.2301
  723TMC3    O110695   3.575   4.333  12.603  0.2557 -0.0845  0.5449
  723TMC3    O210696   3.480   3.911  12.628 -0.3173  0.6502 -0.0543
  724TMC3    C110697   4.177   3.271   9.195  0.3380 -0.3147 -0.3674
  724TMC3    C210698   4.120   3.387   9.149 -0.4834  0.6822  0.2090
  724TMC3    C310699   4.186   3.448   9.050  0.0817  0.5552 -0.9038
  724TMC3    C410700   4.301   3.228   9.160  0.1256 -0.0790  0.3623
  724TMC3    C510701   4.362   3.293   9.055 -0.4447  0.5807 -0.2012
  724TMC3    C610702   4.303   3.408   8.996 -0.4726  0.0382 -0.4836
  724TMC3     C10703   4.111   3.207   9.308 -0.1368  0.3259 -0.5556
  724TMC3     O10704   3.993   3.232   9.322 -0.3728  0.4867  0.0335
  724TMC3     H10705   4.020   3.409   9.183 -0.7301 -2.1629  1.3813
  724TMC3    H110706   4.351   3.145   9.207  0.8828 -0.7411 -1.5920
  724TMC3    H210707   4.356   3.454   8.914  1.7116 -2.4943 -0.5260
  724TMC3    C710708   4.484   3.234   8.996  0.3403 -0.4498 -0.0841
  724TMC3    C810709   4.111   3.557   8.983 -0.1535 -0.2775 -0.0297
  724TMC3    O110710   4.505   3.120   9.023 -0.3655 -0.0601 -0.5756
  724TMC3    O210711   3.996   3.571   9.015  0.3409  0.5116  0.4559
  725TMC3    C110712   1.631   0.498  12.779  0.2713 -0.8171 -0.3260
  725TMC3    C210713   1.506   0.552  12.785 -0.3010  0.1734  0.3225
  725TMC3    C310714   1.403   0.475  12.730 -0.4063  0.5127  0.4661
  725TMC3    C410715   1.657   0.378  12.724 -0.6383 -0.0217  0.3553
  725TMC3    C510716   1.561   0.306  12.658  0.5408 -0.5866  0.0429
  725TMC3    C610717   1.428   0.355  12.665  0.7764  0.1381 -0.3371
  725TMC3     C10718   1.735   0.561  12.852  0.0730  0.2166  0.0948
  725TMC3     O10719   1.826   0.491  12.891  0.0559  0.3415  0.1147
  725TMC3     H10720   1.486   0.640  12.845 -0.8394 -0.8650  1.6850
  725TMC3    H110721   1.757   0.337  12.715 -1.2178 -1.1470 -0.9778
  725TMC3    H210722   1.350   0.313  12.603  1.3334 -0.1662 -0.8245
  725TMC3    C710723   1.589   0.222  12.544  0.1948  0.0374 -0.1626
  725TMC3    C810724   1.283   0.550  12.690  0.2058  0.2500  0.2676
  725TMC3    O110725   1.502   0.234  12.458  0.3492  0.5144 -0.1836
  725TMC3    O210726   1.182   0.479  12.666  0.3831  0.5175  0.6299
  726MPD2     C10727   4.483   2.814  10.105 -0.4382 -0.3513  0.4946
  726MPD2    C110728   4.385   2.858  10.194 -0.2755  0.6280  0.4091
  726MPD2    C210729   4.304   2.765  10.250 -0.4155  0.3540 -0.5577
  726MPD2    C310730   4.305   2.635  10.202  0.4594  0.0815  0.4094
  726MPD2    C410731   4.402   2.598  10.109 -0.0929  0.3832  0.0379
  726MPD2    C510732   4.491   2.683  10.060 -0.0672  0.0383  0.5565
  726MPD2     H10733   4.230   2.813  10.312 -0.3239 -0.4106  0.1403
  726MPD2    H110734   4.402   2.503  10.058 -0.4424  0.1708  0.4287
  726MPD2    H210735   4.558   2.884  10.071 -1.0681 -0.0895 -0.3419
  726MPD2    H310736   4.573   2.656   9.995 -0.2411  0.6432  0.0865
  726MPD2     N10737   4.200   2.542  10.236  0.1076  0.2339  0.1899
  726MPD2    H510738   4.197   2.459  10.178 -0.5177  1.7342 -1.9629
  726MPD2    N110739   4.367   2.995  10.231  0.5616  0.0329  0.2485
  726MPD2    H710740   4.282   3.018  10.281  0.1472  0.4984 -0.6587
  727TMC3    C110741   4.396   3.222  10.254  0.6472  0.4825  0.7169
  727TMC3    C210742   4.478   3.304  10.321  0.0305  0.3448  0.1348
  727TMC3    C310743   4.430   3.427  10.357 -0.5324 -0.0556  0.6392
  727TMC3    C410744   4.273   3.267  10.221  0.2683 -0.8141 -0.0188
  727TMC3    C510745   4.217   3.385  10.267 -0.3821 -0.2341  0.2003
  727TMC3    C610746   4.301   3.470  10.337 -0.0779 -0.5256 -0.8523
  727TMC3     C10747   4.447   3.100  10.197  0.2845 -0.1469 -0.3007
  727TMC3     O10748   4.566   3.096  10.167 -0.1158  0.4560  0.1303
  727TMC3     H10749   4.582   3.278  10.338 -0.4178 -0.1398  2.1504
  727TMC3    H110750   4.221   3.202  10.151 -0.8107 -0.9736  0.9261
  727TMC3    H210751   4.261   3.567  10.365 -0.5868 -0.6011 -1.3190
  727TMC3    C710752   4.083   3.438  10.225  0.1079  0.2673  0.2671
  727TMC3    C810753   4.521   3.503  10.443 -0.0314  0.1818 -0.5831
  727TMC3    O110754   4.082   3.554  10.197  0.0064 -0.0307 -0.1583
  727TMC3    O210755   4.640   3.481  10.426 -0.1197 -0.0850  0.0534
  728TMC3    C110756   3.232   1.498  15.626  0.8263 -0.8561 -0.5215
  728TMC3    C210757   3.355   1.552  15.621 -0.1899 -0.3517  0.5254
  728TMC3    C310758   3.384   1.630  15.516  0.1019 -0.5991  0.2975
  728TMC3    C410759   3.134   1.517  15.529  0.2207  0.2333 -0.5386
  728TMC3    C510760   3.168   1.591  15.423 -0.2213  0.6121 -0.5873
  728TMC3    C610761   3.288   1.651  15.419 -0.4245  0.0266 -0.8470
  728TMC3     C10762   3.190   1.420  15.737 -0.3875  0.5130  0.1066
  728TMC3     O10763   3.218   1.454  15.852  0.4718 -0.4597  0.3619
  728TMC3     H10764   3.413   1.548  15.712  2.1725 -1.2775 -1.0211
  728TMC3    H110765   3.031   1.482  15.537  0.1204  0.3554 -1.2753
  728TMC3    H210766   3.305   1.715  15.333 -0.9084  1.5875  0.2308
  728TMC3    C710767   3.069   1.589  15.314  0.2822  1.1806 -0.7567
  728TMC3    C810768   3.521   1.658  15.496 -0.3169  0.2228  0.3765
  728TMC3    O110769   2.962   1.537  15.330  0.0397 -0.0033  0.1988
  728TMC3    O210770   3.604   1.633  15.579  0.1480 -0.1874  0.3602
  729MPD2     C10771   0.592   2.598  16.504 -0.7828 -0.5183 -0.3980
  729MPD2    C110772   0.668   2.489  16.495 -0.0866  0.1318 -0.6018
  729MPD2    C210773   0.679   2.405  16.607  0.2843 -1.1406  0.1734
  729MPD2    C310774   0.623   2.443  16.725  0.3442  0.1191  0.6435
  729MPD2    C410775   0.542   2.550  16.732  0.2536 -0.3603  0.3387
  729MPD2    C510776   0.518   2.622  16.614 -0.2106  0.4602 -0.0059
  729MPD2     H10777   0.729   2.310  16.591  0.2741 -0.8536 -1.5216
  729MPD2    H110778   0.488   2.576  16.822  1.1213 -1.2366  1.1127
  729MPD2    H210779   0.580   2.660  16.416  0.4329 -0.2362 -0.3570
  729MPD2    H310780   0.459   2.713  16.613  1.8410  1.8393  4.2277
  729MPD2     N10781   0.647   2.383  16.849  0.1343  0.0868 -0.1336
  729MPD2    H510782   0.614   2.440  16.927 -1.7635 -1.9229  0.5238
  729MPD2    N110783   0.729   2.459  16.371 -0.2564 -0.5779  0.5285
  729MPD2    H710784   0.703   2.518  16.293 -0.9246 -0.1792  1.0505
  730TMC3    C110785   0.741   2.247  17.015 -0.6490  0.3510 -0.3150
  730TMC3    C210786   0.873   2.247  17.037  0.6389  0.4080 -0.7300
  730TMC3    C310787   0.919   2.324  17.143  0.1710  0.7168  0.2553
  730TMC3    C410788   0.655   2.306  17.103  0.2367  0.1762 -0.1937
  730TMC3    C510789   0.700   2.378  17.206 -0.1246  0.2564 -0.5475
  730TMC3    C610790   0.834   2.397  17.225 -0.2275 -0.1479 -0.5321
  730TMC3     C10791   0.709   2.260  16.868  0.1147 -0.5548  0.0638
  730TMC3     O10792   0.768   2.189  16.788  0.5325 -0.2577  0.7524
  730TMC3     H10793   0.946   2.226  16.960 -1.1623  1.3552 -2.6968
  730TMC3    H110794   0.547   2.306  17.089  0.3615 -1.2987 -1.1027
  730TMC3    H210795   0.867   2.467  17.301 -0.2473 -1.5203  0.7322
  730TMC3    C710796   0.637   2.504  17.197 -0.1703  0.3512 -0.1038
  730TMC3    C810797   1.056   2.365  17.130  0.3154 -0.0686 -0.0652
  730TMC3    O110798   0.597   2.530  17.083  0.4224 -0.2509  0.3477
  730TMC3    O210799   1.142   2.283  17.106  0.0387  0.2696 -0.2850
  731MPD2     C10800   0.977   1.485  11.773  0.3035 -0.7703 -0.0029
  731MPD2    C110801   0.909   1.365  11.805  0.7469 -1.0153 -0.4084
  731MPD2    C210802   0.857   1.350  11.931 -0.0345 -0.3037  0.0073
  731MPD2    C310803   0.878   1.444  12.031  0.7949 -0.6334  0.6217
  731MPD2    C410804   0.950   1.558  11.996 -0.0253  0.2850 -0.3136
  731MPD2    C510805   1.002   1.573  11.870 -0.0371 -0.8939 -0.0078
  731MPD2     H10806   0.799   1.261  11.955  1.4185 -1.4495 -0.7346
  731MPD2    H110807   0.963   1.642  12.063 -3.2346  1.1040 -0.7254
  731MPD2    H210808   1.024   1.501  11.677  0.2569 -0.8958 -0.0475
  731MPD2    H310809   1.057   1.665  11.853  2.3752 -2.2507  0.4269
  731MPD2     N10810   0.823   1.425  12.160 -0.4687 -0.8839  0.1856
  731MPD2    H510811   0.759   1.348  12.174  1.3389 -2.0538  1.8472
  731MPD2    N110812   0.902   1.262  11.705 -0.3990  0.6476  0.3524
  731MPD2    H710813   0.947   1.295  11.620 -0.2376  1.1233  0.6187
  732TMC3    C110814   0.858   1.055  11.597 -0.0931 -0.0621  0.0674
  732TMC3    C210815   0.774   0.956  11.568  0.1977 -0.2438 -0.0405
  732TMC3    C310816   0.805   0.859  11.480 -0.1460 -0.3455  0.4636
  732TMC3    C410817   0.970   1.072  11.534  0.5416 -0.6567  0.0918
  732TMC3    C510818   1.010   0.965  11.457 -0.6419  0.5141 -0.6900
  732TMC3    C610819   0.936   0.855  11.429  0.3824  0.1528 -0.2535
  732TMC3     C10820   0.837   1.139  11.714  0.2265  0.4148 -0.0040
  732TMC3     O10821   0.755   1.101  11.796 -0.2122  0.1777  0.2212
  732TMC3     H10822   0.674   0.960  11.610 -0.6718  0.4736 -2.1760
  732TMC3    H110823   1.046   1.140  11.572 -0.4116  0.7098 -0.4553
  732TMC3    H210824   0.969   0.779  11.359  0.4235 -0.8770  0.8726
  732TMC3    C710825   1.150   0.960  11.430 -0.6333  0.0104 -0.6429
  732TMC3    C810826   0.733   0.733  11.465 -0.6728  0.3738  0.1518
  732TMC3    O110827   1.207   1.066  11.398  0.2744  0.7293  0.1824
  732TMC3    O210828   0.755   0.668  11.361  0.0537 -0.5195 -0.4192
  733TMC3    C110829   1.774   3.434  12.473 -0.5960  0.8283  0.2653
  733TMC3    C210830   1.877   3.386  12.555  0.0649  0.1815 -0.1461
  733TMC3    C310831   2.010   3.394  12.508 -0.1523 -0.1076  0.5558
  733TMC3    C410832   1.806   3.479  12.346  0.1389 -0.3113  0.4851
  733TMC3    C510833   1.940   3.494  12.312  0.5504  0.1035 -0.3939
  733TMC3    C610834   2.046   3.454  12.387 -0.1761  0.1775  0.1455
  733TMC3     C10835   1.639   3.372  12.481 -0.0267 -0.2228 -0.1492
  733TMC3     O10836   1.553   3.416  12.404  0.3313 -0.2637  0.0247
  733TMC3     H10837   1.858   3.346  12.653  1.6996  0.0073  0.0978
  733TMC3    H110838   1.725   3.528  12.293  0.3020  0.5187  0.9929
  733TMC3    H210839   2.145   3.430  12.350 -0.0013  0.6684  0.3033
  733TMC3    C710840   1.967   3.609  12.230 -0.5339 -0.4065 -0.6059
  733TMC3    C810841   2.110   3.373  12.612 -0.2727  0.5121 -0.2237
  733TMC3    O110842   1.873   3.673  12.194  0.1839 -0.2082  0.6832
  733TMC3    O210843   2.075   3.331  12.719 -0.0129 -0.0826  0.3100
  734MPD2     C10844   3.838   1.319  12.286 -0.2494  0.3500 -0.7604
  734MPD2    C110845   3.725   1.398  12.272 -0.4826  0.1515  0.2612
  734MPD2    C210846   3.722   1.496  12.173 -0.2306 -0.2061  0.3889
  734MPD2    C310847   3.830   1.517  12.089 -0.0039  0.6523 -0.4427
  734MPD2    C410848   3.945   1.440  12.106 -0.2474  0.4536  0.1366
  734MPD2    C510849   3.945   1.341  12.204  0.1605  0.6644  0.5415
  734MPD2     H10850   3.633   1.557  12.162 -0.4000 -0.4977  0.1254
  734MPD2    H110851   4.030   1.449  12.039 -0.7593 -0.1561 -0.5970
  734MPD2    H210852   3.850   1.238  12.358  2.0979  1.1622 -0.2664
  734MPD2    H310853   4.028   1.272  12.219  1.5701  2.4557  0.9512
  734MPD2     N10854   3.817   1.630  12.005 -0.0557 -0.2636  0.6033
  734MPD2    H510855   3.732   1.684  12.012  0.0885  0.1765 -1.1160
  734MPD2    N110856   3.618   1.366  12.360  0.3473  0.1745 -0.7342
  734MPD2    H710857   3.644   1.292  12.425 -0.5339 -0.3475 -0.9796
  735TMC3    C110858   3.392   1.308  12.397 -0.1105  0.3491  0.6671
  735TMC3    C210859   3.315   1.268  12.290  0.5049  0.6649  0.0199
  735TMC3    C310860   3.314   1.139  12.243  0.0649  0.8392  0.2165
  735TMC3    C410861   3.457   1.206  12.463  0.3799 -0.1375 -0.9149
  735TMC3    C510862   3.442   1.076  12.433  0.2066 -0.7106  0.2758
  735TMC3    C610863   3.379   1.039  12.312 -0.1007 -0.0404 -0.0145
  735TMC3     C10864   3.484   1.405  12.346 -0.2742 -0.2206 -0.3690
  735TMC3     O10865   3.438   1.481  12.261  0.0412 -0.6192  0.6029
  735TMC3     H10866   3.257   1.344  12.239 -0.3121 -0.4128 -0.6607
  735TMC3    H110867   3.500   1.226  12.560  1.0941 -0.6666 -1.1216
  735TMC3    H210868   3.378   0.937  12.274  3.4811 -0.0090 -0.1328
  735TMC3    C710869   3.555   0.999  12.470 -0.0158  0.3093  0.1213
  735TMC3    C810870   3.334   1.128  12.100  0.1526 -0.2310 -0.2300
  735TMC3    O110871   3.661   1.051  12.495  0.0244  0.9809 -0.2312
  735TMC3    O210872   3.317   1.020  12.050  0.5462  0.4990  0.4140
  736MPD2     C10873   3.564   0.630  12.509 -0.2351  0.4424 -0.3970
  736MPD2    C110874   3.612   0.755  12.493  0.4219  0.7481  0.0014
  736MPD2    C210875   3.755   0.773  12.492  1.1596 -0.8733  0.2865
  736MPD2    C310876   3.836   0.658  12.488  0.6438  1.4396  0.7131
  736MPD2    C410877   3.786   0.530  12.515  0.5283 -0.3831 -0.3953
  736MPD2    C510878   3.649   0.519  12.521  0.0354 -0.4093 -0.0850
  736MPD2     H10879   3.792   0.874  12.480  0.7821 -0.8598 -0.7895
  736MPD2    H110880   3.850   0.443  12.501 -0.0635 -0.1970 -4.2412
  736MPD2    H210881   3.459   0.612  12.527 -0.1292 -0.7663 -1.0216
  736MPD2    H310882   3.605   0.424  12.547  2.1022 -1.5294 -0.7480
  736MPD2     N10883   3.973   0.666  12.467 -0.3826 -0.9470  0.5595
  736MPD2    H510884   4.017   0.576  12.448  0.5419 -0.5320  0.7170
  736MPD2    N110885   3.520   0.860  12.470  0.4494  1.1336  0.2273
  736MPD2    H710886   3.425   0.828  12.452  0.4987  1.6772 -1.0221
  737TMC3    C110887   4.177   0.778  12.413 -0.0056 -1.0040  0.5651
  737TMC3    C210888   4.229   0.905  12.388  0.0313  0.0669  0.1219
  737TMC3    C310889   4.300   0.919  12.273  0.7730 -0.4120 -0.4076
  737TMC3    C410890   4.200   0.675  12.326  0.0822 -0.2594  0.0236
  737TMC3    C510891   4.282   0.687  12.220 -0.4274 -0.1754  0.6517
  737TMC3    C610892   4.328   0.815  12.185  0.0396 -0.4750 -0.5701
  737TMC3     C10893   4.048   0.786  12.474 -0.2569  0.8064  0.2728
  737TMC3     O10894   4.020   0.897  12.525 -0.0703  0.4289 -0.2857
  737TMC3     H10895   4.217   0.988  12.457  3.3329 -0.4322  1.2641
  737TMC3    H110896   4.173   0.572  12.347  1.3953 -1.2741 -3.2331
  737TMC3    H210897   4.370   0.834  12.087  0.9178  2.0644  0.2937
  737TMC3    C710898   4.362   0.568  12.182  0.5345 -0.6468 -0.0432
  737TMC3    C810899   4.324   1.053  12.236 -0.5911 -0.1269 -0.1804
  737TMC3    O110900   4.349   0.470  12.252  0.1541 -0.2899  0.2596
  737TMC3    O210901   4.250   1.135  12.290 -0.4556  0.0703  0.4410
  738MPD2     C10902   4.467   0.070  15.070  0.1456 -0.9593 -0.2444
  738MPD2    C110903   4.524   4.672  15.085 -0.9842  0.0969  0.0855
  738MPD2    C210904   4.662   4.651  15.094 -0.0889 -0.0373 -0.3983
  738MPD2    C310905   0.018   0.031  15.106 -0.9813 -0.2785  0.3171
  738MPD2    C410906   4.684   0.155  15.104 -0.4814  0.0915 -0.0454
  738MPD2    C510907   4.550   0.175  15.086 -0.1199 -0.2816 -0.1941
  738MPD2     H10908   4.704   4.553  15.077 -2.0092 -0.8186 -0.5619
  738MPD2    H110909   0.024   0.241  15.100  0.6428 -0.8258 -1.6702
  738MPD2    H210910   4.360   0.088  15.062  0.6487  1.8665 -0.8827
  738MPD2    H310911   4.520   0.279  15.083 -1.2676 -0.5451  1.6980
  738MPD2     N10912   0.158   0.025  15.103 -0.1294  0.1178  0.3196
  738MPD2    H510913   0.212   0.111  15.095  0.3580 -0.2492 -0.3414
  738MPD2    N110914   4.448   4.549  15.086  0.1551 -0.0926 -0.1851
  738MPD2    H710915   4.485   4.471  15.139  0.1229  0.2943  0.4102
  739TMC3    C110916   0.357   4.633  15.072 -0.5002 -0.3573  0.3103
  739TMC3    C210917   0.375   4.679  14.946  0.3329 -0.0061  0.2441
  739TMC3    C310918   0.472   4.625  14.865 -0.7385  0.4427 -0.7073
  739TMC3    C410919   0.424   4.524  15.109 -0.0063 -0.3597  0.7167
  739TMC3    C510920   0.525   4.476  15.035 -0.2283  0.0393  0.0897
  739TMC3    C610921   0.551   4.526  14.910 -0.2722 -0.2425 -0.1216
  739TMC3     C10922   0.223   4.629  15.117  0.0077 -0.2696  0.2749
  739TMC3     O10923   0.188   4.528  15.177  0.0687  0.1108  0.1172
  739TMC3     H10924   0.315   0.037  14.910  2.4293  1.3431 -0.1051
  739TMC3    H110925   0.401   4.481  15.206  0.0285 -1.6474  0.1510
  739TMC3    H210926   0.614   4.458  14.853 -0.2910 -0.2447 -0.1398
  739TMC3    C710927   0.637   4.413  15.109 -0.3794  0.2464 -0.9416
  739TMC3    C810928   0.445   4.638  14.723 -0.0704 -1.0199  0.1485
  739TMC3    O110929   0.638   4.417  15.231  0.2886 -0.2871  0.2828
  739TMC3    O210930   0.344   4.696  14.696  0.8926  0.5144  0.5965
  740TMC3    C110931   0.656   1.362  14.644 -0.3566 -1.0448  0.4361
  740TMC3    C210932   0.709   1.285  14.738  0.4795  0.2610 -0.6283
  740TMC3    C310933   0.828   1.222  14.707  0.1019 -0.4552  0.2824
  740TMC3    C410934   0.704   1.379  14.519  0.6979  0.2032 -0.2762
  740TMC3    C510935   0.812   1.303  14.484  0.3444 -0.0042 -0.3781
  740TMC3    C610936   0.881   1.242  14.585 -0.5684 -0.4300  0.5214
  740TMC3     C10937   0.555   1.453  14.694 -0.6069 -1.1352  0.2270
  740TMC3     O10938   0.571   1.569  14.668 -0.1936  0.3649 -0.2571
  740TMC3     H10939   0.681   1.298  14.842 -0.3029 -2.1189 -0.5552
  740TMC3    H110940   0.655   1.443  14.446  0.5706 -0.1092 -0.4697
  740TMC3    H210941   0.969   1.181  14.571  0.9351  0.9379  4.2984
  740TMC3    C710942   0.847   1.275  14.343 -0.1277 -0.1267  0.1424
  740TMC3    C810943   0.908   1.148  14.808  0.0633  0.1810 -0.0564
  740TMC3    O110944   0.771   1.312  14.254 -0.0306  0.4130 -0.1623
  740TMC3    O210945   1.021   1.116  14.783 -0.2205  0.1421 -0.1356
  741TMC3    C110946   0.298   0.642  14.397  0.1328 -0.1807 -0.5410
  741TMC3    C210947   0.171   0.605  14.435  0.3622 -0.2629  0.3714
  741TMC3    C310948   0.158   0.475  14.483 -0.2913 -0.0465 -0.7344
  741TMC3    C410949   0.413   0.563  14.408  0.7604  0.6349 -0.6083
  741TMC3    C510950   0.397   0.442  14.470 -0.0078 -0.0940  0.3919
  741TMC3    C610951   0.272   0.393  14.499  0.0287 -0.1124  0.4663
  741TMC3     C10952   0.321   0.765  14.318 -0.6510 -0.5038 -0.4592
  741TMC3     O10953   0.415   0.764  14.233 -0.1530 -0.0641 -0.7266
  741TMC3     H10954   0.084   0.668  14.422  0.7405  0.7635  2.7988
  741TMC3    H110955   0.511   0.608  14.398  0.8887  0.4536 -0.1831
  741TMC3    H210956   0.268   0.293  14.542 -2.2155 -0.6118 -0.9153
  741TMC3    C710957   0.521   0.375  14.512  0.0200 -0.2977  0.1090
  741TMC3    C810958   0.024   0.421  14.481  0.6845 -0.4167 -0.1118
  741TMC3    O110959   0.628   0.417  14.466  0.1897 -0.2787  0.2419
  741TMC3    O210960   4.665   0.498  14.443 -0.7543  0.2962 -0.4564
  742TMC3    C110961   4.578   3.450  15.426  0.5897  0.3780 -0.3736
  742TMC3    C210962   4.509   3.387  15.325 -0.0152 -0.1664  0.2826
  742TMC3    C310963   4.580   3.388  15.206  0.7119  0.3799  0.0514
  742TMC3    C410964   4.704   3.504  15.422 -0.1722  0.4275  0.1620
  742TMC3    C510965   0.048   3.482  15.303 -0.2918 -0.1973  0.7247
  742TMC3    C610966   4.709   3.427  15.194 -0.1614  0.3151 -0.6053
  742TMC3     C10967   4.523   3.460  15.554 -0.4483  0.4670 -0.5037
  742TMC3     O10968   4.555   3.553  15.629 -0.2896 -0.0580  0.6404
  742TMC3     H10969   4.401   3.381  15.332 -0.0368 -1.0639 -0.7799
  742TMC3    H110970   0.039   3.540  15.504  0.4977 -1.3271  0.4224
  742TMC3    H210971   0.034   3.413  15.099  0.2178  0.5114 -0.4327
  742TMC3    C710972   0.187   3.441  15.311 -0.3410 -1.2993  0.0669
  742TMC3    C810973   4.513   3.362  15.076  0.1956 -0.3495 -0.6083
  742TMC3    O110974   0.215   3.337  15.256  0.0338 -0.1389 -0.1953
  742TMC3    O210975   4.582   3.326  14.981  0.0738  0.5633 -0.4171
  743MPD2     C10976   2.765   0.352   1.659 -0.0127 -0.8020 -0.3189
  743MPD2    C110977   2.799   0.319   1.529 -0.3587  0.6109  0.1856
  743MPD2    C210978   2.933   0.298   1.496 -0.3593  0.1010  0.2937
  743MPD2    C310979   3.035   0.312   1.582 -0.3933  0.3702  0.5283
  743MPD2    C410980   2.993   0.318   1.712 -0.2363  0.1783  0.3608
  743MPD2    C510981   2.868   0.349   1.748  0.0682 -0.5215  0.4781
  743MPD2     H10982   2.965   0.291   1.392 -2.8081  0.7633 -0.4978
  743MPD2    H110983   3.061   0.325   1.796  1.8905 -3.3987 -1.0699
  743MPD2    H210984   2.666   0.376   1.696 -0.6558 -2.1937 -1.1538
  743MPD2    H310985   2.863   0.383   1.851  0.4163  2.5947 -0.5453
  743MPD2     N10986   3.179   0.305   1.547 -0.9491  0.0401  0.0488
  743MPD2    H510987   3.192   0.298   1.447 -0.5372  0.9652  0.0408
  743MPD2    N110988   2.691   0.335   1.438 -0.2340  0.5936  1.0017
  743MPD2    H710989   2.608   0.369   1.486 -0.1057  0.7686  1.0993
  744TMC3    C110990   2.586   0.376   1.235  0.2902  0.3693 -0.4060
  744TMC3    C210991   2.538   0.498   1.286  0.0811  0.3248 -0.7935
  744TMC3    C310992   2.495   0.603   1.207  0.1387  0.6871 -0.4120
  744TMC3    C410993   2.601   0.378   1.101  0.1353 -0.3365  0.6506
  744TMC3    C510994   2.536   0.469   1.021  0.4906 -0.2044  0.4713
  744TMC3    C610995   2.494   0.587   1.072 -0.0111 -0.3832  0.0256
  744TMC3     C10996   2.702   0.317   1.304 -0.3194 -0.8282  0.1394
  744TMC3     O10997   2.793   0.265   1.245 -0.2649  0.4966  0.6915
  744TMC3     H10998   2.529   0.509   1.394  2.6096 -4.2108 -0.1101
  744TMC3    H110999   2.662   0.298   1.061 -0.8299 -1.5031  1.4931
  744TMC3    H211000   2.490   0.670   1.002 -0.6416  1.1013  1.8167
  744TMC3    C711001   2.575   0.466   0.889 -0.2703  0.4705  0.0262
  744TMC3    C811002   2.494   0.734   1.268  0.2812  0.0796 -0.8782
  744TMC3    O111003   2.695   0.444   0.868 -0.6611 -0.9581  0.0179
  744TMC3    O211004   2.544   0.743   1.378 -0.0363 -0.2066  0.2987
  745TMC3    C111005   0.300   3.078  13.324  0.2346 -0.0425 -0.1273
  745TMC3    C211006   0.168   3.073  13.346 -0.0832  0.3691  0.5027
  745TMC3    C311007   0.079   3.109  13.245  0.6315 -0.0322 -0.1805
  745TMC3    C411008   0.353   3.126  13.207 -0.4401 -0.1584 -0.1435
  745TMC3    C511009   0.268   3.141  13.105  0.2035 -0.3915  0.4372
  745TMC3    C611010   0.129   3.138  13.121 -0.0142 -0.6016  0.7148
  745TMC3     C11011   0.363   3.124  13.444  0.4330  0.5019 -0.9627
  745TMC3     O11012   0.337   3.068  13.545  0.1166 -0.3710  0.1919
  745TMC3     H11013   0.135   3.064  13.449  2.3490  0.0226  1.2609
  745TMC3    H111014   0.456   3.160  13.202  0.4811 -2.8734  0.5897
  745TMC3    H211015   0.059   3.136  13.038  1.5410  2.4275 -0.6917
  745TMC3    C711016   0.324   3.199  12.984 -0.5501  0.2393  0.3682
  745TMC3    C811017   0.007   3.231  13.284  0.2316  0.2342  0.2195
  745TMC3    O111018   0.447   3.202  12.976  0.3841 -0.5168 -0.3533
  745TMC3    O211019   4.668   3.290  13.195  0.1806  0.4954  0.1486
  746TMC3    C111020   2.869   0.436  10.888  0.2146  0.4205 -0.6489
  746TMC3    C211021   2.977   0.388  10.818 -0.2632  0.3817  0.8421
  746TMC3    C311022   2.969   0.275  10.739 -0.1886  0.5916 -0.1256
  746TMC3    C411023   2.754   0.366  10.885 -0.1457  0.3394  0.4469
  746TMC3    C511024   2.756   0.240  10.827 -0.3064 -0.4386 -0.6082
  746TMC3    C611025   2.856   0.199  10.747 -0.3039 -0.5641 -0.2546
  746TMC3     C11026   2.856   0.578  10.859 -0.3692  0.3986 -0.1512
  746TMC3     O11027   2.931   0.628  10.774  0.0909  0.3159 -0.3890
  746TMC3     H11028   3.075   0.433  10.826 -0.9208  1.7322  1.3747
  746TMC3    H111029   2.667   0.400  10.940 -0.8227  1.8158 -1.5260
  746TMC3    H211030   2.844   0.105  10.694 -0.6120  0.1670 -1.4886
  746TMC3    C711031   2.645   0.143  10.837  0.8357 -0.0263  0.2131
  746TMC3    C811032   3.051   0.265  10.617  0.3912  0.1043 -0.3817
  746TMC3    O111033   2.605   0.096  10.731 -0.5875 -0.0514  0.3128
  746TMC3    O211034   3.055   0.154  10.560  0.2312  0.1910 -0.3840
  747TMC3    C111035   0.159   0.431  11.297  0.0088  0.0939  0.5791
  747TMC3    C211036   0.084   0.394  11.411  0.5919  0.5306 -0.3397
  747TMC3    C311037   0.115   0.463  11.520 -0.3223  0.1133 -0.8341
  747TMC3    C411038   0.224   0.555  11.286  0.1747 -0.2917  0.6632
  747TMC3    C511039   0.251   0.621  11.406 -0.0489 -0.2116  0.0800
  747TMC3    C611040   0.192   0.572  11.520 -0.0930 -0.3429 -0.4455
  747TMC3     C11041   0.106   0.384  11.171  0.6210 -0.0661 -0.6881
  747TMC3     O11042   4.712   0.384  11.154 -0.2791 -0.0957  0.4896
  747TMC3     H11043   0.012   0.314  11.425  3.0269 -1.4150  0.9755
  747TMC3    H111044   0.274   0.581  11.194  0.0067 -0.7897  0.4261
  747TMC3    H211045   0.226   0.615  11.613 -0.0585  0.2042 -0.7123
  747TMC3    C711046   0.323   0.747  11.404  0.0553 -0.0758  0.0217
  747TMC3    C811047   0.078   0.395  11.644 -0.8221  0.5436  0.5923
  747TMC3    O111048   0.310   0.824  11.498  0.4115  0.0547  0.3541
  747TMC3    O211049   0.079   0.273  11.640  0.2666  0.1363 -0.2012
  748MPD2     C11050   1.830   1.718   1.748  0.3013 -0.3338  0.2100
  748MPD2    C111051   1.922   1.613   1.774 -0.3451  0.3712 -0.9945
  748MPD2    C211052   2.021   1.588   1.681 -0.6321  0.8595 -0.4571
  748MPD2    C311053   2.028   1.671   1.571 -0.0193  0.1202 -0.0829
  748MPD2    C411054   1.934   1.768   1.539 -0.6465 -0.4282 -0.2537
  748MPD2    C511055   1.828   1.775   1.626  0.1986 -0.3106 -0.7237
  748MPD2     H11056   2.083   1.501   1.697 -2.5597 -0.8004 -2.0456
  748MPD2    H111057   1.945   1.832   1.452 -0.8933 -0.5016 -0.3397
  748MPD2    H211058   1.751   1.731   1.821  0.2373 -1.7386  0.4030
  748MPD2    H311059   1.740   1.835   1.602 -0.9122 -0.9651  1.7844
  748MPD2     N11060   2.144   1.645   1.495  0.0470 -0.5077 -0.0621
  748MPD2    H511061   2.201   1.566   1.525  1.1216  1.8223  4.0166
  748MPD2    N111062   1.897   1.522   1.876  0.5207 -0.4985 -0.2332
  748MPD2    H711063   1.824   1.546   1.942  1.6163 -0.6730  1.0419
  749TMC3    C111064   2.318   1.665   1.339 -0.9393  0.0015 -0.0073
  749TMC3    C211065   2.406   1.612   1.426  0.4909 -0.0042  0.2290
  749TMC3    C311066   2.529   1.579   1.372  0.2465  0.2881  0.2582
  749TMC3    C411067   2.339   1.689   1.208 -0.8726 -0.5432  0.2985
  749TMC3    C511068   2.469   1.648   1.155 -0.3635  0.0419  0.3084
  749TMC3    C611069   2.564   1.594   1.239  0.0617  0.2593 -0.0022
  749TMC3     C11070   2.191   1.715   1.383 -0.2390  0.0460 -0.4715
  749TMC3     O11071   2.140   1.812   1.328  0.5387  0.1837  0.3414
  749TMC3     H11072   2.384   1.592   1.531  0.2711 -2.9739 -0.3769
  749TMC3    H111073   2.265   1.740   1.147 -1.4548 -0.1982  1.2870
  749TMC3    H211074   2.666   1.582   1.203  1.1950  1.9941  2.5924
  749TMC3    C711075   2.512   1.682   1.031  0.3278  0.0241 -0.8514
  749TMC3    C811076   2.630   1.537   1.473 -0.3825  0.5966  0.1421
  749TMC3    O111077   2.590   1.603   0.977 -0.3813  0.5288 -0.3523
  749TMC3    O211078   2.607   1.552   1.594 -0.3061 -0.0806 -0.7141
  750MPD2     C11079   3.453   2.542  11.108  0.0498  0.4038  0.4908
  750MPD2    C111080   3.337   2.491  11.156  0.3196 -0.3076 -0.0257
  750MPD2    C211081   3.242   2.432  11.066 -0.2566  0.5833 -0.3854
  750MPD2    C311082   3.269   2.430  10.926 -0.2290 -0.3134 -0.0878
  750MPD2    C411083   3.392   2.478  10.887  0.5129  0.6005 -0.5288
  750MPD2    C511084   3.478   2.539  10.972 -0.3351  0.4179 -0.4526
  750MPD2     H11085   3.155   2.385  11.110  0.0688 -0.6337 -1.0359
  750MPD2    H111086   3.419   2.470  10.783 -3.4009  1.6042 -1.6033
  750MPD2    H211087   3.527   2.595  11.168 -0.9034  2.3326 -0.0435
  750MPD2    H311088   3.564   2.591  10.933 -1.6185  1.8420 -1.4128
  750MPD2     N11089   3.186   2.368  10.827 -0.0053 -0.4022  0.3610
  750MPD2    H511090   3.235   2.351  10.740  0.1511  1.7165  0.0248
  750MPD2    N111091   3.327   2.493  11.298 -0.7184  0.5668  0.2591
  750MPD2    H711092   3.410   2.516  11.352  0.1979  0.3419 -1.0499
  751TMC3    C111093   3.002   2.251  10.741 -0.4386  0.3989  0.7792
  751TMC3    C211094   2.863   2.251  10.728  0.0998  0.6391  0.5694
  751TMC3    C311095   2.815   2.189  10.618 -1.0840 -0.3068  0.0235
  751TMC3    C411096   3.087   2.195  10.653  0.0447  0.2323  0.1305
  751TMC3    C511097   3.028   2.134  10.544 -0.7241  0.7442 -0.0200
  751TMC3    C611098   2.896   2.138  10.518  0.5059 -0.2369  0.1805
  751TMC3     C11099   3.058   2.333  10.850 -0.4058 -0.0462 -0.4263
  751TMC3     O11100   2.991   2.351  10.948 -0.1761 -0.9683  0.5141
  751TMC3     H11101   2.809   2.288  10.814  2.2488 -2.9682  3.4334
  751TMC3    H111102   3.194   2.190  10.671  0.1742 -2.3570 -1.2355
  751TMC3    H211103   2.855   2.110  10.421 -1.0098  0.2547  0.6855
  751TMC3    C711104   3.083   2.009  10.505 -0.4514  0.1012  0.0095
  751TMC3    C811105   2.698   2.103  10.628  0.3888 -0.1428  0.4572
  751TMC3    O111106   3.200   1.984  10.531 -0.2634 -0.1630  0.1591
  751TMC3    O211107   2.715   2.002  10.567 -0.7505  0.1732 -0.4688
  752TMC3    C111108   1.496   2.099  17.035 -0.7293 -0.8369  0.6905
  752TMC3    C211109   1.572   1.985  17.045  0.2712  0.2191 -0.3048
  752TMC3    C311110   1.541   1.894  17.149  0.5742  0.0249  0.3788
  752TMC3    C411111   1.426   2.146  17.145  0.6514 -0.5680  0.0838
  752TMC3    C511112   1.404   2.059  17.245 -0.0354 -0.2370  0.5932
  752TMC3    C611113   1.455   1.934  17.246 -0.1379 -0.0980 -0.6889
  752TMC3     C11114   1.535   2.212  16.957  0.2161 -0.3728 -0.0096
  752TMC3     O11115   1.655   2.240  16.955 -0.6594  0.1036  0.3512
  752TMC3     H11116   1.650   1.959  16.975 -1.2111  0.6081 -2.1047
  752TMC3    H111117   1.377   2.241  17.130 -0.1672 -0.8011  1.2596
  752TMC3    H211118   1.471   1.898  17.347 -0.7839 -0.2503 -0.6431
  752TMC3    C711119   1.334   2.108  17.367 -0.2166  0.2427  0.6087
  752TMC3    C811120   1.615   1.771  17.156 -0.0783 -0.9270 -0.5444
  752TMC3    O111121   1.350   2.042  17.471  0.0429  0.6956 -0.3681
  752TMC3    O211122   1.658   1.731  17.049  0.3203 -0.3853  0.0477
  753TMC3    C111123   3.591   3.416  13.134  0.2344  0.8679  0.1282
  753TMC3    C211124   3.687   3.410  13.231 -0.1465 -0.2380 -0.0441
  753TMC3    C311125   3.716   3.294  13.293  0.6411  0.9504  0.2797
  753TMC3    C411126   3.534   3.301  13.091  0.0874  0.1022 -0.3808
  753TMC3    C511127   3.564   3.187  13.163 -0.5623 -0.1521 -0.3640
  753TMC3    C611128   3.651   3.178  13.265  0.1258  0.4488 -0.2447
  753TMC3     C11129   3.531   3.540  13.091  0.9017  0.3788  0.0338
  753TMC3     O11130   3.431   3.532  13.024  0.1251  0.4891  0.2994
  753TMC3     H11131   3.739   3.497  13.270  2.4012 -2.3839  1.2867
  753TMC3    H111132   3.451   3.305  13.021  0.8192  0.9872 -1.1918
  753TMC3    H211133   3.669   3.093  13.329 -5.3955 -0.9071 -0.5510
  753TMC3    C711134   3.510   3.063  13.113 -0.0263  0.8076  0.0905
  753TMC3    C811135   3.813   3.282  13.402 -0.3534 -0.3052  1.0944
  753TMC3    O111136   3.486   3.042  12.994 -0.8622 -0.2042 -0.6155
  753TMC3    O211137   3.850   3.168  13.418 -0.1087  0.1494  0.3120
  754MPD2     C11138   2.303   1.604  12.178 -1.0637 -0.3346  0.6788
  754MPD2    C111139   2.350   1.543  12.299  0.3958 -0.1593 -0.0999
  754MPD2    C211140   2.266   1.537  12.407 -0.2984 -0.2637 -0.5105
  754MPD2    C311141   2.138   1.591  12.398 -0.2148  0.3632  0.5345
  754MPD2    C411142   2.091   1.656  12.280 -0.3715 -0.8848  0.0448
  754MPD2    C511143   2.177   1.657  12.172  0.3805 -0.0305 -0.1176
  754MPD2     H11144   2.293   1.511  12.508  0.7014 -0.0221 -0.7195
  754MPD2    H111145   1.993   1.702  12.279 -0.4957 -1.1118  2.0283
  754MPD2    H211146   2.351   1.617  12.082 -0.5783 -0.1608  0.9480
  754MPD2    H311147   2.157   1.704  12.076  2.5593 -1.0008 -1.0448
  754MPD2     N11148   2.048   1.583  12.508 -0.6045  0.1648  0.0409
  754MPD2    H511149   1.963   1.637  12.496  1.2409  2.9060 -0.8234
  754MPD2    N111150   2.485   1.512  12.298 -0.1394 -0.8385 -0.3595
  754MPD2    H711151   2.538   1.544  12.218  0.5927 -0.8669  0.1130
  755MPD2     C11152   1.679   2.248  12.992 -0.3734  0.2058 -0.2843
  755MPD2    C111153   1.597   2.141  13.013  0.1769 -0.3721  0.3088
  755MPD2    C211154   1.635   2.010  12.982  0.8169  0.2335  0.0058
  755MPD2    C311155   1.752   1.982  12.921 -0.1219 -0.4401  0.0258
  755MPD2    C411156   1.829   2.092  12.898  0.0951 -0.8730 -0.2575
  755MPD2    C511157   1.797   2.218  12.933 -0.6421 -0.3166 -0.3251
  755MPD2     H11158   1.562   1.931  12.999 -0.5834  1.1729 -1.6793
  755MPD2    H111159   1.926   2.071  12.855 -0.2600 -0.6059 -1.2083
  755MPD2    H211160   1.645   2.349  13.013  0.8492  0.3898  0.8027
  755MPD2    H311161   1.860   2.304  12.913 -0.9936  0.3889  1.6051
  755MPD2     N11162   1.802   1.853  12.871  0.0284 -0.1919 -0.4448
  755MPD2    H511163   1.899   1.846  12.842  0.5759 -1.2808  1.6488
  755MPD2    N111164   1.468   2.149  13.056 -0.4998 -0.4451  0.0701
  755MPD2    H711165   1.421   2.059  13.052  0.6165 -0.9385 -1.7826
  756MPD2     C11166   2.461   3.317   9.462 -0.1737 -0.4859 -0.3958
  756MPD2    C111167   2.450   3.192   9.522  0.5934  0.4978  0.3486
  756MPD2    C211168   2.341   3.118   9.488  0.6846 -0.4952  0.1192
  756MPD2    C311169   2.252   3.155   9.392 -0.6955 -0.6180 -0.3891
  756MPD2    C411170   2.262   3.279   9.333 -0.3653 -0.7276  0.1301
  756MPD2    C511171   2.361   3.362   9.369  0.2618  0.1007  1.0095
  756MPD2     H11172   2.336   3.020   9.533 -2.8694  0.2791  1.4379
  756MPD2    H111173   2.194   3.323   9.260 -1.1239 -1.0418  0.6463
  756MPD2    H211174   2.531   3.393   9.496 -0.8661  0.4234 -1.0078
  756MPD2    H311175   2.365   3.460   9.321  5.0797 -0.1728  0.9028
  756MPD2     N11176   2.160   3.057   9.351 -0.0893  0.0740  0.6203
  756MPD2    H511177   2.165   2.967   9.398 -1.2364 -0.0697  0.4597
  756MPD2    N111178   2.537   3.149   9.622 -0.6986 -0.2632 -0.1290
  756MPD2    H711179   2.504   3.077   9.687 -0.7516 -0.9103 -0.8677
  757MPD2     C11180   2.147   2.093   9.238 -0.5114 -0.5124  0.6797
  757MPD2    C111181   2.012   2.124   9.234  0.0775  0.1737  0.3133
  757MPD2    C211182   1.977   2.260   9.217  0.6447 -0.0322 -0.0242
  757MPD2    C311183   2.075   2.356   9.189 -0.0631  0.0487 -0.0054
  757MPD2    C411184   2.208   2.318   9.185  0.4337 -0.2707 -0.9611
  757MPD2    C511185   2.240   2.187   9.218  1.0644  0.0820 -0.4805
  757MPD2     H11186   1.875   2.293   9.207  0.7322  1.1846  3.0062
  757MPD2    H111187   2.289   2.389   9.173  0.8495 -0.6403 -0.3642
  757MPD2    H211188   2.188   1.994   9.256  1.9308  0.0434 -1.7754
  757MPD2    H311189   2.341   2.147   9.219  1.4823  1.1890  1.5952
  757MPD2     N11190   2.038   2.491   9.174  0.2816 -0.7880  0.4125
  757MPD2    H511191   1.938   2.510   9.167 -0.2223 -2.2889  3.6411
  757MPD2    N111192   1.924   2.026   9.268  0.4896  0.3271  0.0988
  757MPD2    H711193   1.969   1.943   9.307  0.4361  0.9146  1.3892
  758MPD2     C11194   2.233   1.827  16.078 -0.3514  0.3778  0.4471
  758MPD2    C111195   2.332   1.848  16.171  0.8740 -0.2193  0.3045
  758MPD2    C211196   2.306   1.935  16.277 -0.1897 -0.3470 -0.7234
  758MPD2    C311197   2.180   1.997  16.287 -0.3624  0.3889  1.3201
  758MPD2    C411198   2.081   1.959  16.196  0.5156  0.0696 -0.3215
  758MPD2    C511199   2.104   1.868  16.093 -0.0511  0.3312  0.6602
  758MPD2     H11200   2.383   1.968  16.345 -0.5970  0.6364 -0.7466
  758MPD2    H111201   1.982   2.004  16.200 -0.6305 -2.4605  0.4807
  758MPD2    H211202   2.253   1.778  15.984 -0.1635 -2.3782  1.9102
  758MPD2    H311203   2.033   1.841  16.015  1.0702  2.4430 -1.1182
  758MPD2     N11204   2.142   2.082  16.398  0.1135 -0.1883 -0.1754
  758MPD2    H511205   2.051   2.126  16.394  0.1299 -0.0390  1.1504
  758MPD2    N111206   2.454   1.794  16.153  0.2151 -0.0220 -0.3978
  758MPD2    H711207   2.461   1.733  16.072 -1.4500  0.5843 -0.9933
  759MPD2     C11208   1.593   0.602   9.735  0.3446 -0.8429 -0.3333
  759MPD2    C111209   1.477   0.561   9.677  0.1999  0.3321  0.3271
  759MPD2    C211210   1.471   0.562   9.534 -0.0807 -0.6703 -0.2377
  759MPD2    C311211   1.575   0.602   9.459  0.8052 -0.1304  0.0129
  759MPD2    C411212   1.688   0.646   9.525  0.3557 -0.6257 -0.3713
  759MPD2    C511213   1.699   0.634   9.664 -0.3408 -0.7768  0.5254
  759MPD2     H11214   1.379   0.533   9.484  0.5474 -0.7543 -1.3442
  759MPD2    H111215   1.781   0.680   9.481  0.8284  0.1626  1.2222
  759MPD2    H211216   1.617   0.611   9.840  3.5317 -0.3069 -1.1060
  759MPD2    H311217   1.793   0.676   9.699  0.8646 -1.5355 -1.8142
  759MPD2     N11218   1.560   0.621   9.320 -0.4547 -0.3921  0.5388
  759MPD2    H511219   1.467   0.621   9.280 -0.2140  0.8904 -0.0391
  759MPD2    N111220   1.364   0.530   9.755  0.0931  0.2300 -0.3707
  759MPD2    H711221   1.282   0.502   9.702  0.3261 -1.0492 -0.0526
  760MPD2     C11222   1.072   2.095  12.209  1.1880  0.8614 -1.1314
  760MPD2    C111223   1.206   2.059  12.180  0.5657  0.0670 -0.2832
  760MPD2    C211224   1.246   1.926  12.187  0.5835 -0.3028  0.2167
  760MPD2    C311225   1.153   1.829  12.218 -0.4443 -1.0435 -0.2430
  760MPD2    C411226   1.023   1.865  12.234  0.1691  0.1106  0.0381
  760MPD2    C511227   0.989   1.994  12.227 -0.4674 -0.3796  0.1760
  760MPD2     H11228   1.348   1.896  12.167  0.4334 -0.6572 -0.0178
  760MPD2    H111229   0.949   1.787  12.252  1.3074 -1.4242 -2.0003
  760MPD2    H211230   1.036   2.197  12.205 -1.5050  0.0565  2.3472
  760MPD2    H311231   0.882   2.009  12.234 -0.1555  0.6091  2.9246
  760MPD2     N11232   1.203   1.694  12.247 -0.2725  0.5524  0.2594
  760MPD2    H511233   1.123   1.642  12.281 -0.3444 -0.3879 -1.3378
  760MPD2    N111234   1.309   2.149  12.154 -0.5148  0.3684 -0.0931
  760MPD2    H711235   1.398   2.101  12.141 -1.3864 -1.3516  0.4183
  761MPD2     C11236   2.202   1.991  10.681 -0.0737  0.2500 -0.8443
  761MPD2    C111237   2.305   1.905  10.656 -0.2076  0.3533 -0.2600
  761MPD2    C211238   2.438   1.961  10.657 -0.2028 -0.1313  0.2253
  761MPD2    C311239   2.461   2.093  10.685  0.2869  0.6619  0.3197
  761MPD2    C411240   2.354   2.171  10.718  0.0192 -0.2362  0.4290
  761MPD2    C511241   2.229   2.123  10.714 -0.8044  0.3886  0.1282
  761MPD2     H11242   2.526   1.899  10.646  1.1245  1.4284  2.0038
  761MPD2    H111243   2.377   2.274  10.744  1.9998 -1.0023  1.7135
  761MPD2    H211244   2.098   1.960  10.684 -0.0169  0.1879  0.3146
  761MPD2    H311245   2.148   2.184  10.755 -1.0288 -0.4282  0.9020
  761MPD2     N11246   2.590   2.154  10.683 -0.2265 -0.6633  0.1792
  761MPD2    H511247   2.593   2.249  10.721 -1.1091 -1.4200  2.1287
  761MPD2    N111248   2.282   1.766  10.626 -0.3829 -0.0244  0.1436
  761MPD2    H711249   2.190   1.729  10.646 -0.0388 -0.6543  0.5516
  762MPD2     C11250   2.904   1.406  10.902  0.5708 -0.7882  0.3904
  762MPD2    C111251   2.846   1.355  10.785  0.2070  0.0978  0.4702
  762MPD2    C211252   2.934   1.306  10.688  0.4188 -0.7121  0.1465
  762MPD2    C311253   3.066   1.293  10.704  0.3683  0.3721 -0.9290
  762MPD2    C411254   3.119   1.337  10.820 -0.0669 -0.2330 -0.4113
  762MPD2    C511255   3.041   1.395  10.912 -0.3239 -0.4925  0.7954
  762MPD2     H11256   2.897   1.258  10.598 -1.5089  0.0188  0.5460
  762MPD2    H111257   3.224   1.327  10.845 -0.5067 -2.4575  0.6004
  762MPD2    H211258   2.840   1.438  10.984  1.9017 -0.3348  1.2564
  762MPD2    H311259   3.105   1.441  10.988  1.2827  0.3067 -1.0313
  762MPD2     N11260   3.152   1.239  10.599  1.0621  0.2472 -0.2870
  762MPD2    H511261   3.100   1.193  10.525  1.5545  1.6513 -1.5127
  762MPD2    N111262   2.709   1.366  10.766 -0.4725  0.3905  0.3835
  762MPD2    H711263   2.653   1.397  10.844  1.5405  2.4489  0.9832
  763MPD2     C11264   3.839   2.334  16.232 -0.1171  0.2029  0.2498
  763MPD2    C111265   3.955   2.261  16.210 -0.2938  0.5878  1.0156
  763MPD2    C211266   4.054   2.267  16.310 -0.3271  0.5163 -0.4867
  763MPD2    C311267   4.044   2.353  16.421 -0.1055  0.4286  0.5276
  763MPD2    C411268   3.923   2.414  16.440  0.2201 -1.3586 -0.4313
  763MPD2    C511269   3.823   2.404  16.347 -0.0380 -0.0670  0.0923
  763MPD2     H11270   4.140   2.203  16.294 -0.8962 -0.9186  2.3277
  763MPD2    H111271   3.904   2.493  16.512 -1.7222  0.6358 -3.1251
  763MPD2    H211272   3.748   2.338  16.173 -0.2739  1.7207  0.5796
  763MPD2    H311273   3.742   2.477  16.352 -0.9831 -0.9303 -2.7647
  763MPD2     N11274   4.155   2.380  16.508  0.1779  0.0125  0.2276
  763MPD2    H511275   4.140   2.457  16.571  0.2616  0.2157 -0.0023
  763MPD2    N111276   3.972   2.190  16.085 -0.1012  0.3186  0.1070
  763MPD2    H711277   4.058   2.136  16.082 -0.5637 -0.5117  1.6374
  764MPD2     C11278   2.591   3.488  17.534 -0.1549 -0.4181  0.7010
  764MPD2    C111279   2.482   3.567  17.539 -0.3949  0.5101 -0.1834
  764MPD2    C211280   2.358   3.511  17.580 -0.7186 -0.0960 -0.2779
  764MPD2    C311281   2.348   3.385  17.630  0.3696  0.2014  0.1507
  764MPD2    C411282   2.461   3.312  17.627 -0.3762 -0.0697 -0.6378
  764MPD2    C511283   2.577   3.361  17.577  0.4604  0.3773 -0.0900
  764MPD2     H11284   2.271   3.576  17.590 -0.6353 -0.2954  1.7325
  764MPD2    H111285   2.464   3.214  17.673 -2.0688  0.5116  0.7211
  764MPD2    H211286   2.686   3.518  17.491  0.1680  1.0851  2.5114
  764MPD2    H311287   2.669   3.304  17.587  0.7232  0.6399 -1.0441
  764MPD2     N11288   2.222   3.343  17.687  0.0341 -0.4294 -0.5702
  764MPD2    H511289   2.140   3.404  17.681  1.7709  1.9438 -0.3857
  764MPD2    N111290   2.484   3.698  17.475  0.6311 -0.0252  0.1582
  764MPD2    H711291   2.397   3.749  17.467 -0.2423 -1.3837  1.0380
  765MPD2     C11292   1.780   0.778  15.654 -0.0466 -0.1295  0.6264
  765MPD2    C111293   1.844   0.901  15.682 -0.4100  0.6348  0.2814
  765MPD2    C211294   1.987   0.898  15.669  0.8583 -0.3060 -0.7084
  765MPD2    C311295   2.050   0.794  15.597 -0.3192 -0.5995 -0.1714
  765MPD2    C411296   1.978   0.683  15.568  0.3804  0.1786  0.2053
  765MPD2    C511297   1.846   0.670  15.597 -0.5466  0.4828 -0.1860
  765MPD2     H11298   2.049   0.986  15.685 -0.5875  0.8078 -1.2348
  765MPD2    H111299   2.029   0.591  15.540  0.4150 -0.5613  2.6990
  765MPD2    H211300   1.681   0.768  15.697  0.9333 -2.2447  2.3895
  765MPD2    H311301   1.798   0.573  15.589  0.0220  0.3623 -2.1975
  765MPD2     N11302   2.189   0.809  15.578 -0.2778 -0.1164  0.3601
  765MPD2    H511303   2.235   0.896  15.601  0.7251 -0.2504 -1.1779
  765MPD2    N111304   1.758   1.004  15.724  0.3295 -0.1120 -0.2390
  765MPD2    H711305   1.657   0.991  15.718  0.0875  0.6786  2.1178
  766MPD2     C11306   1.325   1.292  15.308 -0.7481  0.3618  0.8531
  766MPD2    C111307   1.458   1.276  15.349 -0.7650  1.0138  0.7029
  766MPD2    C211308   1.552   1.257  15.246  0.4830  0.6179 -0.4372
  766MPD2    C311309   1.517   1.243  15.116  0.2204 -0.6051 -0.0415
  766MPD2    C411310   1.385   1.237  15.087 -0.5326  0.4170  0.4016
  766MPD2    C511311   1.292   1.271  15.177  0.0302  0.1531  0.0749
  766MPD2     H11312   1.658   1.256  15.271 -0.0912 -0.2635  1.9444
  766MPD2    H111313   1.349   1.228  14.986  1.2081  2.9011 -0.4309
  766MPD2    H211314   1.248   1.325  15.377 -0.7969  3.2407 -0.5255
  766MPD2    H311315   1.192   1.294  15.142 -0.2623 -1.4961 -0.1540
  766MPD2     N11316   1.610   1.226  15.017  0.1278  0.3997  0.4244
  766MPD2    H511317   1.578   1.248  14.923 -1.7964 -3.0732  0.2321
  766MPD2    N111318   1.495   1.279  15.484  0.0921  0.6421 -0.3725
  766MPD2    H711319   1.593   1.273  15.510 -0.7603 -0.2072  2.6670
  767MPD2     C11320   1.259   1.536  14.996  0.2969  0.3128  0.5325
  767MPD2    C111321   1.390   1.545  14.966  0.3442 -0.4104  0.5048
  767MPD2    C211322   1.425   1.511  14.837  0.0389 -0.4064 -0.1178
  767MPD2    C311323   1.339   1.446  14.755 -0.3349 -0.0373 -0.5320
  767MPD2    C411324   1.205   1.428  14.799 -0.4503 -0.2562 -0.5353
  767MPD2    C511325   1.164   1.479  14.916 -0.0853 -0.1343 -0.1403
  767MPD2     H11326   1.522   1.527  14.793 -0.5058  2.0355 -0.4366
  767MPD2    H111327   1.134   1.373  14.738 -1.3820 -1.0448  1.2848
  767MPD2    H211328   1.216   1.571  15.089 -0.8933  2.2615 -0.7571
  767MPD2    H311329   1.063   1.475  14.954 -0.4238 -0.3050 -1.0645
  767MPD2     N11330   1.389   1.395  14.633 -0.3442 -0.2423  0.4717
  767MPD2    H511331   1.489   1.405  14.623 -0.2225 -0.5483  1.4492
  767MPD2    N111332   1.475   1.609  15.054 -0.1046 -0.4715 -0.4832
  767MPD2    H711333   1.437   1.631  15.145 -0.5348  0.7485 -0.9721
  768MPD2     C11334   2.556   4.493  10.495 -0.4833  0.4915 -0.0643
  768MPD2    C111335   2.509   4.442  10.611  0.2388  0.2954 -0.1514
  768MPD2    C211336   2.594   4.443  10.720 -0.0832 -0.0450  0.3691
  768MPD2    C311337   2.727   4.497  10.706  0.1291  0.2876  0.1830
  768MPD2    C411338   2.771   4.545  10.581  0.4748 -0.1835  0.7168
  768MPD2    C511339   2.683   4.539  10.478  0.2220 -0.6547  0.4732
  768MPD2     H11340   2.553   4.403  10.812 -0.4833 -0.7645 -0.1182
  768MPD2    H111341   2.869   4.588  10.563  0.1835  0.6319  1.0845
  768MPD2    H211342   2.499   4.489  10.403 -0.8032 -1.3733  0.2061
  768MPD2    H311343   2.717   4.562  10.378 -2.5430 -1.1972 -0.5970
  768MPD2     N11344   2.817   4.509  10.810 -0.6294  0.4637  0.4792
  768MPD2    H511345   2.902   4.561  10.793 -0.1244 -0.7729 -0.7497
  768MPD2    N111346   2.376   4.396  10.630 -0.6030  0.3914  0.6013
  768MPD2    H711347   2.349   4.370  10.724  0.7086  0.7305  1.0699
  769MPD2     C11348   3.422   2.536  15.124 -0.0090 -0.1340  0.2938
  769MPD2    C111349   3.369   2.635  15.051  0.0793 -0.5988 -0.0194
  769MPD2    C211350   3.367   2.765  15.109 -0.0054 -0.3256  0.2135
  769MPD2    C311351   3.431   2.796  15.230  0.2489  0.5857 -0.1842
  769MPD2    C411352   3.491   2.696  15.298 -0.5860 -0.2176 -0.5965
  769MPD2    C511353   3.488   2.567  15.241  0.8779  0.7341  0.1723
  769MPD2     H11354   3.306   2.841  15.062  1.4045 -1.3257 -3.2342
  769MPD2    H111355   3.537   2.715  15.394 -0.9352 -0.9628 -0.2827
  769MPD2    H211356   3.409   2.434  15.091 -2.0056  0.2541 -0.1327
  769MPD2    H311357   3.515   2.488  15.310  0.2920  1.2738  1.0235
  769MPD2     N11358   3.406   2.922  15.299 -0.0579  0.0633 -0.0752
  769MPD2    H511359   3.316   2.968  15.289 -1.0246 -1.6785  0.6589
  769MPD2    N111360   3.318   2.607  14.931  0.4224  0.2635  0.5927
  769MPD2    H711361   3.285   2.511  14.926 -3.7188  1.6596  1.1456
  770MPD2     C11362   2.534   2.341  14.859 -0.9412 -0.8782  0.0818
  770MPD2    C111363   2.662   2.294  14.886 -0.3007  0.0419  0.7952
  770MPD2    C211364   2.771   2.353  14.829 -0.2672  0.4169  0.4404
  770MPD2    C311365   2.757   2.465  14.757 -0.6091  0.5377 -0.1489
  770MPD2    C411366   2.636   2.520  14.741 -0.1306  0.0199  0.6459
  770MPD2    C511367   2.526   2.452  14.787 -0.1750 -0.6850 -0.2350
  770MPD2     H11368   2.870   2.309  14.837 -0.0018  0.2042 -3.7887
  770MPD2    H111369   2.614   2.612  14.690 -0.9305 -0.7410 -0.3855
  770MPD2    H211370   2.446   2.282  14.885 -1.1409  0.2366  1.8957
  770MPD2    H311371   2.430   2.494  14.762  0.6455  2.2681  1.5990
  770MPD2     N11372   2.872   2.524  14.707  0.4987 -0.9167 -0.3219
  770MPD2    H511373   2.956   2.468  14.720  1.9808  1.3031 -0.3084
  770MPD2    N111374   2.681   2.175  14.960 -0.2260  0.2339 -0.2722
  770MPD2    H711375   2.776   2.138  14.965 -0.8554 -1.4166 -0.5253
  771MPD2     C11376   4.244   0.603  13.591 -1.2438 -0.7512  0.3136
  771MPD2    C111377   4.170   0.707  13.545  0.2744 -0.1586  0.8157
  771MPD2    C211378   4.056   0.690  13.472 -0.4205 -0.2922 -0.1505
  771MPD2    C311379   4.030   0.566  13.418 -0.1315 -0.1575  0.2052
  771MPD2    C411380   4.110   0.458  13.453 -0.6009  0.8704  0.1919
  771MPD2    C511381   4.217   0.478  13.535  0.6407 -0.0491  0.5280
  771MPD2     H11382   3.988   0.772  13.450  0.5050  0.8081  1.1007
  771MPD2    H111383   4.115   0.373  13.385 -1.0116  0.8189  0.2236
  771MPD2    H211384   4.318   0.615  13.670 -1.4094  4.2528 -0.2559
  771MPD2    H311385   4.287   0.396  13.550 -1.1831 -1.7929 -0.4363
  771MPD2     N11386   3.912   0.559  13.347 -0.8370  0.3526 -0.2145
  771MPD2    H511387   3.854   0.643  13.350 -1.2545  0.0901 -0.8793
  771MPD2    N111388   4.197   0.841  13.588  0.2579  0.1896  0.4564
  771MPD2    H711389   4.131   0.912  13.559  0.4076  0.0533 -0.2334
  772MPD2     C11390   3.789   1.398  13.687 -0.1219  0.2504 -0.5592
  772MPD2    C111391   3.815   1.276  13.640  0.4146 -0.1578  0.8536
  772MPD2    C211392   3.713   1.191  13.590 -0.4495  0.6487 -0.3729
  772MPD2    C311393   3.583   1.241  13.585 -0.4438 -0.0210 -0.6901
  772MPD2    C411394   3.564   1.372  13.613  0.0496  0.0761 -0.1955
  772MPD2    C511395   3.660   1.442  13.675  0.5718 -0.0420  0.1503
  772MPD2     H11396   3.738   1.092  13.552 -2.5599 -0.1733  0.3925
  772MPD2    H111397   3.468   1.420  13.597  1.3386  3.0488  1.0854
  772MPD2    H211398   3.862   1.472  13.720  1.2271 -0.3789 -2.1417
  772MPD2    H311399   3.637   1.546  13.691 -0.4358 -0.3945  1.0374
  772MPD2     N11400   3.464   1.175  13.539  0.2465 -0.0264 -0.3798
  772MPD2    H511401   3.386   1.239  13.536 -0.2984 -0.5950  2.2874
  772MPD2    N111402   3.944   1.230  13.648  0.2143 -0.1490  0.0196
  772MPD2    H711403   3.964   1.138  13.611  0.0962 -0.2670  0.2453
  773MPD2     C11404   2.700   2.569   0.484 -0.7658  0.1714 -0.0137
  773MPD2    C111405   2.705   2.458   0.402  0.3069 -0.4604  0.8207
  773MPD2    C211406   2.786   2.352   0.435  0.7692  0.9750  0.0701
  773MPD2    C311407   2.846   2.347   0.562 -0.5208 -0.2193 -0.3160
  773MPD2    C411408   2.846   2.459   0.639  0.6796 -0.5203 -0.6935
  773MPD2    C511409   2.768   2.570   0.603 -0.1606  0.6305 -0.1598
  773MPD2     H11410   2.795   2.266   0.370 -0.6102 -0.4295  1.7253
  773MPD2    H111411   2.907   2.476   0.727 -2.2944  0.9337  1.0896
  773MPD2    H211412   2.657   2.665   0.459 -1.5438 -0.5339 -1.4545
  773MPD2    H311413   2.777   2.664   0.656 -0.6705  1.1528 -1.0045
  773MPD2     N11414   2.894   2.223   0.609 -0.8407  0.2665 -0.2472
  773MPD2    H511415   2.893   2.140   0.551  0.2163  0.4750 -0.5593
  773MPD2    N111416   2.640   2.452   0.275  0.3604  0.0516 -0.1732
  773MPD2    H711417   2.655   2.375   0.211  0.7435  0.1167 -0.1580
  774MPD2     C11418   2.029   0.696  12.698  0.0796  0.1838 -0.6134
  774MPD2    C111419   2.128   0.719  12.790 -0.4914 -0.3151 -0.6906
  774MPD2    C211420   2.210   0.829  12.777  0.0199 -0.2940 -0.2482
  774MPD2    C311421   2.200   0.906  12.663  0.5265  0.0141  0.5723
  774MPD2    C411422   2.097   0.877  12.568 -0.3020  0.1774  0.4228
  774MPD2    C511423   2.018   0.769  12.581  0.2818 -0.0442  0.0172
  774MPD2     H11424   2.287   0.856  12.848  0.5388  1.6895 -1.5704
  774MPD2    H111425   2.077   0.945  12.487 -0.6076  0.4202  0.7016
  774MPD2    H211426   1.977   0.601  12.707  1.1399 -0.1286  2.3427
  774MPD2    H311427   1.941   0.747  12.508  0.0820  0.8866 -0.0494
  774MPD2     N11428   2.280   1.023  12.656  0.6773 -0.0949  0.2553
  774MPD2    H511429   2.343   1.049  12.731  1.5177  0.6794 -0.7113
  774MPD2    N111430   2.141   0.633  12.905  0.6455  0.1012 -0.1523
  774MPD2    H711431   2.067   0.565  12.920 -1.5063  2.4333 -0.2935
  775MPD2     C11432   3.443   2.837  15.816 -0.5137 -0.1754 -0.7058
  775MPD2    C111433   3.477   2.961  15.873  0.1482 -0.1716 -0.8726
  775MPD2    C211434   3.596   3.014  15.826 -0.5429  0.3138  0.4491
  775MPD2    C311435   3.672   2.949  15.732  0.1350 -0.1491 -0.5249
  775MPD2    C411436   3.614   2.847  15.657  1.1727  1.0674 -0.0624
  775MPD2    C511437   3.510   2.778  15.714 -0.6753 -0.0794  0.0639
  775MPD2     H11438   3.645   3.095  15.880 -0.1784  0.0954  0.4471
  775MPD2    H111439   3.667   2.799  15.575 -0.8415  1.3252 -1.5467
  775MPD2    H211440   3.355   2.790  15.858 -0.6597  1.0812  0.4024
  775MPD2    H311441   3.461   2.691  15.673  0.1298  0.2026 -1.4908
  775MPD2     N11442   3.789   3.007  15.680 -0.0782 -0.4059  0.7538
  775MPD2    H511443   3.809   2.988  15.582 -0.3581  0.9667  0.4292
  775MPD2    N111444   3.389   3.029  15.959  0.2243  0.0648  0.4368
  775MPD2    H711445   3.301   2.985  15.987  0.8905 -1.5415 -0.0133
  776MPD2     C11446   3.558   2.807  12.063 -0.2778 -0.1810 -0.3789
  776MPD2    C111447   3.527   2.814  11.929 -0.4632  0.0844 -0.5466
  776MPD2    C211448   3.532   2.936  11.866  0.2516 -0.1506  0.4672
  776MPD2    C311449   3.547   3.047  11.947 -0.1125  0.2953  0.3983
  776MPD2    C411450   3.577   3.037  12.086 -0.5082 -0.9100 -0.0613
  776MPD2    C511451   3.588   2.920  12.149  1.1978 -0.6543  0.5380
  776MPD2     H11452   3.519   2.932  11.758 -0.8554 -2.7547  0.6880
  776MPD2    H111453   3.585   3.131  12.140  0.3157 -0.0377 -1.6926
  776MPD2    H211454   3.545   2.706  12.100 -0.2553 -0.4652 -1.1507
  776MPD2    H311455   3.604   2.911  12.256 -3.4735 -1.5115  1.1410
  776MPD2     N11456   3.531   3.179  11.894 -0.7020 -0.1759  0.3308
  776MPD2    H511457   3.562   3.258  11.951 -3.3547  1.7148 -0.8569
  776MPD2    N111458   3.478   2.695  11.860  0.5102 -0.4192  0.5314
  776MPD2    H711459   3.467   2.613  11.919  2.1738 -1.0662 -0.0417
  777MPD2     C11460   3.491   1.001   0.613  0.2855 -0.3479  0.0707
  777MPD2    C111461   3.417   0.922   0.699 -0.2017  0.2370 -0.2356
  777MPD2    C211462   3.336   0.825   0.642 -0.0158  0.6059 -0.4692
  777MPD2    C311463   3.345   0.800   0.500 -0.6149 -0.2224  0.2984
  777MPD2    C411464   3.422   0.875   0.417  0.0761  0.3614  0.3611
  777MPD2    C511465   3.499   0.976   0.479 -0.1241 -0.5835  0.3981
  777MPD2     H11466   3.284   0.749   0.700  0.3799  0.1551 -0.6996
  777MPD2    H111467   3.429   0.865   0.309 -0.3293 -2.0194  0.5548
  777MPD2    H211468   3.547   1.085   0.653 -1.0323  0.4220  0.3207
  777MPD2    H311469   3.561   1.042   0.420 -2.2270 -1.7608 -3.1580
  777MPD2     N11470   3.249   0.713   0.452  0.2630  0.1969 -0.1744
  777MPD2    H511471   3.210   0.654   0.525 -1.7145 -0.8775 -2.0804
  777MPD2    N111472   3.416   0.942   0.838  0.6157 -0.2490 -0.4136
  777MPD2    H711473   3.482   1.013   0.866 -0.9881  1.2024 -0.2644
  778MPD2     C11474   4.428   1.162  14.908 -0.5405  0.0333 -0.1624
  778MPD2    C111475   4.453   1.041  14.843 -1.0223 -0.4277 -0.3857
  778MPD2    C211476   4.576   1.025  14.781  0.5307  0.1014 -0.5611
  778MPD2    C311477   4.662   1.137  14.763 -0.4601  0.4199 -0.7927
  778MPD2    C411478   4.635   1.255  14.831 -0.3591 -0.0367  0.7161
  778MPD2    C511479   4.521   1.260  14.904  0.6830 -0.4139  0.1762
  778MPD2     H11480   4.591   0.927  14.736 -0.3135  0.1216 -0.8760
  778MPD2    H111481   4.707   1.337  14.834 -0.6471  0.1648  2.0739
  778MPD2    H211482   4.340   1.176  14.971 -1.1508 -0.2873 -0.9385
  778MPD2    H311483   4.505   1.350  14.963  2.1686 -0.3218  0.4575
  778MPD2     N11484   0.049   1.123  14.680  0.0659  0.1948  0.0439
  778MPD2    H511485   0.064   1.030  14.641  1.4623  0.3631  0.1649
  778MPD2    N111486   4.366   0.935  14.854 -0.0363  0.6066 -0.3443
  778MPD2    H711487   4.391   0.843  14.817 -3.0224  0.7601 -2.7419
  779MPD2     C11488   4.108   4.359  13.639 -0.3020  0.3795  0.5344
  779MPD2    C111489   4.152   4.364  13.771 -0.0262  0.6527  0.0177
  779MPD2    C211490   4.173   4.489  13.829 -0.1767  0.5780 -0.5167
  779MPD2    C311491   4.156   4.606  13.756 -0.2505 -0.5746  0.7093
  779MPD2    C411492   4.115   4.596  13.624 -0.0784  0.0896  0.0402
  779MPD2    C511493   4.098   4.468  13.569  0.4454 -0.0840  0.0611
  779MPD2     H11494   4.215   4.492  13.929  0.7992 -0.0341 -0.9029
  779MPD2    H111495   4.113   4.682  13.559 -0.4144 -0.6043 -0.8796
  779MPD2    H211496   4.089   4.265  13.588  0.0630  1.2598 -1.2478
  779MPD2    H311497   4.072   4.472  13.464  4.1893  0.8906 -0.8088
  779MPD2     N11498   4.165   0.013  13.816  0.5760 -0.2054  0.4761
  779MPD2    H511499   4.183   0.012  13.916 -2.9032 -2.6087  1.0978
  779MPD2    N111500   4.164   4.238  13.828  0.4962 -0.0175 -0.3165
  779MPD2    H711501   4.126   4.161  13.773  0.1702  1.7038 -2.4920
  780MPD2     C11502   2.439   4.497   0.390  0.1258 -0.4104  0.0955
  780MPD2    C111503   2.540   4.414   0.406 -0.1584 -1.3765  0.6880
  780MPD2    C211504   2.665   4.452   0.363  0.0356  0.1267  0.2303
  780MPD2    C311505   2.688   4.582   0.321  0.2086  0.2743 -0.0967
  780MPD2    C411506   2.586   4.672   0.309 -0.7203  0.1358  0.5829
  780MPD2    C511507   2.458   4.630   0.352 -0.1790  0.0292 -0.2680
  780MPD2     H11508   2.747   4.382   0.376  0.1026  0.4975  1.7857
  780MPD2    H111509   2.604   0.042   0.262  0.3414  0.2255  1.1866
  780MPD2    H211510   2.338   4.467   0.413  0.7429 -1.3087  1.6256
  780MPD2    H311511   2.373   4.697   0.348 -0.3742 -0.1586  0.8087
  780MPD2     N11512   2.817   4.613   0.305 -0.1675  0.2543  0.7151
  780MPD2    H511513   2.881   4.536   0.320 -0.2053  0.0529 -0.1148
  780MPD2    N111514   2.504   4.286   0.456  0.2824  0.6836  0.0521
  780MPD2    H711515   2.405   4.276   0.472  0.5983 -0.1552  1.3693
  781MPD2     C11516   0.554   1.756  12.300  0.4961 -0.3840 -0.1382
  781MPD2    C111517   0.496   1.634  12.265 -0.0637 -0.1553  0.5813
  781MPD2    C211518   0.503   1.585  12.135 -0.3889 -0.2348  0.6503
  781MPD2    C311519   0.580   1.649  12.038  0.5331 -0.1038  0.6850
  781MPD2    C411520   0.636   1.773  12.068 -0.1509  0.1155 -0.0275
  781MPD2    C511521   0.628   1.823  12.201 -0.1478  0.2305 -0.0959
  781MPD2     H11522   0.457   1.489  12.111  0.1595 -0.1362 -0.7799
  781MPD2    H111523   0.684   1.827  11.987  2.6996 -1.9447  0.3100
  781MPD2    H211524   0.542   1.813  12.391  0.2372 -1.0253  0.2277
  781MPD2    H311525   0.688   1.910  12.225  0.3068 -0.8972  2.9325
  781MPD2     N11526   0.599   1.607  11.901  0.0360  0.1947 -0.0129
  781MPD2    H511527   0.662   1.661  11.843 -0.6024 -0.3254 -1.1864
  781MPD2    N111528   0.417   1.552  12.355  0.2483 -0.1453  0.1036
  781MPD2    H711529   0.390   1.464  12.314  0.9585 -0.3630  0.1164
  782MPD2     C11530   3.560   1.929   9.825 -0.7111  0.5902 -0.1438
  782MPD2    C111531   3.545   1.902   9.958  0.5145 -0.5530 -0.1203
  782MPD2    C211532   3.599   1.991  10.052  0.5273  0.4890  0.7591
  782MPD2    C311533   3.661   2.111  10.013  0.3448  0.9129  0.2032
  782MPD2    C411534   3.671   2.131   9.874  0.0179 -0.6000  0.5108
  782MPD2    C511535   3.627   2.040   9.783 -0.0604  0.6944  0.2454
  782MPD2     H11536   3.594   1.968  10.158 -2.5759  1.3570  0.8188
  782MPD2    H111537   3.729   2.216   9.839 -0.7638 -0.0489  0.5298
  782MPD2    H211538   3.541   1.851   9.752  1.9395  0.3076 -0.5236
  782MPD2    H311539   3.653   2.045   9.678 -0.1028  0.5150  0.2269
  782MPD2     N11540   3.709   2.195  10.111 -0.5326 -0.0400 -0.0468
  782MPD2    H511541   3.694   2.172  10.209  0.8359 -1.5220 -0.1858
  782MPD2    N111542   3.525   1.776  10.015  0.2468  0.5880  0.1874
  782MPD2    H711543   3.551   1.774  10.113 -1.4067 -0.4904  0.5829
  783MPD2     C11544   2.898   1.696  10.452  0.9494 -0.9305  0.2771
  783MPD2    C111545   3.001   1.785  10.438 -0.1586  0.0348  0.3231
  783MPD2    C211546   3.119   1.735  10.384  0.2065  0.0446 -0.2258
  783MPD2    C311547   3.137   1.603  10.352 -0.0626 -0.1849 -0.0830
  783MPD2    C411548   3.032   1.521  10.383  0.6378  0.2254 -0.4213
  783MPD2    C511549   2.915   1.565  10.433  0.0428 -0.6776 -0.2797
  783MPD2     H11550   3.200   1.805  10.367 -0.5422  0.9733 -0.0045
  783MPD2    H111551   3.045   1.414  10.375 -0.4026 -0.1479  3.0919
  783MPD2    H211552   2.812   1.733  10.507  1.4022  1.4422 -0.6382
  783MPD2    H311553   2.840   1.494  10.467 -1.2687  1.0587  0.4843
  783MPD2     N11554   3.266   1.565  10.299  0.2209  1.0457 -0.0940
  783MPD2    H511555   3.325   1.645  10.280  1.2022  0.5520  0.8549
  783MPD2    N111556   2.981   1.918  10.484 -0.0457 -0.4617 -0.0102
  783MPD2    H711557   2.888   1.950  10.506  0.5966  1.2328  0.2405
  784MPD2     C11558   0.832   2.473   0.684 -0.3907  1.0823  0.4636
  784MPD2    C111559   0.883   2.564   0.767 -0.0843  0.8280  0.0282
  784MPD2    C211560   0.832   2.694   0.781  0.1822 -0.2766 -0.9016
  784MPD2    C311561   0.723   2.730   0.705  0.1251  0.5653  0.4333
  784MPD2    C411562   0.668   2.634   0.622 -0.1187  0.5603 -0.6513
  784MPD2    C511563   0.725   2.511   0.609 -0.3180 -0.4946  0.2038
  784MPD2     H11564   0.860   2.768   0.855 -0.8265 -0.0932 -0.6999
  784MPD2    H111565   0.579   2.655   0.563  0.6651 -1.5296 -2.5937
  784MPD2    H211566   0.875   2.376   0.661  0.3871  1.2964  1.0368
  784MPD2    H311567   0.679   2.437   0.544  0.9880 -1.8753  0.8331
  784MPD2     N11568   0.668   2.862   0.721 -0.7555 -0.3269 -0.3311
  784MPD2    H511569   0.725   2.927   0.775  0.3673 -1.0391 -0.6668
  784MPD2    N111570   1.005   2.544   0.838  0.1019 -0.4401 -0.0703
  784MPD2    H711571   1.032   2.620   0.900  3.3441 -2.4801  1.0402
  785MPD2     C11572   1.315   0.859  10.579 -0.3291  0.6512  0.0537
  785MPD2    C111573   1.190   0.885  10.635 -0.3652  0.4300  0.4779
  785MPD2    C211574   1.096   0.787  10.634 -0.9074  0.7985  0.0054
  785MPD2    C311575   1.115   0.672  10.565  0.2234 -0.0137 -0.2093
  785MPD2    C411576   1.238   0.647  10.503  0.5281  0.1187 -0.7380
  785MPD2    C511577   1.338   0.741  10.516  0.5542 -0.1907 -0.3014
  785MPD2     H11578   0.998   0.808  10.673 -0.2588  1.0371  1.4967
  785MPD2    H111579   1.264   0.553  10.456  0.0393  0.0789 -0.9323
  785MPD2    H211580   1.395   0.932  10.587 -0.2564  0.8471 -2.4634
  785MPD2    H311581   1.433   0.719  10.469  0.8375 -0.6912  0.5186
  785MPD2     N11582   1.007   0.582  10.559 -0.9249 -0.2054  0.4371
  785MPD2    H511583   0.925   0.615  10.608 -3.2824 -1.1931 -2.8887
  785MPD2    N111584   1.158   1.001  10.710  0.0944 -0.1619  0.2187
  785MPD2    H711585   1.076   1.007  10.770 -1.0647 -4.3033 -0.9209
  786MPD2     C11586   4.114   3.410  14.747 -0.0840  0.0178  0.2731
  786MPD2    C111587   4.246   3.354  14.738 -0.2767 -0.4644 -0.6550
  786MPD2    C211588   4.323   3.336  14.847 -0.0745  0.8464  0.3324
  786MPD2    C311589   4.287   3.387  14.972 -0.0871  0.4478 -0.1531
  786MPD2    C411590   4.165   3.454  14.985 -0.0213  0.9667  0.4048
  786MPD2    C511591   4.085   3.457  14.873  0.3952 -0.1833  0.0777
  786MPD2     H11592   4.418   3.286  14.833 -0.7910  0.4199 -2.9275
  786MPD2    H111593   4.119   3.480  15.079  0.8964 -1.7216  1.6136
  786MPD2    H211594   4.043   3.415  14.666  0.5709 -0.5872 -0.3370
  786MPD2    H311595   3.986   3.501  14.878  0.3669 -0.0082 -1.9568
  786MPD2     N11596   4.384   3.397  15.075 -0.1037  0.4401 -0.3789
  786MPD2    H511597   4.363   3.454  15.157 -3.2447  1.3081 -1.7973
  786MPD2    N111598   4.311   3.318  14.621 -0.1291  0.2213 -0.3318
  786MPD2    H711599   4.402   3.276  14.637  0.4712  1.2796 -1.0002
  787MPD2     C11600   4.431   2.716  14.689  0.3940  0.1245  0.5942
  787MPD2    C111601   4.499   2.757  14.576  0.4068 -0.0163  0.7549
  787MPD2    C211602   4.616   2.693  14.535  0.2990 -0.0701 -0.7276
  787MPD2    C311603   4.660   2.590  14.622 -0.2533 -0.1836 -0.0727
  787MPD2    C411604   4.596   2.553  14.739 -0.1309 -0.2074  0.4003
  787MPD2    C511605   4.485   2.627  14.776  0.4910 -0.1006  0.6547
  787MPD2     H11606   4.659   2.717  14.438  2.7530  3.2473  1.1646
  787MPD2    H111607   4.624   2.477  14.811 -0.9867 -0.3847  0.5350
  787MPD2    H211608   4.330   2.753  14.706 -0.4695 -1.7806 -0.4315
  787MPD2    H311609   4.440   2.612  14.874  0.7205 -0.4936  0.7021
  787MPD2     N11610   0.056   2.520  14.586 -0.1830  0.6049 -0.0739
  787MPD2    H511611   0.119   2.557  14.515  0.6039  1.2300  0.9395
  787MPD2    N111612   4.450   2.871  14.497 -0.2124 -0.1871 -0.6696
  787MPD2    H711613   4.356   2.898  14.521  0.8889  3.7977 -0.9302
  788MPD2     C11614   1.692   2.348   0.998 -1.0277 -0.1000 -0.2772
  788MPD2    C111615   1.668   2.303   0.870  0.4908 -0.2947  0.6518
  788MPD2    C211616   1.594   2.389   0.782  0.1243 -0.3532  0.3500
  788MPD2    C311617   1.557   2.517   0.825 -0.5719  0.1015  0.1560
  788MPD2    C411618   1.598   2.565   0.949  0.1111 -0.1932  0.3544
  788MPD2    C511619   1.657   2.478   1.034  0.1643  0.3093  0.0772
  788MPD2     H11620   1.571   2.355   0.682  1.2792  1.4553 -0.5304
  788MPD2    H111621   1.590   2.670   0.970  2.1411 -0.3095  1.7023
  788MPD2    H211622   1.748   2.282   1.063 -1.2741  0.5548  0.5987
  788MPD2    H311623   1.686   2.513   1.132 -0.2634 -0.7226  0.5685
  788MPD2     N11624   1.491   2.602   0.741  0.0517  0.5598 -0.1771
  788MPD2    H511625   1.499   2.701   0.761  3.0314 -0.0715  1.8129
  788MPD2    N111626   1.689   2.172   0.827 -0.6132 -0.1120 -0.6523
  788MPD2    H711627   1.675   2.158   0.727 -2.0220  1.6449 -0.7216
  789MPD2     C11628   1.571   1.158  17.143 -0.7069  0.0402 -0.3274
  789MPD2    C111629   1.590   1.260  17.049  0.6077 -0.1830  0.5863
  789MPD2    C211630   1.507   1.364  17.042 -0.5873 -0.1304 -0.1207
  789MPD2    C311631   1.390   1.370  17.116 -0.4531 -0.6253  0.6020
  789MPD2    C411632   1.368   1.277  17.209 -0.2308 -0.1059  0.2423
  789MPD2    C511633   1.460   1.173  17.227  0.0607  0.4721 -0.9088
  789MPD2     H11634   1.538   1.442  16.974 -1.5898  0.0305 -0.3917
  789MPD2    H111635   1.283   1.284  17.276  0.0485  0.8564  0.4919
  789MPD2    H211636   1.636   1.072  17.156 -1.6157 -0.6725 -0.4720
  789MPD2    H311637   1.450   1.105  17.311  4.2197  1.3654  0.2971
  789MPD2     N11638   1.297   1.475  17.099  0.3175 -0.1351  0.8688
  789MPD2    H511639   1.215   1.457  17.158 -0.7083 -0.9543 -0.8215
  789MPD2    N111640   1.697   1.267  16.958 -0.4686  0.1497  1.0869
  789MPD2    H711641   1.705   1.354  16.906  0.6880 -1.0800 -0.7944
  790MPD2     C11642   3.217   3.198  13.362  0.8215 -0.1405 -0.1257
  790MPD2    C111643   3.146   3.081  13.385  0.4237 -0.4523 -0.0131
  790MPD2    C211644   3.079   3.029  13.282 -0.3642 -0.6460  0.0064
  790MPD2    C311645   3.072   3.077  13.156 -0.6079 -0.0149 -0.4286
  790MPD2    C411646   3.141   3.195  13.133 -0.6224  0.1008 -0.4595
  790MPD2    C511647   3.215   3.255  13.232  0.4956  0.1199  0.2685
  790MPD2     H11648   3.025   2.935  13.289 -1.9238  0.2077 -0.5071
  790MPD2    H111649   3.141   3.246  13.037  0.5450  0.6175 -0.1827
  790MPD2    H211650   3.266   3.257  13.439  1.3862 -1.9488  0.9062
  790MPD2    H311651   3.279   3.341  13.215 -0.5394  0.6177 -1.2012
  790MPD2     N11652   3.005   2.995  13.060  0.9437  0.6043 -0.1789
  790MPD2    H511653   2.983   2.900  13.086 -2.5102  1.4373 -0.0306
  790MPD2    N111654   3.158   3.019  13.511 -0.0013 -0.3119  0.1074
  790MPD2    H711655   3.213   3.064  13.584 -2.6341 -1.0803  2.5653
  791MPD2     C11656   2.406   3.056  12.520 -0.0399 -0.1360 -0.0335
  791MPD2    C111657   2.444   2.937  12.568 -0.0467 -0.4046 -0.0089
  791MPD2    C211658   2.358   2.826  12.560 -0.4335  0.2925  0.1380
  791MPD2    C311659   2.229   2.836  12.517  0.3455 -0.5326  0.1480
  791MPD2    C411660   2.191   2.955  12.467  0.0977  0.2597  0.0098
  791MPD2    C511661   2.282   3.064  12.467 -1.0815 -0.1515 -0.2026
  791MPD2     H11662   2.388   2.731  12.602  2.6559  1.5834  0.8299
  791MPD2    H111663   2.090   2.970  12.431 -0.4123  0.4497  1.5371
  791MPD2    H211664   2.475   3.139  12.508 -1.3706  0.8056 -1.0558
  791MPD2    H311665   2.247   3.153  12.417 -0.1795  1.0546  1.3181
  791MPD2     N11666   2.147   2.721  12.526 -0.2663 -0.1701 -0.7523
  791MPD2    H511667   2.189   2.646  12.580 -0.2206  1.5100  1.5138
  791MPD2    N111668   2.572   2.920  12.614 -0.2151  0.0642 -0.5782
  791MPD2    H711669   2.627   3.005  12.623 -1.2126  0.7098 -0.5266
  792MPD2     C11670   3.276   2.916  11.472 -0.2619 -1.4307  0.2382
  792MPD2    C111671   3.379   2.951  11.385  0.6250  0.4438  0.9430
  792MPD2    C211672   3.371   2.928  11.253  0.2712  0.0179  0.3352
  792MPD2    C311673   3.262   2.856  11.201 -0.2626 -0.7309  0.2580
  792MPD2    C411674   3.167   2.815  11.287  0.0229  0.1210  0.9676
  792MPD2    C511675   3.166   2.857  11.418 -0.2960  0.0249 -0.2726
  792MPD2     H11676   3.450   2.964  11.187 -0.5621  2.2240  0.5436
  792MPD2    H111677   3.084   2.760  11.243  0.4457  0.6090 -0.4222
  792MPD2    H211678   3.280   2.940  11.578  0.0233 -0.9755  0.1228
  792MPD2    H311679   3.091   2.833  11.493  1.3089  1.0743  1.6698
  792MPD2     N11680   3.245   2.830  11.064 -0.1498  0.4784 -0.1406
  792MPD2    H511681   3.154   2.794  11.038 -0.0802  0.3596 -0.2217
  792MPD2    N111682   3.484   3.015  11.442  0.1402  0.7085 -0.4209
  792MPD2    H711683   3.469   3.043  11.539 -0.1057 -0.9359  0.0248
  793MPD2     C11684   2.635   2.806  10.303 -0.0814 -0.4694 -0.2739
  793MPD2    C111685   2.754   2.865  10.264 -0.2604 -0.6491  0.4328
  793MPD2    C211686   2.864   2.853  10.342  0.6955 -0.5047 -0.1749
  793MPD2    C311687   2.862   2.783  10.463  0.7277 -0.3805 -0.4181
  793MPD2    C411688   2.744   2.724  10.507  0.3575  0.7143 -1.1487
  793MPD2    C511689   2.632   2.735  10.425 -0.0146 -0.0339 -0.7575
  793MPD2     H11690   2.956   2.898  10.307  0.0596  2.3168  1.8307
  793MPD2    H111691   2.741   2.650  10.586  3.6217  3.1406  1.2294
  793MPD2    H211692   2.548   2.814  10.238  0.5808 -0.1735 -1.1306
  793MPD2    H311693   2.538   2.697  10.464  0.7531 -0.9739  0.1939
  793MPD2     N11694   2.986   2.762  10.531  0.2178  0.0778 -0.0937
  793MPD2    H511695   3.071   2.803  10.494  1.9322 -2.6726  0.8128
  793MPD2    N111696   2.769   2.941  10.153 -0.6509  0.5356 -0.5000
  793MPD2    H711697   2.864   2.971  10.133 -0.6670  1.5572  0.9523
  794MPD2     C11698   2.074   2.888  17.495  0.2806  0.0786 -0.7086
  794MPD2    C111699   2.153   2.811  17.411  0.7617  0.4905  0.1418
  794MPD2    C211700   2.132   2.821  17.277  0.1023 -0.0130 -0.9076
  794MPD2    C311701   2.046   2.920  17.229 -0.0190 -0.7110  0.0646
  794MPD2    C411702   1.975   3.000  17.319 -0.4229  0.4242  0.1286
  794MPD2    C511703   1.988   2.979  17.450  0.1555  0.1829 -0.1630
  794MPD2     H11704   2.180   2.755  17.205 -3.2717 -0.6611 -2.5339
  794MPD2    H111705   1.921   3.084  17.275 -0.0225  1.3631  1.3985
  794MPD2    H211706   2.094   2.896  17.602 -2.9395 -0.7158 -0.0359
  794MPD2    H311707   1.937   3.043  17.520 -1.7830 -2.4548  0.8101
  794MPD2     N11708   2.046   2.965  17.096  0.3698  0.2836 -1.1297
  794MPD2    H511709   2.007   3.057  17.081 -0.2626 -0.0353 -1.4087
  794MPD2    N111710   2.245   2.718  17.467 -0.2171 -0.0646 -0.6953
  794MPD2    H711711   2.310   2.682  17.398  2.9838  0.8590  1.8258
  795MPD2     C11712   0.165   4.598  13.647 -0.3948 -0.0219  0.0539
  795MPD2    C111713   0.184   4.525  13.534  0.1370  0.1869 -0.3593
  795MPD2    C211714   0.258   4.409  13.535  0.2524  0.0208  0.2951
  795MPD2    C311715   0.296   4.354  13.657 -1.0998  0.1385 -0.3138
  795MPD2    C411716   0.277   4.431  13.776  0.6075 -0.3247 -0.3804
  795MPD2    C511717   0.214   4.547  13.767 -0.2840 -0.0477 -0.5867
  795MPD2     H11718   0.287   4.358  13.444  2.6182  0.5966  0.7231
  795MPD2    H111719   0.319   4.402  13.871 -0.0774  2.0211  0.6392
  795MPD2    H211720   0.107   4.689  13.643 -0.1765  0.1742  1.3475
  795MPD2    H311721   0.196   4.602  13.859  4.2913 -0.4691  0.5853
  795MPD2     N11722   0.369   4.235  13.649 -0.6416 -0.4952  0.3898
  795MPD2    H511723   0.363   4.182  13.563  2.7698  0.5398 -0.4806
  795MPD2    N111724   0.125   4.555  13.410  0.2463  0.0557  0.3919
  795MPD2    H711725   0.132   4.483  13.340  1.1821 -1.0767  1.6458
  796MPD2     C11726   4.332   1.786  15.580  0.1447 -0.4400 -0.1773
  796MPD2    C111727   4.393   1.831  15.694 -0.0701 -0.5346  0.1874
  796MPD2    C211728   4.376   1.963  15.736  0.3692  0.9532  0.4294
  796MPD2    C311729   4.289   2.045  15.677 -0.5871 -0.2561  0.6031
  796MPD2    C411730   4.209   2.000  15.576 -0.0909  0.9841  0.5216
  796MPD2    C511731   4.238   1.873  15.529  0.1036  0.4298  0.2987
  796MPD2     H11732   4.432   1.997  15.822  0.2974  2.3207 -0.0605
  796MPD2    H111733   4.125   2.058  15.541  0.4944 -0.1831 -2.8509
  796MPD2    H211734   4.351   1.689  15.536  2.7160  0.8612 -1.9128
  796MPD2    H311735   4.185   1.850  15.437  1.3248  0.1043 -0.3272
  796MPD2     N11736   4.289   2.180  15.722  0.3398  0.0300 -0.5577
  796MPD2    H511737   4.348   2.201  15.802  0.3464 -0.6342 -0.3894
  796MPD2    N111738   4.490   1.748  15.751 -0.7752 -0.0447 -0.0368
  796MPD2    H711739   4.488   1.658  15.705  1.9077 -0.5489  0.8354
  797MPD2     C11740   0.395   1.418  17.529 -0.0510  0.2131  0.6081
  797MPD2    C111741   0.493   1.515  17.513 -0.5636  0.7993  0.2215
  797MPD2    C211742   0.477   1.622  17.430 -0.8612 -0.2435 -0.0399
  797MPD2    C311743   0.355   1.632  17.354  0.0045  0.2980 -0.0051
  797MPD2    C411744   0.255   1.540  17.382  0.3045 -0.0639 -0.2236
  797MPD2    C511745   0.280   1.427  17.462 -0.1657 -0.3493  0.0494
  797MPD2     H11746   0.560   1.691  17.418 -0.4511 -0.8764 -0.8206
  797MPD2    H111747   0.159   1.544  17.331 -0.5069  0.0483  1.3054
  797MPD2    H211748   0.399   1.336  17.600 -3.1536 -1.1665 -0.7732
  797MPD2    H311749   0.203   1.352  17.474 -0.0031 -0.2233  2.0346
  797MPD2     N11750   0.340   1.737  17.251  0.1907 -0.5472  0.3629
  797MPD2    H511751   0.258   1.719  17.193  0.3178 -0.1014  0.0423
  797MPD2    N111752   0.622   1.496  17.563  0.1356 -0.6110  0.6262
  797MPD2    H711753   0.690   1.564  17.530  1.0126 -0.6313  2.3608
  798MPD2     C11754   0.924   1.560  16.824  0.4398 -0.0205  0.2965
  798MPD2    C111755   0.863   1.631  16.924  0.5941  0.0810 -0.1851
  798MPD2    C211756   0.868   1.592  17.054 -0.0443 -0.9283  0.1283
  798MPD2    C311757   0.931   1.479  17.083  0.2078 -0.0179  0.0425
  798MPD2    C411758   0.990   1.404  16.989 -0.5192 -0.3548 -0.2550
  798MPD2    C511759   0.992   1.450  16.863 -0.8345 -0.2723 -0.1066
  798MPD2     H11760   0.815   1.645  17.134  1.6990  0.9966  0.0131
  798MPD2    H111761   1.032   1.307  17.013 -0.2293  0.2902  1.8279
  798MPD2    H211762   0.925   1.597  16.722 -2.7297  0.0651  0.2995
  798MPD2    H311763   1.039   1.396  16.782  1.0970  0.3895  0.5530
  798MPD2     N11764   0.930   1.446  17.222  0.1161 -0.1769 -0.4204
  798MPD2    H511765   0.884   1.513  17.282  0.9596 -0.8082  0.9461
  798MPD2    N111766   0.800   1.748  16.887  0.0902 -0.1456 -0.6386
  798MPD2    H711767   0.780   1.756  16.788  1.6713 -1.9994 -1.1100
  799MPD2     C11768   4.108   2.529  14.840 -0.3492 -0.0032  0.2681
  799MPD2    C111769   4.175   2.430  14.777 -1.0273  0.4431 -0.6774
  799MPD2    C211770   4.195   2.433  14.639  0.1799 -0.4770  0.2760
  799MPD2    C311771   4.160   2.544  14.567 -0.3137 -0.1096 -0.0850
  799MPD2    C411772   4.085   2.640  14.632  0.8124 -0.1047  0.4759
  799MPD2    C511773   4.071   2.638  14.771  0.4467 -0.8331 -0.2255
  799MPD2     H11774   4.244   2.343  14.602  0.5705  0.5539 -1.7216
  799MPD2    H111775   4.052   2.724  14.573 -1.9596 -0.6547  1.2403
  799MPD2    H211776   4.098   2.529  14.948 -1.0877 -1.2355  0.1996
  799MPD2    H311777   4.008   2.709  14.823  1.0477 -0.4707  0.0062
  799MPD2     N11778   4.191   2.555  14.427  0.5219  0.1324 -0.6078
  799MPD2    H511779   4.135   2.622  14.376 -0.1219  0.1051  0.0738
  799MPD2    N111780   4.253   2.332  14.846  0.0734 -0.0255  0.4922
  799MPD2    H711781   4.308   2.275  14.782  0.8337  0.4374  0.7334
  800MPD2     C11782   4.658   3.650  13.549  1.2212 -0.3589 -0.0635
  800MPD2    C111783   0.025   3.579  13.623  0.1260  0.5574 -0.3442
  800MPD2    C211784   0.058   3.458  13.563  0.5427 -0.7602 -0.7099
  800MPD2    C311785   4.718   3.412  13.449  0.5421  0.0980 -0.4291
  800MPD2    C411786   4.610   3.481  13.392 -0.3211  0.1875 -0.0405
  800MPD2    C511787   4.582   3.605  13.443 -0.5790 -0.9919 -0.6838
  800MPD2     H11788   0.137   3.403  13.614  0.8886  0.1548 -0.2528
  800MPD2    H111789   4.559   3.450  13.301 -1.3143  0.2786  0.4884
  800MPD2    H211790   4.644   3.756  13.568  2.0684 -0.3203  0.3277
  800MPD2    H311791   4.529   3.674  13.379 -0.7737 -0.5940 -0.0953
  800MPD2     N11792   0.045   3.290  13.396  0.0437 -0.5064 -0.1827
  800MPD2    H511793   0.121   3.246  13.446  0.7527 -0.3720 -1.1432
  800MPD2    N111794   0.077   3.627  13.745 -0.9109  0.2872  0.2852
  800MPD2    H711795   0.055   3.723  13.767 -1.3694  0.3948 -0.6500
  801MPD2     C11796   0.412   4.222  14.115 -0.0542 -0.4578  0.3018
  801MPD2    C111797   0.342   4.152  14.205  0.5968 -0.4587 -0.9881
  801MPD2    C211798   0.299   4.211  14.321  0.0422  0.8114 -0.8138
  801MPD2    C311799   0.315   4.352  14.335 -0.6515 -0.3759 -0.2136
  801MPD2    C411800   0.376   4.425  14.234 -0.6086 -0.6027 -0.0319
  801MPD2    C511801   0.427   4.356  14.128 -0.2414 -0.1093 -0.5201
  801MPD2     H11802   0.235   4.153  14.387 -0.4762  0.4976 -1.5872
  801MPD2    H111803   0.391   4.532  14.242  0.4149 -0.4980 -3.4387
  801MPD2    H211804   0.449   4.169  14.028  0.2942  0.0508  0.1402
  801MPD2    H311805   0.487   4.404  14.051  0.4359  3.7000  2.3459
  801MPD2     N11806   0.247   4.425  14.435 -0.6173  0.0824  0.0811
  801MPD2    H511807   0.221   4.522  14.417 -1.7486 -0.5213 -1.5794
  801MPD2    N111808   0.313   4.016  14.184 -0.4494 -0.6196  0.0902
  801MPD2    H711809   0.265   3.973  14.262  0.2081  2.0679  1.9792
  802MPD2     C11810   3.901   0.140  17.029  0.3324 -0.0607 -0.0564
  802MPD2    C111811   3.992   0.210  17.108  0.2513  0.1316 -0.3715
  802MPD2    C211812   4.126   0.186  17.096 -0.2227 -0.2739 -0.5708
  802MPD2    C311813   4.175   0.085  17.014  0.6111 -0.3367 -0.1445
  802MPD2    C411814   4.082   0.009  16.939  0.1303 -0.3427  0.6919
  802MPD2    C511815   3.946   0.035  16.947  0.4211  0.4138  0.2658
  802MPD2     H11816   4.196   0.249  17.149  1.4404  0.0672 -3.1330
  802MPD2    H111817   4.098   4.639  16.892  0.6986  0.6958 -1.2324
  802MPD2    H211818   3.794   0.143  17.048 -0.1094 -1.9021 -2.2027
  802MPD2    H311819   3.883   4.688  16.897  0.3754 -1.3328  2.8914
  802MPD2     N11820   4.317   0.060  17.022  0.0721  0.5382 -0.6678
  802MPD2    H511821   4.372   0.135  17.064 -0.8756  0.2794  1.0551
  802MPD2    N111822   3.955   0.304  17.214 -0.5831  0.3264 -0.1498
  802MPD2    H711823   4.026   0.355  17.266  0.5499 -1.1391 -0.2638
  803MPD2     C11824   1.271   2.526  11.670 -0.3423  0.1851  0.5081
  803MPD2    C111825   1.252   2.663  11.697  0.5551 -0.0674  0.2040
  803MPD2    C211826   1.188   2.689  11.813  0.2228  0.3524 -0.2163
  803MPD2    C311827   1.140   2.589  11.901  0.8806  0.7959 -0.0044
  803MPD2    C411828   1.168   2.456  11.872  0.3003 -0.6202 -0.4509
  803MPD2    C511829   1.238   2.429  11.757 -0.3455 -0.1244  0.3382
  803MPD2     H11830   1.166   2.790  11.844  0.8102  0.1646  0.7878
  803MPD2    H111831   1.135   2.382  11.944  1.7822 -0.6490  0.1914
  803MPD2    H211832   1.310   2.485  11.578 -0.4709  0.0810  0.5013
  803MPD2    H311833   1.258   2.326  11.732 -1.4355  0.3827 -2.6079
  803MPD2     N11834   1.089   2.611  12.030 -0.7329 -0.0807 -0.3883
  803MPD2    H511835   1.082   2.530  12.091  0.4456  0.6815  0.7610
  803MPD2    N111836   1.323   2.762  11.627  0.0598 -0.0730 -0.2842
  803MPD2    H711837   1.305   2.860  11.646  1.2327  0.3986 -1.5691
  804MPD2     C11838   0.814   4.558  16.766  0.6055  0.2992 -0.3888
  804MPD2    C111839   0.732   4.603  16.870 -0.3670 -0.3614 -0.2542
  804MPD2    C211840   0.751   0.009  16.922  0.2406  0.9079 -0.4498
  804MPD2    C311841   0.858   0.085  16.868  0.0154 -0.2077  0.2811
  804MPD2    C411842   0.941   0.033  16.771 -0.3422 -0.7258 -0.6998
  804MPD2    C511843   0.922   4.630  16.731 -0.2207 -0.0316  0.5560
  804MPD2     H11844   0.697   0.063  16.999 -1.0774 -0.5652 -0.3325
  804MPD2    H111845   1.026   0.086  16.729 -1.4221  0.6821 -1.1353
  804MPD2    H211846   0.788   4.462  16.723 -0.8226  0.1808  0.7575
  804MPD2    H311847   0.983   4.591  16.650 -0.8214  1.7911 -0.7651
  804MPD2     N11848   0.876   0.211  16.929 -0.1803  0.1180 -0.2074
  804MPD2    H511849   0.804   0.246  16.991 -1.6833  0.9307 -2.4014
  804MPD2    N111850   0.629   4.524  16.927 -0.6909  0.5974  0.0432
  804MPD2    H711851   0.571   4.563  17.000 -1.8222  0.6098 -0.8755
  805MPD2     C11852   3.975   2.695  15.643 -0.1836 -0.1457 -0.4400
  805MPD2    C111853   4.066   2.628  15.561  0.8900  0.3357  0.5546
  805MPD2    C211854   4.198   2.658  15.566  0.7307 -0.2570  0.3633
  805MPD2    C311855   4.240   2.739  15.673 -0.1117 -0.0703 -0.3484
  805MPD2    C411856   4.155   2.806  15.760  0.7064 -0.2749 -0.3109
  805MPD2    C511857   4.020   2.778  15.746  0.5003  0.1620 -0.4696
  805MPD2     H11858   4.267   2.626  15.489 -0.7445 -0.9410 -0.6975
  805MPD2    H111859   4.184   2.882  15.831  2.2954  0.1678 -1.4312
  805MPD2    H211860   3.869   2.671  15.644 -0.3862  0.7252 -0.8837
  805MPD2    H311861   3.950   2.832  15.808 -1.0975  0.3158 -2.3992
  805MPD2     N11862   4.377   2.759  15.677 -0.6359 -0.2798  0.4873
  805MPD2    H511863   4.429   2.720  15.598 -0.6113 -0.0918  0.4098
  805MPD2    N111864   4.019   2.534  15.464  0.5255  0.4718 -0.0891
  805MPD2    H711865   4.095   2.487  15.415  0.2172 -2.5140  2.2834
  806MPD2     C11866   0.065   3.166   0.918 -0.1854 -0.0187 -0.5469
  806MPD2    C111867   0.158   3.061   0.912 -0.0709 -0.0366 -0.4992
  806MPD2    C211868   0.189   3.014   0.786 -0.7097 -0.7081  0.2444
  806MPD2    C311869   0.124   3.066   0.676  0.0890 -1.0226 -0.0576
  806MPD2    C411870   0.040   3.173   0.685  0.5192 -0.0854  0.3918
  806MPD2    C511871   0.010   3.225   0.808  0.6105  0.3356  0.3548
  806MPD2     H11872   0.243   2.921   0.773  1.2767  0.3866  0.7450
  806MPD2    H111873   4.721   3.218   0.597  0.4343 -0.9585 -0.0156
  806MPD2    H211874   0.019   3.205   1.008 -2.1671  0.4103 -1.7586
  806MPD2    H311875   4.670   3.311   0.821  2.0605  1.5360 -0.2610
  806MPD2     N11876   0.154   2.993   0.553  0.0909 -0.3316  0.5400
  806MPD2    H511877   0.245   2.949   0.543  1.3786  2.2033  1.0987
  806MPD2    N111878   0.202   3.002   1.035 -0.2940 -0.5083 -0.5401
  806MPD2    H711879   0.164   3.034   1.123  2.1166 -1.3423  0.8014
  807MPD2     C11880   0.020   2.765   1.725 -0.0731  0.1684 -0.8463
  807MPD2    C111881   0.136   2.714   1.690 -0.1268  0.1612 -1.5187
  807MPD2    C211882   0.185   2.593   1.749  0.1021 -0.6327 -0.3380
  807MPD2    C311883   0.107   2.524   1.841  0.0438 -0.1941  0.0335
  807MPD2    C411884   4.718   2.581   1.890 -0.6963 -0.4728  0.6380
  807MPD2    C511885   4.686   2.703   1.834  0.3176  0.2799 -0.1049
  807MPD2     H11886   0.274   2.552   1.704 -0.0720 -2.1674  0.7137
  807MPD2    H111887   4.660   2.540   1.972 -2.0200  0.8095  0.3386
  807MPD2    H211888   4.717   2.866   1.697  3.9775  1.9325  1.2800
  807MPD2    H311889   4.600   2.752   1.878  0.4651  2.0224 -1.7650
  807MPD2     N11890   0.155   2.403   1.903  0.5417 -0.6190  0.3370
  807MPD2    H511891   0.249   2.375   1.877  0.4825 -0.9835  0.5127
  807MPD2    N111892   0.216   2.764   1.588 -0.0537  0.2010 -0.9349
  807MPD2    H711893   0.305   2.715   1.588  0.4173  1.0428  4.6239
  808MPD2     C11894   4.682   0.029   8.858  0.2473  0.7203  0.5571
  808MPD2    C111895   0.055   4.662   8.845 -0.2890 -1.1561  0.2068
  808MPD2    C211896   0.180   4.695   8.887  0.1024 -0.2399 -0.3785
  808MPD2    C311897   0.206   0.090   8.960 -0.0461  0.0642  0.2499
  808MPD2    C411898   0.106   0.179   8.965  0.2586 -0.0155 -0.4047
  808MPD2    C511899   4.708   0.148   8.914 -0.4057  0.0733  0.6823
  808MPD2     H11900   0.262   4.625   8.875  0.4494  0.3268 -1.2464
  808MPD2    H111901   0.110   0.280   9.006 -0.8310 -0.0339 -0.2512
  808MPD2    H211902   4.583   0.009   8.817  0.4971 -1.0223  0.8201
  808MPD2    H311903   4.626   0.219   8.915 -0.1713  0.3416  0.9664
  808MPD2     N11904   0.336   0.121   9.015  0.3108 -0.4592  0.0503
  808MPD2    H511905   0.341   0.208   9.067 -1.6248 -0.4880  0.2944
  808MPD2    N111906   0.045   4.537   8.779 -0.0459 -0.0586 -0.9675
  808MPD2    H711907   0.132   4.497   8.745 -1.1006 -0.8080 -2.7936
  809MPD2     C11908   1.278   0.039   8.631 -0.3799 -0.7828 -0.1752
  809MPD2    C111909   1.282   0.018   8.769  0.3299 -0.0048 -0.0373
  809MPD2    C211910   1.176   0.063   8.844  0.3750  0.6912  0.4084
  809MPD2    C311911   1.058   0.104   8.785 -0.0476 -0.3522  0.0593
  809MPD2    C411912   1.051   0.097   8.648  0.0709  0.4033  0.9499
  809MPD2    C511913   1.162   0.080   8.575  0.1293 -0.1185 -0.4450
  809MPD2     H11914   1.188   0.051   8.951  0.8087 -0.6239  0.2113
  809MPD2    H111915   0.958   0.125   8.602  0.6884  1.4719  0.3700
  809MPD2    H211916   1.361   0.007   8.569  1.8204  1.7660  1.4457
  809MPD2    H311917   1.164   0.081   8.466  2.9707 -1.9934 -0.4263
  809MPD2     N11918   0.938   0.134   8.850 -0.3166 -0.0696 -0.3286
  809MPD2    H511919   0.856   0.157   8.795 -0.2618 -1.6938 -1.0826
  809MPD2    N111920   1.393   4.685   8.838  0.3017 -0.1418  0.2470
  809MPD2    H711921   1.391   4.681   8.939  1.8427 -1.6781  0.2097
  810MPD2     C11922   0.686   3.082  10.393  0.3653 -0.0111 -0.9283
  810MPD2    C111923   0.557   3.074  10.448 -0.5988 -0.2916  0.1812
  810MPD2    C211924   0.525   3.150  10.556  0.2698 -0.1020  0.0979
  810MPD2    C311925   0.609   3.244  10.608  0.7808  0.4521 -0.5672
  810MPD2    C411926   0.737   3.256  10.552  0.1337  0.1993  0.0629
  810MPD2    C511927   0.768   3.176  10.441  0.8972 -0.3308 -0.4644
  810MPD2     H11928   0.425   3.139  10.596 -0.2233  0.0384 -1.0892
  810MPD2    H111929   0.796   3.336  10.594  1.0208  0.4218 -1.6220
  810MPD2    H211930   0.711   3.033  10.299 -2.4930 -0.3137 -1.5465
  810MPD2    H311931   0.868   3.188  10.402  1.2158  0.8697  0.7127
  810MPD2     N11932   0.581   3.336  10.711 -0.1121 -0.3791 -0.3006
  810MPD2    H511933   0.662   3.394  10.732 -0.4214  0.9593 -2.7869
  810MPD2    N111934   0.477   2.966  10.401  0.8437 -0.0765 -0.7504
  810MPD2    H711935   0.491   2.929  10.308 -0.2411  0.6781 -1.2165
  811MPD2     C11936   4.700   2.834   9.728  0.0644  0.1594 -0.7987
  811MPD2    C111937   0.025   2.915   9.833  0.3072 -0.5372  0.1444
  811MPD2    C211938   4.722   3.046   9.833 -0.4541  0.0249 -0.1794
  811MPD2    C311939   4.653   3.101   9.725  0.2495  0.4816 -0.2715
  811MPD2    C411940   4.620   3.027   9.615  0.6188 -0.1358  0.3836
  811MPD2    C511941   4.642   2.894   9.621 -0.5497 -0.0921  0.4655
  811MPD2     H11942   0.020   3.108   9.919 -0.0782  1.7313 -1.4891
  811MPD2    H111943   4.573   3.065   9.526  1.2765 -0.0729  0.0633
  811MPD2    H211944   4.713   2.726   9.733 -0.3664  0.0853 -1.3966
  811MPD2    H311945   4.601   2.833   9.542 -1.3370  0.7019  0.2629
  811MPD2     N11946   4.616   3.235   9.740 -0.2381 -0.2259  0.2665
  811MPD2    H511947   4.611   3.275   9.834  0.5465 -1.3139  0.7647
  811MPD2    N111948   0.085   2.854   9.942  0.0666 -0.5344  0.3743
  811MPD2    H711949   0.112   2.756   9.930  1.2106 -0.0645 -0.8960
  812MPD2     C11950   4.094   3.005  12.251 -0.4745 -0.3731  0.0714
  812MPD2    C111951   3.997   3.026  12.346  0.3262  0.3387 -0.7080
  812MPD2    C211952   3.970   2.911  12.419 -0.0933 -0.3007 -0.1423
  812MPD2    C311953   4.040   2.793  12.411 -0.1150 -0.1514  0.0465
  812MPD2    C411954   4.143   2.773  12.322 -0.0812 -0.0408 -0.5643
  812MPD2    C511955   4.163   2.884  12.231  0.1920  0.6622 -0.4308
  812MPD2     H11956   3.895   2.912  12.498 -0.3441  0.8034 -0.3948
  812MPD2    H111957   4.198   2.680  12.315  1.1196  0.8872 -3.8475
  812MPD2    H211958   4.126   3.083  12.183 -3.5646  0.6926 -0.1385
  812MPD2    H311959   4.237   2.875  12.153 -2.6368 -0.4718 -2.9961
  812MPD2     N11960   4.020   2.691  12.502  0.1229  0.1578  0.3565
  812MPD2    H511961   3.973   2.710  12.590 -1.9020 -1.5628 -0.3222
  812MPD2    N111962   3.932   3.152  12.358  0.1923  0.3479 -0.7874
  812MPD2    H711963   3.969   3.224  12.296  2.5129  0.9297  1.3072
  813MPD2     C11964   2.562   0.050  12.620  0.0808 -0.5237 -0.2107
  813MPD2    C111965   2.672   4.709  12.668 -0.2898  0.5767  0.2353
  813MPD2    C211966   2.651   4.579  12.714  0.4047 -0.4026 -0.9125
  813MPD2    C311967   2.517   4.530  12.736 -0.3740 -0.0053 -0.1381
  813MPD2    C411968   2.419   4.614  12.692 -0.1477  0.4531  1.0120
  813MPD2    C511969   2.434   0.001  12.624  0.6043 -0.3113 -0.2370
  813MPD2     H11970   2.735   4.516  12.741  1.3067  1.3022  0.2678
  813MPD2    H111971   2.313   4.591  12.704 -0.2129  1.2022  1.8548
  813MPD2    H211972   2.577   0.148  12.576 -1.6060  0.4462  1.3279
  813MPD2    H311973   2.349   0.053  12.582  1.0014  0.3911 -0.1677
  813MPD2     N11974   2.503   4.403  12.790 -1.2220  0.0632  0.1761
  813MPD2    H511975   2.593   4.357  12.797 -1.0623  0.4191  0.4133
  813MPD2    N111976   2.802   0.052  12.673  0.0732 -0.1336  0.2081
  813MPD2    H711977   2.808   0.143  12.629  0.2542 -0.6544 -0.8433
  814MPD2     C11978   3.227   1.867  11.923  0.1265 -0.3979  1.1667
  814MPD2    C111979   3.304   1.843  11.809 -0.0044  0.4410  0.6202
  814MPD2    C211980   3.404   1.929  11.777 -0.1272 -0.4627  0.7673
  814MPD2    C311981   3.425   2.038  11.844  0.6362  0.2417 -0.1167
  814MPD2    C411982   3.357   2.059  11.962 -0.1877 -0.1164 -0.3073
  814MPD2    C511983   3.263   1.973  12.000 -0.3762 -0.8779  0.8262
  814MPD2     H11984   3.469   1.904  11.694  0.8530 -1.0138  1.6983
  814MPD2    H111985   3.374   2.141  12.031 -0.9332  2.0185 -2.6384
  814MPD2    H211986   3.133   1.815  11.938 -0.4181  0.0350 -0.7751
  814MPD2    H311987   3.207   1.996  12.090 -1.1567 -1.2047  0.4218
  814MPD2     N11988   3.518   2.130  11.793  0.6752 -0.1463 -0.4487
  814MPD2    H511989   3.531   2.209  11.855  0.1628 -0.0458 -0.4674
  814MPD2    N111990   3.290   1.730  11.731 -0.1133 -0.1428 -0.3787
  814MPD2    H711991   3.351   1.729  11.651  1.2605 -2.5311  0.7171
  815MPD2     C11992   3.793   0.369  11.735 -0.1353  0.1744 -0.0580
  815MPD2    C111993   3.796   0.231  11.762  0.1297  0.3565 -0.6939
  815MPD2    C211994   3.695   0.175  11.838 -0.1249 -0.8251 -0.2220
  815MPD2    C311995   3.583   0.255  11.873 -0.4735  0.1908 -0.3022
  815MPD2    C411996   3.568   0.382  11.834 -0.0293 -0.1028 -0.1169
  815MPD2    C511997   3.677   0.439  11.770 -0.1157 -0.3808  0.1102
  815MPD2     H11998   3.694   0.072  11.872 -0.8393 -0.6174  0.3868
  815MPD2    H111999   3.487   0.451  11.853  1.6123  1.6723  0.4008
  815MPD2    H212000   3.868   0.419  11.675 -0.2580  0.3241 -0.0875
  815MPD2    H312001   3.672   0.543  11.740 -0.7442 -0.1920  0.8604
  815MPD2     N12002   3.472   0.184  11.934 -0.0951 -0.2006  0.3253
  815MPD2    H512003   3.478   0.084  11.948 -2.9185 -0.9825 -3.9733
  815MPD2    N112004   3.905   0.150  11.720  0.4270 -0.0057 -0.5899
  815MPD2    H712005   3.967   0.195  11.654  0.4884 -1.2783 -1.3990
  816MPD2     C12006   3.819   4.382  17.392 -0.0354  0.0720 -1.0644
  816MPD2    C112007   3.732   4.393  17.282 -0.3777 -0.2590 -0.5847
  816MPD2    C212008   3.739   4.291  17.189 -0.1809 -0.2623  0.1518
  816MPD2    C312009   3.846   4.200  17.191 -0.4496 -0.4235 -0.2066
  816MPD2    C412010   3.930   4.196  17.297 -0.1181 -0.0208 -0.3297
  816MPD2    C512011   3.912   4.285  17.401 -0.4138  0.1923 -0.4358
  816MPD2     H12012   3.663   4.298  17.112 -0.5398  1.4712  0.6719
  816MPD2    H112013   4.018   4.132  17.303  2.4617  3.3267 -2.2448
  816MPD2    H212014   3.818   4.457  17.470  0.2265 -0.9932 -0.0326
  816MPD2    H312015   3.986   4.284  17.481  0.5342 -0.4607 -1.3207
  816MPD2     N12016   3.855   4.112  17.083  0.1468  0.3743  0.3532
  816MPD2    H512017   3.794   4.134  17.005  0.2077  3.2587  1.1114
  816MPD2    N112018   3.645   4.500  17.278 -0.9323 -0.3288  0.3326
  816MPD2    H712019   3.666   4.575  17.342  0.9217 -1.2691  0.8197
  817MPD2     C12020   4.026   0.723  10.055 -0.1923  0.5897 -0.4370
  817MPD2    C112021   3.930   0.703   9.954 -0.7953  0.3155  0.5804
  817MPD2    C212022   3.855   0.810   9.917 -0.1824  0.1272  0.6290
  817MPD2    C312023   3.872   0.932   9.971  0.0086  0.0465  0.0752
  817MPD2    C412024   3.973   0.953  10.057  0.0296 -0.0869 -0.5975
  817MPD2    C512025   4.048   0.851  10.100  0.1333  0.4692 -0.7889
  817MPD2     H12026   3.763   0.781   9.866  0.0468  1.6646 -0.6767
  817MPD2    H112027   3.994   1.049  10.102  3.2497 -1.2439  0.3599
  817MPD2    H212028   4.090   0.644  10.091  0.4983  1.1010 -0.5557
  817MPD2    H312029   4.131   0.871  10.167  0.5618  1.2206 -1.5280
  817MPD2     N12030   3.792   1.043   9.936  0.0643  0.1451  0.0707
  817MPD2    H512031   3.835   1.131   9.962  0.3732 -0.7502  2.6070
  817MPD2    N112032   3.893   0.573   9.915 -0.0100 -0.8773  0.1757
  817MPD2    H712033   3.819   0.558   9.847 -1.4328  0.6122  1.3962
  818MPD2     C12034   2.496   0.317   9.916 -0.2910  0.7596 -0.6972
  818MPD2    C112035   2.413   0.270  10.007  0.4567  0.6062  0.7395
  818MPD2    C212036   2.414   0.136  10.033 -0.0939 -0.1730  0.1522
  818MPD2    C312037   2.513   0.049   9.981  0.1317  0.1032 -0.0181
  818MPD2    C412038   2.591   0.101   9.882 -0.2609  0.7464  0.0395
  818MPD2    C512039   2.581   0.235   9.857  0.5440  0.1754  0.4580
  818MPD2     H12040   2.336   0.099  10.099 -1.3401  3.8272  0.8877
  818MPD2    H112041   2.659   0.048   9.817  1.8285  0.6302  2.3143
  818MPD2    H212042   2.493   0.417   9.873 -0.9298  0.2491 -1.8210
  818MPD2    H312043   2.650   0.279   9.786 -0.1967  1.4295  0.5205
  818MPD2     N12044   2.524   4.638  10.003  0.3695  0.0448  0.0050
  818MPD2    H512045   2.597   4.591   9.950 -0.0627  0.8919 -1.3565
  818MPD2    N112046   2.313   0.357  10.059 -0.1995 -0.5057 -0.3458
  818MPD2    H712047   2.239   0.310  10.111 -1.1306 -0.1826 -1.3796
  819MPD2     C12048   0.126   2.237  15.806 -0.2478  0.0343 -0.5084
  819MPD2    C112049   0.188   2.123  15.763  0.3846  0.7994  0.0236
  819MPD2    C212050   0.325   2.100  15.803 -0.3445 -0.0505  0.2935
  819MPD2    C312051   0.397   2.184  15.883 -1.2115  0.0141  0.6399
  819MPD2    C412052   0.316   2.287  15.943 -0.1623  0.4566  0.6326
  819MPD2    C512053   0.194   2.317  15.894  0.5991 -0.7046 -0.6731
  819MPD2     H12054   0.383   2.025  15.751  0.2635 -0.2141  1.2061
  819MPD2    H112055   0.353   2.366  16.007 -2.6553  0.7731  1.6787
  819MPD2    H212056   0.032   2.267  15.760  0.1762  2.3793  0.1692
  819MPD2    H312057   0.134   2.395  15.940  0.4457 -1.9685  1.2776
  819MPD2     N12058   0.536   2.153  15.907 -0.3539 -0.1383 -0.5223
  819MPD2    H512059   0.581   2.070  15.869  0.3866 -0.7965  1.7767
  819MPD2    N112060   0.129   2.036  15.665  0.3517 -0.3354 -0.4737
  819MPD2    H712061   0.044   2.069  15.621 -0.1417  0.7479  1.3000
  820MPD2     C12062   4.148   1.845  14.992 -0.1887 -0.0251  0.1183
  820MPD2    C112063   4.180   1.948  15.082  0.0896  1.0214  0.5271
  820MPD2    C212064   4.301   1.936  15.151  0.3425  0.3929 -0.2666
  820MPD2    C312065   4.381   1.822  15.136  0.0248 -0.3000  0.1011
  820MPD2    C412066   4.344   1.719  15.056 -0.1136 -0.0103 -0.3017
  820MPD2    C512067   4.233   1.738  14.979  0.0459  0.0737 -0.0101
  820MPD2     H12068   4.325   1.998  15.236 -3.4333  0.3706  0.8109
  820MPD2    H112069   4.410   1.635  15.041 -1.0460 -1.2156  2.2775
  820MPD2    H212070   4.067   1.849  14.920  0.2946  0.5462 -0.4016
  820MPD2    H312071   4.212   1.656  14.911 -1.1657 -0.0475  0.5005
  820MPD2     N12072   4.497   1.794  15.209  0.0788 -0.1053 -0.3312
  820MPD2    H512073   4.532   1.699  15.198  0.9338 -0.0071  1.5630
  820MPD2    N112074   4.087   2.055  15.101 -0.0571 -0.3790  0.1032
  820MPD2    H712075   4.008   2.055  15.037 -0.0717 -3.0607  0.1337
  821MPD2     C12076   0.162   3.413  12.739  0.2241  0.6170 -0.8980
  821MPD2    C112077   0.266   3.349  12.796  0.3706 -0.5571  0.4887
  821MPD2    C212078   0.388   3.352  12.742  0.5070  0.1488  0.1081
  821MPD2    C312079   0.410   3.420  12.628  0.5595  0.1625  0.1681
  821MPD2    C412080   0.312   3.498  12.573 -0.2929 -0.3135  0.7788
  821MPD2    C512081   0.184   3.494  12.624  0.4110 -0.3849  0.3018
  821MPD2     H12082   0.464   3.280  12.770  0.8325  0.2735 -0.4394
  821MPD2    H112083   0.341   3.573  12.500 -0.4901  0.5569  1.6086
  821MPD2    H212084   0.062   3.391  12.775 -0.3641  2.8754 -1.1543
  821MPD2    H312085   0.103   3.557  12.590  0.5371  0.1529  0.9980
  821MPD2     N12086   0.543   3.409  12.564 -0.4058  0.1757  0.0214
  821MPD2    H512087   0.551   3.464  12.478  2.7911  0.0503  0.2564
  821MPD2    N112088   0.237   3.269  12.908  0.3123 -0.3886  0.4772
  821MPD2    H712089   0.143   3.276  12.947  0.4207  0.3415  0.6049
  822MPD2     C12090   0.674   3.532  15.856 -0.1383  0.1772 -0.0184
  822MPD2    C112091   0.788   3.564  15.916 -0.3420  0.2877 -0.5720
  822MPD2    C212092   0.805   3.689  15.990 -0.2703  0.1667 -0.0305
  822MPD2    C312093   0.696   3.771  16.010 -0.7212 -0.0356  0.2313
  822MPD2    C412094   0.581   3.726  15.954  0.5685  0.4451 -0.9904
  822MPD2    C512095   0.569   3.619  15.870 -0.5784 -0.1071 -0.3192
  822MPD2     H12096   0.898   3.704  16.043 -0.2456  1.0774 -0.3193
  822MPD2    H112097   0.496   3.794  15.960 -0.3360 -0.4764 -3.1789
  822MPD2    H212098   0.663   3.438  15.804 -1.8862  0.9120 -0.9673
  822MPD2    H312099   0.477   3.600  15.814  0.0431 -0.0404 -1.3678
  822MPD2     N12100   0.690   3.886  16.095 -0.5153 -0.2180 -0.6216
  822MPD2    H512101   0.598   3.925  16.111 -0.3451 -0.3423  0.6694
  822MPD2    N112102   0.893   3.471  15.927  0.4805  0.0738 -0.1947
  822MPD2    H712103   0.968   3.490  15.992  0.5920 -1.1477  0.0417
  823MPD2     C12104   0.671   4.004  16.933  0.2435  0.0948  0.5475
  823MPD2    C112105   0.674   3.939  16.811  0.4272 -1.7779 -0.1516
  823MPD2    C212106   0.679   3.796  16.805 -0.3156 -0.2435  0.7663
  823MPD2    C312107   0.674   3.714  16.910 -0.2087  0.1453 -0.1698
  823MPD2    C412108   0.666   3.782  17.025 -0.2120  0.3797 -0.1885
  823MPD2    C512109   0.671   3.923  17.038  0.0036 -0.3495  0.3289
  823MPD2     H12110   0.683   3.742  16.711  2.6635  1.3941 -0.0292
  823MPD2    H112111   0.664   3.726  17.118  1.7470  1.4548  0.5204
  823MPD2    H212112   0.670   4.109  16.958 -2.9780 -0.5791  3.2395
  823MPD2    H312113   0.648   3.973  17.131  2.1458  1.4751 -0.1211
  823MPD2     N12114   0.666   3.572  16.897  0.0653  0.4943 -0.3863
  823MPD2    H512115   0.656   3.529  16.989 -1.7981 -0.0507 -0.8294
  823MPD2    N112116   0.685   4.016  16.691  0.0574  0.5533  0.4529
  823MPD2    H712117   0.712   4.114  16.693  1.4337  0.2044 -1.0777
  824MPD2     C12118   1.120   2.629  15.795 -0.8006 -0.2758  0.6077
  824MPD2    C112119   1.212   2.719  15.854 -0.3901 -0.2728 -0.0811
  824MPD2    C212120   1.346   2.693  15.848 -0.7644  0.2509  0.0196
  824MPD2    C312121   1.391   2.576  15.779  0.1225 -0.0954 -0.2836
  824MPD2    C412122   1.297   2.486  15.731  0.1075 -0.3021  0.6087
  824MPD2    C512123   1.163   2.515  15.738  0.2063 -0.2900  0.1902
  824MPD2     H12124   1.411   2.775  15.878 -2.6011  2.2027 -1.3744
  824MPD2    H112125   1.324   2.400  15.672  0.4377  0.4885 -0.3903
  824MPD2    H212126   1.014   2.647  15.812 -0.9247 -1.0169  0.6443
  824MPD2    H312127   1.094   2.436  15.714 -2.2330  1.4193  1.5827
  824MPD2     N12128   1.527   2.551  15.757 -1.0524  0.4381  0.3863
  824MPD2    H512129   1.588   2.628  15.782  0.5383  0.5367 -3.6904
  824MPD2    N112130   1.173   2.846  15.916  0.6227 -0.5849 -1.2604
  824MPD2    H712131   1.252   2.903  15.943  1.2642 -0.9729 -2.3191
  825MPD2     C12132   2.270   2.646  15.284  0.6593 -0.1855 -0.2766
  825MPD2    C112133   2.155   2.697  15.344 -0.0444  0.4297 -0.3059
  825MPD2    C212134   2.113   2.831  15.314 -0.1047 -0.4078 -0.0811
  825MPD2    C312135   2.182   2.904  15.217  0.1170 -0.9682 -0.5608
  825MPD2    C412136   2.286   2.845  15.153  0.7550  0.8935  0.1154
  825MPD2    C512137   2.330   2.718  15.184  0.3743 -0.0625  0.3250
  825MPD2     H12138   2.028   2.880  15.360 -0.1593  0.4870 -1.1460
  825MPD2    H112139   2.333   2.898  15.071  1.4853  2.2259  1.3962
  825MPD2    H212140   2.289   2.543  15.309 -0.1023 -0.2050  0.2205
  825MPD2    H312141   2.420   2.688  15.130 -0.2308  1.0645 -1.3146
  825MPD2     N12142   2.139   3.028  15.165  0.0958  0.1103 -1.3062
  825MPD2    H512143   2.196   3.074  15.094  1.1105 -0.4406 -0.8422
  825MPD2    N112144   2.088   2.602  15.430 -0.4320 -0.2599  0.3956
  825MPD2    H712145   2.133   2.513  15.447  1.9688  1.0511  0.8308
  826MPD2     C12146   1.492   1.922  13.409  0.3902  0.1954 -0.0873
  826MPD2    C112147   1.575   2.039  13.405  0.4895  0.0179  0.2188
  826MPD2    C212148   1.531   2.157  13.462 -0.0894  0.1580 -0.3793
  826MPD2    C312149   1.401   2.158  13.515  0.4950 -0.5348 -0.6014
  826MPD2    C412150   1.316   2.050  13.498 -0.3254  0.9444 -0.4168
  826MPD2    C512151   1.361   1.931  13.456  0.3221  0.7294  0.2738
  826MPD2     H12152   1.593   2.245  13.472 -0.5657  0.6639 -1.9679
  826MPD2    H112153   1.217   2.053  13.542  1.1291 -0.8846  2.9937
  826MPD2    H212154   1.528   1.827  13.370 -1.9728 -0.7639  0.0783
  826MPD2    H312155   1.302   1.840  13.468  1.2022  0.2169  0.6684
  826MPD2     N12156   1.354   2.273  13.576 -0.1258  0.2832 -0.5392
  826MPD2    H512157   1.254   2.290  13.579 -0.3064 -0.8300 -0.4335
  826MPD2    N112158   1.697   2.023  13.332 -0.5964 -0.6016  0.6860
  826MPD2    H712159   1.727   1.929  13.309 -0.6176 -0.6954  1.0346
  827MPD2     C12160   3.002   4.186  10.008  0.6709 -0.2793 -0.2241
  827MPD2    C112161   2.953   4.074  10.079 -0.0713  0.3056  0.0338
  827MPD2    C212162   2.825   4.028  10.053  0.6168  0.0529  0.0799
  827MPD2    C312163   2.764   4.076   9.945  0.1024 -0.5415  0.5718
  827MPD2    C412164   2.816   4.176   9.862 -0.1290 -0.1861 -0.0232
  827MPD2    C512165   2.937   4.235   9.900 -0.9756  0.1426 -0.2762
  827MPD2     H12166   2.789   3.942  10.108  1.6983 -0.3901  0.0994
  827MPD2    H112167   2.770   4.207   9.769 -1.0272 -2.4999 -0.3368
  827MPD2    H212168   3.096   4.240  10.020  0.3342  0.0961  0.7791
  827MPD2    H312169   2.990   4.315   9.850  0.3024 -0.3379  0.3001
  827MPD2     N12170   2.642   4.010   9.915 -0.4951 -0.3508  0.4402
  827MPD2    H512171   2.619   3.943   9.988  1.7307 -0.3767  1.1246
  827MPD2    N112172   3.040   4.026  10.175  0.2473  0.4619 -0.0307
  827MPD2    H712173   3.129   4.074  10.186 -1.1131  2.7790  0.7896
  828MPD2     C12174   0.791   3.369  11.969 -1.0536  0.2436  0.9058
  828MPD2    C112175   0.872   3.478  11.923 -0.4932 -0.1763 -0.1441
  828MPD2    C212176   0.991   3.462  11.861  0.0680  0.6195  0.3885
  828MPD2    C312177   1.040   3.332  11.841  0.5990 -0.2074 -0.3703
  828MPD2    C412178   0.972   3.221  11.899  0.0912  0.3527 -0.2491
  828MPD2    C512179   0.853   3.243  11.961 -0.1373  0.2128 -1.0184
  828MPD2     H12180   1.048   3.551  11.836  1.8357 -1.7341 -3.9757
  828MPD2    H112181   1.007   3.119  11.889 -0.0907  0.3048 -0.4061
  828MPD2    H212182   0.701   3.378  12.028 -0.6488 -0.6772  1.6470
  828MPD2    H312183   0.814   3.151  12.002  2.1161 -0.3585 -0.1455
  828MPD2     N12184   1.163   3.313  11.772  0.5537  0.4445 -0.3299
  828MPD2    H512185   1.202   3.220  11.769 -0.7389 -0.1507  1.7319
  828MPD2    N112186   0.840   3.611  11.950  0.0193 -0.1454  0.8625
  828MPD2    H712187   0.910   3.676  11.915 -0.8935 -0.9244 -2.4352
  829MPD2     C12188   1.280   4.173  11.537  0.8195  0.1222  0.4012
  829MPD2    C112189   1.176   4.261  11.567 -0.9372 -0.7246  0.1265
  829MPD2    C212190   1.071   4.210  11.646 -0.4454 -0.4269 -0.4156
  829MPD2    C312191   1.079   4.090  11.707 -0.0496 -0.5190  0.1192
  829MPD2    C412192   1.182   4.006  11.675 -0.4252 -0.5938 -0.1119
  829MPD2    C512193   1.285   4.044  11.589  0.2706 -0.1846  0.3129
  829MPD2     H12194   0.978   4.265  11.654 -1.9760 -2.7962 -2.1147
  829MPD2    H112195   1.188   3.909  11.723  0.2084  0.2014  1.4275
  829MPD2    H212196   1.363   4.216  11.482  1.8877 -2.2332  0.1531
  829MPD2    H312197   1.374   3.988  11.563 -0.5129 -0.6926 -1.2390
  829MPD2     N12198   0.979   4.044  11.797 -0.1614  0.3114  0.3667
  829MPD2    H512199   1.001   3.951  11.832 -1.6452  0.3390  1.3898
  829MPD2    N112200   1.190   4.396  11.514 -0.1611 -0.1744  0.0013
  829MPD2    H712201   1.257   4.406  11.438  0.8628 -0.2717  0.8863
  830MPD2     C12202   1.199   1.820  15.660 -1.0963  0.1564  0.4439
  830MPD2    C112203   1.167   1.957  15.679  0.1538 -0.7717 -0.2771
  830MPD2    C212204   1.229   2.041  15.590 -0.4926  0.1224 -0.4520
  830MPD2    C312205   1.320   1.999  15.494  0.3965 -0.4510  0.1828
  830MPD2    C412206   1.349   1.867  15.479 -0.0689  0.3915  0.0111
  830MPD2    C512207   1.281   1.782  15.559  0.3096 -0.0181  0.3308
  830MPD2     H12208   1.199   2.146  15.590  2.3253  0.9158 -0.6003
  830MPD2    H112209   1.420   1.824  15.410 -1.8371 -0.0652 -1.5255
  830MPD2    H212210   1.151   1.747  15.725 -1.6687 -1.3940 -1.7095
  830MPD2    H312211   1.313   1.679  15.549  0.4475 -0.0921  1.5195
  830MPD2     N12212   1.378   2.104  15.421  0.4126 -0.3727  0.1855
  830MPD2    H512213   1.340   2.197  15.437 -0.2360 -0.4946 -0.6312
  830MPD2    N112214   1.077   1.995  15.784 -0.3427  0.9404 -0.0656
  830MPD2    H712215   1.045   1.926  15.851  1.4611 -1.5283 -1.7969
  831MPD2     C12216   1.088   3.968  16.450 -0.3474  0.1979 -0.4951
  831MPD2    C112217   1.107   3.873  16.349  0.3910  0.6929  0.8003
  831MPD2    C212218   1.035   3.752  16.350 -0.3093 -0.3226 -0.0824
  831MPD2    C312219   0.942   3.723  16.447  0.6733 -0.0268  0.0409
  831MPD2    C412220   0.934   3.803  16.558 -0.5038 -0.3994 -0.1568
  831MPD2    C512221   1.011   3.922  16.558  0.1769  0.6383 -0.0671
  831MPD2     H12222   1.049   3.678  16.272  0.7658  1.8535 -1.9441
  831MPD2    H112223   0.870   3.781  16.642  0.3755 -3.3519 -0.2652
  831MPD2    H212224   1.121   4.071  16.443 -0.7764  0.3297 -0.5986
  831MPD2    H312225   0.996   3.994  16.638  0.4428 -1.2689  1.6792
  831MPD2     N12226   0.846   3.616  16.433  0.4593 -0.2444  0.7458
  831MPD2    H512227   0.775   3.605  16.504  0.2666  1.6058  0.8377
  831MPD2    N112228   1.201   3.897  16.243 -0.7991 -0.6582 -0.7197
  831MPD2    H712229   1.239   3.991  16.239 -3.4782  0.5106  1.1269
  832MPD2     C12230   4.399   0.789  17.561 -0.8096 -0.1132  0.0101
  832MPD2    C112231   4.362   0.916  17.531  0.2743  1.0214 -0.3545
  832MPD2    C212232   4.305   0.943  17.407  0.1629  0.6474 -0.2377
  832MPD2    C312233   4.276   0.838  17.321 -0.2241 -0.1189  0.1099
  832MPD2    C412234   4.304   0.706  17.360 -0.2577 -1.3258  0.6391
  832MPD2    C512235   4.372   0.687  17.478  0.0526 -0.6933 -0.2207
  832MPD2     H12236   4.285   1.045  17.376 -0.2867  0.3911 -0.8095
  832MPD2    H112237   4.275   0.624  17.295 -1.0352 -1.7104  1.4676
  832MPD2    H212238   4.448   0.773  17.657 -2.6363 -2.4055  0.5759
  832MPD2    H312239   4.408   0.590  17.508  1.2136  0.2989  1.5665
  832MPD2     N12240   4.201   0.844  17.200 -0.4690 -0.1579 -0.2624
  832MPD2    H512241   4.179   0.752  17.161 -0.4399 -0.5065  0.5481
  832MPD2    N112242   4.398   1.019  17.620  0.0747 -0.3406 -0.0017
  832MPD2    H712243   4.434   1.006   0.011  1.8542 -0.0324 -0.6330
  833MPD2     C12244   1.504   1.266  12.683 -0.6461  0.3731 -0.0471
  833MPD2    C112245   1.571   1.364  12.614 -0.3111 -0.6447 -0.5355
  833MPD2    C212246   1.666   1.329  12.522 -0.6393 -0.1856 -0.2355
  833MPD2    C312247   1.690   1.197  12.497 -0.3232  0.6395  0.5217
  833MPD2    C412248   1.632   1.101  12.579 -0.1901 -0.3847 -0.1879
  833MPD2    C512249   1.544   1.135  12.673 -0.0430  0.8183  0.1053
  833MPD2     H12250   1.723   1.400  12.462 -1.9592 -0.1084 -1.3934
  833MPD2    H112251   1.634   0.994  12.567  0.2556 -0.3472 -0.4560
  833MPD2    H212252   1.428   1.286  12.757  0.9516 -1.6734  2.1523
  833MPD2    H312253   1.488   1.064  12.732 -0.3710  0.1901 -0.9593
  833MPD2     N12254   1.776   1.172  12.385 -0.6548  0.1888 -0.5978
  833MPD2    H512255   1.821   1.256  12.348  0.8037 -0.9277 -1.3736
  833MPD2    N112256   1.539   1.501  12.633  0.1139 -0.3860  0.3281
  833MPD2    H712257   1.468   1.514  12.704  0.3072  0.3847  0.3809
  834MPD2     C12258   1.929   0.911  11.373  0.0033 -0.5269  0.3908
  834MPD2    C112259   1.865   1.031  11.392  0.2789  0.2433  0.1255
  834MPD2    C212260   1.847   1.077  11.521 -0.3742  0.0017 -0.0186
  834MPD2    C312261   1.886   1.007  11.631  0.1009 -0.0402 -0.2845
  834MPD2    C412262   1.945   0.884  11.610 -0.2598  0.5154  0.4418
  834MPD2    C512263   1.975   0.840  11.481  0.4285  0.4542  0.0109
  834MPD2     H12264   1.805   1.175  11.541  0.9468  0.3600  1.0367
  834MPD2    H112265   1.984   0.818  11.686 -0.4622 -0.8265 -0.6256
  834MPD2    H212266   1.948   0.865  11.277  0.2939 -1.5067  0.9201
  834MPD2    H312267   2.028   0.746  11.473  2.3165  1.7265 -2.3773
  834MPD2     N12268   1.879   1.067  11.758 -0.1615  0.2901  1.3245
  834MPD2    H512269   1.851   1.165  11.759  1.7098  0.9019 -3.6007
  834MPD2    N112270   1.827   1.104  11.276 -0.5816  0.0458 -0.3032
  834MPD2    H712271   1.858   1.070  11.185  1.4878 -0.9977  0.8038
  835MPD2     C12272   2.369   4.108  10.782  0.0681 -0.1690  0.0178
  835MPD2    C112273   2.252   4.052  10.822 -0.4456  0.2218  0.0856
  835MPD2    C212274   2.231   4.044  10.957  0.0809  0.2202 -0.1330
  835MPD2    C312275   2.316   4.083  11.052  0.0026  0.7159  0.1254
  835MPD2    C412276   2.436   4.138  11.009  0.8098  0.2699 -0.4443
  835MPD2    C512277   2.460   4.158  10.873 -0.2740  0.9701 -0.1188
  835MPD2     H12278   2.135   4.008  10.993 -0.5383  2.0044 -0.0018
  835MPD2    H112279   2.518   4.155  11.077  0.0512 -0.8913  0.7735
  835MPD2    H212280   2.398   4.114  10.678 -1.1301  0.0426 -0.3076
  835MPD2    H312281   2.553   4.198  10.833 -0.4548 -0.6672 -2.1779
  835MPD2     N12282   2.284   4.085  11.190  0.0614  1.0790 -0.8383
  835MPD2    H512283   2.353   4.120  11.256 -1.4058  1.2185  0.6109
  835MPD2    N112284   2.146   4.003  10.738  0.4295  0.3217  0.4808
  835MPD2    H712285   2.059   3.963  10.771  0.6546  0.5858  1.4036
  836MPD2     C12286   1.728   4.493  11.464 -1.1254  0.5407  0.2364
  836MPD2    C112287   1.743   4.390  11.544 -0.5076  0.4343 -0.1028
  836MPD2    C212288   1.642   4.364  11.637 -0.2903  0.0830  0.9845
  836MPD2    C312289   1.532   4.438  11.643  0.0736  0.6491 -0.2547
  836MPD2    C412290   1.527   4.551  11.563  0.0269 -0.1210  0.4501
  836MPD2    C512291   1.618   4.569  11.463 -0.3686  0.1423 -0.4171
  836MPD2     H12292   1.646   4.277  11.701  2.0189 -0.7094 -0.2515
  836MPD2    H112293   1.442   4.618  11.561 -1.1201 -1.5738  0.3410
  836MPD2    H212294   1.807   4.512  11.393  1.1307  2.0084  3.1242
  836MPD2    H312295   1.617   4.656  11.398  1.7846 -1.3776 -2.4539
  836MPD2     N12296   1.422   4.420  11.728  0.4680  0.2014  0.5606
  836MPD2    H512297   1.349   4.490  11.719  0.0159 -0.4026 -0.3496
  836MPD2    N112298   1.857   4.312  11.530 -0.5079  0.3501 -0.2735
  836MPD2    H712299   1.922   4.319  11.452  1.8101  2.7092  1.8600
  837MPD2     C12300   4.486   3.832  10.246 -0.2908  0.5629 -0.4625
  837MPD2    C112301   4.407   3.844  10.133 -0.7061 -0.0901 -0.0488
  837MPD2    C212302   4.347   3.974  10.110 -1.1181  0.0964  0.9392
  837MPD2    C312303   4.361   4.070  10.207 -1.0986 -0.1881 -0.2129
  837MPD2    C412304   4.426   4.048  10.324  0.1585 -0.1189  0.5716
  837MPD2    C512305   4.490   3.933  10.330 -0.6289  0.6125  0.1891
  837MPD2     H12306   4.276   3.982  10.028  0.0507 -1.1424 -0.2032
  837MPD2    H112307   4.450   4.125  10.397  1.6771 -0.5582  0.5402
  837MPD2    H212308   4.530   3.737  10.275  0.2750  0.8909 -0.2599
  837MPD2    H312309   4.542   3.907  10.421  1.1040 -0.1281 -1.0128
  837MPD2     N12310   4.294   4.193  10.164  0.0194 -0.0762  0.5080
  837MPD2    H512311   4.247   4.190  10.074 -0.2068  0.2848  0.6159
  837MPD2    N112312   4.379   3.743  10.040 -0.0876  0.2067 -0.2711
  837MPD2    H712313   4.314   3.773   9.968 -0.2583 -0.6324 -0.4682
  838MPD2     C12314   2.766   1.769  10.930  0.7571  0.5066  0.2741
  838MPD2    C112315   2.788   1.865  11.026 -0.5167  0.8093 -0.6388
  838MPD2    C212316   2.718   1.865  11.145  0.3341 -0.1521  1.2848
  838MPD2    C312317   2.630   1.768  11.173 -0.1838  0.6531  0.0833
  838MPD2    C412318   2.610   1.669  11.079  0.2041 -0.4177  0.3500
  838MPD2    C512319   2.681   1.664  10.961 -1.1142  1.0726 -0.3475
  838MPD2     H12320   2.741   1.947  11.212  1.6198 -0.6138  1.4189
  838MPD2    H112321   2.534   1.595  11.100 -1.2173  0.7819 -0.5631
  838MPD2    H212322   2.814   1.764  10.833 -0.2842 -0.4325 -0.1871
  838MPD2    H312323   2.658   1.586  10.889 -2.2451 -1.4744  2.7605
  838MPD2     N12324   2.570   1.777  11.303 -0.0494 -0.0914  0.0835
  838MPD2    H512325   2.605   1.852  11.362  1.8900 -1.6711  0.9221
  838MPD2    N112326   2.891   1.962  11.018 -0.0632  0.5816 -0.1159
  838MPD2    H712327   2.884   2.042  11.081  0.4286  0.1611  0.4657
  839MPD2     C12328   2.881   1.727  11.619 -0.5739 -0.2343 -0.6185
  839MPD2    C112329   2.882   1.664  11.496 -0.2645 -0.3758 -0.2750
  839MPD2    C212330   2.948   1.729  11.393  0.1908  0.5277  0.7919
  839MPD2    C312331   3.036   1.834  11.415 -0.1993 -0.0169  0.0792
  839MPD2    C412332   3.049   1.879  11.543 -0.5205 -0.0812 -0.3385
  839MPD2    C512333   2.968   1.831  11.642  0.3765  0.7531  0.1338
  839MPD2     H12334   2.920   1.687  11.297  0.1319  1.2519  0.4860
  839MPD2    H112335   3.128   1.951  11.563  0.2383 -1.0721  0.2524
  839MPD2    H212336   2.825   1.691  11.704 -1.7965  1.7329 -0.5914
  839MPD2    H312337   2.961   1.863  11.745 -1.7276  0.2903  0.1351
  839MPD2     N12338   3.113   1.889  11.304  0.0977  0.0141  0.4487
  839MPD2    H512339   3.098   1.844  11.214 -0.2634 -1.4702  1.2521
  839MPD2    N112340   2.797   1.560  11.467 -0.9664 -0.2722 -0.1473
  839MPD2    H712341   2.798   1.531  11.370 -0.2979  1.2270 -0.5973
  840MPD2     C12342   3.507   4.368  10.259  0.0644 -0.1812  0.0606
  840MPD2    C112343   3.486   4.318  10.387 -0.1413  0.5906  0.4844
  840MPD2    C212344   3.532   4.389  10.499 -0.0556 -0.6190 -0.1507
  840MPD2    C312345   3.601   4.508  10.478  0.2655  0.9258  0.4295
  840MPD2    C412346   3.612   4.567  10.350  0.2332  0.0302  0.3367
  840MPD2    C512347   3.562   4.491  10.246 -1.0354  0.0645 -0.4626
  840MPD2     H12348   3.521   4.363  10.603 -2.0795  1.3641  0.1305
  840MPD2    H112349   3.668   4.658  10.331 -2.1272  1.7042  1.3154
  840MPD2    H212350   3.480   4.317  10.168 -1.3416  1.0218 -0.1948
  840MPD2    H312351   3.580   4.512  10.141  1.0184 -0.8470 -0.3019
  840MPD2     N12352   3.654   4.593  10.579 -0.0506  0.4405  0.1256
  840MPD2    H512353   3.697   4.679  10.545 -2.1039  0.8203 -1.5854
  840MPD2    N112354   3.414   4.196  10.397 -0.0699  0.5135 -0.1487
  840MPD2    H712355   3.403   4.149  10.308 -0.0631  2.8654 -1.3953
  841MPD2     C12356   2.870   4.666  14.137  0.2904 -0.5397  0.4142
  841MPD2    C112357   2.995   4.606  14.114 -0.0090  0.0161 -0.7396
  841MPD2    C212358   3.092   4.617  14.213 -0.4955  0.5057 -0.4269
  841MPD2    C312359   3.076   4.689  14.333 -0.2012  0.1624  0.3754
  841MPD2    C412360   2.952   0.012  14.355  0.1992 -0.5250  0.2156
  841MPD2    C512361   2.851   0.006  14.257  0.0466  0.5067  0.6458
  841MPD2     H12362   3.182   4.565  14.182 -0.1559  1.4600 -1.0426
  841MPD2    H112363   2.936   0.075  14.442  3.6536  0.5820  0.0563
  841MPD2    H212364   2.786   4.664  14.069 -0.4380 -0.9762  1.3250
  841MPD2    H312365   2.759   0.054  14.288 -1.1003 -1.8373  0.7929
  841MPD2     N12366   3.188   4.696  14.424 -0.3786 -0.5275  0.5389
  841MPD2    H512367   3.279   4.659  14.398  0.0387 -1.7999  3.7868
  841MPD2    N112368   3.044   4.543  14.000  0.1265  0.0843  0.0176
  841MPD2    H712369   3.139   4.506  13.997 -0.1047 -0.4367 -0.7820
  842MPD2     C12370   3.577   0.984  16.604  0.1766  0.0211  0.3132
  842MPD2    C112371   3.492   0.926  16.512 -0.4825 -0.1246  0.4542
  842MPD2    C212372   3.434   0.810  16.550  0.0569  0.7976  0.0279
  842MPD2    C312373   3.445   0.762  16.678 -0.2684  0.7822  0.7408
  842MPD2    C412374   3.510   0.837  16.776 -0.3213 -0.3474  0.3047
  842MPD2    C512375   3.583   0.943  16.735 -0.4301 -0.1479  0.1715
  842MPD2     H12376   3.348   0.778  16.492 -1.3053 -0.4795  2.7530
  842MPD2    H112377   3.521   0.802  16.878 -1.0838  1.2512  0.9314
  842MPD2    H212378   3.631   1.074  16.574  0.0287 -0.2552 -0.8041
  842MPD2    H312379   3.639   0.998  16.810  2.4905 -3.5440  0.4295
  842MPD2     N12380   3.377   0.646  16.713 -0.1484  0.5624 -0.3504
  842MPD2    H512381   3.381   0.615  16.809  0.0109  1.0225 -0.2131
  842MPD2    N112382   3.467   0.985  16.388  0.1191  0.0988 -0.4759
  842MPD2    H712383   3.503   1.079  16.378 -1.2863  0.4928 -1.7516
  843MPD2     C12384   0.350   1.305   0.239 -0.0818  0.2914  0.4481
  843MPD2    C112385   0.477   1.243   0.259  0.1937 -0.6066  0.1126
  843MPD2    C212386   0.585   1.332   0.268  0.0447  0.3048 -0.1212
  843MPD2    C312387   0.567   1.464   0.245 -0.2326  0.1653  0.3366
  843MPD2    C412388   0.443   1.518   0.210 -0.2292  0.0557  0.1335
  843MPD2    C512389   0.338   1.433   0.212 -0.5639  0.3636 -0.7285
  843MPD2     H12390   0.689   1.301   0.271  0.8189  3.1037  1.7583
  843MPD2    H112391   0.421   1.621   0.188  1.0361  0.4616  0.7437
  843MPD2    H212392   0.264   1.239   0.238  0.8898 -0.9692  0.8502
  843MPD2    H312393   0.244   1.471   0.173 -1.0178 -0.3094 -0.3044
  843MPD2     N12394   0.678   1.561   0.245  0.3806 -0.0888 -0.2502
  843MPD2    H512395   0.649   1.657   0.229  0.9793  0.4777  2.0549
  843MPD2    N112396   0.486   1.105   0.270  0.2447 -0.2929  1.1330
  843MPD2    H712397   0.403   1.050   0.247  0.1418  0.2142  0.2963
  844MPD2     C12398   4.384   0.894  16.648  0.3636 -0.0396  0.9232
  844MPD2    C112399   4.368   0.788  16.731  0.6160  0.0860 -0.2047
  844MPD2    C212400   4.415   0.796  16.862 -0.3633  0.6451  0.2265
  844MPD2    C312401   4.462   0.914  16.913 -0.6787 -0.0379 -0.0387
  844MPD2    C412402   4.485   1.016  16.821  0.6251 -1.2124  0.7550
  844MPD2    C512403   4.443   1.006  16.690 -0.0973  1.0189  0.6902
  844MPD2     H12404   4.420   0.715  16.934 -0.9381  2.1078  1.9081
  844MPD2    H112405   4.525   1.109  16.861 -0.8914 -0.1281 -0.2397
  844MPD2    H212406   4.368   0.890  16.541  1.6824  1.9765  0.6474
  844MPD2    H312407   4.464   1.078  16.612 -1.1067 -0.5348 -1.0131
  844MPD2     N12408   4.498   0.911  17.052  0.4657  0.0336  0.7519
  844MPD2    H512409   4.492   0.822  17.101  1.3318 -0.2278  0.3751
  844MPD2    N112410   4.292   0.676  16.682 -0.3395 -0.1875 -0.0769
  844MPD2    H712411   4.267   0.680  16.583 -1.7336  0.3526  0.3019
  845MPD2     C12412   4.635   1.600   0.055  0.0215  0.0667  1.0032
  845MPD2    C112413   4.583   1.598  17.635 -0.9423  0.5273 -0.4234
  845MPD2    C212414   4.608   1.495  17.551  0.6244  0.1640 -0.4814
  845MPD2    C312415   4.666   1.375  17.601 -1.2335 -0.9874 -0.4704
  845MPD2    C412416   4.708   1.373   0.032  0.6527 -0.0128 -0.1977
  845MPD2    C512417   4.704   1.495   0.107  0.0207  0.1300  0.0393
  845MPD2     H12418   4.568   1.500  17.450  1.7541  0.2812 -0.9230
  845MPD2    H112419   0.034   1.290   0.078  1.8293  2.6281  3.3037
  845MPD2    H212420   4.622   1.690   0.115  2.0602  0.6500  0.5807
  845MPD2    H312421   0.018   1.483   0.207  3.2834 -0.3190 -1.3009
  845MPD2     N12422   4.676   1.267  17.514 -0.2317  0.2792  0.4880
  845MPD2    H512423   4.639   1.296  17.424  0.8486  2.1758  0.6497
  845MPD2    N112424   4.502   1.709  17.607 -0.0022 -0.1150 -1.0784
  845MPD2    H712425   4.483   1.761  17.692  1.1572 -0.8778 -0.3643
  846MPD2     C12426   1.103   1.007  13.983 -0.0180 -0.8527 -0.0204
  846MPD2    C112427   1.002   1.097  13.967 -0.8156 -0.3618 -0.2694
  846MPD2    C212428   0.943   1.159  14.080  0.2582  0.3842  0.1022
  846MPD2    C312429   0.996   1.132  14.210 -0.6336 -0.4410 -0.8163
  846MPD2    C412430   1.111   1.053  14.222  0.1603 -0.5485 -0.7257
  846MPD2    C512431   1.160   0.990  14.108 -0.3370 -0.6912  0.1512
  846MPD2     H12432   0.861   1.229  14.068 -0.3421 -0.2273  0.6499
  846MPD2    H112433   1.157   1.026  14.317  0.9927  1.0925 -0.6562
  846MPD2    H212434   1.144   0.949  13.901 -0.2607 -0.9002 -0.1088
  846MPD2    H312435   1.241   0.917  14.113  0.6244  0.4927  1.6086
  846MPD2     N12436   0.957   1.193  14.329  0.8756  0.2773  0.1261
  846MPD2    H512437   1.013   1.162  14.407 -1.2780 -0.0830  1.5267
  846MPD2    N112438   0.950   1.132  13.841  0.7517  0.5718 -0.5658
  846MPD2    H712439   0.895   1.217  13.833 -0.4339 -0.0086  1.5169
  847MPD2     C12440   1.215   2.265  14.063 -0.5707 -0.1380  0.1741
  847MPD2    C112441   1.329   2.319  14.123 -0.9973 -0.1370 -0.6058
  847MPD2    C212442   1.408   2.225  14.193  0.1230  0.9107 -0.0497
  847MPD2    C312443   1.380   2.093  14.206  0.1846  0.2004  0.4996
  847MPD2    C412444   1.281   2.040  14.128  0.1499  0.4485  0.2306
  847MPD2    C512445   1.195   2.127  14.065 -0.4078  0.4959 -0.5088
  847MPD2     H12446   1.493   2.259  14.251 -0.8054  0.6356  1.4726
  847MPD2    H112447   1.256   1.935  14.123 -2.5031  1.0658  0.5961
  847MPD2    H212448   1.136   2.322  14.015  0.1417  0.2067 -0.5947
  847MPD2    H312449   1.105   2.094  14.016  0.9771 -1.6857 -1.5529
  847MPD2     N12450   1.464   2.020  14.290  0.1079 -0.7164 -0.3475
  847MPD2    H512451   1.540   2.073  14.330  0.0242  0.1053 -1.2716
  847MPD2    N112452   1.344   2.457  14.157  0.5272 -0.0054  0.1965
  847MPD2    H712453   1.435   2.488  14.191  0.4776  1.2671 -0.8602
  848MPD2     C12454   4.243   1.226  16.484  0.1362  0.1756 -0.0449
  848MPD2    C112455   4.152   1.275  16.576 -0.4422 -0.2279  0.5072
  848MPD2    C212456   4.119   1.412  16.563 -0.7636 -0.6785 -0.3154
  848MPD2    C312457   4.168   1.490  16.470 -0.4453 -0.3060  0.1284
  848MPD2    C412458   4.259   1.442  16.381 -0.4105 -0.2857  0.5189
  848MPD2    C512459   4.287   1.309  16.381 -0.1311  0.0614  0.0121
  848MPD2     H12460   4.051   1.449  16.638 -0.9124 -0.1487 -0.7093
  848MPD2    H112461   4.305   1.503  16.305 -0.4438 -0.2609  0.5185
  848MPD2    H212462   4.257   1.121  16.465  0.0277 -0.2619  2.3324
  848MPD2    H312463   4.345   1.265  16.301 -1.5062 -0.2261 -0.8258
  848MPD2     N12464   4.135   1.624  16.459 -0.1828  0.2450  0.6871
  848MPD2    H512465   4.157   1.663  16.368 -0.5515 -1.4875 -0.1408
  848MPD2    N112466   4.095   1.198  16.680 -0.4753 -0.2912  0.3002
  848MPD2    H712467   4.051   1.249  16.757 -0.6205 -1.1538  0.7914
  849MPD2     C12468   3.274   0.323  14.374 -0.4118  0.5599  1.1667
  849MPD2    C112469   3.322   0.287  14.250 -0.5515 -0.6723 -0.3082
  849MPD2    C212470   3.455   0.292  14.226  0.2768  0.2520 -0.0299
  849MPD2    C312471   3.532   0.351  14.323 -0.0045 -0.2334 -0.3987
  849MPD2    C412472   3.482   0.388  14.446  0.4835 -0.1213  0.2867
  849MPD2    C512473   3.350   0.377  14.468  0.3488 -0.2058 -0.3019
  849MPD2     H12474   3.506   0.262  14.135  0.1236  0.4920 -0.1924
  849MPD2    H112475   3.533   0.445  14.523  0.3817 -2.1309  1.8198
  849MPD2    H212476   3.167   0.310  14.391 -0.2504  1.8364  3.2061
  849MPD2    H312477   3.311   0.416  14.561  2.1359 -1.2220  0.8665
  849MPD2     N12478   3.663   0.381  14.288 -0.8024  0.6003  0.0411
  849MPD2    H512479   3.689   0.350  14.195 -0.9882 -0.2114  0.2557
  849MPD2    N112480   3.234   0.251  14.144  0.3447  0.4058 -0.0528
  849MPD2    H712481   3.283   0.234  14.056 -1.3382 -0.1556 -0.8804
  850MPD2     C12482   0.847   2.578  15.073 -0.8761 -0.1000 -0.1855
  850MPD2    C112483   0.818   2.703  15.124 -0.5787 -0.5017 -0.5422
  850MPD2    C212484   0.909   2.799  15.126 -0.6894 -0.8524  0.3635
  850MPD2    C312485   1.042   2.758  15.095  1.1425  0.2893  0.2280
  850MPD2    C412486   1.068   2.631  15.061 -0.0309  0.7949  0.2671
  850MPD2    C512487   0.970   2.541  15.044  0.3660  0.1204  0.1920
  850MPD2     H12488   0.889   2.897  15.166 -1.4654 -0.0156 -2.1189
  850MPD2    H112489   1.169   2.596  15.044  0.0701  0.9605  0.5315
  850MPD2    H212490   0.770   2.503  15.055 -1.9804  1.4013 -1.7434
  850MPD2    H312491   0.996   2.440  15.015  1.9602  0.4696  0.4015
  850MPD2     N12492   1.155   2.843  15.094  0.2491  0.6697  0.1183
  850MPD2    H512493   1.242   2.801  15.062  0.5515  1.4199 -0.0399
  850MPD2    N112494   0.686   2.720  15.160 -0.1339  0.1774  0.1831
  850MPD2    H712495   0.610   2.673  15.112 -0.4694 -0.1111  0.9919
  851MPD2     C12496   1.338   2.925  15.598  0.3980  0.7825  0.4091
  851MPD2    C112497   1.249   2.838  15.534  0.0074  0.0717 -0.5699
  851MPD2    C212498   1.299   2.713  15.486 -0.2334  0.6948  0.1863
  851MPD2    C312499   1.436   2.694  15.467  0.4219 -0.2365  0.1908
  851MPD2    C412500   1.524   2.796  15.502 -0.5512  0.0501  0.0530
  851MPD2    C512501   1.477   2.906  15.579 -0.3194 -0.0616  0.1576
  851MPD2     H12502   1.228   2.635  15.458 -1.2626  1.4628  0.6450
  851MPD2    H112503   1.632   2.791  15.487 -0.2590 -0.4865  2.3663
  851MPD2    H212504   1.301   3.019  15.635  0.3372 -0.5682  3.7514
  851MPD2    H312505   1.539   2.977  15.632  0.8463  0.6647 -2.1998
  851MPD2     N12506   1.479   2.571  15.409  0.3394  0.0228 -0.4777
  851MPD2    H512507   1.404   2.503  15.400 -1.8404  2.3861 -0.1633
  851MPD2    N112508   1.114   2.873  15.538  0.7690  0.4210  0.1344
  851MPD2    H712509   1.105   2.972  15.558 -1.1559  0.3139 -0.2327
  852MPD2     C12510   0.370   0.636  10.016 -0.7303 -0.5891 -0.1807
  852MPD2    C112511   0.503   0.632  10.048 -0.0429  0.7545  0.6267
  852MPD2    C212512   0.596   0.725   9.996  0.8181 -0.5323  0.4932
  852MPD2    C312513   0.552   0.821   9.917  0.3975 -0.1684 -0.2558
  852MPD2    C412514   0.422   0.810   9.871  0.2408  0.0342  0.0202
  852MPD2    C512515   0.334   0.723   9.917 -0.1106 -0.0168 -0.2323
  852MPD2     H12516   0.694   0.732  10.042  1.8288  2.2816 -2.1064
  852MPD2    H112517   0.388   0.880   9.795  0.6494  1.5462  1.2337
  852MPD2    H212518   0.289   0.590  10.072 -0.6162 -0.8356 -0.2202
  852MPD2    H312519   0.229   0.731   9.892  0.3793 -0.4752 -2.5195
  852MPD2     N12520   0.640   0.922   9.880  0.1933 -0.3026  0.3219
  852MPD2    H512521   0.728   0.929   9.931 -0.3524  0.3630  1.1767
  852MPD2    N112522   0.538   0.552  10.157 -0.2110 -0.5938 -0.7893
  852MPD2    H712523   0.460   0.536  10.220  0.6455 -1.9452 -0.0772
  853MPD2     C12524   2.599   0.618  12.166  0.4779 -0.3118 -1.2180
  853MPD2    C112525   2.459   0.622  12.126  0.2779  0.3627  0.0974
  853MPD2    C212526   2.433   0.644  11.988  0.7762  0.5594 -0.1768
  853MPD2    C312527   2.540   0.650  11.898  0.1027  0.3617 -0.4650
  853MPD2    C412528   2.671   0.636  11.943 -0.1346  0.0573  0.2997
  853MPD2    C512529   2.700   0.629  12.075 -0.5611 -0.3111  0.4856
  853MPD2     H12530   2.335   0.665  11.946  1.0109  1.4332 -0.2883
  853MPD2    H112531   2.753   0.639  11.873  0.2227  2.4938  0.8280
  853MPD2    H212532   2.621   0.591  12.269 -0.0374 -1.0352 -1.2969
  853MPD2    H312533   2.803   0.625  12.110 -0.7938 -1.0195  1.0679
  853MPD2     N12534   2.525   0.660  11.758  1.3035 -0.2715 -0.3021
  853MPD2    H512535   2.610   0.659  11.703  0.2741  1.5444 -1.9261
  853MPD2    N112536   2.353   0.601  12.220  0.1626 -0.0397 -0.5263
  853MPD2    H712537   2.393   0.575  12.310 -0.9280 -0.3791 -0.1500
  854MPD2     C12538   4.013   0.870  13.008  0.6883 -0.2092  0.5330
  854MPD2    C112539   4.119   0.914  12.940  0.8500  0.5433 -0.4725
  854MPD2    C212540   4.238   0.857  12.966 -0.0553  0.4421 -0.4837
  854MPD2    C312541   4.251   0.768  13.069 -0.1766  0.1178 -0.0117
  854MPD2    C412542   4.148   0.736  13.148 -0.3934 -0.2528  0.1566
  854MPD2    C512543   4.023   0.784  13.107  0.2929  0.6303 -0.3691
  854MPD2     H12544   4.322   0.885  12.904 -0.6999  0.5504 -1.3130
  854MPD2    H112545   4.154   0.660  13.224  1.6059  0.3682  0.6117
  854MPD2    H212546   3.914   0.903  12.976  0.1602 -1.8463  0.4852
  854MPD2    H312547   3.936   0.748  13.161 -0.7556  0.5243 -2.1604
  854MPD2     N12548   4.375   0.710  13.108 -0.6657  0.5265  0.0744
  854MPD2    H512549   4.379   0.644  13.185 -0.5461 -0.2030 -0.5553
  854MPD2    N112550   4.100   1.012  12.836  0.4616  0.0682 -0.4870
  854MPD2    H712551   4.001   1.025  12.820  0.5537 -2.0811 -2.6599
  855MPD2     C12552   0.182   0.702  13.884  0.6061  0.6922  0.7739
  855MPD2    C112553   0.126   0.583  13.838 -0.4343 -0.1953 -0.4223
  855MPD2    C212554   0.054   0.578  13.720  0.1440 -0.7333 -1.1730
  855MPD2    C312555   0.065   0.677  13.625 -0.4655  0.2871  0.2661
  855MPD2    C412556   0.144   0.785  13.660  0.2228  0.1655  0.2907
  855MPD2    C512557   0.188   0.799  13.791 -0.3875 -0.8240 -0.6693
  855MPD2     H12558   0.004   0.484  13.702 -2.5100  0.6452 -0.9692
  855MPD2    H112559   0.170   0.870  13.599 -1.2115 -1.2643 -2.3415
  855MPD2    H212560   0.227   0.720  13.980  0.8246  3.2543  0.1945
  855MPD2    H312561   0.221   0.898  13.820 -0.7085 -0.6290 -0.9703
  855MPD2     N12562   0.019   0.656  13.489  0.1340 -0.6399 -0.0552
  855MPD2    H512563   0.031   0.731  13.420 -3.3828  0.1123  0.1679
  855MPD2    N112564   0.108   0.465  13.913  0.0970 -0.1857  0.9433
  855MPD2    H712565   0.068   0.386  13.863  0.5400  0.4254 -0.3766
  856MPD2     C12566   2.218   0.879  13.263  0.5317  0.4488  0.5243
  856MPD2    C112567   2.243   0.947  13.383 -0.3753  0.3458  0.6950
  856MPD2    C212568   2.193   1.078  13.398  0.8844  0.5895  0.0839
  856MPD2    C312569   2.146   1.147  13.284 -0.3679 -0.3816 -0.1469
  856MPD2    C412570   2.143   1.083  13.162 -0.0645 -0.6358  0.3084
  856MPD2    C512571   2.186   0.955  13.153 -0.5811  0.1550  0.1410
  856MPD2     H12572   2.203   1.124  13.496  2.7562  2.2703 -0.8696
  856MPD2    H112573   2.112   1.137  13.073  0.9172 -1.7192 -0.6957
  856MPD2    H212574   2.239   0.773  13.253  0.8452  0.5515  0.1197
  856MPD2    H312575   2.177   0.908  13.056  1.7880 -0.8070  0.3739
  856MPD2     N12576   2.077   1.275  13.291  0.6310 -0.0425 -0.1387
  856MPD2    H512577   2.040   1.318  13.207 -0.8600  0.5880  0.8381
  856MPD2    N112578   2.306   0.885  13.495 -0.9044 -0.9906  0.7931
  856MPD2    H712579   2.342   0.945  13.569  4.3757 -1.1056 -1.6977
  857MPD2     C12580   3.465   3.374  12.688  0.3367 -0.1004  0.5549
  857MPD2    C112581   3.590   3.395  12.747  0.6186  0.3793 -0.0471
  857MPD2    C212582   3.646   3.524  12.764 -0.3641 -0.0500 -0.0180
  857MPD2    C312583   3.572   3.632  12.715  0.2163 -0.6095  0.2783
  857MPD2    C412584   3.442   3.622  12.668  0.4310 -0.3365 -0.1064
  857MPD2    C512585   3.395   3.487  12.661  0.4130  0.3134 -0.3191
  857MPD2     H12586   3.739   3.546  12.815 -1.7208 -1.2956  2.9959
  857MPD2    H112587   3.373   3.693  12.625  2.3431  0.2150 -2.2405
  857MPD2    H212588   3.427   3.273  12.677  1.0827 -0.0878 -2.2505
  857MPD2    H312589   3.297   3.462  12.624 -0.3645  1.0633  1.2435
  857MPD2     N12590   3.633   3.763  12.727  0.1293 -0.0147  0.5625
  857MPD2    H512591   3.717   3.762  12.783  0.9243 -2.5121 -0.6534
  857MPD2    N112592   3.660   3.274  12.775  0.4722 -0.3041  0.0661
  857MPD2    H712593   3.616   3.190  12.741  0.1294  0.0821 -0.4400
  858MPD2     C12594   4.160   2.961  16.701 -0.1143 -0.4608  0.5924
  858MPD2    C112595   4.282   2.915  16.739 -0.5175  0.4562  1.0439
  858MPD2    C212596   4.355   2.985  16.824  0.1367 -0.1008 -0.1440
  858MPD2    C312597   4.308   3.107  16.881 -0.9577  0.1292  0.7370
  858MPD2    C412598   4.188   3.154  16.832 -0.5743  0.7417  0.4590
  858MPD2    C512599   4.109   3.081  16.749  0.0077  0.0989  0.0267
  858MPD2     H12600   4.450   2.950  16.864 -0.2055 -2.2350 -1.1505
  858MPD2    H112601   4.151   3.247  16.874  1.0793  1.3459  0.6086
  858MPD2    H212602   4.112   2.922  16.612 -0.9428 -1.8288  1.6422
  858MPD2    H312603   4.012   3.122  16.721 -0.5288 -1.1907 -0.0059
  858MPD2     N12604   4.364   3.181  16.990  0.3697 -0.4538  0.3255
  858MPD2    H512605   4.298   3.246  17.032 -0.2199 -1.3340  0.7715
  858MPD2    N112606   4.331   2.798  16.675  0.4415  0.4271 -0.2044
  858MPD2    H712607   4.272   2.751  16.608  2.4787 -2.8318  0.2752
  859MPD2     C12608   2.986   0.476  15.759 -0.0346  0.9588 -0.0474
  859MPD2    C112609   3.107   0.479  15.700 -0.3227  1.0792 -0.1596
  859MPD2    C212610   3.191   0.367  15.708 -0.5051  0.3000 -0.4070
  859MPD2    C312611   3.151   0.253  15.778 -0.2379  0.0387 -0.0140
  859MPD2    C412612   3.030   0.256  15.844  0.6245  0.3569  0.1732
  859MPD2    C512613   2.945   0.365  15.827 -0.3194  0.7131 -0.3102
  859MPD2     H12614   3.294   0.356  15.677 -0.6678 -0.6907 -0.6172
  859MPD2    H112615   2.986   0.166  15.884  1.0949 -0.5415 -1.3359
  859MPD2    H212616   2.905   0.546  15.742 -0.9345  0.0520  0.4664
  859MPD2    H312617   2.842   0.355  15.859 -0.2073 -0.4271 -0.2874
  859MPD2     N12618   3.232   0.137  15.799  0.3370 -0.5449  0.2464
  859MPD2    H512619   3.206   0.078  15.877  0.4567  0.5954  1.1370
  859MPD2    N112620   3.132   0.591  15.621  0.0014  0.4204 -0.3262
  859MPD2    H712621   3.082   0.679  15.637  0.6762  0.3719  2.0174
  860MPD2     C12622   0.561   0.489  11.508 -0.4536 -1.4123 -0.5829
  860MPD2    C112623   0.582   0.587  11.606 -0.0906 -0.1946 -0.0103
  860MPD2    C212624   0.515   0.581  11.722  0.4825  0.0679 -0.9785
  860MPD2    C312625   0.437   0.472  11.756 -0.4661 -0.6437  0.6296
  860MPD2    C412626   0.423   0.373  11.662  0.3706 -0.1240  0.9585
  860MPD2    C512627   0.491   0.379  11.539  0.3594  0.0385 -0.2130
  860MPD2     H12628   0.513   0.670  11.784 -0.3751 -2.2650  2.3308
  860MPD2    H112629   0.370   0.280  11.682  0.1735 -0.4626 -1.1037
  860MPD2    H212630   0.618   0.491  11.416 -0.2031  3.0613 -0.3156
  860MPD2    H312631   0.495   0.296  11.470 -0.0669 -1.8588  2.0672
  860MPD2     N12632   0.377   0.469  11.882 -0.8802 -0.0615 -1.0384
  860MPD2    H512633   0.380   0.554  11.938  0.1390 -1.2590  0.7257
  860MPD2    N112634   0.652   0.703  11.578  0.0957  0.3994 -0.0628
  860MPD2    H712635   0.666   0.768  11.655  0.8310 -1.0598  1.0194
  861MPD2     C12636   4.117   3.436  11.325  0.2419  0.5261 -0.2494
  861MPD2    C112637   4.144   3.571  11.330  0.3233  0.1998 -0.0004
  861MPD2    C212638   4.076   3.662  11.261  0.0916  0.4422 -0.2139
  861MPD2    C312639   3.970   3.621  11.182 -0.3397 -0.0625 -0.9496
  861MPD2    C412640   3.937   3.491  11.173 -0.1016  0.3628 -0.3154
  861MPD2    C512641   4.007   3.400  11.245  0.5289  0.5887 -0.1543
  861MPD2     H12642   4.124   3.759  11.255 -0.1723  0.5682 -0.2899
  861MPD2    H112643   3.850   3.464  11.114  0.2182  0.4857 -0.8420
  861MPD2    H212644   4.178   3.363  11.377 -2.2908 -1.3043  0.1925
  861MPD2    H312645   3.968   3.298  11.248  1.1691  0.3134 -0.9535
  861MPD2     N12646   3.902   3.716  11.094  0.1864  0.4773  0.2607
  861MPD2    H512647   3.828   3.686  11.032 -0.8472 -1.1642  2.2693
  861MPD2    N112648   4.238   3.616  11.419 -0.0787  0.1877  0.1903
  861MPD2    H712649   4.233   3.716  11.439  0.6006 -0.1024  1.8193
  862MPD2     C12650   3.631   3.896  10.438 -0.0186  0.2227  0.0073
  862MPD2    C112651   3.656   3.831  10.555  0.8967 -0.0589 -0.1605
  862MPD2    C212652   3.646   3.697  10.562 -0.2228  0.3681  0.7205
  862MPD2    C312653   3.609   3.626  10.451 -0.3977  0.8872  0.0104
  862MPD2    C412654   3.565   3.689  10.335  0.4827 -0.3864  0.4250
  862MPD2    C512655   3.573   3.827  10.335 -0.1599  0.1622  0.1571
  862MPD2     H12656   3.674   3.649  10.655  0.0962  0.6520  0.7714
  862MPD2    H112657   3.518   3.636  10.253 -0.1670  0.4815  0.2369
  862MPD2    H212658   3.643   4.002  10.422  0.6371  0.1345 -0.0997
  862MPD2    H312659   3.545   3.878  10.243 -0.5305 -0.7279 -0.2295
  862MPD2     N12660   3.632   3.486  10.444 -0.1720  0.6583 -0.3586
  862MPD2    H512661   3.609   3.436  10.359 -0.9251 -1.1212  0.9078
  862MPD2    N112662   3.689   3.892  10.674 -0.6894 -0.4717 -0.3235
  862MPD2    H712663   3.713   3.835  10.755 -3.5163  1.0566  1.6261
  863MPD2     C12664   2.665   2.493  16.738 -0.1794 -0.1479  0.0903
  863MPD2    C112665   2.603   2.412  16.828  0.3373 -0.2059  0.8664
  863MPD2    C212666   2.677   2.317  16.898  0.2266 -0.0045  0.3454
  863MPD2    C312667   2.817   2.311  16.888  0.0488  0.1129 -0.6602
  863MPD2    C412668   2.877   2.401  16.811 -0.5325 -0.3677 -0.7591
  863MPD2    C512669   2.801   2.491  16.736  0.0583 -0.1502  0.0473
  863MPD2     H12670   2.620   2.239  16.948 -0.8710  0.1459 -0.6506
  863MPD2    H112671   2.986   2.407  16.805 -0.4365 -0.0012  1.6309
  863MPD2    H212672   2.627   2.566  16.667 -0.8406 -1.2165 -0.6533
  863MPD2    H312673   2.841   2.568  16.672  0.1958 -1.7517 -1.8083
  863MPD2     N12674   2.898   2.223  16.967  0.2551 -0.3556 -0.5841
  863MPD2    H512675   2.998   2.234  16.961  0.4512 -1.8171  0.0073
  863MPD2    N112676   2.463   2.413  16.815 -0.0639  0.1585 -0.1542
  863MPD2    H712677   2.431   2.485  16.751  0.7283  0.0475 -0.6644
  864MPD2     C12678   2.633   3.569  16.967 -0.2456 -0.5555  0.3403
  864MPD2    C112679   2.736   3.544  17.058 -0.8001  0.9245  1.4932
  864MPD2    C212680   2.843   3.622  17.058  1.3804 -0.2823 -0.1601
  864MPD2    C312681   2.861   3.721  16.960 -0.1791 -0.0624 -1.5721
  864MPD2    C412682   2.756   3.745  16.876  0.2510 -0.0250 -1.3820
  864MPD2    C512683   2.645   3.665  16.874 -0.7384  0.3539 -0.3180
  864MPD2     H12684   2.914   3.607  17.138  0.2289 -0.9644  0.7312
  864MPD2    H112685   2.768   3.827  16.806  0.9594 -0.2673 -1.5391
  864MPD2    H212686   2.544   3.508  16.969 -1.2434  0.9291  1.0398
  864MPD2    H312687   2.574   3.692  16.797 -0.3278 -0.0684 -0.8441
  864MPD2     N12688   2.973   3.807  16.948  0.3112  0.0412 -0.5117
  864MPD2    H512689   2.963   3.878  16.876  1.0511  1.1260  0.4665
  864MPD2    N112690   2.726   3.425  17.130 -0.3463 -0.0870  0.4044
  864MPD2    H712691   2.645   3.365  17.118 -1.6731  1.8965 -0.6636
  865MPD2     C12692   3.430   3.789  16.165  0.6368  0.1806 -0.6027
  865MPD2    C112693   3.366   3.714  16.256  0.7169  0.2938  0.2828
  865MPD2    C212694   3.326   3.782  16.372 -0.4818  0.3146  0.5298
  865MPD2    C312695   3.383   3.902  16.404  0.5631  0.2358 -0.1706
  865MPD2    C412696   3.452   3.977  16.308  0.2789 -0.4777 -0.4493
  865MPD2    C512697   3.478   3.911  16.190  0.7506 -0.3503 -0.3481
  865MPD2     H12698   3.265   3.732  16.447 -0.2080 -0.6386  0.1216
  865MPD2    H112699   3.506   4.068  16.332 -0.5931  0.5620 -2.4686
  865MPD2    H212700   3.462   3.746  16.070  0.3769  0.4873 -0.8306
  865MPD2    H312701   3.541   3.961  16.118  0.0475  1.7106  0.4776
  865MPD2     N12702   3.366   3.959  16.531  0.2347  0.2497  0.3856
  865MPD2    H512703   3.433   4.033  16.550 -0.5658  1.0945 -0.0825
  865MPD2    N112704   3.323   3.583  16.224 -0.1037 -0.4225  0.8923
  865MPD2    H712705   3.339   3.549  16.130  2.0950  1.6673  0.5336
  866MPD2     C12706   0.241   4.397  11.503  0.2464  0.3404  0.2907
  866MPD2    C112707   0.203   4.301  11.409 -0.2391  0.7429 -0.1089
  866MPD2    C212708   0.065   4.291  11.382 -0.1707 -0.7377  0.1899
  866MPD2    C312709   4.697   4.364  11.449  0.2926  0.7741 -0.0604
  866MPD2    C412710   0.009   4.443  11.552 -0.8863 -0.4152  0.4202
  866MPD2    C512711   0.142   4.460  11.573 -0.7282  0.6997  0.4805
  866MPD2     H12712   0.027   4.225  11.304 -0.1846  0.6228 -0.9686
  866MPD2    H112713   4.660   4.502  11.605 -0.8035 -0.3303  0.4429
  866MPD2    H212714   0.334   4.391  11.559  1.1515  2.2677 -1.0020
  866MPD2    H312715   0.172   4.518  11.659  0.3124  0.0635  0.5434
  866MPD2     N12716   4.557   4.363  11.417 -0.6639  0.0330  0.0653
  866MPD2    H512717   4.499   4.412  11.484 -1.4548  1.2350 -1.5011
  866MPD2    N112718   0.306   4.216  11.370 -0.3632  0.3636  0.2062
  866MPD2    H712719   0.401   4.251  11.378 -1.3124  2.5934  1.7007
  867MPD2     C12720   2.267   3.605  16.560 -0.9143  0.2004  0.3395
  867MPD2    C112721   2.236   3.549  16.683 -0.6602  0.6469  0.6623
  867MPD2    C212722   2.264   3.628  16.792  0.0725 -0.0925 -0.1580
  867MPD2    C312723   2.312   3.757  16.786 -0.0775  0.2698 -0.0730
  867MPD2    C412724   2.327   3.809  16.657 -0.1740  0.0224  0.2019
  867MPD2    C512725   2.309   3.734  16.540 -0.6910  0.1861  0.6257
  867MPD2     H12726   2.247   3.581  16.888  0.2006 -0.0049 -0.0931
  867MPD2    H112727   2.367   3.909  16.638  0.4973 -0.6971 -2.2105
  867MPD2    H212728   2.230   3.555  16.471  2.6864 -1.9015  0.0276
  867MPD2    H312729   2.321   3.768  16.438 -1.5860  0.2825  0.5482
  867MPD2     N12730   2.366   3.839  16.887  0.2437 -1.1757  1.2896
  867MPD2    H512731   2.413   3.925  16.863 -0.1972 -0.8384  1.6373
  867MPD2    N112732   2.205   3.409  16.690  0.3518 -0.0765 -0.1693
  867MPD2    H712733   2.190   3.366  16.599 -0.2515 -2.1322  0.9029
  868MPD2     C12734   3.659   2.308  13.078  0.1950 -0.2600 -0.2124
  868MPD2    C112735   3.733   2.220  13.162 -0.1118  0.8976 -0.6758
  868MPD2    C212736   3.684   2.190  13.290  0.1324 -0.1110 -0.3080
  868MPD2    C312737   3.563   2.258  13.333  0.5881  0.1294  0.0227
  868MPD2    C412738   3.493   2.345  13.249 -0.5525 -0.6656  0.0443
  868MPD2    C512739   3.540   2.366  13.119 -0.1218  0.1964 -0.0273
  868MPD2     H12740   3.734   2.124  13.359 -1.8332 -0.5313  0.7208
  868MPD2    H112741   3.400   2.393  13.275  0.3087  0.6309  0.6902
  868MPD2    H212742   3.702   2.333  12.981 -0.3663  1.1556 -0.0945
  868MPD2    H312743   3.492   2.440  13.056 -0.8463 -0.2631 -0.0099
  868MPD2     N12744   3.507   2.216  13.453  0.7524 -0.1572 -0.2344
  868MPD2    H512745   3.571   2.165  13.512  1.9591  0.7925 -0.7090
  868MPD2    N112746   3.855   2.166  13.121 -0.4995  0.3617  0.1316
  868MPD2    H712747   3.871   2.164  13.021 -0.4754  0.4542  0.1344
  869MPD2     C12748   1.211   0.446   1.932 -0.2519 -0.1311  0.1312
  869MPD2    C112749   1.136   0.362   1.856  0.7117 -0.1290 -0.1982
  869MPD2    C212750   1.082   0.412   1.743  0.1822  0.1452 -0.2123
  869MPD2    C312751   1.082   0.547   1.706 -0.1870 -0.3613  0.7646
  869MPD2    C412752   1.154   0.635   1.784 -0.7291 -0.1950  0.5137
  869MPD2    C512753   1.226   0.577   1.888  0.1094 -0.1249  0.0294
  869MPD2     H12754   1.013   0.346   1.691 -0.8017 -1.4300  3.1067
  869MPD2    H112755   1.164   0.739   1.755  2.1462 -0.1195  1.8021
  869MPD2    H212756   1.256   0.410   2.024 -0.4072 -1.3862 -0.2841
  869MPD2    H312757   1.291   0.644   1.944  0.6373 -0.0019 -0.7215
  869MPD2     N12758   1.001   0.591   1.600 -0.5854  0.2613  0.3938
  869MPD2    H512759   0.997   0.692   1.597  0.1142  0.2717  0.0385
  869MPD2    N112760   1.115   0.231   1.901  0.0894  0.0960  0.2641
  869MPD2    H712761   1.178   0.202   1.976 -1.6200  0.1726  1.7282
  870MPD2     C12762   4.098   4.127   1.709 -0.1055 -0.7859  0.4942
  870MPD2    C112763   4.232   4.116   1.737 -0.2944  0.1649  0.0427
  870MPD2    C212764   4.321   4.190   1.661  0.3162 -0.2050  0.1235
  870MPD2    C312765   4.271   4.287   1.573 -0.3969 -0.3152  0.1808
  870MPD2    C412766   4.135   4.297   1.548  0.0165  0.1910 -0.3301
  870MPD2    C512767   4.048   4.226   1.626 -0.3833  0.9496  0.1573
  870MPD2     H12768   4.428   4.194   1.677  0.6912  0.0509 -2.4075
  870MPD2    H112769   4.097   4.361   1.470  0.9149  2.9864  1.5019
  870MPD2    H212770   4.021   4.075   1.765 -2.6189  1.4438 -0.9108
  870MPD2    H312771   3.942   4.234   1.604 -0.2826  0.0284 -0.6627
  870MPD2     N12772   4.368   4.379   1.521  0.2905 -0.5828 -0.5662
  870MPD2    H512773   4.464   4.369   1.552 -0.1143  1.0140  1.2816
  870MPD2    N112774   4.272   4.035   1.848 -0.6519 -0.3239 -0.1449
  870MPD2    H712775   4.200   4.012   1.916 -0.9210  1.7593  0.2667
  871MPD2     C12776   0.443   3.033  16.313 -0.0991  0.2381  0.0093
  871MPD2    C112777   0.545   3.012  16.397  0.4388 -0.4263  0.0749
  871MPD2    C212778   0.657   2.939  16.363  0.4840  0.8568 -0.0949
  871MPD2    C312779   0.645   2.870  16.243 -0.5204  0.1339  0.2393
  871MPD2    C412780   0.532   2.878  16.170 -0.5554 -0.3481  0.0109
  871MPD2    C512781   0.428   2.957  16.202  0.5808  0.5773  0.2496
  871MPD2     H12782   0.747   2.926  16.421  0.1053  0.8303  0.4822
  871MPD2    H112783   0.516   2.807  16.090  1.6493 -1.1545  0.2855
  871MPD2    H212784   0.363   3.091  16.358  0.5756  1.8412 -0.8199
  871MPD2    H312785   0.340   2.949  16.139  0.9889 -0.5639 -0.1621
  871MPD2     N12786   0.736   2.772  16.196  0.4860 -0.4772  0.1857
  871MPD2    H512787   0.712   2.706  16.123 -1.4344  1.7493 -1.1710
  871MPD2    N112788   0.546   3.083  16.512 -0.8767  0.2906 -0.0801
  871MPD2    H712789   0.483   3.163  16.514 -1.4606 -0.1522 -1.0761
  872MPD2     C12790   1.749   0.200  13.267  0.0496 -0.3055  0.5933
  872MPD2    C112791   1.801   0.311  13.326  0.6843 -0.1436 -0.0554
  872MPD2    C212792   1.725   0.374  13.426  0.7455 -0.9410  0.2737
  872MPD2    C312793   1.612   0.313  13.471  0.1576 -0.0374 -0.0404
  872MPD2    C412794   1.559   0.200  13.410 -0.2051  0.3100  0.3039
  872MPD2    C512795   1.628   0.145  13.305  0.6396  0.5544 -0.7875
  872MPD2     H12796   1.766   0.462  13.475  1.9329 -1.3297 -0.0332
  872MPD2    H112797   1.466   0.149  13.434 -0.1076  0.6438  1.3789
  872MPD2    H212798   1.808   0.151  13.190 -0.4925  1.1992 -0.7788
  872MPD2    H312799   1.587   0.053  13.265  1.7179  0.1333 -0.9203
  872MPD2     N12800   1.541   0.363  13.586  0.1217 -0.0242  0.0695
  872MPD2    H512801   1.460   0.308  13.614  0.8185 -1.7396 -1.2502
  872MPD2    N112802   1.929   0.357  13.288  0.2127 -0.3043  0.0747
  872MPD2    H712803   1.957   0.451  13.311 -1.3894  0.1289  0.2952
  873MPD2     C12804   4.349   1.012   0.597 -0.1115 -0.5293 -0.3506
  873MPD2    C112805   4.220   1.003   0.639 -0.6633  0.2395 -0.8981
  873MPD2    C212806   4.154   0.886   0.600 -0.2792 -0.4028 -0.5926
  873MPD2    C312807   4.217   0.775   0.532 -0.5147 -0.5642 -0.1964
  873MPD2    C412808   4.348   0.792   0.493 -0.5272 -0.2349 -0.1887
  873MPD2    C512809   4.409   0.910   0.522 -1.1556 -0.1959  0.5726
  873MPD2     H12810   4.048   0.882   0.621 -0.1092 -2.5973 -0.2067
  873MPD2    H112811   4.395   0.730   0.417  0.5869  1.1018 -0.5941
  873MPD2    H212812   4.411   1.098   0.623 -0.2775 -0.5434  0.0857
  873MPD2    H312813   4.510   0.923   0.485 -0.6632  0.3693  2.1113
  873MPD2     N12814   4.145   0.661   0.496  0.1398 -0.6641 -0.4020
  873MPD2    H512815   4.196   0.592   0.441  2.6318  1.8011 -1.1628
  873MPD2    N112816   4.157   1.108   0.708 -0.5797  0.4918 -0.1628
  873MPD2    H712817   4.218   1.189   0.720 -0.9618  0.7309  0.1997
  874MPD2     C12818   3.458   1.680  15.966 -0.2458 -0.1968 -0.3183
  874MPD2    C112819   3.492   1.602  16.069 -0.5101 -0.7865  0.5518
  874MPD2    C212820   3.587   1.641  16.156 -0.6323 -0.4230  0.3610
  874MPD2    C312821   3.659   1.759  16.140 -0.3078  0.3400 -0.7486
  874MPD2    C412822   3.625   1.835  16.030  0.1485  0.2589  0.4503
  874MPD2    C512823   3.534   1.792  15.944  0.2624  0.4311  0.1174
  874MPD2     H12824   3.623   1.577  16.236  0.4862 -1.6404 -1.1195
  874MPD2    H112825   3.676   1.928  16.007 -0.4981  0.6378  0.5674
  874MPD2    H212826   3.376   1.650  15.901  0.5747 -1.7443 -0.6505
  874MPD2    H312827   3.521   1.861  15.861 -1.3016 -0.3528 -0.2918
  874MPD2     N12828   3.750   1.802  16.240 -0.2563  0.0724 -0.9823
  874MPD2    H512829   3.777   1.729  16.306 -2.0413 -0.7245 -1.1082
  874MPD2    N112830   3.422   1.479  16.080 -0.8579  0.9288 -0.2264
  874MPD2    H712831   3.351   1.448  16.014  0.8215 -1.1176 -1.0866
  875MPD2     C12832   4.340   3.718  14.512  0.4016  0.0534  0.4942
  875MPD2    C112833   4.307   3.851  14.479  0.4862  0.0022  0.3527
  875MPD2    C212834   4.289   3.944  14.578  0.6893  1.2989  0.0173
  875MPD2    C312835   4.305   3.912  14.713 -0.1168  0.3021  0.1478
  875MPD2    C412836   4.344   3.779  14.737  0.4971 -0.2188  0.0852
  875MPD2    C512837   4.377   3.692  14.637 -0.1427 -0.3005  0.1944
  875MPD2     H12838   4.267   4.045  14.544 -0.2628  0.8254 -0.7905
  875MPD2    H112839   4.364   3.744  14.837  0.6050 -0.2502  0.0537
  875MPD2    H212840   4.360   3.633  14.447  1.0112 -0.0385  0.8102
  875MPD2    H312841   4.403   3.589  14.659 -0.7640 -0.9616 -2.1186
  875MPD2     N12842   4.290   3.996  14.826 -0.0246  0.0683 -0.1164
  875MPD2    H512843   4.318   3.967  14.920  1.8446  2.3172  0.0062
  875MPD2    N112844   4.277   3.897  14.344 -0.7592  0.0938  0.2170
  875MPD2    H712845   4.242   3.992  14.339 -2.9597 -0.7537 -0.4792
  876MPD2     C12846   3.416   1.058  15.745 -0.4097 -0.2589 -0.0798
  876MPD2    C112847   3.535   0.994  15.733 -0.9597 -0.9394  0.2154
  876MPD2    C212848   3.541   0.865  15.766 -0.1033 -1.0747  0.0236
  876MPD2    C312849   3.431   0.793  15.815 -0.3502 -0.1792  0.0193
  876MPD2    C412850   3.313   0.862  15.835 -0.8011  0.0471  0.5318
  876MPD2    C512851   3.307   0.996  15.794  0.1593  0.3386  0.1136
  876MPD2     H12852   3.634   0.810  15.757  1.5808  1.6593  0.7070
  876MPD2    H112853   3.219   0.812  15.853 -0.5147 -0.8131 -0.3953
  876MPD2    H212854   3.404   1.160  15.712  0.2431  0.6099  2.4073
  876MPD2    H312855   3.223   1.058  15.825 -0.8710 -0.6295 -0.7645
  876MPD2     N12856   3.432   0.655  15.841  0.6565  0.0040 -0.5224
  876MPD2    H512857   3.355   0.623  15.899  0.3192  1.0020 -0.4257
  876MPD2    N112858   3.636   1.075  15.685 -0.2796  1.0364  0.5965
  876MPD2    H712859   3.613   1.167  15.647 -1.5220  0.0374 -1.0748
  877MPD2     C12860   3.424   1.318  15.271  0.4847  0.6410  0.0406
  877MPD2    C112861   3.545   1.359  15.221 -0.4374 -0.5235  0.6125
  877MPD2    C212862   3.553   1.407  15.095  0.0749  0.4564  0.0744
  877MPD2    C312863   3.443   1.414  15.012 -0.4635  0.2054 -0.4214
  877MPD2    C412864   3.325   1.372  15.065  0.2090 -0.3128  0.3014
  877MPD2    C512865   3.319   1.308  15.186  0.1900 -1.1566 -0.3079
  877MPD2     H12866   3.651   1.419  15.052 -0.0409  0.3157 -0.2311
  877MPD2    H112867   3.233   1.371  15.009  0.5683 -0.7940 -0.2786
  877MPD2    H212868   3.410   1.268  15.366 -2.8265  3.0768  0.8493
  877MPD2    H312869   3.229   1.253  15.212  0.2593 -1.4991 -0.8134
  877MPD2     N12870   3.441   1.449  14.872 -0.1533  0.2803  0.6531
  877MPD2    H512871   3.350   1.431  14.829  0.4037  0.6800 -0.7046
  877MPD2    N112872   3.664   1.363  15.302 -0.1072 -0.5570  0.3736
  877MPD2    H712873   3.752   1.387  15.257  0.5016 -0.9328  1.3574
  878MPD2     C12874   3.384   4.630  13.279  0.2178 -0.4177  0.4744
  878MPD2    C112875   3.274   4.710  13.250 -0.2578  0.2910 -1.1697
  878MPD2    C212876   3.188   0.025  13.356  0.4072 -0.1032  0.4871
  878MPD2    C312877   3.231   0.014  13.485 -1.3638 -0.3787 -0.0100
  878MPD2    C412878   3.342   4.663  13.512  0.0501  0.0186 -0.2195
  878MPD2    C512879   3.424   4.614  13.414 -0.1805  0.1323  0.5109
  878MPD2     H12880   3.093   0.074  13.337  0.6866  0.6809  1.1656
  878MPD2    H112881   3.380   4.673  13.613  0.3711 -0.9751 -0.2412
  878MPD2    H212882   3.449   4.594  13.200  0.6763 -0.8566  1.0532
  878MPD2    H312883   3.509   4.549  13.435 -1.1370 -0.9688  0.9720
  878MPD2     N12884   3.160   0.083  13.584  0.3738 -0.1199  0.5222
  878MPD2    H512885   3.077   0.134  13.554  0.4482 -0.4669 -0.2718
  878MPD2    N112886   3.245   0.019  13.111  0.0739 -0.0371  0.2993
  878MPD2    H712887   3.290   4.685  13.042  1.7170 -0.5825  1.8582
  879MPD2     C12888   3.390   1.886  17.694  0.0445  0.4783 -0.3894
  879MPD2    C112889   3.468   1.907  17.586 -0.4263  1.2915 -0.1204
  879MPD2    C212890   3.459   1.821  17.478  0.1878  0.7424  0.0349
  879MPD2    C312891   3.368   1.716  17.486 -0.2619 -0.5118 -0.1832
  879MPD2    C412892   3.291   1.700  17.595  0.4143 -0.4576  1.0162
  879MPD2    C512893   3.308   1.782  17.699  0.1722 -0.1352 -0.4132
  879MPD2     H12894   3.514   1.835  17.386 -1.7268  0.7101 -1.1015
  879MPD2    H112895   3.208   1.629  17.593  0.9005 -1.0744  3.8822
  879MPD2    H212896   3.394   1.951   0.078 -0.3769  1.6045 -1.2169
  879MPD2    H312897   3.235   1.771   0.076  0.5096  2.9955  0.3092
  879MPD2     N12898   3.357   1.620  17.385  0.0573 -0.2851 -0.1602
  879MPD2    H512899   3.302   1.538  17.410 -0.6026  0.0941 -0.3694
  879MPD2    N112900   3.542   2.029  17.589  0.0239 -0.2031  0.5637
  879MPD2    H712901   3.535   2.084  17.674  0.8134  0.9278 -0.0955
  880MPD2     C12902   0.046   3.655   0.281  0.6999  0.2058  0.1993
  880MPD2    C112903   0.123   3.722   0.372  0.0764 -0.4583 -0.3519
  880MPD2    C212904   0.205   3.647   0.453 -0.3379 -0.2420 -0.2159
  880MPD2    C312905   0.198   3.508   0.453  0.3191  0.0334  0.4552
  880MPD2    C412906   0.109   3.439   0.373  0.0541  0.1158  0.3249
  880MPD2    C512907   0.039   3.517   0.282  0.1433  0.4441 -0.5429
  880MPD2     H12908   0.281   3.691   0.516  1.6442 -1.3479 -1.8222
  880MPD2    H112909   0.099   3.331   0.370  1.8764 -0.0608  0.3825
  880MPD2    H212910   4.708   3.705   0.209  0.5756  2.4933  1.9065
  880MPD2    H312911   4.704   3.465   0.208  1.8463  1.6964 -2.8357
  880MPD2     N12912   0.290   3.440   0.541 -0.1014 -0.6794 -0.3326
  880MPD2    H512913   0.336   3.502   0.607 -0.7402 -0.2400 -0.2996
  880MPD2    N112914   0.129   3.866   0.364 -0.4838 -0.8193  0.1691
  880MPD2    H712915   0.076   3.915   0.294  0.4398  0.3533  0.2882
  881MPD2     C12916   0.508   4.630  17.549  0.3710  0.4176  1.1250
  881MPD2    C112917   0.447   4.507  17.532 -0.1629  0.6855 -0.2754
  881MPD2    C212918   0.387   4.438  17.635 -0.7079 -0.2431 -0.0063
  881MPD2    C312919   0.393   4.496   0.058  0.1341  0.5940 -0.4946
  881MPD2    C412920   0.447   4.617   0.069  0.2614 -0.0351 -0.0489
  881MPD2    C512921   0.515   4.683  17.674 -0.4144  0.3260  0.3322
  881MPD2     H12922   0.355   4.337  17.614  0.6465 -0.1848 -2.3493
  881MPD2    H112923   0.458   4.664   0.166 -1.8968 -2.0921  1.1633
  881MPD2    H212924   0.557   4.683  17.468  1.3586  4.0087  4.0973
  881MPD2    H312925   0.565   0.050  17.700  0.0007 -0.4681  2.3051
  881MPD2     N12926   0.345   4.432   0.172  0.2015  0.1220  0.2551
  881MPD2    H512927   0.370   4.471   0.263  0.9621  1.9027 -0.7281
  881MPD2    N112928   0.433   4.474  17.391  0.0151 -0.3981 -0.3323
  881MPD2    H712929   0.467   4.540  17.322  1.6001 -2.0367 -1.1245
  882MPD2     C12930   3.384   0.940  14.293 -0.0598  0.3678 -0.7049
  882MPD2    C112931   3.315   1.024  14.378  0.8163  0.5299  0.8056
  882MPD2    C212932   3.198   0.970  14.433  0.4627 -0.5392  0.1983
  882MPD2    C312933   3.153   0.845  14.403 -0.0259 -0.5747  0.2588
  882MPD2    C412934   3.227   0.764  14.329  0.1056 -0.8969  0.1685
  882MPD2    C512935   3.340   0.813  14.268  0.2824 -0.1225 -0.3904
  882MPD2     H12936   3.137   1.031  14.499 -0.9619 -2.2537  0.4594
  882MPD2    H112937   3.187   0.666  14.307  1.1270 -1.3830  0.5016
  882MPD2    H212938   3.475   0.976  14.247  1.4639 -1.2398  1.0753
  882MPD2    H312939   3.387   0.750  14.194 -1.0842  0.6027 -1.8768
  882MPD2     N12940   3.035   0.787  14.456 -0.3480  0.1264 -0.9792
  882MPD2    H512941   3.009   0.696  14.420 -1.1830  0.1593 -0.4581
  882MPD2    N112942   3.379   1.150  14.397  0.6713 -0.0619 -0.5977
  882MPD2    H712943   3.471   1.165  14.358  0.8277 -0.3147 -0.3312
  883MPD2     C12944   0.640   0.793  16.083  0.6180  0.6111  0.1459
  883MPD2    C112945   0.673   0.815  15.951  0.8464  0.0487 -0.7949
  883MPD2    C212946   0.778   0.908  15.929  0.0286  0.3385  0.1155
  883MPD2    C312947   0.845   0.972  16.031  0.0971 -0.0535 -0.0784
  883MPD2    C412948   0.811   0.940  16.157 -0.7677 -0.2356  0.3712
  883MPD2    C512949   0.710   0.850  16.182  0.0887  0.4326  0.9712
  883MPD2     H12950   0.800   0.939  15.828 -0.9303 -0.6526 -0.3895
  883MPD2    H112951   0.854   0.984  16.246  0.0793  4.6556 -2.4117
  883MPD2    H212952   0.561   0.727  16.118 -0.3289  0.5594 -2.0366
  883MPD2    H312953   0.692   0.810  16.281  1.6017  1.3468  1.6250
  883MPD2     N12954   0.942   1.063  15.990  0.3548 -0.3760 -0.1907
  883MPD2    H512955   0.950   1.085  15.891  2.2734 -1.9173 -0.3815
  883MPD2    N112956   0.593   0.770  15.843 -0.0410  1.0755  0.4723
  883MPD2    H712957   0.610   0.794  15.746  1.0912 -1.0433  0.1571
  884MPD2     C12958   2.348   1.492  15.366 -0.8678  0.4017 -0.7615
  884MPD2    C112959   2.325   1.620  15.323  0.0941  0.0663  0.5883
  884MPD2    C212960   2.195   1.677  15.334  0.4970  0.2271 -0.0582
  884MPD2    C312961   2.087   1.601  15.385  0.1495  0.2720 -0.0910
  884MPD2    C412962   2.114   1.470  15.417  0.3309 -1.1179 -0.7650
  884MPD2    C512963   2.241   1.420  15.411  0.5544 -0.5986 -0.2832
  884MPD2     H12964   2.170   1.777  15.299  2.6458  0.6871 -0.2590
  884MPD2    H112965   2.030   1.406  15.442 -0.4669 -0.3533 -1.4823
  884MPD2    H212966   2.445   1.446  15.354  0.5447  2.8919  1.0826
  884MPD2    H312967   2.252   1.317  15.444 -1.7230 -0.6211  0.3792
  884MPD2     N12968   1.962   1.665  15.382 -0.2249  0.0907 -0.4391
  884MPD2    H512969   1.956   1.759  15.344 -0.7775  0.2283 -0.0153
  884MPD2    N112970   2.424   1.702  15.262 -0.3422 -0.0045 -1.0316
  884MPD2    H712971   2.404   1.801  15.252 -0.2233 -0.0695 -1.8912
  885MPD2     C12972   0.365   2.373   0.581  0.2894  0.4088 -0.4124
  885MPD2    C112973   0.445   2.280   0.509 -0.3257  0.4153 -0.0917
  885MPD2    C212974   0.439   2.265   0.370 -0.0797 -0.2752 -0.1222
  885MPD2    C312975   0.351   2.351   0.303 -0.3151 -0.3200  0.0804
  885MPD2    C412976   0.267   2.437   0.376  0.1757 -0.3256 -0.2959
  885MPD2    C512977   0.274   2.454   0.513  0.5161 -0.6093 -0.0524
  885MPD2     H12978   0.487   2.184   0.316  0.5619  0.8641 -1.2582
  885MPD2    H112979   0.191   2.501   0.333 -1.4445 -0.4863  2.2670
  885MPD2    H212980   0.364   2.374   0.689  1.3468 -1.0037 -0.3938
  885MPD2    H312981   0.211   2.524   0.567 -0.6078 -1.2139 -0.5858
  885MPD2     N12982   0.338   2.341   0.164  0.2990 -0.5159  0.4146
  885MPD2    H512983   0.394   2.276   0.110 -0.0171  2.0658 -3.0531
  885MPD2    N112984   0.531   2.200   0.592  0.0112  0.7053 -0.0374
  885MPD2    H712985   0.543   2.238   0.685 -0.2199  0.2105  0.1941
  886MPD2     C12986   2.069   0.025  14.845  0.3339 -0.0003 -0.2898
  886MPD2    C112987   2.196   0.058  14.893  0.2991 -0.1123  0.5840
  886MPD2    C212988   2.239   0.192  14.892 -0.0323 -0.5403  0.5115
  886MPD2    C312989   2.155   0.295  14.851  0.0920 -0.1173 -0.2462
  886MPD2    C412990   2.042   0.259  14.780  0.1175 -0.5517  0.4668
  886MPD2    C512991   2.003   0.125  14.771  0.2000  0.4427  0.5925
  886MPD2     H12992   2.337   0.212  14.933  0.2550 -1.1114  0.1077
  886MPD2    H112993   1.978   0.337  14.739  1.5408  0.2302 -0.2447
  886MPD2    H212994   2.033   4.648  14.843  4.3278 -1.4320  2.0039
  886MPD2    H312995   1.908   0.095  14.728 -0.0762  2.2337 -0.0504
  886MPD2     N12996   2.182   0.431  14.867 -0.5475  0.6001 -0.6703
  886MPD2    H512997   2.107   0.494  14.841  0.1246  1.0656 -1.4671
  886MPD2    N112998   2.275   4.692  14.961  0.2506 -0.0823 -0.1113
  886MPD2    H712999   2.367   0.003  14.981 -0.2993  1.1735  0.1819
  887MPD2     C13000   2.869   0.084  15.400 -0.3199 -0.4960 -0.2738
  887MPD2    C113001   2.743   0.093  15.350  0.2618  0.1217 -0.0610
  887MPD2    C213002   2.677   0.214  15.365 -0.5155 -0.2050 -0.5588
  887MPD2    C313003   2.750   0.321  15.419 -0.2435 -0.2946  0.4364
  887MPD2    C413004   2.877   0.306  15.472 -0.1114  0.2774 -0.4459
  887MPD2    C513005   2.938   0.190  15.456  0.1788  0.7567  0.3186
  887MPD2     H13006   2.575   0.222  15.329 -1.3920  1.6122  2.2813
  887MPD2    H113007   2.939   0.385  15.512  1.4178 -0.8732 -0.5570
  887MPD2    H213008   2.919   4.714  15.386  1.5323  0.5941 -1.1068
  887MPD2    H313009   3.039   0.186  15.494  0.3229 -0.2799 -0.1768
  887MPD2     N13010   2.674   0.444  15.436  0.3432  0.1520  0.7678
  887MPD2    H513011   2.576   0.443  15.410  1.1887 -0.2769 -2.5182
  887MPD2    N113012   2.688   4.706  15.295 -0.6640  0.4512 -0.4474
  887MPD2    H713013   2.732   4.616  15.313 -0.0635  0.4176 -2.0644
  888MPD2     C13014   4.465   0.529  14.920 -0.1052  0.5709  0.6427
  888MPD2    C113015   4.384   0.538  15.036 -0.1299  0.4732 -0.2854
  888MPD2    C213016   4.406   0.650  15.117  0.6800 -0.3587 -0.1762
  888MPD2    C313017   4.507   0.744  15.090 -0.3829 -0.1975  0.8890
  888MPD2    C413018   4.592   0.721  14.985  0.3347  1.1158  0.8088
  888MPD2    C513019   4.568   0.610  14.905 -0.5148  0.1455  0.7473
  888MPD2     H13020   4.337   0.687  15.192  0.8578 -0.6173  0.1127
  888MPD2    H113021   4.669   0.793  14.960 -0.0313  1.5118  0.8239
  888MPD2    H213022   4.458   0.448  14.848 -0.4730  2.3261 -1.2991
  888MPD2    H313023   4.630   0.597  14.817  0.2543  0.1696  1.2798
  888MPD2     N13024   4.511   0.871  15.164  0.0445 -0.2373 -0.1195
  888MPD2    H513025   4.430   0.897  15.219 -0.1052  1.0070 -0.9409
  888MPD2    N113026   4.289   0.442  15.072  0.1675  0.1200  0.0830
  888MPD2    H713027   4.232   0.454  15.155  1.3119 -0.2242  0.9186
  889MPD2     C13028   3.536   4.618  12.649  0.3876 -0.3052  0.0237
  889MPD2    C113029   3.622   4.586  12.752  0.0743  0.4423  0.7959
  889MPD2    C213030   3.646   4.689  12.834 -0.5625 -0.1634 -0.2441
  889MPD2    C313031   3.609   0.096  12.817  0.1276  0.0583 -0.3202
  889MPD2    C413032   3.527   0.124  12.710  0.1852 -0.2521 -0.0227
  889MPD2    C513033   3.492   0.018  12.637 -0.4857  0.4484  0.2824
  889MPD2     H13034   3.678   4.664  12.935  0.1065  2.7799  0.2889
  889MPD2    H113035   3.484   0.221  12.686 -0.3510 -0.3337  0.5895
  889MPD2    H213036   3.493   4.537  12.591 -0.2845 -0.9784  1.4698
  889MPD2    H313037   3.423   0.046  12.559 -0.3831  0.1126  0.0725
  889MPD2     N13038   3.618   0.189  12.929  0.2577  0.1748  0.0438
  889MPD2    H513039   3.645   0.149  13.018 -0.2704 -1.2357 -0.4270
  889MPD2    N113040   3.662   4.456  12.786  0.0780  0.1605 -0.0050
  889MPD2    H713041   3.712   4.447  12.874  1.2513  1.7146 -0.5091
  890MPD2     C13042   2.983   1.482  14.829  0.0780 -0.0516  0.4720
  890MPD2    C113043   3.078   1.587  14.829  0.3616 -0.5340 -0.4380
  890MPD2    C213044   3.126   1.632  14.953 -0.5670  0.2454 -1.0595
  890MPD2    C313045   3.072   1.583  15.071 -0.0599  0.1265 -0.1560
  890MPD2    C413046   2.977   1.478  15.066 -0.4864  0.9167 -0.5932
  890MPD2    C513047   2.937   1.432  14.946  1.0747 -0.2592  0.0590
  890MPD2     H13048   3.199   1.711  14.969 -1.0420  0.3195  0.7968
  890MPD2    H113049   2.942   1.420  15.150  0.4005 -0.0050 -0.8526
  890MPD2    H213050   2.943   1.443  14.736  0.5320 -1.4381  0.8554
  890MPD2    H313051   2.861   1.355  14.948  1.4618 -0.6052  1.6798
  890MPD2     N13052   3.118   1.628  15.194 -0.5944  0.3995 -0.4255
  890MPD2    H513053   3.209   1.673  15.197 -1.9899  3.2103  0.8150
  890MPD2    N113054   3.123   1.655  14.711 -0.1914  0.2943 -0.1346
  890MPD2    H713055   3.085   1.618  14.625  1.1369 -0.2576 -0.4856
  891MPD2     C13056   1.294   0.320  16.138 -0.2150  0.6802  0.2697
  891MPD2    C113057   1.252   0.376  16.257  0.6105 -0.3548  0.1805
  891MPD2    C213058   1.338   0.470  16.320 -0.2810 -0.0453 -0.1342
  891MPD2    C313059   1.459   0.502  16.259 -0.0877 -0.1957  1.1214
  891MPD2    C413060   1.497   0.433  16.143  0.2894  0.2787 -0.3153
  891MPD2    C513061   1.412   0.350  16.080 -0.0617  0.6186 -0.7570
  891MPD2     H13062   1.306   0.517  16.412 -0.6204  0.0830 -0.3128
  891MPD2    H113063   1.592   0.453  16.094  0.4297 -1.3869 -0.6980
  891MPD2    H213064   1.229   0.251  16.086 -2.4448  0.2764  3.6498
  891MPD2    H313065   1.458   0.285  16.006  0.5520 -0.8471  0.8978
  891MPD2     N13066   1.536   0.606  16.319 -0.0467  0.1704  0.1927
  891MPD2    H513067   1.495   0.645  16.404 -0.7930  2.4847 -1.2397
  891MPD2    N113068   1.125   0.329  16.302 -0.3460  0.3250 -0.3317
  891MPD2    H713069   1.066   0.281  16.235  0.7126  0.1590 -1.1370
  892MPD2     C13070   2.439   1.358  14.992 -0.1693 -0.4646 -0.2216
  892MPD2    C113071   2.355   1.267  14.926  0.8032 -0.1535  0.4571
  892MPD2    C213072   2.404   1.145  14.874 -0.1316 -0.3046 -0.0368
  892MPD2    C313073   2.542   1.121  14.874  0.3270  0.3143  0.1997
  892MPD2    C413074   2.618   1.217  14.929  0.6059  0.1866  0.5332
  892MPD2    C513075   2.569   1.333  14.985  0.2228 -0.1199 -0.4467
  892MPD2     H13076   2.332   1.094  14.811  1.7508  0.3195 -2.7044
  892MPD2    H113077   2.724   1.202  14.941  0.7159 -1.2355 -2.2311
  892MPD2    H213078   2.402   1.451  15.035  1.0432 -0.5394  0.9672
  892MPD2    H313079   2.637   1.407  15.025 -0.4410  0.8053 -1.0149
  892MPD2     N13080   2.605   1.008  14.815  0.0802 -0.5699 -0.2915
  892MPD2    H513081   2.706   1.010  14.814  0.1333 -4.0057 -0.7538
  892MPD2    N113082   2.218   1.297  14.917  0.2628  0.1181  0.1696
  892MPD2    H713083   2.165   1.224  14.872 -2.2217  0.4058  2.6454
  893MPD2     C13084   4.452   4.156   2.426  0.9878  0.1257  0.5372
  893MPD2    C113085   4.408   4.195   2.298 -0.2233  0.6653  0.4316
  893MPD2    C213086   4.276   4.159   2.257  0.5859 -0.4069 -0.4626
  893MPD2    C313087   4.191   4.106   2.357  0.6328  0.2868  0.6520
  893MPD2    C413088   4.225   4.096   2.483 -0.0832  0.3217 -0.0260
  893MPD2    C513089   4.362   4.111   2.520 -0.7672 -0.9088  0.1747
  893MPD2     H13090   4.242   4.173   2.155  0.9565  1.7364 -0.2931
  893MPD2    H113091   4.156   4.058   2.557  0.5281  1.8022  1.3177
  893MPD2    H213092   4.556   4.172   2.453  1.3361  0.5105 -1.0682
  893MPD2    H313093   4.399   4.094   2.621  3.0255 -1.5060 -1.2954
  893MPD2     N13094   4.066   4.050   2.326  0.3715 -0.3751  0.3273
  893MPD2    H513095   4.016   4.009   2.404 -0.2942  1.4627  0.8418
  893MPD2    N113096   4.501   4.258   2.209  0.4483  0.2563 -0.4290
  893MPD2    H713097   4.595   4.271   2.247 -0.6679 -2.4022  3.1804
  894MPD2     C13098   2.138   1.820   0.852  0.5132 -0.0790 -0.4789
  894MPD2    C113099   2.067   1.852   0.962 -0.0829 -0.1172 -0.1320
  894MPD2    C213100   2.057   1.982   0.998 -0.5141 -0.0339 -0.4522
  894MPD2    C313101   2.103   2.071   0.909 -0.6093 -0.6217 -0.9812
  894MPD2    C413102   2.162   2.037   0.792  0.7726 -0.2799 -0.6825
  894MPD2    C513103   2.180   1.908   0.761 -0.4355 -0.4790  0.1269
  894MPD2     H13104   2.018   2.016   1.093 -0.3392  2.0836 -1.1343
  894MPD2    H113105   2.200   2.110   0.721  0.9717  0.4898  0.2136
  894MPD2    H213106   2.139   1.713   0.834  1.1867 -0.2454  0.5640
  894MPD2    H313107   2.230   1.884   0.667 -1.2112 -1.3030 -0.0779
  894MPD2     N13108   2.074   2.212   0.946 -0.4060 -0.3452  0.1296
  894MPD2    H513109   2.059   2.228   1.046 -0.8993  0.6975 -0.1153
  894MPD2    N113110   2.001   1.751   1.046  0.4745 -0.3423 -0.4673
  894MPD2    H713111   1.965   1.784   1.135 -0.1474 -2.0779 -0.0864
  895MPD2     C13112   1.468   0.347  13.040 -0.0475 -0.8132 -0.9830
  895MPD2    C113113   1.338   0.388  13.036 -1.1445 -0.0870 -0.0623
  895MPD2    C213114   1.242   0.302  12.987  0.0435 -0.2359 -0.1864
  895MPD2    C313115   1.274   0.177  12.932  0.9079  0.4028  0.4602
  895MPD2    C413116   1.403   0.138  12.929  0.1439 -0.7319  0.0018
  895MPD2    C513117   1.493   0.223  12.987  0.1246 -0.0167  0.1978
  895MPD2     H13118   1.141   0.337  12.973 -0.3807 -1.3323  0.1158
  895MPD2    H113119   1.433   0.041  12.892  1.4622 -0.0118 -0.8224
  895MPD2    H213120   1.542   0.409  13.090 -0.0220  0.0529 -2.1089
  895MPD2    H313121   1.599   0.203  12.974  0.1431 -0.8713  1.6861
  895MPD2     N13122   1.169   0.092  12.883 -0.2829  0.9787  0.0914
  895MPD2    H513123   1.075   0.122  12.907 -1.0294 -0.9989 -0.3197
  895MPD2    N113124   1.289   0.517  13.073 -0.2656  0.2232  0.0764
  895MPD2    H713125   1.190   0.533  13.058  0.0734  1.4627 -0.8038
  896MPD2     C13126   3.212   3.168   2.143  0.4817  0.6148  0.4063
  896MPD2    C113127   3.224   3.186   2.008  0.2126  0.3292  0.1748
  896MPD2    C213128   3.119   3.153   1.929  0.5207 -0.0444  0.1563
  896MPD2    C313129   2.997   3.101   1.985 -0.2799  1.5611  0.2334
  896MPD2    C413130   2.985   3.102   2.124 -0.5229 -0.1542  0.2630
  896MPD2    C513131   3.095   3.126   2.201 -0.4088  0.8059 -0.3331
  896MPD2     H13132   3.146   3.148   1.824 -0.9051  0.0764 -0.2100
  896MPD2    H113133   2.896   3.071   2.177 -0.8184 -0.2077 -0.2731
  896MPD2    H213134   3.303   3.181   2.200 -1.0125  1.0099  2.7285
  896MPD2    H313135   3.094   3.103   2.307  1.7696  1.4304 -0.1671
  896MPD2     N13136   2.904   3.050   1.894 -0.5669 -0.8181  0.1531
  896MPD2    H513137   2.932   3.063   1.798 -0.4404  1.4780  0.5022
  896MPD2    N113138   3.343   3.242   1.963 -0.3032  0.2183 -0.2506
  896MPD2    H713139   3.427   3.236   2.019  0.5267  0.5833 -1.4716
  897MPD2     C13140   0.198   4.295  10.479 -0.1269 -0.0809  0.7948
  897MPD2    C113141   0.266   4.372  10.568 -0.8738  0.2947  0.0117
  897MPD2    C213142   0.215   4.377  10.697 -0.5701 -0.1663  0.0236
  897MPD2    C313143   0.086   4.331  10.722  0.5352  0.2802  0.0613
  897MPD2    C413144   0.009   4.268  10.633  0.1945 -0.7802 -0.7849
  897MPD2    C513145   0.068   4.248  10.510  0.6831 -0.4014 -0.0381
  897MPD2     H13146   0.268   4.438  10.769  1.8380 -1.1411 -0.9565
  897MPD2    H113147   4.631   4.244  10.651  0.2585  0.7780  1.6306
  897MPD2    H213148   0.225   4.279  10.375 -2.0416  1.4563  0.0535
  897MPD2    H313149   0.010   4.184  10.444  0.3806 -0.8465  0.6554
  897MPD2     N13150   0.021   4.369  10.846  0.3505  0.3604 -0.3741
  897MPD2    H513151   4.647   4.352  10.849  0.3227  0.8181  1.7102
  897MPD2    N113152   0.383   4.442  10.545 -0.1490  0.1898  0.5783
  897MPD2    H713153   0.427   4.490  10.622 -2.2018  1.7080  0.7901
  898MPD2     C13154   1.959   1.035   0.394  0.4842  0.1349 -0.1511
  898MPD2    C113155   2.073   1.047   0.310  0.0110 -0.0770 -0.2493
  898MPD2    C213156   2.076   1.154   0.225 -0.2057  0.1497 -0.1201
  898MPD2    C313157   1.973   1.247   0.212 -0.2651 -0.3271  0.3350
  898MPD2    C413158   1.868   1.236   0.299  0.1400  0.4220  0.5363
  898MPD2    C513159   1.865   1.139   0.393 -0.8340  0.0729 -0.0101
  898MPD2     H13160   2.166   1.155   0.165  0.9037 -1.3879  1.4868
  898MPD2    H113161   1.788   1.309   0.299  1.9641  2.4219 -0.9845
  898MPD2    H213162   1.936   0.952   0.460 -2.4214  0.7524 -0.3911
  898MPD2    H313163   1.785   1.143   0.465  0.9638 -2.3598  2.1064
  898MPD2     N13164   1.981   1.349   0.116 -0.5046 -0.6965 -0.4016
  898MPD2    H513165   2.070   1.351   0.066  1.2039  0.1722  2.6759
  898MPD2    N113166   2.188   0.967   0.324  0.3245  0.3828 -0.2673
  898MPD2    H713167   2.276   0.994   0.281  1.1331 -0.8775  0.6057
  899MPD2     C13168   2.857   1.428  17.095 -0.4250 -0.9663  0.8099
  899MPD2    C113169   2.886   1.506  17.201  0.3847  0.6999 -0.1639
  899MPD2    C213170   2.860   1.468  17.335  0.2340  0.2841  0.0100
  899MPD2    C313171   2.775   1.357  17.356 -0.1994  0.0814 -0.2429
  899MPD2    C413172   2.724   1.293  17.242 -0.1669 -1.0452  0.7431
  899MPD2    C513173   2.778   1.323  17.116 -0.0232  0.5569 -0.5819
  899MPD2     H13174   2.881   1.526  17.424  1.9785  0.0392 -0.2403
  899MPD2    H113175   2.654   1.210  17.244 -1.1097 -0.2914 -1.0255
  899MPD2    H213176   2.891   1.450  16.995  0.6573 -1.8543  0.9885
  899MPD2    H313177   2.739   1.276  17.027  2.6388 -0.8371 -1.0040
  899MPD2     N13178   2.730   1.328  17.482 -0.1974  0.4926  0.2662
  899MPD2    H513179   2.650   1.266  17.486 -0.2733  0.5484 -0.4703
  899MPD2    N113180   2.951   1.629  17.174  0.3974  0.3327 -0.0209
  899MPD2    H713181   2.944   1.659  17.077 -0.2038 -0.0800 -0.1028
  900MPD2     C13182   2.878   2.980  12.357  0.4971 -0.5947 -0.6623
  900MPD2    C113183   2.808   2.857  12.339 -0.3754 -0.1195  0.2063
  900MPD2    C213184   2.681   2.873  12.291 -0.5635  0.5785 -0.5977
  900MPD2    C313185   2.632   2.992  12.241 -0.2600 -0.0253  0.0958
  900MPD2    C413186   2.698   3.109  12.262 -0.4412 -0.2373 -0.8270
  900MPD2    C513187   2.821   3.099  12.326  0.3511 -0.0297  0.1308
  900MPD2     H13188   2.617   2.792  12.257 -1.2123  1.4465 -1.4562
  900MPD2    H113189   2.663   3.205  12.226  0.0082 -0.0172 -0.6653
  900MPD2    H213190   2.978   2.980  12.397 -0.3608  0.6459  1.4415
  900MPD2    H313191   2.870   3.191  12.352  3.9877 -2.1866  0.8617
  900MPD2     N13192   2.510   2.994  12.170 -0.2477  0.8240 -0.8345
  900MPD2    H513193   2.467   2.905  12.150 -0.4544  0.7042  0.1217
  900MPD2    N113194   2.875   2.737  12.363 -0.0609  0.6475  0.4855
  900MPD2    H713195   2.971   2.740  12.396 -0.2188  1.6433  0.8712
  901MPD2     C13196   2.854   1.717  12.762 -0.3253 -0.4318 -0.3228
  901MPD2    C113197   2.949   1.718  12.662 -0.7701 -0.0357  0.3350
  901MPD2    C213198   2.975   1.832  12.593 -0.4412 -0.3387 -0.3998
  901MPD2    C313199   2.897   1.946  12.613 -0.0234 -0.1320 -0.6072
  901MPD2    C413200   2.798   1.948  12.710  0.3589 -0.4937  0.2864
  901MPD2    C513201   2.782   1.832  12.781  0.0761  0.6815 -0.0784
  901MPD2     H13202   3.062   1.828  12.528 -0.5619  0.9494 -0.6320
  901MPD2    H113203   2.731   2.031  12.732 -1.3550 -1.4259 -1.4042
  901MPD2    H213204   2.835   1.636  12.831 -0.7455 -0.0178  0.0486
  901MPD2    H313205   2.697   1.836  12.848  1.3474 -1.1057  1.6571
  901MPD2     N13206   2.926   2.058  12.533 -0.1115 -0.4921  0.0547
  901MPD2    H513207   3.001   2.045  12.466 -0.2593  1.6065 -0.5207
  901MPD2    N113208   3.008   1.591  12.639 -0.1258  0.3688  0.0868
  901MPD2    H713209   2.980   1.521  12.706 -0.4405  0.1786 -0.2434
  902MPD2     C13210   1.917   0.117  12.426 -0.4946  0.7739  0.3315
  902MPD2    C113211   1.784   0.153  12.413  0.1069  0.1620 -0.1638
  902MPD2    C213212   1.730   0.154  12.284  0.1252 -0.2755  0.0128
  902MPD2    C313213   1.813   0.121  12.169  0.6609  0.2843  0.6720
  902MPD2    C413214   1.943   0.078  12.194 -0.4930 -0.2995  0.0322
  902MPD2    C513215   1.998   0.080  12.321  0.4935 -0.3772 -0.3219
  902MPD2     H13216   1.623   0.165  12.274  0.0585 -1.4483 -0.5702
  902MPD2    H113217   2.006   0.050  12.111 -0.8780  0.8614 -0.6527
  902MPD2    H213218   1.963   0.121  12.524 -0.5324  1.2210  0.3317
  902MPD2    H313219   2.103   0.064  12.344  0.9840  1.3501 -1.3497
  902MPD2     N13220   1.777   0.126  12.036  0.2161 -0.7836  0.1411
  902MPD2    H513221   1.842   0.094  11.965 -0.4205 -0.2198 -0.6994
  902MPD2    N113222   1.719   0.189  12.530  0.1442 -0.4096 -0.0323
  902MPD2    H713223   1.773   0.188  12.617 -1.4124  1.0164  0.9373
  903MPD2     C13224   1.593   0.705  11.391  0.4220 -0.1745 -0.4037
  903MPD2    C113225   1.505   0.621  11.459 -0.5069 -0.4818  0.4224
  903MPD2    C213226   1.371   0.665  11.463 -0.1356  0.1851  0.2264
  903MPD2    C313227   1.331   0.793  11.421  0.7710 -0.2589 -0.2476
  903MPD2    C413228   1.421   0.869  11.349  0.3914  0.5574  0.4368
  903MPD2    C513229   1.547   0.815  11.336  0.4560 -0.0169  0.4955
  903MPD2     H13230   1.292   0.603  11.504 -0.6483  1.7406  1.5822
  903MPD2    H113231   1.402   0.965  11.304 -0.5381 -0.6658 -1.8023
  903MPD2    H213232   1.699   0.679  11.389  0.9950  2.4463 -3.2646
  903MPD2    H313233   1.624   0.868  11.282  0.7336 -1.4380 -0.5139
  903MPD2     N13234   1.203   0.834  11.446  0.0916 -0.2179  0.1437
  903MPD2    H513235   1.146   0.765  11.494  1.0213 -1.5672 -0.7299
  903MPD2    N113236   1.551   0.498  11.508  0.3154 -1.2752  0.4720
  903MPD2    H713237   1.645   0.471  11.481  0.7443 -0.1039  0.8050
  904MPD2     C13238   0.973   3.989  13.622  0.5555  0.3791 -0.4964
  904MPD2    C113239   1.079   4.068  13.585 -0.2052  0.3484 -0.2175
  904MPD2    C213240   1.175   4.009  13.509 -0.4155  0.4836  0.4370
  904MPD2    C313241   1.172   3.870  13.474 -0.3442  0.1470 -1.0106
  904MPD2    C413242   1.065   3.797  13.511  0.1014  0.0734  0.2467
  904MPD2    C513243   0.971   3.859  13.590  0.4166  0.1086 -0.3894
  904MPD2     H13244   1.249   4.069  13.457  1.0047 -0.9084  0.8143
  904MPD2    H113245   1.046   3.696  13.475  1.6759  0.3194 -1.2944
  904MPD2    H213246   0.887   4.015  13.683  0.7709  1.9240 -0.8427
  904MPD2    H313247   0.884   3.801  13.617  0.0100  1.5967  1.5270
  904MPD2     N13248   1.280   3.824  13.391 -0.1296 -0.4230  0.3799
  904MPD2    H513249   1.358   3.886  13.371 -0.3259 -0.1664  0.4090
  904MPD2    N113250   1.082   4.207  13.602  0.4041 -0.9931 -0.3299
  904MPD2    H713251   1.142   4.261  13.541 -1.1044  0.6290 -0.3744
  905MPD2     C13252   0.551   4.610  13.417 -0.4030  0.9056 -0.1983
  905MPD2    C113253   0.683   4.654  13.415  0.0743  0.5447  0.2249
  905MPD2    C213254   0.742   4.671  13.290  0.1320 -0.1329  0.0513
  905MPD2    C313255   0.676   4.654  13.172  0.3750 -0.7415 -0.3890
  905MPD2    C413256   0.548   4.607  13.177  0.4516 -0.2416 -0.3440
  905MPD2    C513257   0.484   4.601  13.300  0.2815  0.2457 -0.7748
  905MPD2     H13258   0.847   4.693  13.274  0.5558 -3.7699 -2.2099
  905MPD2    H113259   0.485   4.591  13.091 -0.7747  0.4503  0.4253
  905MPD2    H213260   0.507   4.594  13.515  0.7170 -0.2773  0.1140
  905MPD2    H313261   0.383   4.561  13.305  0.2902  0.0495 -2.2138
  905MPD2     N13262   0.761   4.673  13.053  0.0523 -0.2198  0.4948
  905MPD2    H513263   0.861   4.688  13.067 -0.0168  0.8059 -0.0759
  905MPD2    N113264   0.752   4.660  13.533 -0.0747 -0.4238 -0.1756
  905MPD2    H713265   0.708   4.617  13.615  0.0844 -0.1245  0.0649
  906MPD2     C13266   3.647   4.693  11.433 -0.4914 -0.5421  0.4701
  906MPD2    C113267   3.613   4.607  11.324  0.4648 -0.2964 -0.7150
  906MPD2    C213268   3.560   4.481  11.351  0.0614 -0.5718  0.5683
  906MPD2    C313269   3.540   4.441  11.482 -1.0897 -0.3730  0.5598
  906MPD2    C413270   3.577   4.521  11.585  0.0559  0.8089 -0.1922
  906MPD2    C513271   3.630   4.642  11.557  0.0301 -0.6704  0.0677
  906MPD2     H13272   3.537   4.415  11.268  0.5483  0.9775 -0.7873
  906MPD2    H113273   3.572   4.487  11.688  1.7280  0.7801 -0.1329
  906MPD2    H213274   3.682   0.068  11.413 -0.0458 -0.3041  2.4196
  906MPD2    H313275   3.653   4.705  11.642 -0.1165 -3.0294  1.8569
  906MPD2     N13276   3.482   4.315  11.502  0.8811  0.4142 -0.2566
  906MPD2    H513277   3.450   4.268  11.419  0.6600 -2.6428  1.5489
  906MPD2    N113278   3.635   4.642  11.187  0.1493  0.0382 -0.4394
  906MPD2    H713279   3.636   4.561  11.126 -1.3436 -0.8171  0.6545
  907MPD2     C13280   1.733   3.768  15.343  0.4362  0.5411 -0.0063
  907MPD2    C113281   1.844   3.687  15.355 -0.2324 -0.4254  0.0657
  907MPD2    C213282   1.950   3.728  15.435  0.5706  0.0943 -0.6021
  907MPD2    C313283   1.940   3.847  15.510  1.1712 -0.0744  0.4227
  907MPD2    C413284   1.826   3.922  15.496  0.0695  0.6830  0.3451
  907MPD2    C513285   1.725   3.887  15.414  0.4745 -0.3314  0.4233
  907MPD2     H13286   2.033   3.658  15.436  0.0862 -0.4247  2.9664
  907MPD2    H113287   1.820   4.021  15.539  3.4736  0.5444  1.0893
  907MPD2    H213288   1.658   3.753  15.266  0.5005  0.1688  0.0062
  907MPD2    H313289   1.646   3.960  15.397  0.4598 -0.4963 -0.2328
  907MPD2     N13290   2.054   3.886  15.582  0.1961  0.2849  0.0931
  907MPD2    H513291   2.136   3.827  15.585 -0.6299 -0.8244  0.5061
  907MPD2    N113292   1.868   3.569  15.285 -0.0611 -0.6868 -0.1061
  907MPD2    H713293   1.957   3.523  15.305 -0.5320 -1.3074  0.5667
  908MPD2     C13294   0.690   0.080   9.656  0.3408 -0.2093 -0.0422
  908MPD2    C113295   0.562   0.045   9.687 -0.2016 -0.1468  0.8287
  908MPD2    C213296   0.533   0.015   9.818  0.6887  0.3970 -0.4561
  908MPD2    C313297   0.620   0.037   9.919  0.2787 -0.0854 -0.3090
  908MPD2    C413298   0.747   0.082   9.883  0.3437  0.4910  0.2320
  908MPD2    C513299   0.780   0.103   9.755 -0.1027  0.4898  0.2840
  908MPD2     H13300   0.436   4.697   9.839  0.4065  2.3917  2.3123
  908MPD2    H113301   0.829   0.103   9.950  0.4330 -0.1035  0.3066
  908MPD2    H213302   0.716   0.102   9.553 -0.5355  0.4327 -0.1203
  908MPD2    H313303   0.876   0.147   9.729 -0.1680 -0.6818 -1.9787
  908MPD2     N13304   0.575   0.032  10.056 -0.3187  0.1430 -0.0921
  908MPD2    H513305   0.487   4.711  10.080 -0.1829  1.4575  3.0544
  908MPD2    N113306   0.453   0.018   9.595  0.3986 -0.0273  0.0799
  908MPD2    H713307   0.367   4.705   9.632  0.0786 -1.0303 -1.7170
  909MPD2     C13308   0.784   2.331  12.082 -0.5514 -0.8491  0.2915
  909MPD2    C113309   0.738   2.419  11.982  0.6383  0.1719 -0.4496
  909MPD2    C213310   0.651   2.525  12.007 -0.6458 -0.3897  0.1802
  909MPD2    C313311   0.597   2.538  12.136 -0.6582 -0.6471 -0.5906
  909MPD2    C413312   0.645   2.455  12.239  0.3469 -0.3959  0.4009
  909MPD2    C513313   0.737   2.355  12.210 -0.2470  0.6502 -0.5057
  909MPD2     H13314   0.619   2.598  11.934 -0.0980  0.9501  1.2744
  909MPD2    H113315   0.608   2.468  12.340 -0.5534  1.1974 -0.1536
  909MPD2    H213316   0.857   2.251  12.080 -2.5940 -2.6643 -1.4721
  909MPD2    H313317   0.775   2.310  12.301 -1.3118 -0.2075 -0.4806
  909MPD2     N13318   0.503   2.641  12.156  1.0638  0.2674 -0.0775
  909MPD2    H513319   0.486   2.703  12.077  2.4014  0.7927  0.0344
  909MPD2    N113320   0.769   2.404  11.844  0.1542  0.1557 -0.3131
  909MPD2    H713321   0.739   2.472  11.775  1.3851 -1.6126 -2.5829
  910MPD2     C13322   1.476   4.222  15.726 -0.3348 -0.5488 -0.2143
  910MPD2    C113323   1.615   4.210  15.704 -0.0147 -0.5695 -0.1447
  910MPD2    C213324   1.665   4.243  15.581  0.3246  0.9176  0.4879
  910MPD2    C313325   1.589   4.292  15.479  0.4872  0.8402 -0.1026
  910MPD2    C413326   1.445   4.291  15.492 -0.3096 -0.5812 -0.1387
  910MPD2    C513327   1.399   4.254  15.616 -0.3841  0.2233 -0.3615
  910MPD2     H13328   1.773   4.248  15.581  0.2482  2.6190  0.6472
  910MPD2    H113329   1.366   4.318  15.423  0.1248  3.4312  0.9279
  910MPD2    H213330   1.421   4.202  15.817 -1.1342  1.0938 -0.3280
  910MPD2    H313331   1.292   4.247  15.633 -0.5563 -0.5607 -1.7457
  910MPD2     N13332   1.647   4.335  15.357  0.4854 -0.1632  0.1300
  910MPD2    H513333   1.586   4.376  15.288 -0.8742 -0.5570  1.1003
  910MPD2    N113334   1.704   4.170  15.807  0.1674  0.3902 -0.5037
  910MPD2    H713335   1.797   4.148  15.773  0.6499  1.0697  0.3853
  911MPD2     C13336   4.326   0.439  16.168  0.2256 -0.2370  0.3916
  911MPD2    C113337   4.406   0.516  16.243  0.3251  0.0114  0.3436
  911MPD2    C213338   4.387   0.652  16.234  0.1877 -0.4537 -0.2714
  911MPD2    C313339   4.308   0.700  16.132  0.2959 -0.5787  0.2166
  911MPD2    C413340   4.237   0.617  16.049 -0.0190  0.3029  0.1074
  911MPD2    C513341   4.241   0.482  16.073  0.0225 -0.1229  0.3292
  911MPD2     H13342   4.440   0.723  16.297  1.1502 -2.5741  1.2740
  911MPD2    H113343   4.171   0.646  15.968  0.4702  0.9636 -0.0568
  911MPD2    H213344   4.325   0.333  16.190  0.9112 -0.7082 -1.7720
  911MPD2    H313345   4.172   0.410  16.031  0.4680  0.7877 -2.0015
  911MPD2     N13346   4.283   0.838  16.113 -0.2795  0.3316 -0.7321
  911MPD2    H513347   4.231   0.867  16.030  0.1919  2.7438 -0.1762
  911MPD2    N113348   4.485   0.448  16.343  1.1012 -0.0710  0.2503
  911MPD2    H713349   4.488   0.347  16.346 -0.0709 -0.1003  0.2112
  912MPD2     C13350   3.836   0.661  15.979  0.1406 -0.4523  0.1807
  912MPD2    C113351   3.875   0.753  16.073 -0.9172  0.1566  0.1092
  912MPD2    C213352   3.924   0.706  16.194 -0.1456  0.5408  0.5723
  912MPD2    C313353   3.913   0.570  16.219 -0.2735  0.2010  0.0234
  912MPD2    C413354   3.854   0.481  16.131 -0.5402  0.4862 -0.1048
  912MPD2    C513355   3.833   0.526  16.011 -0.1826  0.2616 -0.2031
  912MPD2     H13356   3.978   0.765  16.267 -0.5892  0.9289  0.5837
  912MPD2    H113357   3.833   0.377  16.154  2.4020 -0.0632  0.1135
  912MPD2    H213358   3.807   0.692  15.879 -2.6925 -2.3027  0.4315
  912MPD2    H313359   3.815   0.453  15.933 -0.1075  0.8861 -0.8085
  912MPD2     N13360   3.975   0.526  16.345 -0.2367 -0.2930  0.3962
  912MPD2    H513361   4.024   0.602  16.392  0.4650 -0.1278 -0.5969
  912MPD2    N113362   3.890   0.886  16.039 -0.4286  0.1543  0.1410
  912MPD2    H713363   3.875   0.918  15.944  1.5444 -0.7893 -0.4837
  913MPD2     C13364   0.002   1.136  10.520  0.0143  0.7151  0.3437
  913MPD2    C113365   0.076   1.253  10.528  0.7953 -0.6292  0.5617
  913MPD2    C213366   0.090   1.337  10.423  0.1603  0.2451 -0.0373
  913MPD2    C313367   0.032   1.301  10.300 -0.1630 -0.5699 -0.2715
  913MPD2    C413368   4.676   1.188  10.292  0.2991 -1.1875 -0.0288
  913MPD2    C513369   4.664   1.111  10.400  0.5333  0.5510 -0.2462
  913MPD2     H13370   0.145   1.431  10.433 -0.8545  0.6675  1.4439
  913MPD2    H113371   4.654   1.151  10.192  1.3362 -1.4244 -0.1714
  913MPD2    H213372   4.725   1.067  10.603 -1.5637  2.1532  1.5058
  913MPD2    H313373   4.608   1.018  10.397 -1.3950  1.7337 -0.2311
  913MPD2     N13374   0.056   1.372  10.178 -0.6594  0.7181 -0.2765
  913MPD2    H513375   0.019   1.333  10.092  1.1503  1.1891 -1.2754
  913MPD2    N113376   0.139   1.267  10.656 -0.5185  0.2699 -0.0391
  913MPD2    H713377   0.125   1.192  10.723 -1.7326  1.6561  1.2765
  914MPD2     C13378   2.409   1.294  12.000  0.5692  0.3979 -0.6598
  914MPD2    C113379   2.513   1.385  11.970 -0.2276  0.1683 -0.7051
  914MPD2    C213380   2.628   1.373  12.046 -0.2359 -0.4134  0.4455
  914MPD2    C313381   2.639   1.272  12.145  0.5476 -0.0908  0.3631
  914MPD2    C413382   2.546   1.184  12.165  0.2461 -0.1736  0.8753
  914MPD2    C513383   2.430   1.196  12.094 -0.4438 -0.6137 -0.0433
  914MPD2     H13384   2.716   1.435  12.032  1.0751 -2.1147  1.1405
  914MPD2    H113385   2.551   1.099  12.232 -0.6181  0.2401  1.4628
  914MPD2    H213386   2.310   1.318  11.962  0.6616  2.4406  0.3864
  914MPD2    H313387   2.350   1.128  12.122 -0.4741 -0.1852  0.9166
  914MPD2     N13388   2.750   1.287  12.227  0.2935  0.3461  0.7133
  914MPD2    H513389   2.812   1.366  12.211  0.9126 -0.3837 -0.4970
  914MPD2    N113390   2.496   1.491  11.874  0.3124  0.0112 -0.7004
  914MPD2    H713391   2.585   1.537  11.859  0.1904 -0.1113 -1.7964
  915MPD2     C13392   0.647   1.586  16.046 -0.5926 -0.0031  0.4025
  915MPD2    C113393   0.641   1.706  15.982  0.3209 -0.3413 -0.0465
  915MPD2    C213394   0.593   1.817  16.054  0.5552  0.0540 -0.1476
  915MPD2    C313395   0.549   1.802  16.186 -0.0729  0.4832 -0.1721
  915MPD2    C413396   0.551   1.674  16.244  0.4825  0.6656  0.5571
  915MPD2    C513397   0.589   1.566  16.165  0.8175  0.0074 -1.0148
  915MPD2     H13398   0.583   1.909  15.996 -2.8973 -0.5197 -0.4398
  915MPD2    H113399   0.524   1.658  16.348  0.3926  0.4147  0.4937
  915MPD2    H213400   0.699   1.507  15.993 -0.8347  0.3749 -0.3937
  915MPD2    H313401   0.591   1.467  16.210 -0.8951  0.9303  1.0651
  915MPD2     N13402   0.513   1.920  16.258 -0.6371 -0.4555 -0.4780
  915MPD2    H513403   0.493   2.003  16.204 -1.3687  0.1855  0.7986
  915MPD2    N113404   0.693   1.712  15.853  1.2732 -0.4503 -0.4300
  915MPD2    H713405   0.738   1.626  15.824  0.0599 -0.7093 -1.4840
  916MPD2     C13406   3.698   0.081  15.435 -0.1290 -0.1818  0.5648
  916MPD2    C113407   3.728   0.031  15.561  0.5962  0.4195  0.7159
  916MPD2    C213408   3.778   4.631  15.585  0.0332 -0.7020 -0.3290
  916MPD2    C313409   3.803   4.551  15.470  0.2469  0.3149 -0.4402
  916MPD2    C413410   3.778   4.598  15.343 -0.1032 -0.3813 -0.0076
  916MPD2    C513411   3.714   4.719  15.332 -0.4086  0.4252 -0.5827
  916MPD2     H13412   3.797   4.604  15.688  1.0593 -0.3023 -0.4076
  916MPD2    H113413   3.777   4.540  15.252 -1.3575 -0.6118  0.1500
  916MPD2    H213414   3.652   0.178  15.422 -1.5299 -0.9358 -0.1627
  916MPD2    H313415   3.686   0.027  15.233 -1.3209  0.0730 -0.4393
  916MPD2     N13416   3.852   4.419  15.490  0.5219  0.3182 -0.2299
  916MPD2    H513417   3.836   4.380  15.582  0.9069  1.5428  0.3601
  916MPD2    N113418   3.694   0.126  15.656 -0.4017  0.3688  0.5144
  916MPD2    H713419   3.661   0.220  15.634 -0.2668  0.2687 -0.1051
  917MPD2     C13420   4.048   2.103  10.653  0.2029  0.1037  0.0788
  917MPD2    C113421   4.119   2.138  10.762 -0.1760  0.4158  0.4084
  917MPD2    C213422   4.232   2.221  10.756 -0.1961 -0.4389 -0.6142
  917MPD2    C313423   4.273   2.257  10.628 -0.5907 -0.4408  0.0061
  917MPD2    C413424   4.203   2.216  10.519  0.1427 -0.2523 -0.0401
  917MPD2    C513425   4.094   2.132  10.530  0.1755  0.6462  0.4415
  917MPD2     H13426   4.297   2.240  10.840  0.3833  1.7287 -1.5466
  917MPD2    H113427   4.247   2.246  10.424 -1.6320  4.5965  0.6716
  917MPD2    H213428   3.947   2.063  10.654  0.5899 -0.9042 -2.7618
  917MPD2    H313429   4.040   2.111  10.438  0.8923 -0.6076  0.3003
  917MPD2     N13430   4.396   2.324  10.605 -0.2210  0.7545 -0.8924
  917MPD2    H513431   4.418   2.341  10.507 -2.0588 -0.3910 -1.4932
  917MPD2    N113432   4.071   2.101  10.890  0.6110 -0.2784 -0.4396
  917MPD2    H713433   3.996   2.033  10.887 -0.9034  1.4406 -1.9604
  918MPD2     C13434   4.071   2.586  11.820 -0.3605  0.7034 -0.3958
  918MPD2    C113435   4.173   2.491  11.800  0.3702  0.1558 -0.3115
  918MPD2    C213436   4.164   2.408  11.694 -0.0828  0.2631 -0.3104
  918MPD2    C313437   4.066   2.408  11.599 -0.3529 -0.1957 -0.1998
  918MPD2    C413438   3.961   2.503  11.624  0.5228  0.0416  0.3445
  918MPD2    C513439   3.965   2.587  11.732 -0.2492  0.1106 -0.3817
  918MPD2     H13440   4.241   2.332  11.694 -0.1887  0.1616 -2.1983
  918MPD2    H113441   3.874   2.520  11.562  1.8804 -0.2396 -1.6341
  918MPD2    H213442   4.076   2.665  11.894 -0.3313 -0.1034  0.4627
  918MPD2    H313443   3.886   2.661  11.738 -1.6063 -1.2125 -2.0765
  918MPD2     N13444   4.065   2.320  11.491  0.3173 -0.5122  0.1292
  918MPD2    H513445   4.148   2.263  11.482 -0.1840 -1.4739  1.6441
  918MPD2    N113446   4.282   2.462  11.886 -0.1567 -0.1712  0.3290
  918MPD2    H713447   4.344   2.389  11.852 -2.1108 -1.5870 -0.1538
  919MPD2     C13448   4.306   1.280  12.046 -0.2505  0.2302 -0.2499
  919MPD2    C113449   4.390   1.167  12.027 -0.5816 -0.0335 -0.2209
  919MPD2    C213450   4.457   1.146  11.908  0.2374  0.1815 -0.1006
  919MPD2    C313451   4.445   1.240  11.807  0.0072 -0.4404 -0.1850
  919MPD2    C413452   4.363   1.348  11.824  0.9557 -0.3075 -0.4119
  919MPD2    C513453   4.294   1.360  11.943 -0.0057 -0.1736  0.4557
  919MPD2     H13454   4.505   1.050  11.889 -0.4383 -0.0874 -0.4717
  919MPD2    H113455   4.345   1.424  11.749  3.8739  1.4251  0.6636
  919MPD2    H213456   4.236   1.289  12.128  0.2783 -0.2383  0.2521
  919MPD2    H313457   4.220   1.440  11.947 -0.5504 -0.6831  0.4864
  919MPD2     N13458   4.509   1.232  11.680  0.0044 -0.2556 -0.0814
  919MPD2    H513459   4.498   1.308  11.614  2.1719  0.9976  0.9739
  919MPD2    N113460   4.405   1.066  12.124  0.0624 -0.7259  0.9242
  919MPD2    H713461   4.463   0.986  12.102 -1.3681 -1.9072  1.4428
  920MPD2     C13462   4.605   1.628  10.769 -0.2430 -0.0031 -0.6468
  920MPD2    C113463   4.552   1.501  10.753 -0.1703 -0.1599  0.6698
  920MPD2    C213464   4.557   1.404  10.856 -0.5575  0.0554 -0.0417
  920MPD2    C313465   4.616   1.442  10.970  0.0129 -0.6357  0.9287
  920MPD2    C413466   4.663   1.569  10.989  0.2642  0.3022  0.1082
  920MPD2    C513467   4.667   1.659  10.888 -0.0204 -0.1984  0.3777
  920MPD2     H13468   4.524   1.305  10.826  1.0358 -0.1508 -1.1149
  920MPD2    H113469   4.708   1.599  11.083 -0.0248 -0.6055  0.5351
  920MPD2    H213470   4.609   1.703  10.691 -1.5165 -0.7410 -1.4187
  920MPD2    H313471   4.712   1.757  10.898 -2.1047  0.9230 -1.2976
  920MPD2     N13472   4.620   1.343  11.073 -0.3338  0.0134  0.3367
  920MPD2    H513473   4.591   1.250  11.046 -1.5669  0.4985 -0.0040
  920MPD2    N113474   4.493   1.466  10.626 -0.5192 -0.7577  0.4229
  920MPD2    H713475   4.461   1.372  10.605  0.4834 -0.7298 -1.1546
  921MPD2     C13476   0.550   0.651  16.634 -0.2227 -0.3373  0.0371
  921MPD2    C113477   0.537   0.522  16.664 -0.0338  0.4113  0.3937
  921MPD2    C213478   0.408   0.486  16.695  0.0367  0.0474  0.1509
  921MPD2    C313479   0.303   0.577  16.718  0.4042  0.4618  0.8653
  921MPD2    C413480   0.329   0.707  16.691  0.6686  0.1656  0.0029
  921MPD2    C513481   0.456   0.744  16.658 -0.3004 -0.3019  0.2979
  921MPD2     H13482   0.382   0.382  16.678 -0.8788  0.1921  0.6717
  921MPD2    H113483   0.265   0.790  16.718  0.8946 -0.1961  1.6080
  921MPD2    H213484   0.643   0.692  16.595  0.6409 -0.6116  1.7828
  921MPD2    H313485   0.479   0.849  16.644 -1.6060  0.2107  1.9732
  921MPD2     N13486   0.170   0.545  16.754  0.3099  0.2554 -0.1324
  921MPD2    H513487   0.102   0.616  16.727  0.0120  0.1597  0.3732
  921MPD2    N113488   0.648   0.441  16.640 -0.7755  0.5888  0.1372
  921MPD2    H713489   0.723   0.483  16.586 -0.4803 -0.6947 -0.4358
  922MPD2     C13490   1.348   2.741  16.947 -0.3611  0.2669 -0.6415
  922MPD2    C113491   1.244   2.800  17.012  0.1294 -0.1212 -0.9450
  922MPD2    C213492   1.149   2.715  17.075 -0.0369  0.5704 -0.1452
  922MPD2    C313493   1.169   2.579  17.080  0.0614  0.7647  0.5485
  922MPD2    C413494   1.278   2.525  17.022 -0.3730  0.9926 -0.5985
  922MPD2    C513495   1.369   2.605  16.957 -0.1337  0.2609 -0.3285
  922MPD2     H13496   1.058   2.752  17.120 -0.4390 -2.2292  1.3706
  922MPD2    H113497   1.306   2.420  17.015  0.0824  1.0286  0.5726
  922MPD2    H213498   1.414   2.797  16.881  0.7365 -0.3465 -0.0822
  922MPD2    H313499   1.457   2.567  16.906  1.4614  2.3518  0.8739
  922MPD2     N13500   1.062   2.502  17.127  0.1356  0.2418 -0.4058
  922MPD2    H513501   0.979   2.557  17.142 -0.0529  0.6151 -2.7631
  922MPD2    N113502   1.219   2.938  17.005 -0.0853 -0.5538  0.4898
  922MPD2    H713503   1.128   2.970  17.035 -0.5916 -1.2554 -0.2900
  923MPD2     C13504   2.687   0.005   8.753  1.0514 -0.0058 -0.0215
  923MPD2    C113505   2.749   0.103   8.828  0.3202 -0.0458  0.0044
  923MPD2    C213506   2.851   0.066   8.918 -0.8768 -0.6571  0.1213
  923MPD2    C313507   2.890   4.656   8.929  0.6664  0.8765  0.1079
  923MPD2    C413508   2.821   4.564   8.863 -0.0221  0.5678 -0.6417
  923MPD2    C513509   2.721   4.597   8.780 -0.3714 -0.6968 -0.2042
  923MPD2     H13510   2.911   0.140   8.969 -1.5578  1.5115 -2.1849
  923MPD2    H113511   2.849   4.460   8.876 -1.3503 -0.0611 -2.7748
  923MPD2    H213512   2.600   0.026   8.691  0.4971 -0.6670  0.5321
  923MPD2    H313513   2.665   4.521   8.727  0.3870 -1.8103  0.5919
  923MPD2     N13514   2.991   4.608   9.017  0.7267 -0.2355  0.6149
  923MPD2    H513515   2.985   4.508   9.031  1.3062 -0.2364  0.8846
  923MPD2    N113516   2.701   0.233   8.805  0.1326  0.0543  0.2707
  923MPD2    H713517   2.622   0.238   8.742 -0.7987  0.6613  1.4978
  924MPD2     C13518   2.945   3.776  15.797 -0.3015 -0.0973 -0.2679
  924MPD2    C113519   2.909   3.882  15.878  0.2498  0.1504  0.2368
  924MPD2    C213520   2.811   3.958  15.832  0.9728  0.8111  0.2614
  924MPD2    C313521   2.730   3.925  15.723  0.0937 -0.4462  0.5099
  924MPD2    C413522   2.779   3.827  15.638  0.3315  0.1318  0.2553
  924MPD2    C513523   2.879   3.751  15.679 -0.3713 -0.1493  0.1025
  924MPD2     H13524   2.773   4.040  15.893  1.3815  1.5098 -0.4256
  924MPD2    H113525   2.718   3.799  15.552  1.9414 -0.8154 -0.5995
  924MPD2    H213526   3.025   3.706  15.821 -0.3392 -0.4864 -1.2764
  924MPD2    H313527   2.911   3.669  15.615  0.6334  0.3222 -0.0032
  924MPD2     N13528   2.618   4.008  15.701 -0.1284  0.4382 -0.1086
  924MPD2    H513529   2.605   4.089  15.761 -0.5426  1.3413 -1.4296
  924MPD2    N113530   2.972   3.909  16.001 -0.2622 -0.1456 -0.6320
  924MPD2    H713531   2.944   3.994  16.049 -0.5457 -0.4356 -0.2826
  925MPD2     C13532   1.514   0.758  14.352 -0.5870 -0.5063 -0.1204
  925MPD2    C113533   1.422   0.656  14.331  0.9129  0.3411 -0.0533
  925MPD2    C213534   1.363   0.590  14.444 -0.4596 -0.2253  0.1003
  925MPD2    C313535   1.402   0.621  14.572  0.7007 -0.2174 -0.7393
  925MPD2    C413536   1.503   0.713  14.593  0.0057  0.6920 -0.7280
  925MPD2    C513537   1.563   0.776  14.484 -0.0925 -0.9727 -0.1152
  925MPD2     H13538   1.282   0.521  14.427  0.0673 -0.5832 -0.9880
  925MPD2    H113539   1.541   0.722  14.694  0.6851 -0.1784 -0.9107
  925MPD2    H213540   1.560   0.824  14.280  1.7295  0.1467  1.9486
  925MPD2    H313541   1.647   0.841  14.506 -1.2370  0.0743  1.1361
  925MPD2     N13542   1.330   0.576  14.690 -0.1659  0.6228 -0.7929
  925MPD2    H513543   1.366   0.609  14.779 -0.2601  1.6804 -1.1421
  925MPD2    N113544   1.369   0.629  14.199 -0.0786  0.1284 -0.5079
  925MPD2    H713545   1.302   0.552  14.198 -1.4094  1.2838  0.4940
  926MPD2     C13546   0.411   4.218  13.224  0.8203 -0.3482 -0.0948
  926MPD2    C113547   0.281   4.231  13.168 -1.3873 -0.2505  0.4904
  926MPD2    C213548   0.272   4.285  13.039  0.2316  0.2328 -0.0255
  926MPD2    C313549   0.388   4.320  12.979  0.8748 -0.2973  0.3045
  926MPD2    C413550   0.506   4.313  13.042  0.2909  0.2955 -0.5761
  926MPD2    C513551   0.524   4.256  13.165 -0.0618  0.2029 -0.1355
  926MPD2     H13552   0.176   4.296  12.991  0.0528  0.2052  0.3289
  926MPD2    H113553   0.593   4.347  12.987  1.1068 -1.8700 -0.6123
  926MPD2    H213554   0.419   4.173  13.322  0.4208  0.9385  0.5394
  926MPD2    H313555   0.622   4.252  13.211 -0.4132  2.8134  0.7858
  926MPD2     N13556   0.391   4.371  12.847  0.1079  0.4003 -0.0137
  926MPD2    H513557   0.478   4.413  12.816  2.2382 -2.0269  2.7079
  926MPD2    N113558   0.160   4.200  13.237  0.4263  0.3634 -0.5782
  926MPD2    H713559   0.074   4.230  13.191  0.3959 -0.3340 -0.9696
  927MPD2     C13560   0.790   1.957   1.288 -0.0781  0.1383  0.1694
  927MPD2    C113561   0.670   2.014   1.243  0.0497 -0.3547  0.0959
  927MPD2    C213562   0.595   1.932   1.169  0.9629 -0.5649  0.5063
  927MPD2    C313563   0.636   1.809   1.114 -0.0855  0.2996 -0.1588
  927MPD2    C413564   0.754   1.763   1.164 -0.7340 -0.2632 -0.2622
  927MPD2    C513565   0.832   1.831   1.255  0.2681 -0.1123  0.0062
  927MPD2     H13566   0.498   1.974   1.144  2.5305  2.5833 -0.2915
  927MPD2    H113567   0.796   1.668   1.132  1.3469  0.4263  0.4559
  927MPD2    H213568   0.861   2.006   1.353 -1.0107  0.7339  0.7289
  927MPD2    H313569   0.926   1.788   1.286 -1.2668  0.6140  5.7440
  927MPD2     N13570   0.554   1.737   1.025 -0.1534 -0.1640  0.2623
  927MPD2    H513571   0.469   1.785   0.995  0.1204 -1.7102 -3.0222
  927MPD2    N113572   0.618   2.138   1.295  0.0122 -0.3498 -0.2814
  927MPD2    H713573   0.675   2.174   1.371 -0.0039 -0.3153 -0.2858
  928MPD2     C13574   2.358   0.452   0.587 -0.1028 -0.6585  0.4945
  928MPD2    C113575   2.473   0.443   0.665 -0.6863  0.4092  1.1890
  928MPD2    C213576   2.588   0.419   0.597  0.0127 -0.0165  0.7763
  928MPD2    C313577   2.598   0.419   0.457  0.0720  0.0764 -0.1942
  928MPD2    C413578   2.480   0.414   0.382  0.2891  0.3019 -0.8869
  928MPD2    C513579   2.358   0.430   0.444  0.4437 -0.2591 -0.5466
  928MPD2     H13580   2.677   0.397   0.654 -0.7322 -2.8257  0.8801
  928MPD2    H113581   2.477   0.421   0.274 -2.9848 -1.8704 -0.9263
  928MPD2    H213582   2.260   0.461   0.631 -1.8170  0.3769 -3.5603
  928MPD2    H313583   2.269   0.419   0.383 -0.5752 -0.3333  0.9347
  928MPD2     N13584   2.719   0.415   0.390  0.3305  0.3554 -0.0488
  928MPD2    H513585   2.719   0.422   0.289  2.1966 -0.2656 -0.1049
  928MPD2    N113586   2.467   0.465   0.809  0.6828 -0.2939 -0.1901
  928MPD2    H713587   2.374   0.472   0.850  0.1812  1.0172 -1.5611
  929MPD2     C13588   3.196   4.486  10.451  0.4907  0.3550  0.3017
  929MPD2    C113589   3.118   4.387  10.501  0.5168  0.6337 -0.5103
  929MPD2    C213590   3.007   4.342  10.431  0.8469  0.0041 -0.0317
  929MPD2    C313591   2.973   4.401  10.311 -0.2588  0.2169  0.3934
  929MPD2    C413592   3.051   4.504  10.262 -0.0980  0.1318  0.4696
  929MPD2    C513593   3.161   4.549  10.332 -0.5329 -0.2768 -0.1107
  929MPD2     H13594   2.947   4.257  10.461  2.3821 -0.7570  0.8860
  929MPD2    H113595   3.017   4.557  10.173  0.5702  0.7503  0.5816
  929MPD2    H213596   3.285   4.513  10.507 -0.1870  2.2706  0.4372
  929MPD2    H313597   3.218   4.624  10.278  0.6753 -1.1818 -0.1058
  929MPD2     N13598   2.851   4.368  10.247  0.3855 -0.1491  0.6137
  929MPD2    H513599   2.817   4.430  10.174  1.9835  0.8327  0.6893
  929MPD2    N113600   3.155   4.345  10.630 -0.8028  0.1507  0.0816
  929MPD2    H713601   3.216   4.407  10.684 -0.0508 -0.1143 -0.4600
  930MPD2     C13602   4.430   1.705  14.091  0.1049  0.9574 -0.4472
  930MPD2    C113603   4.440   1.846  14.072 -0.0817 -0.4028 -0.8434
  930MPD2    C213604   4.402   1.897  13.951 -0.2374  0.3463  0.3910
  930MPD2    C313605   4.353   1.806  13.852 -0.0840  0.6585  0.0806
  930MPD2    C413606   4.360   1.667  13.871 -0.2134 -0.5524  0.5985
  930MPD2    C513607   4.397   1.615  13.992  0.0395  0.4031  0.6988
  930MPD2     H13608   4.429   2.000  13.930  0.0522  0.5771  1.8664
  930MPD2    H113609   4.335   1.598  13.792 -1.2731 -0.0057  0.4488
  930MPD2    H213610   4.468   1.658  14.182  0.2337 -1.5724 -1.8117
  930MPD2    H313611   4.405   1.508  14.005 -0.8899  0.2860  0.3404
  930MPD2     N13612   4.321   1.848  13.728  0.0521  0.3159 -0.5324
  930MPD2    H513613   4.303   1.779  13.656  1.0828 -0.7238  0.2014
  930MPD2    N113614   4.487   1.941  14.167  0.8424 -0.0107 -0.0051
  930MPD2    H713615   4.466   2.038  14.145 -1.4886 -0.6542 -0.6805
  931MPD2     C13616   0.498   2.067   1.823  0.4759 -0.2983 -0.0545
  931MPD2    C113617   0.385   2.088   1.746  0.5055 -0.2635 -0.3136
  931MPD2    C213618   0.295   1.984   1.726 -0.6103 -1.1007  0.5038
  931MPD2    C313619   0.323   1.857   1.772 -0.8196  0.1045 -0.0356
  931MPD2    C413620   0.431   1.842   1.852 -0.0848  0.0315  0.6773
  931MPD2    C513621   0.512   1.949   1.878  0.9206  0.0353 -0.5899
  931MPD2     H13622   0.213   2.001   1.657 -0.3829  0.4753  0.6284
  931MPD2    H113623   0.455   1.741   1.885  3.0272  0.9167  1.1016
  931MPD2    H213624   0.564   2.147   1.857  1.0265 -1.8401  2.5209
  931MPD2    H313625   0.595   1.939   1.946  0.1265 -0.7946  0.2494
  931MPD2     N13626   0.255   1.739   1.735 -0.0738  0.1324 -0.0662
  931MPD2    H513627   0.294   1.650   1.764 -0.3320  0.2343  0.6000
  931MPD2    N113628   0.381   2.217   1.685 -0.0645  0.1204 -0.5033
  931MPD2    H713629   0.461   2.280   1.680 -1.9729  2.4790 -1.3392
  932MPD2     C13630   1.345   0.818  11.015 -0.4034 -0.1315 -0.1492
  932MPD2    C113631   1.442   0.864  10.930  0.0439 -0.9294  0.2627
  932MPD2    C213632   1.521   0.782  10.861  0.3111  0.3559 -0.0642
  932MPD2    C313633   1.508   0.646  10.867 -0.9449  0.5004  0.2707
  932MPD2    C413634   1.401   0.599  10.951 -0.7330 -0.1383  1.1078
  932MPD2    C513635   1.326   0.680  11.030  0.0557 -0.6987 -0.7382
  932MPD2     H13636   1.606   0.824  10.809  0.6014 -0.7055 -0.4532
  932MPD2    H113637   1.378   0.495  10.965 -1.6196  0.1657  1.9237
  932MPD2    H213638   1.290   0.890  11.075 -1.5204 -1.3147  0.2598
  932MPD2    H313639   1.243   0.641  11.088 -0.5905  4.2302  1.5992
  932MPD2     N13640   1.589   0.554  10.805  0.5614 -0.0576 -0.0988
  932MPD2    H513641   1.586   0.461  10.844  0.2351 -0.3733 -0.8799
  932MPD2    N113642   1.485   1.000  10.923  0.7539  0.5822 -0.3554
  932MPD2    H713643   1.574   1.007  10.876  0.5985 -2.5617 -1.1045
  933MPD2     C13644   2.263   1.016   1.195  0.3966 -0.8035 -0.2148
  933MPD2    C113645   2.361   0.943   1.259 -0.5793 -0.0948  0.0645
  933MPD2    C213646   2.421   0.999   1.364  0.0306 -0.7489 -0.0683
  933MPD2    C313647   2.383   1.123   1.415 -1.3164  0.3783  0.5550
  933MPD2    C413648   2.295   1.195   1.348 -0.3598 -0.6279  0.7413
  933MPD2    C513649   2.238   1.142   1.235 -0.5983 -0.0364 -0.2222
  933MPD2     H13650   2.493   0.945   1.424 -0.4710  0.9052  2.0061
  933MPD2    H113651   2.264   1.296   1.375  0.9767 -0.1591  0.5449
  933MPD2    H213652   2.208   0.984   1.107 -1.8916 -0.3263  1.0471
  933MPD2    H313653   2.178   1.213   1.179 -1.0206 -2.0538 -2.3333
  933MPD2     N13654   2.438   1.162   1.540  0.1781 -0.1651  0.0711
  933MPD2    H513655   2.493   1.091   1.588  1.4270 -0.7367 -2.1817
  933MPD2    N113656   2.411   0.818   1.204 -0.7021 -0.2187 -0.3823
  933MPD2    H713657   2.375   0.784   1.115 -2.4709 -1.2219  0.7207
  934MPD2     C13658   3.262   2.820   1.875  1.0086 -0.4616  0.1651
  934MPD2    C113659   3.355   2.743   1.813  0.1425  0.9095 -0.7163
  934MPD2    C213660   3.318   2.650   1.718 -0.5282 -0.1167 -0.3263
  934MPD2    C313661   3.183   2.627   1.700  0.3557 -0.1663 -0.4583
  934MPD2    C413662   3.089   2.704   1.762 -0.2207  0.5896  0.4081
  934MPD2    C513663   3.131   2.794   1.858 -0.0499 -0.0231  0.4758
  934MPD2     H13664   3.398   2.598   1.667 -2.2260 -1.1501 -1.9109
  934MPD2    H113665   2.982   2.690   1.745 -0.6232  1.5308  2.2076
  934MPD2    H213666   3.291   2.896   1.947  0.5092  1.4352 -1.6319
  934MPD2    H313667   3.060   2.856   1.912  1.2672  0.4585  1.6748
  934MPD2     N13668   3.132   2.528   1.613 -0.2047  0.0730 -0.4962
  934MPD2    H513669   3.034   2.537   1.590  0.1821  1.0793 -1.7975
  934MPD2    N113670   3.495   2.749   1.839  0.1098 -0.6728  0.2744
  934MPD2    H713671   3.553   2.679   1.794 -0.1794  0.8175 -2.3810
  935MPD2     C13672   3.630   2.073   0.895  0.2940  0.0646  0.0872
  935MPD2    C113673   3.526   1.990   0.915 -0.7084  0.4646 -0.3414
  935MPD2    C213674   3.419   2.033   0.996  0.2721  0.1891 -0.0682
  935MPD2    C313675   3.412   2.166   1.046  0.3071 -0.3176 -0.6667
  935MPD2    C413676   3.514   2.254   1.010 -0.6766 -0.2455 -0.0174
  935MPD2    C513677   3.623   2.202   0.944  0.4623 -0.1031  0.0873
  935MPD2     H13678   3.344   1.961   1.026 -0.0797 -0.1442 -1.7178
  935MPD2    H113679   3.524   2.361   1.022  1.3492 -0.5164  0.5930
  935MPD2    H213680   3.717   2.045   0.837  0.5392 -1.9148  1.3832
  935MPD2    H313681   3.706   2.267   0.916  2.9341 -3.3071 -0.0315
  935MPD2     N13682   3.314   2.221   1.125 -0.0472 -0.0717 -0.2022
  935MPD2    H513683   3.332   2.318   1.149 -1.2751  0.2801 -0.7373
  935MPD2    N113684   3.534   1.851   0.880 -0.9203  0.5073 -0.4458
  935MPD2    H713685   3.467   1.784   0.918 -0.3550  0.3877  0.3527
  936MPD2     C13686   2.091   3.858  12.102  1.0415  0.5590 -0.2624
  936MPD2    C113687   2.157   3.761  12.170  0.4381  0.8799 -0.4771
  936MPD2    C213688   2.291   3.774  12.190 -0.6733 -0.1034 -0.4905
  936MPD2    C313689   2.358   3.888  12.149 -0.3648  0.3847 -0.1787
  936MPD2    C413690   2.297   3.981  12.069  0.2359  0.3394 -0.5418
  936MPD2    C513691   2.160   3.962  12.050  0.0951 -0.8281 -0.5223
  936MPD2     H13692   2.344   3.697  12.244  0.2985  0.6408 -0.3804
  936MPD2    H113693   2.343   4.068  12.023 -2.2527  0.5735 -2.5911
  936MPD2    H213694   1.991   3.837  12.064  0.4274  0.5312  1.3718
  936MPD2    H313695   2.112   4.035  11.985 -0.0884  0.0302  0.5803
  936MPD2     N13696   2.488   3.923  12.195  0.4664  0.1576 -0.3708
  936MPD2    H513697   2.515   4.019  12.176  2.5345 -0.0921  1.3378
  936MPD2    N113698   2.100   3.646  12.226 -0.2400  0.6230 -0.0211
  936MPD2    H713699   2.166   3.584  12.272 -1.2068  0.9933  1.8599
  937MPD2     C13700   4.561   0.369  12.095 -0.3663  1.0773  0.3905
  937MPD2    C113701   4.539   0.489  12.035 -0.1726 -0.3207 -0.0932
  937MPD2    C213702   4.615   0.526  11.927 -0.8862  0.3865 -0.3125
  937MPD2    C313703   4.701   0.436  11.862  0.1040  0.3887 -0.1076
  937MPD2    C413704   4.715   0.309  11.908  0.3093 -0.1181  0.7242
  937MPD2    C513705   4.643   0.281  12.019  0.4468 -0.4600 -0.6707
  937MPD2     H13706   4.614   0.627  11.888 -0.5747  0.5139  0.0104
  937MPD2    H113707   0.064   0.239  11.872  1.0149 -0.4654  2.8556
  937MPD2    H213708   4.504   0.332  12.179 -0.3133  3.3622  1.4281
  937MPD2    H313709   4.645   0.175  12.043  1.2976 -0.3546 -0.2731
  937MPD2     N13710   0.034   0.486  11.747  0.1285  0.0975 -0.1727
  937MPD2    H513711   0.014   0.581  11.717  2.2363  0.0937 -1.6312
  937MPD2    N113712   4.454   0.592  12.087 -0.4172  0.2691  0.0704
  937MPD2    H713713   4.451   0.682  12.040  0.8615  0.7202  0.8503
  938MPD2     C13714   2.528   1.978   0.620 -0.2303 -0.2339  0.2616
  938MPD2    C113715   2.488   2.056   0.721 -0.6222  0.6827  0.8192
  938MPD2    C213716   2.472   2.001   0.842  0.6652 -0.5899 -0.0142
  938MPD2    C313717   2.499   1.866   0.871  0.2692  0.8755 -0.1019
  938MPD2    C413718   2.538   1.786   0.764 -0.2664  0.9884  0.4608
  938MPD2    C513719   2.556   1.845   0.644  0.1787  1.0923  0.4083
  938MPD2     H13720   2.439   2.061   0.926  0.3230  0.0379 -0.5983
  938MPD2    H113721   2.563   1.681   0.767 -1.6080  0.6428 -0.7338
  938MPD2    H213722   2.530   2.009   0.517 -0.7830  2.9115  1.1988
  938MPD2    H313723   2.607   1.791   0.565 -3.1924  0.9740 -1.6988
  938MPD2     N13724   2.480   1.813   1.003 -0.3686 -0.3047 -0.3233
  938MPD2    H513725   2.436   1.868   1.076  1.4478 -0.2362  0.7143
  938MPD2    N113726   2.469   2.189   0.707 -0.3680  0.0089  0.1611
  938MPD2    H713727   2.459   2.240   0.794  0.1672 -0.0089  0.2335
  939MPD2     C13728   3.653   2.939   1.131 -0.1933 -0.1646 -0.2702
  939MPD2    C113729   3.582   2.996   1.028 -0.6626 -0.3043 -0.2059
  939MPD2    C213730   3.617   2.966   0.900 -0.0614 -0.2123  0.8268
  939MPD2    C313731   3.715   2.871   0.870 -0.0569 -0.7768  0.5759
  939MPD2    C413732   3.779   2.815   0.973  0.3178  0.4602  0.3132
  939MPD2    C513733   3.748   2.848   1.101 -0.2931 -0.0633 -0.3099
  939MPD2     H13734   3.561   3.009   0.817  1.2597  0.3973  0.2394
  939MPD2    H113735   3.844   2.733   0.945 -1.5423 -0.1204 -2.3041
  939MPD2    H213736   3.624   2.966   1.231  0.5434  0.9297 -0.3563
  939MPD2    H313737   3.800   2.800   1.183 -2.3217  1.1412  1.7103
  939MPD2     N13738   3.733   2.851   0.731  0.0688  0.0486  0.5244
  939MPD2    H513739   3.693   2.921   0.670  0.0497 -1.2747 -0.9875
  939MPD2    N113740   3.477   3.087   1.061 -0.2912  0.1270  0.0507
  939MPD2    H713741   3.457   3.100   1.160  0.3827 -2.0409  0.4687
  940MPD2     C13742   2.300   3.287  13.281 -0.0496  0.6163 -0.2734
  940MPD2    C113743   2.389   3.347  13.360  0.3374  0.1748 -0.3406
  940MPD2    C213744   2.519   3.365  13.320 -0.5877  0.0345  0.4307
  940MPD2    C313745   2.557   3.324  13.196  0.0231  0.2348  0.0265
  940MPD2    C413746   2.460   3.277  13.111  0.4174  0.2488  0.0860
  940MPD2    C513747   2.329   3.259  13.151 -0.4989  0.2371  0.1483
  940MPD2     H13748   2.591   3.405  13.391 -0.8629 -0.1833  0.8322
  940MPD2    H113749   2.482   3.266  13.005 -2.1642 -1.3949 -0.2629
  940MPD2    H213750   2.199   3.267  13.315  0.8016 -0.5489  1.5543
  940MPD2    H313751   2.257   3.240  13.073  0.2917 -4.6253  0.6107
  940MPD2     N13752   2.685   3.347  13.142 -0.0815  0.6079  0.1259
  940MPD2    H513753   2.696   3.316  13.047 -2.4446 -0.2684  0.1346
  940MPD2    N113754   2.357   3.384  13.492  0.3160 -0.9726  0.1009
  940MPD2    H713755   2.439   3.408  13.547 -0.2379 -0.3484  0.6434
  941MPD2     C13756   1.657   3.062   9.426  0.1589 -0.3099 -0.0767
  941MPD2    C113757   1.772   3.023   9.491  0.5191  0.5934  0.5121
  941MPD2    C213758   1.799   2.884   9.503  0.6355 -0.1027 -0.2261
  941MPD2    C313759   1.711   2.791   9.446 -0.2364 -0.2368  0.5292
  941MPD2    C413760   1.597   2.832   9.382  0.2358  0.1678 -0.2720
  941MPD2    C513761   1.568   2.968   9.369  0.8170 -0.3185  0.7138
  941MPD2     H13762   1.886   2.848   9.558  2.1510  2.1092 -1.1467
  941MPD2    H113763   1.530   2.751   9.356  1.8916 -0.9308 -1.1089
  941MPD2    H213764   1.625   3.164   9.404  2.3551  0.2983 -0.4873
  941MPD2    H313765   1.474   2.999   9.323  1.3962  1.0731  0.4566
  941MPD2     N13766   1.734   2.651   9.451  0.1140  0.4097  0.7064
  941MPD2    H513767   1.663   2.586   9.419 -0.9911  2.2048 -0.5344
  941MPD2    N113768   1.859   3.119   9.556 -0.5954 -0.5478 -0.3192
  941MPD2    H713769   1.936   3.076   9.606 -1.0351 -1.4520 -0.4296
  942MPD2     C13770   1.401   0.320   9.167  0.4108 -0.2699 -0.1274
  942MPD2    C113771   1.419   0.326   9.028 -0.2308 -0.0374 -0.7147
  942MPD2    C213772   1.539   0.294   8.975  1.0663  0.4175 -0.0004
  942MPD2    C313773   1.648   0.260   9.060  0.4039 -0.0231 -0.3486
  942MPD2    C413774   1.637   0.260   9.196 -0.5166 -0.3335  0.0110
  942MPD2    C513775   1.510   0.285   9.248 -0.2392  0.9216  0.3729
  942MPD2     H13776   1.545   0.306   8.867 -2.8414  2.8203  0.0830
  942MPD2    H113777   1.718   0.239   9.265 -0.3887 -1.8578 -0.5965
  942MPD2    H213778   1.304   0.327   9.215  0.7893 -0.6340  0.6814
  942MPD2    H313779   1.486   0.266   9.352  0.5411  0.9940  0.5636
  942MPD2     N13780   1.772   0.221   9.006 -0.1954  0.2173 -0.4123
  942MPD2    H513781   1.850   0.208   9.070 -0.0766  2.7725 -0.0172
  942MPD2    N113782   1.317   0.379   8.942 -0.4434 -0.4392 -0.0055
  942MPD2    H713783   1.340   0.392   8.844  0.5899 -1.9389  0.0346
  943MPD2     C13784   0.885   2.668   9.222 -0.0817 -0.1722 -0.5373
  943MPD2    C113785   0.816   2.552   9.223 -0.1570 -0.1376 -0.1305
  943MPD2    C213786   0.702   2.544   9.138 -0.5632 -0.1946  0.1707
  943MPD2    C313787   0.666   2.656   9.059 -0.1579 -0.2115 -0.1794
  943MPD2    C413788   0.747   2.769   9.063 -0.6364 -0.1592  0.3386
  943MPD2    C513789   0.843   2.773   9.147  0.2798  0.2382 -0.0362
  943MPD2     H13790   0.642   2.454   9.138 -0.7587 -0.0610 -0.4974
  943MPD2    H113791   0.709   2.857   9.011  0.3224 -0.9722 -1.7502
  943MPD2    H213792   0.979   2.684   9.274 -0.4834 -1.7744  0.6789
  943MPD2    H313793   0.898   2.867   9.150 -2.3887  1.8304 -0.8149
  943MPD2     N13794   0.556   2.659   8.969  0.0345 -0.5089 -0.0200
  943MPD2    H513795   0.538   2.740   8.911  1.0460 -1.0362 -1.0553
  943MPD2    N113796   0.865   2.457   9.316  0.3871 -0.5790  0.1631
  943MPD2    H713797   0.953   2.467   9.366 -0.6759 -0.6241  2.0706
  944MPD2     C13798   0.342   1.790  10.709 -0.1588 -0.0034 -0.2620
  944MPD2    C113799   0.454   1.877  10.711 -0.2801  0.1957 -0.2089
  944MPD2    C213800   0.485   1.938  10.833  0.5321 -0.3430 -0.2001
  944MPD2    C313801   0.402   1.929  10.941  0.3549  1.0282 -0.7625
  944MPD2    C413802   0.288   1.849  10.927 -0.1366 -0.5868 -0.0564
  944MPD2    C513803   0.257   1.787  10.814  0.1358  0.2727  0.9716
  944MPD2     H13804   0.577   1.994  10.843  0.4721 -0.6375  2.1288
  944MPD2    H113805   0.221   1.839  11.012 -1.2380 -0.3907 -0.9168
  944MPD2    H213806   0.304   1.739  10.621  1.6906  2.1329 -2.2919
  944MPD2    H313807   0.179   1.713  10.805  0.5249 -0.2105  1.5246
  944MPD2     N13808   0.426   1.996  11.064 -0.4356  0.3600 -0.0734
  944MPD2    H513809   0.507   2.057  11.068  0.3756 -0.7635  0.5049
  944MPD2    N113810   0.538   1.872  10.596 -0.1459 -0.1295 -0.3826
  944MPD2    H713811   0.512   1.810  10.520  1.8524 -2.1051  0.5575
    1TCq1    O113812   3.581   2.519  13.885 -0.6748  0.3570  0.0790
    1TCq1    C113813   3.692   2.444  13.876 -0.0103 -0.5511 -0.5531
    1TCq1    O213814   3.716   2.373  13.778  0.5613  0.3720 -0.0951
    1TCq1    C213815   3.754   2.425  14.002  0.4596 -0.0399 -0.8603
    1TCq1    C313816   3.806   2.303  14.040 -1.2274  0.9783  0.8837
    1TCq1    C413817   3.845   2.292  14.173  0.0001 -0.2932  1.2521
    1TCq1    C513818   3.861   2.404  14.250  0.3532  0.3507  0.1521
    1TCq1    C613819   3.822   2.524  14.196  0.2556 -0.1633 -0.3291
    1TCq1    C713820   3.764   2.537  14.073  0.1224 -0.0376 -0.2918
    1TCq1    C813821   3.830   2.651  14.268 -0.1799 -0.4345 -0.4169
    1TCq1    O413822   3.933   2.660  14.338 -0.0008 -0.4737  0.0178
    1TCq1    C913823   3.888   2.168  14.215  0.5824  0.2384  0.2726
    1TCq1    O513824   3.946   2.179  14.327 -0.4209 -0.4018  0.0039
    1TCq1    O613825   3.831   2.067  14.161 -0.1452 -0.7575  0.4540
    1TCq1    H113826   3.570   2.554  13.976  0.6176  0.5409  0.1585
    1TCq1    H213827   3.791   2.209  13.988  0.7673  0.6734  0.8640
    1TCq1    H313828   3.895   2.397  14.353 -0.0894 -0.8669  0.2202
    1TCq1    H413829   3.740   2.640  14.051  0.0487  0.3436  1.5686
    2MPD2     C13830   3.564   2.963  14.585  0.4806  0.4962 -0.8858
    2MPD2    C113831   3.484   2.919  14.481 -0.1683 -0.1655  0.0857
    2MPD2    C213832   3.535   2.834  14.385  0.2743 -0.0504 -0.1291
    2MPD2    C313833   3.671   2.795  14.386  0.4011 -0.0982  0.2508
    2MPD2    C413834   3.754   2.843  14.485 -0.0875 -0.0396  0.3255
    2MPD2    C513835   3.696   2.920  14.590  0.1825 -0.2456 -0.0588
    2MPD2     H13836   3.467   2.782  14.318  1.1613 -1.0368 -0.2567
    2MPD2    H113837   3.850   2.803  14.515 -0.0200  0.0322  0.2066
    2MPD2    H213838   3.530   3.030  14.663  0.3931 -0.0276 -0.4754
    2MPD2    H313839   3.743   2.948  14.683 -1.9887  0.7098  0.7632
    2MPD2     N13840   3.708   2.703  14.285 -0.1471  0.2507  0.7733
    2MPD2    H513841   3.627   2.669  14.234 -0.3335 -1.3068  2.1247
    2MPD2    N113842   3.351   2.966  14.481 -0.1213  0.1245  0.1885
    2MPD2    H713843   3.323   3.030  14.556 -0.7226  0.2677 -0.1546
    3TMC2    C113844   3.139   3.011  14.387 -0.4592  0.6280 -0.1109
    3TMC2    C213845   3.151   3.139  14.439 -0.0101 -0.8580 -0.0971
    3TMC2    C313846   3.080   3.242  14.377  0.0844  0.7353 -0.2522
    3TMC2    C413847   3.049   2.981  14.283 -0.5513 -0.5413 -0.0125
    3TMC2    C513848   2.984   3.088  14.226 -0.3045  0.4423 -0.3018
    3TMC2    C613849   2.994   3.219  14.268  0.7534  0.7052 -0.3019
    3TMC2     C13850   3.247   2.923  14.401 -0.1279 -0.3607  0.3023
    3TMC2     O13851   3.236   2.812  14.346  0.3119  0.4583 -0.4791
    3TMC2     H13852   3.228   3.161  14.512  0.0349  3.1314 -1.3134
    3TMC2    H113853   3.037   2.884  14.236 -0.8037 -1.1027  1.2246
    3TMC2    H213854   2.935   3.299  14.224  0.4524  0.4101 -0.4410
    3TMC2    C713855   2.930   3.060  14.100  0.1195  0.1641  0.1098
    3TMC2    C813856   3.081   3.380  14.428 -0.3731  0.1375 -0.0877
    3TMC2    O113857   2.879   2.946  14.087 -0.6632 -0.5356 -0.1894
    3TMC2    O213858   2.989   3.458  14.414  0.4717  0.5190 -0.0947
    3TMC2    O513859   3.189   3.392  14.511  0.5848  0.3779  0.2561
    3TMC2    H513860   3.264   3.334  14.490 -0.4390 -0.9282  0.2093
    4MPD2     C13861   2.203   3.804  13.200  0.1034  0.7454  0.0674
    4MPD2    C113862   2.309   3.814  13.107  0.5206  0.6652 -0.2644
    4MPD2    C213863   2.440   3.796  13.155  0.6275 -0.2839  0.2471
    4MPD2    C313864   2.468   3.783  13.289 -0.2185 -0.0544  0.9992
    4MPD2    C413865   2.360   3.771  13.375  0.1910 -0.0808  0.3274
    4MPD2    C513866   2.226   3.788  13.331  0.5142 -0.0889 -0.4413
    4MPD2     H13867   2.519   3.809  13.083 -0.1106  1.3970 -0.2553
    4MPD2    H113868   2.371   3.753  13.481 -1.1230 -1.4544  0.2331
    4MPD2    H213869   2.099   3.813  13.170  0.0258  1.3463  0.5218
    4MPD2    H313870   2.145   3.782  13.402  1.3702 -1.3583  0.4378
    4MPD2     N13871   2.603   3.763  13.331 -0.2559 -0.0783  0.1241
    4MPD2    H513872   2.684   3.770  13.270 -1.2027 -0.6665 -1.2148
    4MPD2    N113873   2.273   3.834  12.971  0.5187  0.6806 -0.5687
    4MPD2    H713874   2.175   3.828  12.947  0.5393  0.4022 -0.5911
    5TCq2    C113875   2.645   3.716  13.446  0.1169 -0.0259 -0.3861
    5TCq2    O213876   2.587   3.686  13.548  0.4822  0.0149 -0.4972
    5TCq2    C213877   2.788   3.704  13.450  0.3597 -0.2958 -0.2186
    5TCq2    C313878   2.863   3.789  13.376  0.5695  0.2438  0.1759
    5TCq2    C413879   2.996   3.805  13.411  0.2798 -0.3983 -0.1073
    5TCq2    C513880   3.054   3.724  13.504 -0.1097  0.1867 -0.3353
    5TCq2    C613881   2.977   3.637  13.562  0.0788 -0.1804  0.2908
    5TCq2    C713882   2.841   3.626  13.546  0.7834 -0.3391  0.1053
    5TCq2    C813883   3.022   3.519  13.639  0.3896  0.0648 -0.4962
    5TCq2    O413884   3.080   3.539  13.742 -0.0096  0.4342  0.4670
    5TCq2    C913885   3.063   3.923  13.360  0.1517  0.3219  0.0821
    5TCq2    O513886   3.000   4.003  13.286 -0.1274  0.1595  0.1588
    5TCq2    O613887   3.173   3.954  13.417 -0.1594 -0.0772 -0.1599
    5TCq2    H213888   2.820   3.851  13.298 -0.7593 -0.7449  0.1197
    5TCq2    H313889   3.160   3.732  13.525 -0.2532 -0.7860  0.7327
    5TCq2    H413890   2.778   3.569  13.613  0.9722 -0.0670  0.5135
    6MPD1     C13891   0.594   4.327  12.321  0.0443 -0.2378  0.2733
    6MPD1    C113892   0.684   4.390  12.241  0.1444  0.0336  0.3835
    6MPD1    C213893   0.824   4.394  12.279  0.0507 -0.2429  0.2659
    6MPD1    C313894   0.869   4.309  12.385  0.4117 -0.6779 -0.7798
    6MPD1    C413895   0.771   4.232  12.451  0.2117  0.5917  0.1197
    6MPD1    C513896   0.639   4.247  12.418  0.0507 -0.4730 -0.5191
    6MPD1     H13897   0.905   4.452  12.236  0.2698  1.0623  2.4312
    6MPD1    H113898   0.791   4.163  12.532  0.2463  1.5785  0.9588
    6MPD1    H213899   0.487   4.328  12.302  0.1086 -0.1490 -0.0738
    6MPD1    H313900   0.571   4.191  12.480 -0.2662 -1.0826 -1.4208
    6MPD1     N13901   1.003   4.299  12.430 -0.2628  0.0467  0.5690
    6MPD1    H513902   1.014   4.232  12.506  3.7148  0.1130  0.0365
    6MPD1    N113903   0.642   4.476  12.135  0.1886  0.4424 -0.1505
    6MPD1    H613904   0.718   4.484  12.068 -0.3659  2.1277 -0.5660
    6MPD1    H713905   0.548   4.456  12.101  0.6981  0.7153 -1.7435
    7MPD2     C13906   1.485   3.758  12.744  0.3104  0.2301 -0.4501
    7MPD2    C113907   1.545   3.859  12.683 -0.1023  0.0013 -0.2328
    7MPD2    C213908   1.678   3.837  12.649  0.0231  0.0434  0.4596
    7MPD2    C313909   1.755   3.735  12.698 -0.0345 -0.0504 -0.4999
    7MPD2    C413910   1.694   3.649  12.779 -0.2794 -0.3413  0.2567
    7MPD2    C513911   1.555   3.652  12.794 -0.1263  0.1195 -0.2943
    7MPD2     H13912   1.720   3.922  12.597  2.1325 -1.8188 -0.9021
    7MPD2    H113913   1.756   3.575  12.829  0.0334 -1.1556 -1.3616
    7MPD2    H213914   1.381   3.769  12.773  0.3081 -0.2590 -0.2773
    7MPD2    H313915   1.502   3.575  12.849  0.6994 -1.6980 -2.0330
    7MPD2     N13916   1.893   3.727  12.671  0.4251  0.6521 -0.3483
    7MPD2    H513917   1.950   3.677  12.738  1.0218 -1.4495 -2.4396
    7MPD2    N113918   1.488   3.982  12.636 -0.3006  0.0513  0.2398
    7MPD2    H713919   1.545   4.039  12.574 -1.7683  1.6590  0.3414
    8TMC3    C113920   2.103   3.819  12.604 -0.5038 -0.6859 -0.0077
    8TMC3    C213921   2.166   3.801  12.722 -0.4433  0.1542 -0.2060
    8TMC3    C313922   2.288   3.859  12.737 -0.2845 -0.2473 -0.4712
    8TMC3    C413923   2.160   3.890  12.503  0.3248  0.2707 -0.0799
    8TMC3    C513924   2.276   3.957  12.534 -0.0192  0.4256 -0.2319
    8TMC3    C613925   2.346   3.943  12.650 -0.1674  0.3381 -0.0746
    8TMC3     C13926   1.956   3.818  12.586 -0.2606 -0.2977  0.2679
    8TMC3     O13927   1.915   3.879  12.487  0.6015  0.6257 -0.5518
    8TMC3     H13928   2.119   3.752  12.807 -0.9063  0.2557 -0.4000
    8TMC3    H113929   2.116   3.900  12.405  1.6263 -2.8482 -0.9883
    8TMC3    H213930   2.441   3.996  12.659 -0.1897  0.5690 -1.1497
    8TMC3    C713931   2.249   4.096  12.519 -0.3234  0.6785 -0.1012
    8TMC3    C813932   2.349   3.865  12.869 -0.6555 -0.5545 -0.9648
    8TMC3    O113933   2.347   4.173  12.509  0.3263  0.2524  0.6029
    8TMC3    O213934   2.461   3.919  12.877 -0.0692  0.1604  0.2791
    9TMC3    C113935   1.236   4.319  12.456 -0.2800 -0.2908 -0.9179
    9TMC3    C213936   1.355   4.389  12.440  0.5134 -0.2484  0.2446
    9TMC3    C313937   1.462   4.363  12.526 -0.3018  0.5738  0.0363
    9TMC3    C413938   1.234   4.205  12.536  0.0265  0.2551  0.8049
    9TMC3    C513939   1.348   4.168  12.594  0.5572 -0.3598 -0.4316
    9TMC3    C613940   1.462   4.246  12.595 -0.1789  0.2321  0.3156
    9TMC3     C13941   1.114   4.360  12.390 -0.3758 -0.1865  0.2055
    9TMC3     O13942   1.132   4.448  12.309 -0.0377  0.4137  0.1884
    9TMC3     H13943   1.369   4.478  12.379  0.1432 -0.4423 -0.1274
    9TMC3    H113944   1.154   4.132  12.537  0.6744 -0.4855 -1.2100
    9TMC3    H213945   1.538   4.223  12.670  1.4996  0.7670 -1.2308
    9TMC3    C713946   1.361   4.034  12.651  1.2939  0.8376 -0.7820
    9TMC3    C813947   1.590   4.430  12.500 -0.0102  0.0868 -0.5523
    9TMC3    O113948   1.261   3.975  12.694 -0.1930 -0.9706  0.6727
    9TMC3    O213949   1.594   4.546  12.452  0.0249 -0.7731  0.9690
   10MPD2     C13950   2.106   4.367  12.493 -0.0649 -0.7645  0.2467
   10MPD2    C113951   2.047   4.252  12.499 -0.6730 -0.3185  0.3672
   10MPD2    C213952   1.910   4.240  12.495 -0.0920 -0.5547  0.5642
   10MPD2    C313953   1.833   4.354  12.496 -0.9149 -0.0329 -0.3511
   10MPD2    C413954   1.899   4.476  12.491  0.0862 -0.0158 -0.7140
   10MPD2    C513955   2.033   4.486  12.493  0.0806  0.6320 -0.0496
   10MPD2     H13956   1.861   4.143  12.491 -0.6024 -0.2615 -0.2843
   10MPD2    H113957   1.843   4.568  12.502 -0.0863 -0.1809 -0.1653
   10MPD2    H213958   2.213   4.381  12.503  0.2703 -1.5060 -2.3035
   10MPD2    H313959   2.081   4.583  12.493  1.0490  0.1551 -1.7594
   10MPD2     N13960   1.694   4.340  12.512  0.0457  0.1418  0.1604
   10MPD2    H513961   1.666   4.245  12.537 -0.8445  0.0196 -1.3357
   10MPD2    N113962   2.112   4.122  12.514 -0.0046  0.2910 -0.7775
   10MPD2    H713963   2.051   4.041  12.510  0.3813 -0.1665  2.6649
   11MPD2     C13964   2.851   3.071  13.815  0.0801 -0.2358 -0.2647
   11MPD2    C113965   2.934   3.170  13.876 -1.1886 -0.1381  1.1693
   11MPD2    C213966   2.969   3.273  13.796  0.4381  0.2511  0.1580
   11MPD2    C313967   2.928   3.293  13.669 -0.3404 -0.1119  0.1129
   11MPD2    C413968   2.852   3.193  13.612 -0.5265  0.8958  0.1943
   11MPD2    C513969   2.811   3.080  13.685 -0.0923  0.3818 -0.3533
   11MPD2     H13970   3.034   3.343  13.847 -3.8377  3.3710  1.2937
   11MPD2    H113971   2.819   3.198  13.509  1.7037 -1.6879 -0.6210
   11MPD2    H213972   2.816   2.987  13.873 -2.5018 -0.4103 -2.0856
   11MPD2    H313973   2.760   2.997  13.637 -0.0036 -0.0467  0.2871
   11MPD2     N13974   2.957   3.406  13.594 -0.6582  0.2964  0.5718
   11MPD2    H513975   2.909   3.417  13.505  2.1981 -0.7201 -1.1299
   11MPD2    N113976   2.970   3.160  14.011  0.1381  0.7365  0.4653
   11MPD2    H713977   3.031   3.235  14.043  0.0419  1.2035 -0.4386
    1MPD1     C13978   0.716   0.937  17.089  0.1034 -0.0234  0.1219
    1MPD1    C113979   0.704   0.829  17.009 -0.2492 -0.2238  0.5636
    1MPD1    C213980   0.766   0.834  16.884  0.4651 -0.0527 -0.8607
    1MPD1    C313981   0.826   0.948  16.837  0.3783 -0.4711  0.2464
    1MPD1    C413982   0.823   1.064  16.913  0.4206 -0.5109 -0.3664
    1MPD1    C513983   0.769   1.055  17.043  0.7722 -1.0113  1.0446
    1MPD1     H13984   0.769   0.738  16.833 -2.5808 -1.0603  0.8264
    1MPD1    H113985   0.864   1.156  16.872  0.1020  0.1129  0.6984
    1MPD1    H213986   0.686   0.949  17.192 -1.6373  0.2043 -0.4145
    1MPD1    H313987   0.756   1.143  17.105  1.5388 -0.1311 -0.0398
    1MPD1     N13988   0.899   0.957  16.713  0.4102 -0.3841  0.0957
    1MPD1    H513989   0.936   1.048  16.688 -0.7067  0.0187 -0.0939
    1MPD1    N113990   0.664   0.711  17.063  0.2836 -0.3505 -0.4807
    1MPD1    H613991   0.585   0.726  17.126  1.7306  1.0808  0.9841
    1MPD1    H713992   0.627   0.643  16.997 -1.0065 -0.8312  0.7239
    2MPD1     C13993   1.310   1.658  16.548 -0.6284  0.1183 -0.0861
    2MPD1    C113994   1.177   1.625  16.531 -0.4632 -0.0240 -0.4236
    2MPD1    C213995   1.147   1.497  16.537 -0.0688  0.3249  0.1282
    2MPD1    C313996   1.239   1.401  16.517 -0.2678  0.5695 -0.4251
    2MPD1    C413997   1.371   1.432  16.522 -0.0534 -0.3572 -0.1623
    2MPD1    C513998   1.403   1.563  16.545 -0.2767  0.2257 -0.3506
    2MPD1     H13999   1.042   1.479  16.517 -1.1852  2.9786  3.6041
    2MPD1    H114000   1.444   1.352  16.528 -1.6112 -1.7739  0.0729
    2MPD1    H214001   1.346   1.759  16.561  1.0485 -0.4162 -0.5968
    2MPD1    H314002   1.507   1.589  16.562 -0.2916  0.2502 -0.2965
    2MPD1     N14003   1.201   1.259  16.515  0.1430 -0.3356  0.2281
    2MPD1    H514004   1.113   1.233  16.559 -0.0951 -0.0750 -0.0960
    2MPD1    N114005   1.079   1.727  16.543 -0.2203  0.4270  0.1735
    2MPD1    H614006   1.112   1.821  16.519  0.1723 -0.0766 -1.2300
    2MPD1    H714007   0.985   1.704  16.512  0.2947 -0.0259 -1.0528
    3TMC3    C114008   1.207   1.030  16.448  0.2093 -0.8825  0.6325
    3TMC3    C214009   1.234   0.948  16.347 -0.4050  0.0210  0.2233
    3TMC3    C314010   1.151   0.835  16.330  0.0173  0.3032 -0.1119
    3TMC3    C414011   1.109   1.006  16.544  0.6412 -0.5365 -0.7742
    3TMC3    C514012   1.028   0.893  16.529 -0.4781  0.1931  0.1376
    3TMC3    C614013   1.046   0.811  16.420  0.0274 -0.0930  0.2020
    3TMC3     C14014   1.270   1.164  16.443 -0.2971  0.0623 -0.1018
    3TMC3     O14015   1.368   1.177  16.373  0.7670  0.1505  0.2213
    3TMC3     H14016   1.314   0.975  16.279  0.7503 -1.8987  0.7953
    3TMC3    H114017   1.116   1.062  16.636 -0.6920 -2.7735  0.7051
    3TMC3    H214018   0.991   0.718  16.410 -1.0854  0.7466 -1.3303
    3TMC3    C714019   0.934   0.850  16.631  0.4340 -0.0562 -0.4314
    3TMC3    C814020   1.174   0.773  16.201  0.1843 -0.9328 -0.4819
    3TMC3    O114021   0.890   0.737  16.631 -0.0691  0.2372  0.1845
    3TMC3    O214022   1.280   0.792  16.147  0.1607  0.4913  0.3876
    4MPD1     C14023   1.041   0.500  15.780  0.8521 -0.4767 -0.1432
    4MPD1    C114024   0.931   0.540  15.844  0.5908  0.8910 -0.0170
    4MPD1    C214025   0.948   0.599  15.967 -0.8622 -0.3802  0.1982
    4MPD1    C314026   1.069   0.629  16.027  0.6921  0.0387 -0.4225
    4MPD1    C414027   1.178   0.584  15.956  0.1683  0.1215  0.0178
    4MPD1    C514028   1.163   0.522  15.836 -0.2219 -0.3458  0.3439
    4MPD1     H14029   0.855   0.628  16.014 -0.9499 -2.2599  1.1775
    4MPD1    H114030   1.278   0.593  15.997 -0.3009 -1.1357  1.4289
    4MPD1    H214031   1.042   0.447  15.685  1.8954  0.0052 -0.3997
    4MPD1    H314032   1.249   0.479  15.785 -1.0563 -2.1937  0.4973
    4MPD1     N14033   1.072   0.694  16.151 -0.3649 -0.1349 -0.2872
    4MPD1    H514034   0.987   0.705  16.206 -0.6064  1.1216 -0.8888
    4MPD1    N114035   0.810   0.547  15.774  0.4273 -0.1374 -0.0999
    4MPD1    H614036   0.723   0.540  15.826  0.6723 -1.6056  0.1171
    4MPD1    H714037   0.811   0.496  15.686 -6.1612  1.6335 -1.2067
    1TCq1    O114038   1.968   0.900  10.983  0.1523 -0.2473 -0.0193
    1TCq1    C114039   1.849   0.846  11.008 -0.0463 -0.2669  0.0776
    1TCq1    O214040   1.763   0.914  11.062  0.2440  0.2802 -0.2311
    1TCq1    C214041   1.878   0.705  11.045  0.1847  0.0385 -0.3915
    1TCq1    C314042   1.780   0.624  11.096  0.4862  0.3893 -0.1049
    1TCq1    C414043   1.793   0.490  11.116  0.8628 -0.4390 -0.1193
    1TCq1    C514044   1.922   0.462  11.149  0.3541  0.0085 -0.0874
    1TCq1    C614045   2.026   0.538  11.100 -0.0534  0.5868  0.3366
    1TCq1    C714046   2.008   0.660  11.040 -0.0043  0.4960 -0.7682
    1TCq1    C814047   2.156   0.511  11.136 -0.0884  0.7714  0.9571
    1TCq1    O414048   2.245   0.525  11.052 -0.1958 -0.4725 -0.0677
    1TCq1    C914049   1.705   0.430  11.216 -0.4024 -0.6731  0.3423
    1TCq1    O514050   1.612   0.359  11.167 -0.1841  0.5550  0.2213
    1TCq1    O614051   1.757   0.414  11.336  0.5216  0.3879  0.6940
    1TCq1    H114052   2.017   0.845  10.918 -2.2961  0.4151 -2.4112
    1TCq1    H214053   1.680   0.666  11.093 -0.2598 -1.3045  0.9848
    1TCq1    H314054   1.943   0.368  11.198  2.3510 -0.4544 -1.8177
    1TCq1    H414055   2.095   0.719  11.013  1.3500 -0.2261  2.0677
    2MPD1     C14056   2.475   0.239  11.429 -0.4791 -0.3768 -0.2282
    2MPD1    C114057   2.371   0.275  11.507  0.0765 -0.4697 -0.0187
    2MPD1    C214058   2.271   0.351  11.450 -0.0233  0.3162  0.1947
    2MPD1    C314059   2.284   0.402  11.318 -0.3228 -0.4130 -0.2252
    2MPD1    C414060   2.396   0.362  11.241 -0.4340  0.5365 -0.0739
    2MPD1    C514061   2.485   0.280  11.295 -0.5267  0.2557 -0.0039
    2MPD1     H14062   2.184   0.383  11.505 -1.9001 -2.0104 -1.4223
    2MPD1    H114063   2.408   0.386  11.136 -0.0764 -0.4661 -0.2594
    2MPD1    H214064   2.549   0.173  11.473 -0.4258  0.0155  0.2731
    2MPD1    H314065   2.566   0.225  11.248 -0.6221  0.2508 -0.1643
    2MPD1     N14066   2.171   0.470  11.264  0.5453 -0.1360  0.2537
    2MPD1    H514067   2.088   0.479  11.321  1.8128  0.8010  1.9581
    2MPD1    N114068   2.351   0.227  11.636  0.3524  0.0022  0.1490
    2MPD1    H614069   2.307   0.291  11.702 -0.5485  0.5243 -0.9581
    2MPD1    H714070   2.434   0.185  11.678  1.3176  0.5055 -1.2734
    1TCq1    O114071   1.528   0.839   1.335 -0.1700  0.1997 -0.8167
    1TCq1    C114072   1.634   0.833   1.425  0.0679  0.6519 -0.4928
    1TCq1    O214073   1.682   0.929   1.489 -0.5115  0.2605 -0.1816
    1TCq1    C214074   1.694   0.697   1.430 -0.1305  0.6771  0.0951
    1TCq1    C314075   1.648   0.599   1.352  0.1137 -0.5349  0.0223
    1TCq1    C414076   1.691   0.467   1.371  0.3128 -0.3710  0.5713
    1TCq1    C514077   1.791   0.439   1.460  0.0372  0.1867  0.5919
    1TCq1    C614078   1.823   0.541   1.547  0.2636  0.3581  0.1243
    1TCq1    C714079   1.775   0.671   1.531 -0.4967 -0.1875  0.3276
    1TCq1    C814080   1.937   0.518   1.636 -0.3920  0.2980  0.3700
    1TCq1    O414081   2.006   0.420   1.603 -0.1742  0.3736  0.2983
    1TCq1    C914082   1.676   0.386   1.253 -0.3473 -1.0593 -0.4389
    1TCq1    O514083   1.600   0.425   1.165  0.3068 -0.2251 -0.3680
    1TCq1    O614084   1.727   0.270   1.249  0.1957 -0.1743  0.1841
    1TCq1    H114085   1.512   0.746   1.310  0.2237 -1.0376  3.6081
    1TCq1    H214086   1.610   0.619   1.252  0.2579 -0.7974 -0.0853
    1TCq1    H314087   1.853   0.351   1.453  2.3437  1.7043  1.8479
    1TCq1    H414088   1.808   0.752   1.596 -0.8474  0.9642 -0.9251
    2MPD1     C14089   2.172   0.553   2.084  0.0242 -0.0545  0.5283
    2MPD1    C114090   2.069   0.649   2.084 -0.1106  0.7427 -0.2459
    2MPD1    C214091   1.980   0.639   1.980  0.0207 -0.0253  0.7792
    2MPD1    C314092   2.010   0.573   1.860 -0.1028 -0.5948 -0.2798
    2MPD1    C414093   2.123   0.500   1.856  0.6080 -0.0450 -0.4664
    2MPD1    C514094   2.200   0.494   1.969 -0.8021 -0.0670  0.4313
    2MPD1     H14095   1.897   0.708   1.982 -0.3223 -0.4469  1.0235
    2MPD1    H114096   2.165   0.456   1.766 -0.8862 -1.0822 -0.6423
    2MPD1    H214097   2.249   0.552   2.162  0.3478  1.9860  0.2324
    2MPD1    H314098   2.297   0.446   1.969 -1.2721 -1.0174  0.1459
    2MPD1     N14099   1.920   0.579   1.755 -0.0107 -0.0976 -0.0155
    2MPD1    H514100   1.845   0.645   1.770 -0.4107 -1.1974  2.8206
    2MPD1    N114101   2.039   0.716   2.205  0.4834 -0.0593  0.0055
    2MPD1    H614102   1.984   0.800   2.189 -0.9456 -0.6803  1.6043
    2MPD1    H714103   2.127   0.735   2.252  0.6880 -1.2374  0.1011
    1MPD1     C14104   3.260   0.147  12.363 -0.7560  0.2564  0.2237
    1MPD1    C114105   3.372   0.112  12.303 -0.0581  0.6280  0.4881
    1MPD1    C214106   3.463   0.204  12.256 -0.5112  0.4950 -0.0656
    1MPD1    C314107   3.426   0.337  12.252  0.5755 -0.0236 -0.1138
    1MPD1    C414108   3.301   0.368  12.296  0.5088 -0.2299 -0.5593
    1MPD1    C514109   3.222   0.279  12.358 -0.9151 -0.1567  0.3112
    1MPD1     H14110   3.564   0.171  12.234 -0.3502  0.4416  0.7525
    1MPD1    H114111   3.257   0.468  12.297  0.4088 -0.2734 -0.5475
    1MPD1    H214112   3.193   0.068  12.394  0.9164 -1.6385 -1.0179
    1MPD1    H314113   3.128   0.301  12.408 -1.0753  1.3094 -0.6614
    1MPD1     N14114   3.518   0.433  12.194  0.1522  0.1640  0.4941
    1MPD1    H514115   3.608   0.396  12.165  0.0224  0.1971  0.0608
    1MPD1    N114116   3.415   4.700  12.296  0.5806 -0.1091  0.1569
    1MPD1    H614117   3.489   4.677  12.230  1.1176 -2.8110  1.6945
    1MPD1    H714118   3.342   4.629  12.305 -0.1263  0.4414 -1.3144
    2MPD1     C14119   3.465   1.186  11.201  0.9349 -0.0687  0.6224
    2MPD1    C114120   3.355   1.127  11.139 -0.7424 -0.2529 -0.1216
    2MPD1    C214121   3.336   0.984  11.150 -0.1391  0.9572 -0.2582
    2MPD1    C314122   3.433   0.908  11.222  0.8494 -0.7478  0.5532
    2MPD1    C414123   3.544   0.967  11.280 -0.6486 -0.4618  0.1263
    2MPD1    C514124   3.552   1.104  11.264 -0.3338  0.1767 -0.7945
    2MPD1     H14125   3.264   0.935  11.086  1.3293 -0.2018 -1.0123
    2MPD1    H114126   3.616   0.906  11.334  2.4177  0.8514 -2.4628
    2MPD1    H214127   3.501   1.287  11.186  3.0978 -1.0190 -0.6245
    2MPD1    H314128   3.639   1.152  11.308  0.0123  0.3193 -1.6381
    2MPD1     N14129   3.431   0.770  11.227  0.3057  0.1935 -0.1874
    2MPD1    H514130   3.490   0.727  11.298 -2.7481 -0.5452  1.9024
    2MPD1    N114131   3.266   1.203  11.065 -0.1774 -0.2885  0.3387
    2MPD1    H614132   3.172   1.166  11.079 -0.0656 -0.9153 -0.5566
    2MPD1    H714133   3.264   1.300  11.096  0.8837 -0.7440  1.8569
    3MPD1     C14134   3.478   0.134  10.459 -0.4976 -0.4398 -0.8731
    3MPD1    C114135   3.601   0.189  10.508  0.9231 -0.0097 -0.4436
    3MPD1    C214136   3.603   0.235  10.640 -0.1321 -0.0903 -0.1950
    3MPD1    C314137   3.494   0.222  10.719 -0.8566 -0.1904 -0.2801
    3MPD1    C414138   3.382   0.153  10.671 -0.4891  0.6573 -0.0504
    3MPD1    C514139   3.383   0.097  10.544  0.3991 -0.0748 -0.3368
    3MPD1     H14140   3.682   0.291  10.688  2.2996 -3.4322 -0.2713
    3MPD1    H114141   3.288   0.151  10.725 -0.0895 -2.7537  0.5298
    3MPD1    H214142   3.471   0.103  10.355  2.1243 -2.2696 -0.5084
    3MPD1    H314143   3.290   0.070  10.497  1.3922 -1.2913 -1.5866
    3MPD1     N14144   3.499   0.288  10.849  0.2094  0.0536 -0.9784
    3MPD1    H514145   3.584   0.333  10.882  0.1728 -1.4271  1.1725
    3MPD1    N114146   3.718   0.187  10.426  0.5378  0.1795 -0.2027
    3MPD1    H614147   3.795   0.239  10.466 -0.6429  1.8395 -0.0598
    3MPD1    H714148   3.700   0.211  10.329  2.8214  1.0689 -0.4027
    4MPD2     C14149   3.805   1.180  11.922  0.5194 -0.0738  0.1113
    4MPD2    C114150   3.886   1.073  11.960 -1.1506 -0.7480 -0.6437
    4MPD2    C214151   3.988   1.044  11.878 -0.1435  0.1018  0.1760
    4MPD2    C314152   4.023   1.118  11.767  0.8486 -0.7958 -0.1250
    4MPD2    C414153   3.959   1.234  11.744 -0.5649  0.4287 -0.0080
    4MPD2    C514154   3.850   1.264  11.822  0.7804 -0.0167 -0.4529
    4MPD2     H14155   4.049   0.957  11.903  1.3153  0.9744 -0.3653
    4MPD2    H114156   3.996   1.303  11.668  0.3201 -1.2493 -1.0928
    4MPD2    H214157   3.722   1.209  11.986 -0.8685 -2.1530 -0.7129
    4MPD2    H314158   3.786   1.350  11.812  0.3035 -0.3285 -0.0788
    4MPD2     N14159   4.136   1.070  11.690  0.8920  0.5021  0.0935
    4MPD2    H514160   4.175   0.986  11.731 -0.1328  0.4817  1.0291
    4MPD2    N114161   3.861   0.988  12.072 -0.0103  0.1023 -0.3362
    4MPD2    H714162   3.919   0.905  12.067 -0.7588 -0.5011  0.8516
    5TMC3    C114163   3.716   0.843  12.181  0.2072 -0.4983  1.0348
    5TMC3    C214164   3.597   0.783  12.152  0.4146  0.6740  0.2418
    5TMC3    C314165   3.602   0.641  12.124 -0.4647  1.0809 -0.5453
    5TMC3    C414166   3.834   0.775  12.187 -0.1975 -0.3018  0.5274
    5TMC3    C514167   3.839   0.647  12.134 -0.5479 -0.0795  0.4645
    5TMC3    C614168   3.724   0.580  12.100  0.5622 -0.2130 -0.2489
    5TMC3     C14169   3.732   0.981  12.131  0.4712 -0.0307 -1.1549
    5TMC3     O14170   3.633   1.050  12.124  0.9715  0.5173 -0.2977
    5TMC3     H14171   3.506   0.839  12.139  0.9537  1.2806 -0.9041
    5TMC3    H114172   3.922   0.825  12.226  0.2855 -1.3754  0.8161
    5TMC3    H214173   3.729   0.488  12.043 -1.2426  0.7093 -1.8828
    5TMC3    C714174   3.961   0.627  12.058  0.1230  1.2253 -0.1902
    5TMC3    C814175   3.483   0.560  12.158  0.8808  0.5342  0.0354
    5TMC3    O114176   4.022   0.731  12.045  0.7766  0.4924 -0.4151
    5TMC3    O214177   3.376   0.614  12.145  0.4468 -0.1298 -0.0505
    6TMC3    C114178   3.364   0.551  11.201 -0.6439  0.1272 -0.1842
    6TMC3    C214179   3.322   0.468  11.093  0.5292  0.4977 -0.0295
    6TMC3    C314180   3.421   0.393  11.046  0.7361 -0.1602 -0.6599
    6TMC3    C414181   3.481   0.539  11.265 -0.3401 -0.3558  0.3631
    6TMC3    C514182   3.571   0.457  11.221 -0.1267  0.3053  0.2047
    6TMC3    C614183   3.550   0.385  11.102  0.4297  0.2012 -0.0500
    6TMC3     C14184   3.333   0.686  11.173  0.3936 -0.5910  0.5252
    6TMC3     O14185   3.244   0.717  11.092 -0.0275  0.0895 -0.9051
    6TMC3     H14186   3.218   0.475  11.062  0.5509 -1.9575 -0.6813
    6TMC3    H114187   3.492   0.582  11.364 -2.0500 -2.7069  1.5666
    6TMC3    H214188   3.625   0.322  11.055  0.0321  1.2056 -2.0692
    6TMC3    C714189   3.709   0.502  11.246  0.1087 -0.3367  0.3299
    6TMC3    C814190   3.388   0.310  10.931 -0.4409 -0.2139 -0.0319
    6TMC3    O114191   3.733   0.622  11.255 -0.6710  0.3061  1.1305
    6TMC3    O214192   3.270   0.273  10.931 -0.0941  0.0949  0.0131
    7MPD2     C14193   4.326   0.381  11.788  0.0247 -0.2029  0.0100
    7MPD2    C114194   4.296   0.515  11.808  0.3230  0.7333  0.1005
    7MPD2    C214195   4.192   0.555  11.892 -0.5510  0.1644  0.5104
    7MPD2    C314196   4.115   0.457  11.955  0.1541  0.3294 -0.3345
    7MPD2    C414197   4.150   0.322  11.953 -0.0938  0.4539  0.2083
    7MPD2    C514198   4.255   0.290  11.864 -0.1741  0.0705 -0.0509
    7MPD2     H14199   4.167   0.660  11.898 -4.1872 -0.7570  1.3078
    7MPD2    H114200   4.086   0.246  11.998  1.2713 -1.0958 -0.4575
    7MPD2    H214201   4.409   0.346  11.727  0.0494 -2.2055  1.1719
    7MPD2    H314202   4.284   0.187  11.846  2.7568  0.7095  1.0023
    7MPD2     N14203   3.996   0.495  12.025  0.0147 -0.6334  0.1591
    7MPD2    H514204   3.931   0.421  12.050  0.2514 -1.0375 -0.4084
    7MPD2    N114205   4.362   0.609  11.727 -0.0982  0.0010 -0.0941
    7MPD2    H714206   4.418   0.573  11.651 -0.4876  2.3402 -1.4863
    8TMC3    C114207   4.375   0.815  11.612  0.8209 -0.4809  0.0810
    8TMC3    C214208   4.367   0.740  11.496  0.5162 -0.2155 -0.1129
    8TMC3    C314209   4.313   0.805  11.389 -0.3083  0.5192 -0.3986
    8TMC3    C414210   4.331   0.941  11.623 -0.3510 -1.4921  0.0230
    8TMC3    C514211   4.274   0.998  11.521  0.1449  0.0762 -0.3538
    8TMC3    C614212   4.266   0.933  11.400  0.6792 -0.8953  0.4399
    8TMC3     C14213   4.365   0.748  11.745 -1.4413  0.9182 -0.3362
    8TMC3     O14214   4.335   0.811  11.845  0.1754  0.4604  0.0062
    8TMC3     H14215   4.405   0.638  11.494  2.1873  0.3539  2.2473
    8TMC3    H114216   4.366   0.994  11.710 -1.5169 -1.6599  0.5974
    8TMC3    H214217   4.226   0.985  11.314  1.6513 -1.5040 -0.3864
    8TMC3    C714218   4.182   1.099  11.563  0.2500  0.6556  0.1006
    8TMC3    C814219   4.214   0.724  11.320  0.4308  1.2117  0.1089
    8TMC3    O114220   4.149   1.192  11.488 -0.1084  0.0276  0.2847
    8TMC3    O214221   4.107   0.784  11.292 -0.5240  1.0936 -0.2878
    9MPD2     C14222   4.215   0.362  11.275  0.1546 -0.9101  0.3931
    9MPD2    C114223   4.159   0.483  11.283  0.4517  0.3280  0.0996
    9MPD2    C214224   4.018   0.500  11.268  0.1716  0.5129  0.4114
    9MPD2    C314225   3.932   0.388  11.275  0.2608 -0.3398 -0.4712
    9MPD2    C414226   3.997   0.263  11.272 -0.3693  0.0075  0.8036
    9MPD2    C514227   4.137   0.252  11.260 -0.1585  0.0701  0.0048
    9MPD2     H14228   3.971   0.597  11.273 -0.7999  0.0072  1.0230
    9MPD2    H114229   3.935   0.176  11.251 -0.3266  0.2452 -0.3463
    9MPD2    H214230   4.321   0.348  11.287  0.5344  2.0559  0.3549
    9MPD2    H314231   4.182   0.154  11.260 -0.9943 -0.3147 -0.8771
    9MPD2     N14232   3.792   0.392  11.246 -0.3603  0.3749 -0.1531
    9MPD2    H514233   3.757   0.302  11.214 -0.6300 -0.2382  1.8530
    9MPD2    N114234   4.242   0.593  11.314  0.4955  0.4442 -0.6468
    9MPD2    H714235   4.336   0.561  11.336  0.3909  0.7776  0.2803
    1MPD1     C14236   2.319   1.036   2.393  0.2211  0.1750  0.6216
    1MPD1    C114237   2.249   1.109   2.295 -0.6479 -0.2994 -0.4122
    1MPD1    C214238   2.248   1.061   2.170  0.2883 -0.4946  0.0943
    1MPD1    C314239   2.327   0.957   2.134  0.8162  0.0821  0.3279
    1MPD1    C414240   2.404   0.892   2.227 -0.1098 -0.9170  0.4227
    1MPD1    C514241   2.396   0.929   2.359  0.3423  0.2945  0.4379
    1MPD1     H14242   2.183   1.111   2.098  1.8020 -1.7288 -2.1364
    1MPD1    H114243   2.472   0.814   2.196  1.6284  1.2733 -1.3574
    1MPD1    H214244   2.320   1.068   2.496 -2.0728 -1.2581  1.0754
    1MPD1    H314245   2.445   0.871   2.436 -0.2596 -1.1152 -0.2374
    1MPD1     N14246   2.342   0.898   2.007 -0.2167 -0.2752 -0.3672
    1MPD1    H514247   2.411   0.825   1.989 -2.0918 -2.0937 -0.2576
    1MPD1    N114248   2.150   1.191   2.344  0.1636 -0.4679  0.3961
    1MPD1    H614249   2.106   1.255   2.278  2.0007  0.4820  0.0820
    1MPD1    H714250   2.182   1.244   2.425  1.1185  1.5279 -1.2907
    2MPD1     C14251   1.869   0.622   1.074  0.5073  0.2796  0.3618
    2MPD1    C114252   1.946   0.519   1.113 -0.0101 -0.2123  0.2221
    2MPD1    C214253   2.024   0.547   1.225 -0.2456 -0.1571 -0.8169
    2MPD1    C314254   2.041   0.676   1.270  0.5785  0.0642 -0.0013
    2MPD1    C414255   1.968   0.780   1.219 -0.2949  0.1093 -0.3478
    2MPD1    C514256   1.886   0.750   1.119 -0.8846 -0.4153  0.0897
    2MPD1     H14257   2.097   0.472   1.251 -1.3338 -0.3179  1.7543
    2MPD1    H114258   1.965   0.882   1.258  2.2587 -0.2647  0.8735
    2MPD1    H214259   1.791   0.610   0.999  0.7942  0.0791  0.0985
    2MPD1    H314260   1.830   0.833   1.077 -0.0633 -0.6670 -1.5349
    2MPD1     N14261   2.134   0.689   1.371  0.3590  0.3694 -0.6580
    2MPD1    H514262   2.181   0.601   1.390 -0.3588  0.8720  3.4973
    2MPD1    N114263   1.947   0.394   1.053  0.2944  0.1636 -0.6628
    2MPD1    H614264   1.950   0.314   1.116  0.8393 -0.5600 -1.6227
    2MPD1    H714265   1.872   0.384   0.986  1.5582  0.1923 -2.0671
    3TCq2    C114266   2.138   0.802   1.457  0.2385 -0.0790 -0.3050
    3TCq2    O214267   2.061   0.897   1.461 -0.5851  0.9803  0.6743
    3TCq2    C214268   2.224   0.781   1.570 -0.3155 -0.1256 -0.0527
    3TCq2    C314269   2.308   0.669   1.580 -0.0984 -0.3776  0.8684
    3TCq2    C414270   2.380   0.648   1.693  0.3516 -0.0407 -0.3604
    3TCq2    C514271   2.366   0.735   1.798 -0.1787 -0.5952  0.4938
    3TCq2    C614272   2.292   0.852   1.782  0.3822 -0.3705  0.4178
    3TCq2    C714273   2.218   0.874   1.669 -0.3530 -0.5540  0.1879
    3TCq2    C814274   2.259   0.929   1.901  0.0792  0.3106  0.3157
    3TCq2    O414275   2.150   0.991   1.897  0.1474 -0.1905  0.0249
    3TCq2    C914276   2.442   0.525   1.711  0.3736  0.4137  0.0910
    3TCq2    O514277   2.511   0.502   1.817 -0.0535  0.7280 -0.2715
    3TCq2    O614278   2.421   0.445   1.618  0.0296 -0.3838  0.0176
    3TCq2    H214279   2.308   0.598   1.498 -3.2157 -1.6468  1.9860
    3TCq2    H314280   2.411   0.707   1.893 -1.2960  0.2682  1.2857
    3TCq2    H414281   2.158   0.963   1.655  1.2897  0.7110  1.1952
    1TCq1    O114282   0.871   2.937  12.780 -0.1900  0.4550  1.1262
    1TCq1    C114283   0.959   2.882  12.690  0.2393  0.1795  0.3548
    1TCq1    O214284   0.989   2.945  12.587 -0.0958  0.3982 -0.0412
    1TCq1    C214285   1.041   2.773  12.743 -0.8015 -0.8669  0.3483
    1TCq1    C314286   0.986   2.682  12.828  0.7263  0.0939  0.3826
    1TCq1    C414287   1.062   2.576  12.857 -0.3438  0.1266 -0.1005
    1TCq1    C514288   1.186   2.567  12.812 -0.4669  0.0262  0.1469
    1TCq1    C614289   1.242   2.656  12.722  0.3811  0.0428 -0.7314
    1TCq1    C714290   1.166   2.758  12.685 -0.5257  0.7817  0.2759
    1TCq1    C814291   1.382   2.691  12.713 -0.0694  0.7072  0.2833
    1TCq1    O414292   1.425   2.739  12.610 -0.0203  0.0160 -0.0686
    1TCq1    C914293   1.005   2.481  12.944  0.3419  0.9493  0.1905
    1TCq1    O514294   1.079   2.391  12.997  0.3187 -0.6197  0.3572
    1TCq1    O614295   0.883   2.493  12.974 -0.1569  0.6809  0.4902
    1TCq1    H114296   0.893   2.894  12.866 -2.7343 -1.6542  0.7055
    1TCq1    H214297   0.882   2.688  12.858  0.8971  0.7801  0.8391
    1TCq1    H314298   1.237   2.489  12.867 -0.4367  0.0199  0.1092
    1TCq1    H414299   1.197   2.821  12.602 -0.1953  1.0606  0.6077
    2MPD2     C14300   1.661   2.733  12.784  0.0226 -0.5515  0.6335
    2MPD2    C114301   1.571   2.670  12.867  0.2087  0.2432  0.1346
    2MPD2    C214302   1.620   2.620  12.988  0.2001 -0.0989  0.1580
    2MPD2    C314303   1.751   2.629  13.021 -1.1017  0.1582 -0.8008
    2MPD2    C414304   1.838   2.683  12.929 -0.0791 -0.1433  0.0767
    2MPD2    C514305   1.795   2.738  12.815  0.0485 -0.4427 -0.5117
    2MPD2     H14306   1.551   2.583  13.063  1.2267  0.1667  1.2477
    2MPD2    H114307   1.946   2.682  12.934  0.0345  0.0272 -2.5295
    2MPD2    H214308   1.624   2.775  12.691 -2.0279 -1.2220  1.1389
    2MPD2    H314309   1.867   2.771  12.742  0.3309  0.8785  0.3610
    2MPD2     N14310   1.791   2.577  13.143  0.3938  0.2072 -0.1096
    2MPD2    H514311   1.715   2.531  13.193  0.4006 -0.3112 -0.5679
    2MPD2    N114312   1.438   2.655  12.837 -0.8608  0.8561  1.2065
    2MPD2    H714313   1.372   2.625  12.908 -0.0355  0.4309  1.7828
    3TCq1    O114314   2.307   2.501  13.501  0.0459 -0.0544 -0.1803
    3TCq1    C114315   2.209   2.566  13.571  0.3780  0.5057  0.1165
    3TCq1    O214316   2.233   2.641  13.665 -0.1736 -0.7707 -0.3387
    3TCq1    C214317   2.080   2.537  13.515 -0.0380 -0.2357 -0.6983
    3TCq1    C314318   1.979   2.533  13.606  0.0787 -0.2425 -0.0938
    3TCq1    C414319   1.852   2.554  13.557 -0.0241  0.3718 -0.9551
    3TCq1    C514320   1.824   2.560  13.426 -0.3997 -0.2855 -0.1751
    3TCq1    C614321   1.927   2.569  13.338 -0.2444  0.1067  0.7498
    3TCq1    C714322   2.056   2.561  13.383 -0.5376 -0.0921  0.2583
    3TCq1    C814323   1.919   2.582  13.191 -0.3215  0.3762  0.6701
    3TCq1    O414324   2.021   2.626  13.140  0.0660  0.1521 -0.0215
    3TCq1    C914325   1.746   2.588  13.646 -0.5535  0.7136  0.2172
    3TCq1    O514326   1.768   2.595  13.770  0.1530 -0.1642  0.6638
    3TCq1    O614327   1.659   2.659  13.592  0.0998 -0.1084  0.0367
    3TCq1    H114328   2.277   2.429  13.442  0.5979 -1.8543  1.6904
    3TCq1    H214329   2.004   2.553  13.710  0.1871  1.6153 -0.4676
    3TCq1    H314330   1.725   2.581  13.389 -0.7411 -1.2444  0.2085
    3TCq1    H414331   2.140   2.559  13.315 -1.6748  0.1583 -1.1558
    1MPD2     C14332   0.813   4.417  14.023  0.4098  0.2558  0.3356
    1MPD2    C114333   0.814   4.327  14.121  0.0979 -0.5982  0.5671
    1MPD2    C214334   0.882   4.358  14.239 -0.4440  0.1420 -0.4373
    1MPD2    C314335   0.953   4.477  14.250 -0.6679 -0.0544 -0.1202
    1MPD2    C414336   0.960   4.568  14.148 -0.1507  0.3707 -0.2895
    1MPD2    C514337   0.887   4.532  14.040 -0.8577  0.5218  0.0052
    1MPD2     H14338   0.889   4.287  14.320 -2.6047  0.2561 -0.1574
    1MPD2    H114339   1.018   4.660  14.156  2.0232 -1.0785  0.5640
    1MPD2    H214340   0.747   4.408  13.938  0.8141  0.9651 -0.0538
    1MPD2    H314341   0.895   4.596  13.953  0.1337  0.4321  0.0296
    1MPD2     N14342   1.027   4.509  14.370  0.1931 -0.2798 -0.0131
    1MPD2    H514343   1.057   4.606  14.377  2.1148 -0.8141 -1.0117
    1MPD2    N114344   0.746   4.210  14.099 -0.0882  0.1643  0.5819
    1MPD2    H714345   0.721   4.177  14.006  4.7174 -2.6319  0.2982
    2TMC3    C114346   0.677   3.986  14.157  0.9721  0.3988  0.2249
    2TMC3    C214347   0.681   3.906  14.271  0.1356  0.6130 -0.5562
    2TMC3    C314348   0.725   3.776  14.257 -0.0133 -0.4802  0.2846
    2TMC3    C414349   0.717   3.940  14.031  0.5282  0.2211  0.5737
    2TMC3    C514350   0.763   3.814  14.024 -0.5028 -0.0303  0.1315
    2TMC3    C614351   0.767   3.727  14.134 -0.2380 -0.5233  0.2310
    2TMC3     C14352   0.722   4.118  14.195 -0.1404  0.2160 -0.6543
    2TMC3     O14353   0.740   4.129  14.316  0.5627  0.1241  0.2375
    2TMC3     H14354   0.644   3.931  14.370 -0.8074 -0.0767 -0.7394
    2TMC3    H114355   0.710   4.006  13.945  0.3639 -0.3711  0.1273
    2TMC3    H214356   0.796   3.624  14.119  0.7552 -0.2061 -0.0187
    2TMC3    C714357   0.772   3.757  13.894 -0.0217 -0.0182  0.7457
    2TMC3    C814358   0.819   3.743  14.362 -0.5829 -0.0166  0.0856
    2TMC3    O114359   0.689   3.781  13.807 -0.3556 -0.7029  0.2918
    2TMC3    O214360   0.846   3.627  14.372  0.0513 -0.0708 -0.1926
    3TCq1    O114361   1.747   3.020  13.604  0.0715  0.1021 -0.0485
    3TCq1    C114362   1.659   3.031  13.699 -0.1069 -0.4796  0.1022
    3TCq1    O214363   1.575   2.945  13.733 -0.4840 -0.3601  0.4889
    3TCq1    C214364   1.606   3.163  13.680 -0.0732 -0.0783  0.8654
    3TCq1    C314365   1.682   3.277  13.693  0.6396 -0.6143 -0.1269
    3TCq1    C414366   1.624   3.396  13.654 -0.0239 -0.2757  0.1067
    3TCq1    C514367   1.491   3.407  13.627 -0.5349 -0.4741 -0.2266
    3TCq1    C614368   1.422   3.288  13.619  0.0617  0.0459  0.5606
    3TCq1    C714369   1.473   3.166  13.649  0.2174 -0.0812 -0.0842
    3TCq1    C814370   1.278   3.292  13.605  0.3624  0.2916 -0.4356
    3TCq1    O414371   1.208   3.195  13.567  0.0041 -0.4550  0.2801
    3TCq1    C914372   1.693   3.525  13.649 -0.0255  0.4028 -0.6435
    3TCq1    O514373   1.818   3.526  13.681 -0.3488  0.0613  0.1273
    3TCq1    O614374   1.632   3.630  13.621 -0.1965 -0.6303  0.4246
    3TCq1    H114375   1.778   3.111  13.587 -2.2270  0.6715 -1.1724
    3TCq1    H214376   1.787   3.283  13.716  0.7310  0.4104 -0.7815
    3TCq1    H314377   1.452   3.505  13.601 -0.8423 -0.4413  0.3515
    3TCq1    H414378   1.414   3.074  13.647  1.6612 -0.9158 -3.7835
    4MPD2     C14379   1.000   3.390  13.604 -0.0175  0.2414 -0.3201
    4MPD2    C114380   1.091   3.440  13.692 -0.3183 -0.6500 -0.5053
    4MPD2    C214381   1.048   3.540  13.783 -0.8069 -0.2497  1.1093
    4MPD2    C314382   0.921   3.578  13.794  0.1520 -0.0342  0.1931
    4MPD2    C414383   0.829   3.527  13.706  0.2788 -0.4046  0.2805
    4MPD2    C514384   0.874   3.431  13.619 -0.3469  0.9608 -0.3217
    4MPD2     H14385   1.115   3.597  13.846  1.8740 -0.9118 -1.1354
    4MPD2    H114386   0.723   3.550  13.713  0.3911  0.0685  0.4518
    4MPD2    H214387   1.019   3.317  13.526 -0.7122 -0.6300  0.3363
    4MPD2    H314388   0.798   3.379  13.562  1.9503 -0.7222 -1.8398
    4MPD2     N14389   0.887   3.679  13.887  0.3948 -0.5331 -0.1586
    4MPD2    H514390   0.953   3.706  13.959  0.5809 -0.2749 -0.4275
    4MPD2    N114391   1.225   3.406  13.675  0.3061 -0.1677  0.2267
    4MPD2    H714392   1.291   3.449  13.739 -0.5458  1.5882 -0.0621
    5TMC2    C114393   1.262   4.332  14.718 -0.4458 -0.3579 -0.2206
    5TMC2    C214394   1.373   4.375  14.665 -0.3213 -1.0535 -1.0839
    5TMC2    C314395   1.369   4.465  14.563  0.3293 -0.6160  0.4004
    5TMC2    C414396   1.146   4.401  14.688 -0.0569 -0.0409 -0.1012
    5TMC2    C514397   1.143   4.475  14.571  0.3875  0.1614 -0.4964
    5TMC2    C614398   1.256   4.513  14.511  0.5498  0.1476 -0.7091
    5TMC2     C14399   1.252   4.191  14.745 -0.3018 -0.2249 -0.6263
    5TMC2     O14400   1.356   4.131  14.779  0.0632  0.3395 -0.2378
    5TMC2     H14401   1.470   4.337  14.696  0.3419  0.4015 -1.3916
    5TMC2    H114402   1.053   4.378  14.740 -0.2670 -0.2698 -0.5779
    5TMC2    H214403   1.260   4.569  14.418 -2.0866 -1.2634 -1.6700
    5TMC2    C714404   1.042   4.429  14.482  0.0870  0.2168  0.1401
    5TMC2    C814405   1.494   4.496  14.503  0.3170 -0.1855  0.2686
    5TMC2    O114406   0.988   4.329  14.523 -0.1040  0.3401 -1.0840
    5TMC2    O214407   1.601   4.516  14.552  0.3926  0.3301  0.4624
    5TMC2    O514408   1.481   4.467  14.372  0.2301  0.0015 -0.1343
    5TMC2    H514409   1.406   4.406  14.355 -0.5603  1.2049 -0.9167
    6MPD2     C14410   1.059   3.775  14.529 -0.1788 -0.3424  0.4159
    6MPD2    C114411   0.966   3.871  14.520 -0.0505  0.4470  0.4152
    6MPD2    C214412   0.985   3.989  14.581 -0.6073 -0.2490 -0.1299
    6MPD2    C314413   1.098   4.021  14.660  0.5052 -0.0816  0.8066
    6MPD2    C414414   1.188   3.914  14.680  0.4152 -0.6200  0.1315
    6MPD2    C514415   1.172   3.799  14.604  0.2869 -1.0221  0.4528
    6MPD2     H14416   0.922   4.069  14.544  2.0306  2.1088  0.4164
    6MPD2    H114417   1.277   3.910  14.741  1.5496 -0.8388 -1.5729
    6MPD2    H214418   1.059   3.689  14.462  0.9626  0.3980 -0.5368
    6MPD2    H314419   1.249   3.723  14.613  0.9232 -0.2315  1.7485
    6MPD2     N14420   1.128   4.151  14.699  0.5168 -0.5375 -0.0502
    6MPD2    H514421   1.073   4.228  14.660  1.1529  0.2764  0.6580
    6MPD2    N114422   0.856   3.859  14.435 -0.0747  0.0011 -0.3112
    6MPD2    H714423   0.813   3.947  14.408 -0.0198  0.4178  0.9673
  945NH3     N114424   3.152   1.574   9.033  0.6166  0.2531  0.1714
  945NH3     H214425   3.227   1.519   9.074 -0.0499 -0.0955  0.9153
  945NH3     H314426   3.125   1.644   9.101  1.6296  1.9318 -1.1484
  945NH3     H414427   3.065   1.523   9.031  0.8172 -0.0046 -1.9634
  946SOD     NA14428   3.739   1.850   0.359 -0.8587  0.2124  0.0299
  947SOD     NA14429   2.529   3.113  14.289  0.2949 -0.2645  0.1425
  948SOD     NA14430   1.894   1.031   1.553  0.1011  0.1288  0.0804
  949SOD     NA14431   3.153   4.169  13.327  0.1578 -0.1701 -0.1647
  950SOD     NA14432   2.500   2.778  11.639 -0.6192 -0.2757 -0.0740
  951SOD     NA14433   2.350   2.231  17.200  0.0420  0.4373 -0.3165
  952SOD     NA14434   0.131   3.796   1.042  0.0720 -0.6374 -0.0375
  953SOD     NA14435   4.492   1.364  17.083 -0.1605 -0.5613  0.1464
  954SOD     NA14436   2.969   3.038  11.745  0.0940  0.6585  0.2458
  955SOD     NA14437   1.938   3.904  13.548 -0.1191 -0.1902  0.1540
  956SOD     NA14438   0.707   0.852   0.833 -0.0076  0.0440 -0.3455
  957SOD     NA14439   0.251   3.263  14.865  0.4029  0.9610 -0.3656
  958SOD     NA14440   2.011   2.125  17.156  0.3178  0.2145  0.1051
  959SOD     NA14441   1.606   2.744  13.790  0.2014 -0.0060  0.0581
  960SOD     NA14442   1.320   0.140  12.357 -0.0964  0.5134  0.2596
  961SOD     NA14443   1.087   2.300  10.025 -0.2117  0.7988 -0.0223
  962SOD     NA14444   2.139   0.011   4.000 -0.0713  0.0714  0.4505
  963SOD     NA14445   1.973   3.543   2.356 -0.4643  0.1999 -0.0625
  964SOD     NA14446   3.487   0.359   2.121  0.0590  0.3004 -0.1386
  965SOD     NA14447   0.171   3.625   9.186 -0.4706  0.1215 -0.1947
  966SOD     NA14448   1.822   4.559  14.591  0.9662  0.2689  0.1336
  967SOD     NA14449   3.731   4.347  16.117  0.2177  0.3417  0.1559
  968SOD     NA14450   1.398   2.492   9.735 -0.2204  0.3642  0.1748
  969SOD     NA14451   3.130   1.358   7.753  0.3420  0.2204 -0.0328
  970SOD     NA14452   1.832   2.435  11.609  0.3223  0.6254 -0.2529
  971SOD     NA14453   2.354   2.315  12.528  0.1026  0.0734 -0.6923
  972SOD     NA14454   0.231   2.669  11.744 -0.2138  0.1438  0.2811
  973SOD     NA14455   0.519   1.878   9.319  0.2360 -0.0329  0.1788
  974SOD     NA14456   2.109   2.845  11.457 -0.1003 -0.0028  0.3330
  975SOD     NA14457   3.110   3.314   1.634 -0.2339 -0.2745  0.2519
  976SOD     NA14458   2.098   1.080  10.082  0.1327 -0.2061 -0.3869
  977SOD     NA14459   3.808   1.942  12.780  0.2716  0.0950 -0.1012
  978SOD     NA14460   0.044   0.912   2.182  0.0799  0.0265 -0.1843
  979SOD     NA14461   4.553   2.611  13.284 -0.0734 -0.1148 -0.6503
  980SOD     NA14462   3.901   1.900  14.052  0.1785  0.5487 -0.1049
  981SOD     NA14463   0.580   4.133  10.868 -0.2091  0.2846 -0.4608
  982SOD     NA14464   0.648   0.373   3.979  0.0475  0.1423 -0.2423
  983SOD     NA14465   0.455   4.449   8.943  0.0268  0.0150 -0.1089
  984SOD     NA14466   0.384   2.841  10.799  0.3451  0.0039 -0.0331
  985SOD     NA14467   2.643   4.694   6.954 -0.0814  0.6945  0.3833
  986SOD     NA14468   1.148   3.534   8.752  0.5996  0.2858 -0.1536
  987SOD     NA14469   3.460   1.843  13.486  0.0982 -0.0077 -0.1680
  988SOD     NA14470   4.578   3.486   2.420  0.0495  0.2220  0.0970
  989SOD     NA14471   1.864   3.843   1.046 -0.1456  0.4439  0.0173
  990SOD     NA14472   2.358   4.600  14.305  0.1574  0.5009  0.0221
  991SOD     NA14473   1.917   1.061  13.853 -0.4104  0.0966  0.1931
  992SOD     NA14474   0.549   2.576  12.858 -0.4552 -0.2051  0.2883
  993SOD     NA14475   1.365   2.366   9.471  0.8132  0.0041  0.0719
  994SOD     NA14476   3.112   4.263   1.201  0.6604  0.1067  0.4898
  995SOD     NA14477   2.837   4.151  13.240 -0.3392 -0.0294  0.0788
  996SOD     NA14478   1.474   4.606   1.962 -0.0502  0.2313 -0.0837
  997SOD     NA14479   1.366   2.172   9.801 -0.4341  0.2281 -0.1651
  998SOD     NA14480   0.728   4.211   6.931 -0.0483  0.0188  0.3674
  999SOD     NA14481   0.836   3.942  10.682 -0.0513  0.4663  0.3166
 1000SOD     NA14482   2.933   3.672  11.585  0.4601 -0.3574 -0.0603
 1001SOD     NA14483   4.130   2.739  10.592 -0.0635 -0.0053  0.1809
 1002SOD     NA14484   2.546   4.106  12.992  0.3361  0.0640  0.1912
 1003SOD     NA14485   2.351   2.998  10.000  0.1079 -0.4823 -0.3958
 1004SOD     NA14486   0.202   2.717  12.871 -0.3992  0.2751 -0.2813
 1005SOD     NA14487   0.709   2.273  14.291  0.4752 -0.1742  0.1219
 1006SOD     NA14488   2.157   4.622  10.288 -0.0566  0.2113 -0.4185
 1007SOD     NA14489   4.127   2.167   1.660 -0.0534 -0.2087 -0.4586
 1008SOD     NA14490   1.884   0.489  16.097 -0.0715  0.0352 -0.2857
 1009SOD     NA14491   2.755   2.759  14.134 -0.3267  0.0686 -0.2268
 1010SOD     NA14492   2.143   2.813   0.444  0.5483 -0.6623 -0.1359
 1011SOD     NA14493   2.882   0.524   0.773 -0.3538 -0.0292  0.0005
 1012SOL     OW14494   3.612   3.286   4.435  0.3057  0.0708 -0.2611
 1012SOL    HW114495   3.566   3.314   4.514 -0.6150 -0.7982 -0.4880
 1012SOL    HW214496   3.545   3.285   4.367  1.9868  1.6859 -1.9327
 1013SOL     OW14497   2.616   3.554   7.636  0.1996 -0.2971  0.6802
 1013SOL    HW114498   2.536   3.508   7.659  0.3496  1.1616  4.1730
 1013SOL    HW214499   2.625   3.512   7.551 -3.3668  2.1254 -0.8940
 1014SOL     OW14500   1.575   2.642   9.761 -0.1325 -0.2572  0.3446
 1014SOL    HW114501   1.657   2.639   9.809  1.5335 -0.3227 -2.4911
 1014SOL    HW214502   1.533   2.715   9.807  0.8851  0.0526  0.7723
 1015SOL     OW14503   3.679   2.388   1.895 -0.8462  0.5746 -0.1588
 1015SOL    HW114504   3.747   2.436   1.847  1.4997 -1.4176  1.1616
 1015SOL    HW214505   3.643   2.346   1.818 -1.5749  0.8834  0.0149
 1016SOL     OW14506   1.525   3.055  17.177 -0.1639  0.1930 -0.0414
 1016SOL    HW114507   1.579   3.035  17.253 -0.0065  2.8652  0.5409
 1016SOL    HW214508   1.442   3.017  17.206  0.2168  0.7967  1.7975
 1017SOL     OW14509   3.564   1.541   1.821  0.4010  0.0423  0.1602
 1017SOL    HW114510   3.586   1.591   1.742 -0.9790 -1.0275 -0.9040
 1017SOL    HW214511   3.503   1.476   1.787  0.6725 -0.4078  0.5289
 1018SOL     OW14512   3.318   3.429   7.074  0.1307 -0.1841  0.2007
 1018SOL    HW114513   3.372   3.402   7.000 -0.2617 -0.6685  0.0875
 1018SOL    HW214514   3.383   3.491   7.107 -0.1779 -0.4105  1.2335
 1019SOL     OW14515   1.155   1.550  14.189  0.6021 -0.0651 -0.1479
 1019SOL    HW114516   1.090   1.617  14.167 -0.1682 -0.5761  0.5733
 1019SOL    HW214517   1.155   1.559  14.285  1.2604  0.2442 -0.1809
 1020SOL     OW14518   3.652   1.422   7.204  0.0293 -0.4013  0.5145
 1020SOL    HW114519   3.632   1.434   7.111 -0.2580 -0.6944  0.5386
 1020SOL    HW214520   3.611   1.339   7.229  1.1292 -0.1196  3.2232
 1021SOL     OW14521   2.172   0.490   0.869 -0.5117 -0.3606 -0.6761
 1021SOL    HW114522   2.144   0.540   0.792 -0.2696  0.8401  0.0098
 1021SOL    HW214523   2.096   0.478   0.926  0.2973 -0.3341  0.3926
 1022SOL     OW14524   0.026   4.063   7.056 -0.5424 -0.0993  0.2633
 1022SOL    HW114525   4.688   4.133   7.042 -0.5099  0.7855  4.5271
 1022SOL    HW214526   0.084   4.101   7.122  1.3680 -2.3615 -0.0828
 1023SOL     OW14527   3.611   3.123   5.227 -0.1147  0.4856 -0.5457
 1023SOL    HW114528   3.524   3.132   5.266  0.6871  2.6507  0.7145
 1023SOL    HW214529   3.668   3.190   5.265 -0.9873  0.9362 -0.0313
 1024SOL     OW14530   1.787   2.766   2.048  0.4654 -0.5371  0.1485
 1024SOL    HW114531   1.718   2.716   2.004 -1.5528  2.3283  0.0838
 1024SOL    HW214532   1.862   2.741   1.994  1.2406  1.6583  0.2228
 1025SOL     OW14533   4.542   1.112   9.272 -0.1760  0.0206  0.1600
 1025SOL    HW114534   4.507   1.132   9.185  1.7581 -0.0299 -0.6434
 1025SOL    HW214535   4.470   1.143   9.326  1.6694  2.1309  1.4240
 1026SOL     OW14536   3.951   0.121   8.081  0.3433  0.1131 -0.1571
 1026SOL    HW114537   3.893   0.045   8.083  1.5160 -0.7910 -0.7614
 1026SOL    HW214538   4.035   0.085   8.108  1.0292  1.2304 -0.8207
 1027SOL     OW14539   3.004   2.502   4.118 -0.0989  0.5169  0.1392
 1027SOL    HW114540   3.028   2.465   4.203 -0.1991 -0.8372 -0.4196
 1027SOL    HW214541   3.070   2.572   4.114 -1.2030  1.6532  1.7560
 1028SOL     OW14542   4.310   2.487   7.874 -0.2277  0.1300  0.1614
 1028SOL    HW114543   4.296   2.472   7.780 -0.4970 -1.9548  0.5336
 1028SOL    HW214544   4.278   2.403   7.906 -2.1446  0.6426 -0.3912
 1029SOL     OW14545   4.467   3.275  16.220  0.1961 -0.3458 -0.0341
 1029SOL    HW114546   4.489   3.207  16.156 -1.7434 -0.7043 -0.3174
 1029SOL    HW214547   4.416   3.335  16.167  0.9346  0.8211  0.5668
 1030SOL     OW14548   3.887   3.353  16.025 -0.1335  0.2460 -0.4873
 1030SOL    HW114549   3.853   3.298  15.955  2.6122 -1.3754 -0.5310
 1030SOL    HW214550   3.820   3.342  16.092  1.2082  1.2524  1.0358
 1031SOL     OW14551   3.860   1.459   8.153  0.8187 -0.1822  0.3705
 1031SOL    HW114552   3.847   1.477   8.246  0.8238  1.6880  0.0251
 1031SOL    HW214553   3.922   1.386   8.164  1.0872 -0.1960 -1.2344
 1032SOL     OW14554   4.323   4.450   4.666  0.1092  0.3773 -0.2141
 1032SOL    HW114555   4.368   4.365   4.672  0.9696  0.9600  1.6847
 1032SOL    HW214556   4.358   4.481   4.583  0.1500  0.5424 -0.1343
 1033SOL     OW14557   1.140   3.634  13.053  0.0176  0.8491 -0.1489
 1033SOL    HW114558   1.083   3.632  13.129  0.8397  2.1102  0.5013
 1033SOL    HW214559   1.095   3.573  12.995  0.9367 -0.2646  0.2851
 1034SOL     OW14560   0.051   3.792  10.374  0.8721  0.3618 -0.4024
 1034SOL    HW114561   0.138   3.798  10.413  1.6567 -1.0029 -1.9572
 1034SOL    HW214562   0.008   3.714  10.409  1.7048 -0.1967 -0.6257
 1035SOL     OW14563   3.861   1.292  10.107  0.1722 -0.4736  0.0200
 1035SOL    HW114564   3.821   1.251  10.184 -1.9456 -0.3578 -1.0314
 1035SOL    HW214565   3.945   1.301  10.151  1.0156 -2.9536 -1.1116
 1036SOL     OW14566   4.154   0.773  16.427  0.2491  0.6855  0.1527
 1036SOL    HW114567   4.112   0.852  16.462  1.8443  0.3515  2.8483
 1036SOL    HW214568   4.219   0.819  16.374  0.5776  2.0480  1.7214
 1037SOL     OW14569   0.192   3.047  17.494 -0.3822  0.5466 -0.2699
 1037SOL    HW114570   0.192   3.139  17.465  0.5727  1.8882  3.9947
 1037SOL    HW214571   0.099   3.028  17.488 -0.2080 -0.5598  0.6161
 1038SOL     OW14572   4.115   2.065   8.450 -0.0869 -0.7574 -0.0376
 1038SOL    HW114573   4.137   1.972   8.436  1.5926 -0.5721  1.3347
 1038SOL    HW214574   4.172   2.120   8.398 -0.3694 -1.1091 -0.7179
 1039SOL     OW14575   4.479   0.543  12.694  0.6658 -0.3018 -0.1089
 1039SOL    HW114576   4.509   0.627  12.727  1.7754 -0.3072 -1.1152
 1039SOL    HW214577   4.399   0.534  12.746  0.2326  0.3282 -0.6747
 1040SOL     OW14578   2.405   2.109  15.644  0.1140 -0.0138  0.2971
 1040SOL    HW114579   2.436   2.022  15.669  0.9872  0.0835 -0.4510
 1040SOL    HW214580   2.406   2.148  15.732  2.8050  0.0276  0.2438
 1041SOL     OW14581   1.689   1.417   5.876 -0.0539  0.5002  0.5213
 1041SOL    HW114582   1.678   1.343   5.817  0.8784 -0.1513  1.1535
 1041SOL    HW214583   1.755   1.468   5.828 -1.0193  0.0676 -1.2498
 1042SOL     OW14584   4.457   3.531   1.714  0.5604  0.8018 -0.0731
 1042SOL    HW114585   4.379   3.565   1.670  0.1063 -0.1365  0.0034
 1042SOL    HW214586   4.513   3.607   1.728  1.2011  0.5654 -1.3650
 1043SOL     OW14587   1.208   0.356   0.352 -0.4455 -0.3746 -0.0456
 1043SOL    HW114588   1.255   0.379   0.432 -1.4411  0.7354  0.2304
 1043SOL    HW214589   1.124   0.358   0.398 -0.2512 -0.5715  0.3178
 1044SOL     OW14590   1.255   0.223   4.075  0.2832  0.2661 -0.2542
 1044SOL    HW114591   1.312   0.262   4.141  1.6639 -1.7043 -0.3079
 1044SOL    HW214592   1.316   0.158   4.041  0.7361 -0.6111  2.2064
 1045SOL     OW14593   3.022   4.660   1.786 -0.6908 -0.1459 -0.0829
 1045SOL    HW114594   3.066   0.005   1.833 -2.0846  0.2754  0.5956
 1045SOL    HW214595   3.054   4.578   1.823  1.6503  0.4527 -0.7847
 1046SOL     OW14596   3.923   0.008   0.465  0.0115  0.1466  0.6317
 1046SOL    HW114597   3.864   4.665   0.496 -0.4596  0.6716  0.8873
 1046SOL    HW214598   3.967   0.029   0.548 -0.3332  2.8456  0.1061
 1047SOL     OW14599   1.525   0.517   4.607  0.7559  0.3300 -0.1026
 1047SOL    HW114600   1.496   0.607   4.623 -0.6747 -0.1424 -0.0559
 1047SOL    HW214601   1.610   0.525   4.652  0.3674  2.0461  0.3352
 1048SOL     OW14602   2.001   0.074   8.051 -0.2695  0.2123  0.0615
 1048SOL    HW114603   2.003   4.720   8.104 -0.1989 -0.6286 -1.2189
 1048SOL    HW214604   1.950   0.038   7.979  1.3441 -0.2453 -0.8447
 1049SOL     OW14605   1.913   0.435   6.382 -0.4843  0.5050  0.1447
 1049SOL    HW114606   1.889   0.400   6.297  0.5884 -0.8193  0.3915
 1049SOL    HW214607   1.943   0.517   6.342 -1.4314  0.9297  0.3087
 1050SOL     OW14608   2.952   4.090   0.511 -0.0285 -0.3525  0.0840
 1050SOL    HW114609   2.949   4.038   0.431  1.0866 -0.1312 -0.1082
 1050SOL    HW214610   2.860   4.115   0.505 -0.6071 -1.9443  2.7060
 1051SOL     OW14611   1.785   2.747   3.849 -0.3796  0.8883  0.7557
 1051SOL    HW114612   1.732   2.686   3.798 -2.1724  1.0541  2.4429
 1051SOL    HW214613   1.819   2.810   3.785 -2.5821  0.2928 -0.9990
 1052SOL     OW14614   3.130   4.415   1.851 -0.1415  0.3902 -0.1277
 1052SOL    HW114615   3.225   4.417   1.837  0.0185  1.8828  1.1642
 1052SOL    HW214616   3.119   4.321   1.836  0.0492 -0.0207  2.3489
 1053SOL     OW14617   4.564   2.976   5.027 -1.1231  0.1810  0.4813
 1053SOL    HW114618   4.480   2.975   5.072 -2.3691  1.6691 -1.8265
 1053SOL    HW214619   4.543   2.930   4.946  0.7592  2.2281 -1.1953
 1054SOL     OW14620   1.947   4.389   0.222  0.5566 -0.2462  0.4894
 1054SOL    HW114621   1.966   4.380   0.315 -0.2012 -2.8637  0.3907
 1054SOL    HW214622   1.904   4.304   0.223 -0.3130  0.2033  1.2294
 1055SOL     OW14623   4.513   3.324   8.546 -0.4934  0.3404  0.1191
 1055SOL    HW114624   4.511   3.230   8.562 -1.4740  0.1241 -1.3001
 1055SOL    HW214625   4.598   3.341   8.505 -0.2941  0.6399  0.6466
 1056SOL     OW14626   0.113   1.942  17.384 -0.0867 -0.4916 -0.1111
 1056SOL    HW114627   0.049   1.908  17.446 -1.7666 -1.2652 -2.2894
 1056SOL    HW214628   0.195   1.909  17.422  0.0272  0.2493  0.2957
 1057SOL     OW14629   0.341   0.347   5.131 -0.7142  0.5408 -0.0407
 1057SOL    HW114630   0.316   0.330   5.040  0.5737 -0.3076 -0.2513
 1057SOL    HW214631   0.328   0.260   5.169 -0.1338  0.2194 -0.5574
 1058SOL     OW14632   3.161   1.030  16.592 -0.3533 -0.1906  0.0809
 1058SOL    HW114633   3.125   0.980  16.666 -0.3786  0.5699  0.5883
 1058SOL    HW214634   3.170   0.971  16.517 -1.2567 -0.2027 -0.0251
 1059SOL     OW14635   1.571   2.527   2.643 -0.3406 -0.1561 -0.4221
 1059SOL    HW114636   1.484   2.538   2.604 -0.5499 -0.9850 -0.2045
 1059SOL    HW214637   1.631   2.495   2.575  0.2628  0.9472 -0.4064
 1060SOL     OW14638   2.991   0.630   7.460  0.4770 -0.3930  0.5631
 1060SOL    HW114639   3.048   0.555   7.444  1.0916  0.6321 -2.0332
 1060SOL    HW214640   2.916   0.584   7.498 -0.1793 -0.2881 -0.6189
 1061SOL     OW14641   3.545   3.576  14.001 -0.0479 -0.3518 -0.0751
 1061SOL    HW114642   3.511   3.578  14.090  1.8487  0.0704  0.6193
 1061SOL    HW214643   3.484   3.524  13.948  0.8380 -3.5214  2.0230
 1062SOL     OW14644   0.326   1.057   2.889 -0.0899 -0.0789  0.4858
 1062SOL    HW114645   0.372   1.023   2.812  1.3282  4.0221 -0.4944
 1062SOL    HW214646   0.296   0.974   2.927 -1.5730  0.9220  1.4795
 1063SOL     OW14647   1.583   2.715  10.417 -0.0631 -0.6179  0.3279
 1063SOL    HW114648   1.570   2.644  10.480  2.7555 -1.0127  0.4601
 1063SOL    HW214649   1.497   2.726  10.376  0.2815 -1.5545 -0.6298
 1064SOL     OW14650   3.938   3.610  17.070 -0.1882  0.0532  0.3927
 1064SOL    HW114651   3.849   3.590  17.042  0.0630 -0.3529 -0.1323
 1064SOL    HW214652   3.916   3.663  17.146 -1.0597 -1.4213  1.1759
 1065SOL     OW14653   3.056   3.356   6.273  0.0154 -0.0936 -0.5033
 1065SOL    HW114654   3.001   3.279   6.260 -0.1510 -0.0308 -0.1709
 1065SOL    HW214655   3.142   3.319   6.251 -0.0066 -0.8324  0.6355
 1066SOL     OW14656   0.904   2.615  16.872  0.5026  0.1728  0.5724
 1066SOL    HW114657   0.991   2.648  16.847  0.5573 -0.1044  0.3937
 1066SOL    HW214658   0.900   2.531  16.826  1.1792  0.2115  0.4432
 1067SOL     OW14659   0.986   3.203  12.859 -0.1068  0.4556  0.3809
 1067SOL    HW114660   0.898   3.165  12.851 -0.6146  1.3151  1.8722
 1067SOL    HW214661   1.040   3.145  12.913 -0.0014  1.3238  1.2088
 1068SOL     OW14662   1.454   2.313   5.673  0.1697 -0.2137 -0.1269
 1068SOL    HW114663   1.441   2.220   5.694 -2.2782  0.2895  0.6026
 1068SOL    HW214664   1.378   2.318   5.615  0.4864 -0.0601 -0.5240
 1069SOL     OW14665   2.574   3.854   5.311 -0.2441  0.0842 -0.2160
 1069SOL    HW114666   2.605   3.859   5.221  1.5651 -1.1477  0.3494
 1069SOL    HW214667   2.659   3.861   5.354  0.4613 -0.9665 -1.4440
 1070SOL     OW14668   1.325   0.561   4.179 -0.7768  0.0560  0.3830
 1070SOL    HW114669   1.302   0.618   4.253  0.4793 -1.1319  1.6977
 1070SOL    HW214670   1.418   0.561   4.202 -0.5104  1.9700 -0.7288
 1071SOL     OW14671   0.972   4.032   6.612 -0.3595  0.3642  0.5095
 1071SOL    HW114672   0.994   3.942   6.585 -0.4113  1.1800 -2.2446
 1071SOL    HW214673   0.922   4.068   6.539  0.0004  2.6129  1.3783
 1072SOL     OW14674   4.196   4.716   0.949 -0.0301  0.3689 -0.1831
 1072SOL    HW114675   4.253   4.664   0.891 -0.9743 -0.4214 -0.3922
 1072SOL    HW214676   4.171   4.649   1.013  1.3016  0.1130  0.0682
 1073SOL     OW14677   2.416   0.439  10.862  0.7903 -0.3164 -0.2520
 1073SOL    HW114678   2.352   0.444  10.792  1.3641 -0.1565 -0.7659
 1073SOL    HW214679   2.365   0.485  10.929  2.5754  0.0923  0.8219
 1074SOL     OW14680   0.293   2.878  12.741 -0.0366 -0.2844 -0.3827
 1074SOL    HW114681   0.230   2.886  12.670 -0.7635  3.1795  0.6391
 1074SOL    HW214682   0.374   2.910  12.702 -0.1042  1.2940  0.7810
 1075SOL     OW14683   4.244   0.578   8.720  0.5493 -0.0078 -0.2409
 1075SOL    HW114684   4.184   0.505   8.707 -1.5499  1.8725 -1.3450
 1075SOL    HW214685   4.267   0.561   8.811  0.3480  2.1574  0.2349
 1076SOL     OW14686   0.498   4.001   5.939  0.2646 -0.1630  0.6817
 1076SOL    HW114687   0.577   3.982   5.888 -0.4690  0.8785 -0.8119
 1076SOL    HW214688   0.458   4.061   5.877 -1.2833 -2.1946 -0.2982
 1077SOL     OW14689   0.134   0.701  14.742 -0.4222  0.0090 -0.2047
 1077SOL    HW114690   0.189   0.751  14.802  1.1763 -1.2406 -0.6333
 1077SOL    HW214691   0.147   0.611  14.773 -0.4372 -0.5080 -1.6947
 1078SOL     OW14692   0.672   0.408  14.078 -0.6139 -0.7009  0.2251
 1078SOL    HW114693   0.717   0.440  13.999  2.4970  0.0311  2.2914
 1078SOL    HW214694   0.604   0.474  14.094 -1.4229 -1.1275 -1.4569
 1079SOL     OW14695   3.548   3.988  17.122 -0.2590 -0.4952 -0.5178
 1079SOL    HW114696   3.547   4.042  17.201  0.8127  0.7055 -1.3338
 1079SOL    HW214697   3.568   3.899  17.152  0.5806 -0.1910 -0.1847
 1080SOL     OW14698   1.711   1.044  13.755  0.0795 -0.4990 -0.3642
 1080SOL    HW114699   1.620   1.018  13.773  0.7687 -1.8423  1.1525
 1080SOL    HW214700   1.701   1.104  13.681 -1.8211  0.8857  1.0087
 1081SOL     OW14701   0.558   3.043   6.930 -0.0514  0.3247  0.0587
 1081SOL    HW114702   0.640   3.069   6.888 -0.6194  2.4574  0.3145
 1081SOL    HW214703   0.592   3.033   7.019 -0.3086  1.1639  0.2487
 1082SOL     OW14704   2.635   4.555   6.769 -0.5504 -0.0183  0.6688
 1082SOL    HW114705   2.615   4.585   6.680 -1.8488  2.6882  1.8756
 1082SOL    HW214706   2.592   4.470   6.757 -0.0422 -0.5489  2.6472
 1083SOL     OW14707   3.099   0.863   4.062 -0.2811 -0.2813  0.1798
 1083SOL    HW114708   3.033   0.887   4.127  1.2659  1.4777  1.1251
 1083SOL    HW214709   3.130   0.777   4.091 -1.5789  0.3430  3.3635
 1084SOL     OW14710   3.597   4.659   1.176 -0.3006 -0.1410 -0.2252
 1084SOL    HW114711   3.681   4.615   1.180 -0.3009 -0.0459  0.6649
 1084SOL    HW214712   3.582   4.676   1.083  0.0017 -0.3735 -0.3146
 1085SOL     OW14713   2.296   4.265   1.840  0.5049  0.2557  0.3324
 1085SOL    HW114714   2.313   4.325   1.767 -0.7506  0.3076  0.0809
 1085SOL    HW214715   2.222   4.218   1.800 -1.2057  1.4432  2.0959
 1086SOL     OW14716   0.957   4.029   8.418 -0.0553 -0.0487  0.2485
 1086SOL    HW114717   0.909   3.946   8.420  0.7933 -0.5628 -0.1988
 1086SOL    HW214718   0.878   4.082   8.422  0.3630  0.6087 -0.2930
 1087SOL     OW14719   4.367   2.619   6.462 -0.0961  0.2332  0.0203
 1087SOL    HW114720   4.384   2.707   6.496 -1.6882  0.9832 -1.1185
 1087SOL    HW214721   4.430   2.565   6.511  0.9241  0.9211 -0.5554
 1088SOL     OW14722   3.068   1.417   3.258 -0.2380  0.2130 -0.1518
 1088SOL    HW114723   3.106   1.430   3.344  0.2491  0.7496 -0.4508
 1088SOL    HW214724   2.972   1.422   3.262 -0.4238 -3.8746  0.4093
 1089SOL     OW14725   1.287   0.801  15.588 -0.0443  0.3721 -0.2613
 1089SOL    HW114726   1.333   0.824  15.507 -0.0784  0.8789 -0.1384
 1089SOL    HW214727   1.344   0.847  15.649 -0.6686  1.9873 -0.8655
 1090SOL     OW14728   4.139   2.257   5.391  0.1503 -0.0479  0.1245
 1090SOL    HW114729   4.070   2.256   5.324  0.1009 -0.1046  0.1759
 1090SOL    HW214730   4.152   2.349   5.415 -2.9257  0.4421 -0.0724
 1091SOL     OW14731   4.498   3.527   0.906 -0.3478  0.4394 -0.2315
 1091SOL    HW114732   4.438   3.465   0.863  0.2445 -0.6963  0.5776
 1091SOL    HW214733   4.565   3.546   0.840 -1.8847 -1.4723 -2.3700
 1092SOL     OW14734   2.010   3.247   4.096  0.4431 -0.5755 -0.5487
 1092SOL    HW114735   2.074   3.176   4.104  2.4067  1.0746 -1.5269
 1092SOL    HW214736   1.936   3.203   4.139  1.3307 -1.9813 -0.4570
 1093SOL     OW14737   2.707   1.999  17.396 -0.6335 -0.1534  0.2580
 1093SOL    HW114738   2.666   2.028  17.315 -0.3838 -0.7999 -0.1025
 1093SOL    HW214739   2.690   1.906  17.381 -0.6984 -0.0421 -0.3472
 1094SOL     OW14740   1.589   2.293   6.185 -0.3480  0.2370 -0.2772
 1094SOL    HW114741   1.681   2.281   6.163 -0.2610 -0.3304  0.3751
 1094SOL    HW214742   1.562   2.202   6.191  1.4955 -0.1919  1.8758
 1095SOL     OW14743   2.705   0.495   2.344 -0.2928 -0.0035  0.5585
 1095SOL    HW114744   2.623   0.490   2.392  0.3502 -0.5144  1.6005
 1095SOL    HW214745   2.667   0.494   2.256  2.1924 -0.9386 -0.4932
 1096SOL     OW14746   1.545   2.840  16.335 -0.0394  0.1836  0.6215
 1096SOL    HW114747   1.533   2.934  16.328 -0.1552  0.0678 -0.7225
 1096SOL    HW214748   1.481   2.819  16.402 -2.5118 -0.1269 -1.8246
 1097SOL     OW14749   2.520   0.359   4.668 -0.1193  0.0108 -0.9469
 1097SOL    HW114750   2.498   0.284   4.613 -2.9659 -2.3157  3.3165
 1097SOL    HW214751   2.595   0.323   4.716  0.5536  1.1931 -1.1239
 1098SOL     OW14752   4.123   0.294   6.138  0.3055 -0.0838 -0.2371
 1098SOL    HW114753   4.086   0.382   6.129  0.3184 -0.0428  0.1318
 1098SOL    HW214754   4.131   0.268   6.046 -1.0085 -0.4792 -0.2500
 1099SOL     OW14755   3.033   1.385  12.081 -0.1293 -1.2700  0.0260
 1099SOL    HW114756   2.977   1.443  12.029  0.5880  0.7481  1.5419
 1099SOL    HW214757   3.101   1.449  12.101  0.4906 -0.9042 -3.2820
 1100SOL     OW14758   2.617   3.343   6.892  0.1470  0.1186  0.2543
 1100SOL    HW114759   2.600   3.388   6.809 -0.3587 -1.4731 -0.4943
 1100SOL    HW214760   2.708   3.319   6.875  0.3138  0.6173  0.4481
 1101SOL     OW14761   1.320   3.284   5.058  0.2963  0.2689 -0.0928
 1101SOL    HW114762   1.335   3.375   5.082  1.3866 -0.0421  0.3829
 1101SOL    HW214763   1.387   3.271   4.991  0.2747 -2.1422  0.3472
 1102SOL     OW14764   4.270   4.185  13.370  0.2984  0.0436  0.3005
 1102SOL    HW114765   4.289   4.275  13.346 -0.9115 -0.2609 -1.7879
 1102SOL    HW214766   4.184   4.180  13.330  0.0923  0.2385  0.7171
 1103SOL     OW14767   2.513   1.847   6.434 -0.0115 -1.7264  0.1230
 1103SOL    HW114768   2.436   1.903   6.423 -0.1815 -1.9513  0.1495
 1103SOL    HW214769   2.590   1.904   6.436 -0.7440 -0.7787  1.4725
 1104SOL     OW14770   3.735   1.025   1.963 -0.6606  0.1495 -0.3672
 1104SOL    HW114771   3.720   1.119   1.955  1.6295  0.5334 -0.2901
 1104SOL    HW214772   3.656   1.006   2.014  0.6007 -3.0851  0.4199
 1105SOL     OW14773   3.202   4.647  16.174 -0.0249  0.3226  0.1443
 1105SOL    HW114774   3.289   4.609  16.166 -0.7728 -1.0873 -1.1804
 1105SOL    HW214775   3.230   4.703  16.247 -0.0957  0.6383 -0.0709
 1106SOL     OW14776   3.549   3.598   6.529 -0.0990  0.6745  0.6883
 1106SOL    HW114777   3.557   3.508   6.562 -2.8883 -0.4719 -1.8030
 1106SOL    HW214778   3.634   3.633   6.502  0.9368 -1.8248  0.6528
 1107SOL     OW14779   2.887   2.290   2.012 -0.0904  0.3594  0.2839
 1107SOL    HW114780   2.818   2.228   2.037  0.0158  0.4906  0.8858
 1107SOL    HW214781   2.837   2.372   2.006  1.2480  1.1531 -0.0860
 1108SOL     OW14782   1.242   3.539  16.476 -0.3438 -0.1266 -0.0506
 1108SOL    HW114783   1.239   3.606  16.408  1.5697  0.1134  0.1108
 1108SOL    HW214784   1.233   3.459  16.424 -2.5596 -0.1940  0.4145
 1109SOL     OW14785   2.774   2.490  11.904 -0.6793  0.1953 -0.4224
 1109SOL    HW114786   2.705   2.490  11.971 -0.2133  0.7422  0.0614
 1109SOL    HW214787   2.744   2.425  11.840  1.4685 -0.0067 -1.2293
 1110SOL     OW14788   1.094   2.532  10.070 -0.3337  0.5796 -0.0499
 1110SOL    HW114789   1.019   2.567  10.118 -0.4066 -3.0613  2.5305
 1110SOL    HW214790   1.167   2.547  10.130  1.0558  0.1369 -1.6622
 1111SOL     OW14791   1.251   1.155   8.039  0.5087 -0.1175  0.3612
 1111SOL    HW114792   1.235   1.163   7.945  1.0916  0.7822  0.3441
 1111SOL    HW214793   1.331   1.102   8.042  0.0235 -0.8301  0.6491
 1112SOL     OW14794   3.122   0.431   4.739 -0.1271  0.3600  0.5398
 1112SOL    HW114795   3.075   0.448   4.658 -0.0147  3.5454  1.1107
 1112SOL    HW214796   3.111   0.516   4.782  0.2605  0.7801 -0.1970
 1113SOL     OW14797   2.290   0.621   6.351 -0.3965 -0.7827  0.6434
 1113SOL    HW114798   2.332   0.640   6.435  1.5705 -1.8852 -0.1031
 1113SOL    HW214799   2.200   0.649   6.368  0.1466  1.0278  0.6115
 1114SOL     OW14800   2.089   3.093   5.465  0.5396 -0.4084 -0.0627
 1114SOL    HW114801   2.144   3.133   5.396  1.6409  1.1295  1.7094
 1114SOL    HW214802   2.134   3.128   5.542  0.1459  0.1684 -0.0953
 1115SOL     OW14803   0.026   4.623  17.337  0.3953  0.5014  0.2317
 1115SOL    HW114804   4.658   4.621  17.316  0.0691  0.3445  1.7129
 1115SOL    HW214805   0.037   4.530  17.352  1.3789  0.8924  1.9154
 1116SOL     OW14806   2.623   3.477  10.421  0.7392  0.5572  0.2334
 1116SOL    HW114807   2.631   3.404  10.360 -1.2438  0.8158 -0.3356
 1116SOL    HW214808   2.537   3.514  10.403 -0.7203 -1.3747  3.1903
 1117SOL     OW14809   3.197   0.001  15.280 -0.5580 -0.1843 -0.1311
 1117SOL    HW114810   3.223   0.005  15.188  1.4298 -1.0432  0.3940
 1117SOL    HW214811   3.256   0.073  15.306 -1.5384  0.7822 -0.5721
 1118SOL     OW14812   1.872   4.283   5.677 -0.2589 -0.0009 -0.4938
 1118SOL    HW114813   1.877   4.189   5.660  0.1235 -0.2734  1.1286
 1118SOL    HW214814   1.949   4.318   5.633 -0.1653  0.2570 -0.1341
 1119SOL     OW14815   3.975   2.200   5.623  0.2673 -0.4978 -0.4305
 1119SOL    HW114816   4.061   2.179   5.585  0.2541 -3.6249  1.2405
 1119SOL    HW214817   3.917   2.176   5.551 -0.8332  1.8890 -0.3142
 1120SOL     OW14818   3.957   3.005   3.121  0.7556  0.2893  0.3344
 1120SOL    HW114819   3.890   3.034   3.059 -0.4870 -1.1129  1.0306
 1120SOL    HW214820   4.007   2.945   3.066  0.1395  0.5133 -0.4667
 1121SOL     OW14821   2.334   1.082  10.809  0.4223  0.0821  0.4520
 1121SOL    HW114822   2.352   0.989  10.826 -2.8040 -0.3630  1.4292
 1121SOL    HW214823   2.272   1.077  10.736 -1.7219 -3.0412  2.4672
 1122SOL     OW14824   2.547   3.205  16.240  0.1987 -0.3555  0.3801
 1122SOL    HW114825   2.543   3.233  16.148 -1.6144 -0.7122  0.3504
 1122SOL    HW214826   2.454   3.197  16.261  0.1590 -0.0958  0.3038
 1123SOL     OW14827   2.910   3.355   9.037  0.3127 -0.0085  0.4982
 1123SOL    HW114828   2.866   3.374   9.120 -0.1924  0.3474  0.1476
 1123SOL    HW214829   2.984   3.415   9.030  0.7625 -0.7300 -1.0252
 1124SOL     OW14830   1.735   3.833   4.652 -0.1061  0.3325 -0.2925
 1124SOL    HW114831   1.703   3.872   4.733  0.0095  3.0533 -1.5329
 1124SOL    HW214832   1.723   3.908   4.593 -0.5484 -0.8174 -1.6574
 1125SOL     OW14833   1.611   4.446   4.929  0.9494 -0.6334 -0.2533
 1125SOL    HW114834   1.571   4.531   4.949  0.6472 -1.0302  0.7939
 1125SOL    HW214835   1.596   4.439   4.834 -1.1955 -1.0010  0.1193
 1126SOL     OW14836   0.590   4.616   0.630 -0.3064 -0.1550 -0.3480
 1126SOL    HW114837   0.630   4.648   0.711  2.4025 -0.6660 -1.4770
 1126SOL    HW214838   0.545   4.537   0.659  0.2687 -0.2696  0.2187
 1127SOL     OW14839   0.664   2.814  11.543 -0.4165  0.2952 -0.6016
 1127SOL    HW114840   0.619   2.755  11.483 -0.3708 -0.3786  0.0328
 1127SOL    HW214841   0.750   2.772  11.537  0.0002  1.0660  0.0151
 1128SOL     OW14842   4.580   3.076   1.434  0.7483 -0.1607  0.5344
 1128SOL    HW114843   4.636   2.998   1.446 -1.4507 -2.0886 -1.8710
 1128SOL    HW214844   4.605   3.115   1.518  0.4651 -0.5973  0.8201
 1129SOL     OW14845   0.144   2.525   7.524 -0.3510 -0.1473  0.1852
 1129SOL    HW114846   0.232   2.493   7.502  0.0874  1.8525 -1.0110
 1129SOL    HW214847   0.157   2.620   7.527  3.5353 -0.6748  1.0201
 1130SOL     OW14848   1.746   2.325   7.665 -0.7940  0.8249  0.1012
 1130SOL    HW114849   1.782   2.343   7.578  1.5687  1.4252  1.2065
 1130SOL    HW214850   1.738   2.230   7.655 -1.4628  0.5745  3.1141
 1131SOL     OW14851   2.952   3.663   9.224  0.3903  0.1356  0.2409
 1131SOL    HW114852   3.009   3.726   9.181 -0.2515  0.4815 -0.0993
 1131SOL    HW214853   2.984   3.680   9.313 -0.8217  0.8211  0.5469
 1132SOL     OW14854   2.799   2.311   3.650 -0.1306 -0.1239 -0.9045
 1132SOL    HW114855   2.727   2.375   3.651  0.6265  0.7209 -1.0785
 1132SOL    HW214856   2.835   2.310   3.739 -0.2157 -1.0780 -0.8737
 1133SOL     OW14857   3.026   0.355   0.813  0.1052  0.1986  0.1707
 1133SOL    HW114858   3.015   0.326   0.904  1.2672  1.1136  0.6045
 1133SOL    HW214859   3.002   0.272   0.772  2.0126 -1.7575  3.0027
 1134SOL     OW14860   0.126   3.802   3.253  0.4943  0.4018  0.4886
 1134SOL    HW114861   0.085   3.810   3.167  1.0890  0.0740  0.1721
 1134SOL    HW214862   0.171   3.886   3.249  0.9889  0.0840 -0.7931
 1135SOL     OW14863   2.511   4.058   5.629 -0.4621  0.0378  0.3272
 1135SOL    HW114864   2.563   4.016   5.561 -0.3406 -0.8092  0.9383
 1135SOL    HW214865   2.536   4.008   5.707 -0.1201 -0.8351 -0.3416
 1136SOL     OW14866   4.126   4.174   9.889 -0.9076 -0.5567  0.5607
 1136SOL    HW114867   4.099   4.082   9.885 -1.7448 -0.2406 -1.3550
 1136SOL    HW214868   4.051   4.206   9.837 -1.7234 -1.7191  1.0148
 1137SOL     OW14869   3.316   0.994  15.034 -0.4271 -0.1038  0.5945
 1137SOL    HW114870   3.292   0.903  15.014 -2.0616  1.1997 -3.2908
 1137SOL    HW214871   3.315   1.043  14.952 -1.1556  0.3999  0.9009
 1138SOL     OW14872   0.316   2.095   6.249 -0.0008  0.2344  0.1471
 1138SOL    HW114873   0.303   2.187   6.225 -1.4617 -0.4331 -1.6556
 1138SOL    HW214874   0.396   2.073   6.200  1.0476  0.0667  1.9338
 1139SOL     OW14875   0.992   1.784  14.164  0.2122  0.5170  0.0461
 1139SOL    HW114876   0.982   1.857  14.224  0.0735  1.6286 -1.3321
 1139SOL    HW214877   1.038   1.816  14.086  1.5973  1.3909  1.2262
 1140SOL     OW14878   3.424   2.934  16.906  0.1774 -0.6050  0.3728
 1140SOL    HW114879   3.509   2.940  16.950 -0.3099  4.8014  0.6122
 1140SOL    HW214880   3.371   2.958  16.982  0.1401 -0.4315  0.2924
 1141SOL     OW14881   0.619   1.483  10.589  0.1748 -0.1910 -0.6306
 1141SOL    HW114882   0.695   1.474  10.532  1.6203 -2.1299  1.5681
 1141SOL    HW214883   0.555   1.441  10.532 -1.3315  3.1376 -1.3922
 1142SOL     OW14884   1.998   0.096   4.966 -0.3136  0.1404 -0.8142
 1142SOL    HW114885   2.050   0.047   5.030 -1.4643 -1.1461 -0.8733
 1142SOL    HW214886   2.041   0.182   4.961  1.0498 -0.5004 -0.2225
 1143SOL     OW14887   4.368   4.651   9.504  0.0240  0.1964 -0.5144
 1143SOL    HW114888   4.380   4.613   9.591 -1.0059 -0.5037 -0.6757
 1143SOL    HW214889   4.312   4.580   9.474  1.4173 -0.0545 -2.5790
 1144SOL     OW14890   4.170   3.807   2.664  0.1404  0.3779 -0.6298
 1144SOL    HW114891   4.221   3.825   2.585 -1.2170  0.5434 -1.4757
 1144SOL    HW214892   4.203   3.869   2.729  0.0790 -0.0589 -0.1819
 1145SOL     OW14893   0.697   1.334   5.783 -0.3570 -0.5367 -0.8773
 1145SOL    HW114894   0.611   1.328   5.824 -0.0124  0.4729 -0.0135
 1145SOL    HW214895   0.718   1.416   5.828 -1.2135 -0.1965 -1.0955
 1146SOL     OW14896   2.344   0.330   6.559  0.4029  0.2173  0.3178
 1146SOL    HW114897   2.352   0.267   6.487  1.4189  2.0049 -1.1478
 1146SOL    HW214898   2.436   0.355   6.566  0.8539 -1.6270  1.1234
 1147SOL     OW14899   1.545   1.718   8.281 -0.6880  0.0822 -0.5497
 1147SOL    HW114900   1.490   1.681   8.350 -1.9312 -0.1687 -1.6753
 1147SOL    HW214901   1.550   1.648   8.215  0.9110 -0.6743  0.3747
 1148SOL     OW14902   2.254   0.622   2.614  0.4617  0.0465  0.0208
 1148SOL    HW114903   2.191   0.633   2.685  1.2703  0.1119  0.7313
 1148SOL    HW214904   2.229   0.697   2.560  0.1596 -0.4683 -0.5461
 1149SOL     OW14905   2.773   2.450  14.368 -0.8667  0.6698  0.3277
 1149SOL    HW114906   2.702   2.395  14.401 -0.6623  0.2168  0.0181
 1149SOL    HW214907   2.734   2.473  14.285  1.2636 -2.0771 -1.4592
 1150SOL     OW14908   4.546   1.195   4.080 -0.2039 -0.3986 -0.7568
 1150SOL    HW114909   4.538   1.252   4.157  0.2441 -1.2907 -0.0521
 1150SOL    HW214910   4.458   1.194   4.043 -0.3878 -0.7322 -0.3063
 1151SOL     OW14911   2.668   0.840  12.387 -0.3459 -0.3961 -0.3655
 1151SOL    HW114912   2.669   0.932  12.360 -3.0525  0.3822  2.1615
 1151SOL    HW214913   2.574   0.823  12.388 -0.4207  0.0213  0.7514
 1152SOL     OW14914   1.279   2.771   6.436  0.4237 -0.2873 -0.2831
 1152SOL    HW114915   1.371   2.759   6.460  0.7259 -0.4596 -1.5264
 1152SOL    HW214916   1.299   2.794   6.346 -1.1000  0.3062 -0.4743
 1153SOL     OW14917   0.988   1.353   6.738 -0.4214 -0.4126  0.1415
 1153SOL    HW114918   0.955   1.396   6.818  0.3500  1.8743 -0.7823
 1153SOL    HW214919   1.081   1.371   6.749 -0.6965  1.8783 -1.4148
 1154SOL     OW14920   0.125   3.477   3.719 -0.0809 -0.6974  0.6040
 1154SOL    HW114921   0.041   3.518   3.700 -1.6990 -3.6129  1.3854
 1154SOL    HW214922   0.183   3.549   3.746  0.0080 -0.6692  0.3404
 1155SOL     OW14923   1.662   2.142   1.826  0.0451  0.1369  0.2596
 1155SOL    HW114924   1.723   2.182   1.764 -1.6899 -0.7910 -2.0157
 1155SOL    HW214925   1.584   2.197   1.812 -0.1765 -0.7443 -1.9257
 1156SOL     OW14926   0.227   1.232   2.710  0.3745 -0.2669 -0.2085
 1156SOL    HW114927   0.266   1.199   2.791  1.4148  0.4457 -0.4268
 1156SOL    HW214928   0.139   1.247   2.745  1.1251 -0.8131  1.8827
 1157SOL     OW14929   1.759   0.995   5.450  0.1028 -0.0655  0.1715
 1157SOL    HW114930   1.693   0.946   5.500 -0.4274 -2.4895 -2.8600
 1157SOL    HW214931   1.722   1.000   5.362  0.2106  1.1970  0.2107
 1158SOL     OW14932   4.237   4.433  13.265  0.0774 -0.8986  0.1548
 1158SOL    HW114933   4.328   4.460  13.262 -0.4903  1.0269  0.6012
 1158SOL    HW214934   4.196   4.519  13.255  3.4988  0.8992  1.4996
 1159SOL     OW14935   2.553   2.220   3.333 -0.6301 -0.3042  0.7924
 1159SOL    HW114936   2.478   2.248   3.386  0.1037  2.7960  0.1388
 1159SOL    HW214937   2.601   2.184   3.408  0.5069 -1.2598 -0.3944
 1160SOL     OW14938   3.204   2.403   6.351  0.5288 -0.5499  0.2047
 1160SOL    HW114939   3.157   2.464   6.408 -0.3565 -1.2182  0.1886
 1160SOL    HW214940   3.223   2.462   6.278  0.2608 -0.7536 -0.0286
 1161SOL     OW14941   4.694   2.452   9.184 -0.3209  0.6379  0.2541
 1161SOL    HW114942   0.054   2.494   9.183 -0.0946  0.1058 -2.5913
 1161SOL    HW214943   4.663   2.496   9.263 -1.8189 -1.7534  1.0217
 1162SOL     OW14944   0.801   0.170   2.872 -0.3233 -0.0062  0.3893
 1162SOL    HW114945   0.765   0.258   2.871 -1.5005 -0.5419 -3.4916
 1162SOL    HW214946   0.724   0.121   2.842 -0.2962  0.4880 -0.4738
 1163SOL     OW14947   3.045   1.595  13.151  0.0518  0.3334 -0.5382
 1163SOL    HW114948   3.044   1.503  13.177 -1.1303  0.5746  0.2622
 1163SOL    HW214949   3.037   1.632  13.239  0.3957  1.1243 -0.8368
 1164SOL     OW14950   4.392   1.912   3.161 -0.1514 -0.2003 -0.2358
 1164SOL    HW114951   4.344   1.928   3.242  0.3663 -0.5796  0.1478
 1164SOL    HW214952   4.353   1.828   3.137  0.2477 -0.1740 -0.9908
 1165SOL     OW14953   1.101   2.337  11.118 -0.6242  0.0154 -0.2914
 1165SOL    HW114954   1.105   2.275  11.045 -0.2144 -0.1730 -0.1096
 1165SOL    HW214955   1.021   2.382  11.092  0.2013  1.7319  0.1533
 1166SOL     OW14956   2.226   1.964  15.131  0.2315  0.1005 -0.0555
 1166SOL    HW114957   2.240   2.034  15.195  1.1056 -1.6563  1.7102
 1166SOL    HW214958   2.270   2.009  15.059 -0.9038  0.7746 -0.3190
 1167SOL     OW14959   0.466   2.702  15.583  0.0643  0.2660  0.0286
 1167SOL    HW114960   0.389   2.758  15.593  0.4084  0.3291  2.4139
 1167SOL    HW214961   0.472   2.660  15.669 -0.0651 -0.3570 -0.2666
 1168SOL     OW14962   1.179   3.937   5.358 -0.3711  0.3963 -0.7488
 1168SOL    HW114963   1.144   3.968   5.441 -0.2423  2.8243 -1.5986
 1168SOL    HW214964   1.218   4.019   5.328  2.1689 -0.5005  0.0814
 1169SOL     OW14965   1.225   0.330   8.030 -0.6230  0.6848 -0.0480
 1169SOL    HW114966   1.137   0.334   8.066 -1.5141 -0.7681 -2.0813
 1169SOL    HW214967   1.272   0.358   8.109  1.2446 -1.3673 -0.4428
 1170SOL     OW14968   2.041   3.113   2.000  0.5901 -0.1515 -0.8084
 1170SOL    HW114969   2.033   3.202   1.965 -1.0557  0.2061  0.5002
 1170SOL    HW214970   2.135   3.116   2.019  0.7451  1.6389 -1.8661
 1171SOL     OW14971   4.330   3.315   2.915 -0.4925  0.3169 -0.0835
 1171SOL    HW114972   4.297   3.243   2.968 -2.5352  2.9620  2.1999
 1171SOL    HW214973   4.246   3.341   2.878 -0.6917 -0.7688 -0.3809
 1172SOL     OW14974   4.107   3.369  17.083  0.6219  0.0948 -0.0399
 1172SOL    HW114975   4.022   3.412  17.097  1.6965  1.8341  1.1691
 1172SOL    HW214976   4.167   3.441  17.102  0.2819  0.1538  0.8363
 1173SOL     OW14977   2.679   0.312   4.069 -0.7333 -0.2219 -0.6729
 1173SOL    HW114978   2.642   0.381   4.014  0.8958 -0.8075 -2.5120
 1173SOL    HW214979   2.770   0.342   4.067  0.4955 -3.8548  1.0762
 1174SOL     OW14980   3.713   0.453  13.683  0.4230 -0.3016  0.3338
 1174SOL    HW114981   3.796   0.484  13.719  1.2063 -1.7340 -0.2460
 1174SOL    HW214982   3.674   0.539  13.668  1.0274  0.0317  0.6745
 1175SOL     OW14983   0.342   4.533   3.776  0.4848  0.3037 -0.4115
 1175SOL    HW114984   0.373   4.466   3.837 -0.4035  0.4839  0.2354
 1175SOL    HW214985   0.428   4.571   3.762  1.0627 -0.5522  0.8102
 1176SOL     OW14986   1.804   4.225   6.167  0.2814 -0.0474 -0.8574
 1176SOL    HW114987   1.713   4.240   6.193  0.7063 -1.2492  1.3585
 1176SOL    HW214988   1.838   4.160   6.229 -2.0914  0.5457  1.0721
 1177SOL     OW14989   1.984   0.321   7.960 -0.2309 -0.3201 -0.4284
 1177SOL    HW114990   1.991   0.232   7.994  2.8247 -0.3192 -1.0645
 1177SOL    HW214991   1.993   0.364   8.045 -0.5671 -0.8084 -0.1461
 1178SOL     OW14992   4.499   3.956   3.139  0.6139  0.2867  0.1302
 1178SOL    HW114993   4.543   4.002   3.210 -0.4099  0.9809  0.3136
 1178SOL    HW214994   4.568   3.893   3.117 -0.3162 -0.8601  0.5350
 1179SOL     OW14995   0.547   1.796   2.984 -0.4351  0.6650 -0.5339
 1179SOL    HW114996   0.617   1.735   2.965  0.2398  1.3945 -0.3845
 1179SOL    HW214997   0.564   1.816   3.076  1.8676  0.0368 -0.8464
 1180SOL     OW14998   2.938   1.061   9.920 -0.4338  0.5999 -0.1328
 1180SOL    HW114999   3.004   1.098   9.978 -1.2926  1.1658  0.4772
 1180SOL    HW215000   2.861   1.056   9.977 -0.2722 -0.0164  0.0363
 1181SOL     OW15001   3.999   1.766  17.019 -0.1402 -0.3450  0.3629
 1181SOL    HW115002   3.941   1.701  16.978 -1.2730  2.1853 -2.0543
 1181SOL    HW215003   3.934   1.830  17.046  0.7733  0.8165 -0.1630
 1182SOL     OW15004   4.661   3.671  12.105  0.2233 -0.7187  0.0767
 1182SOL    HW115005   4.690   3.631  12.023  0.9530  0.2838 -0.1550
 1182SOL    HW215006   4.704   3.757  12.101 -1.6062  0.2682  1.3054
 1183SOL     OW15007   0.297   0.693   4.649 -0.5453 -0.3612 -0.5519
 1183SOL    HW115008   0.206   0.663   4.645 -1.1181  1.3287 -0.3122
 1183SOL    HW215009   0.292   0.781   4.610  1.5623 -0.2184 -0.4801
 1184SOL     OW15010   1.973   2.827   4.294  0.1854  0.3029  0.0202
 1184SOL    HW115011   1.980   2.899   4.232 -0.3135 -1.9531 -2.6447
 1184SOL    HW215012   2.051   2.832   4.350  1.6914  0.2423 -2.1059
 1185SOL     OW15013   4.700   1.075   0.779 -0.0129  0.2573 -0.4759
 1185SOL    HW115014   4.702   1.006   0.712 -0.2994 -0.1858 -0.0321
 1185SOL    HW215015   0.064   1.067   0.812  0.3616 -2.9503 -2.1815
 1186SOL     OW15016   0.885   1.354   2.456  0.2114  0.2602 -0.2548
 1186SOL    HW115017   0.902   1.324   2.546 -0.4697 -0.2696 -0.3112
 1186SOL    HW215018   0.917   1.443   2.475  0.5456  0.0678  0.0759
 1187SOL     OW15019   3.207   2.256   8.268 -0.1727 -0.3318 -0.4826
 1187SOL    HW115020   3.220   2.165   8.240 -2.4008 -0.8268  0.1319
 1187SOL    HW215021   3.182   2.252   8.360  4.2141 -1.6258  0.7103
 1188SOL     OW15022   0.010   1.756   6.880 -0.2275  0.0358 -0.3651
 1188SOL    HW115023   4.654   1.707   6.894  0.6226 -1.2072  0.1963
 1188SOL    HW215024   0.027   1.735   6.789 -0.0940  1.3140 -0.6365
 1189SOL     OW15025   2.214   3.605  14.470 -0.0859  0.2293 -0.1958
 1189SOL    HW115026   2.270   3.537  14.508 -1.1619  0.5405  1.9262
 1189SOL    HW215027   2.266   3.643  14.399  1.8020 -2.3013 -0.1603
 1190SOL     OW15028   0.083   1.715   9.070  0.0158 -0.4901  0.3643
 1190SOL    HW115029   0.124   1.647   9.123  2.7281 -0.8866 -2.2447
 1190SOL    HW215030   0.033   1.663   9.007 -0.1569  0.6815 -0.4842
 1191SOL     OW15031   3.847   3.743  17.285  0.0357 -0.2796  0.2924
 1191SOL    HW115032   3.857   3.674  17.352  2.1990 -1.6453 -1.4316
 1191SOL    HW215033   3.924   3.798  17.298  0.6568 -0.7530 -1.4305
 1192SOL     OW15034   0.948   3.959  12.443  0.2061 -0.2380 -0.1834
 1192SOL    HW115035   0.966   4.016  12.368  0.2325  0.3622  0.2753
 1192SOL    HW215036   0.934   3.874  12.402 -0.7397  0.2109 -0.8168
 1193SOL     OW15037   1.259   3.937  13.879  0.3960 -0.2050 -0.2993
 1193SOL    HW115038   1.272   3.901  13.967 -0.0021 -3.1611 -1.4796
 1193SOL    HW215039   1.320   3.882  13.829 -0.3543  0.6911 -2.1911
 1194SOL     OW15040   4.008   1.067   5.127  0.1305  0.2612 -0.3277
 1194SOL    HW115041   3.950   0.991   5.130  2.1394 -1.3138 -0.7090
 1194SOL    HW215042   4.049   1.040   5.045 -0.4855  1.0846 -0.8989
 1195SOL     OW15043   1.548   0.026   3.632  0.4625  0.3697  0.0110
 1195SOL    HW115044   1.567   4.709   3.549 -1.8989  1.4029 -1.0555
 1195SOL    HW215045   1.623   0.082   3.647  2.4465 -1.3997 -3.4297
 1196SOL     OW15046   1.038   2.401   4.289  0.0210  0.4618  0.4555
 1196SOL    HW115047   0.950   2.371   4.312 -0.2843  2.0442  1.3300
 1196SOL    HW215048   1.078   2.318   4.265 -0.3795  0.4961 -0.3540
 1197SOL     OW15049   2.216   0.688   4.115  0.3614  0.3970 -0.0158
 1197SOL    HW115050   2.309   0.714   4.115  0.4550  0.0384 -1.4058
 1197SOL    HW215051   2.172   0.767   4.082 -0.0635  0.1468 -0.0458
 1198SOL     OW15052   0.829   3.141   6.120 -0.4730 -0.1216  0.1716
 1198SOL    HW115053   0.822   3.211   6.185  0.1817  0.5669 -0.5011
 1198SOL    HW215054   0.855   3.191   6.042 -0.4195 -0.4194 -0.0004
 1199SOL     OW15055   3.825   1.603   8.787  0.1947  0.3782 -0.0425
 1199SOL    HW115056   3.820   1.653   8.706 -1.5655 -0.6034 -0.5325
 1199SOL    HW215057   3.745   1.552   8.778  0.9833 -0.8583 -0.1153
 1200SOL     OW15058   4.692   4.556   3.739  0.0844 -0.5888 -0.0488
 1200SOL    HW115059   0.043   4.501   3.721  0.4957  0.1232 -0.4943
 1200SOL    HW215060   4.656   4.514   3.817  0.1769  0.6012  0.6324
 1201SOL     OW15061   2.754   1.746   5.558 -0.1289  0.4487  0.3278
 1201SOL    HW115062   2.802   1.770   5.637  2.8733  0.3325 -1.4780
 1201SOL    HW215063   2.680   1.806   5.560 -0.6258 -0.0661 -2.6538
 1202SOL     OW15064   2.812   4.477   2.206 -0.3619 -0.2484  0.0308
 1202SOL    HW115065   2.740   4.452   2.263  0.1823  0.2398  0.9276
 1202SOL    HW215066   2.804   4.412   2.136 -0.4707  0.2996 -0.4759
 1203SOL     OW15067   1.851   0.792   3.542  0.4498 -0.4566 -0.0774
 1203SOL    HW115068   1.927   0.839   3.508  0.8553 -0.1745  1.2052
 1203SOL    HW215069   1.885   0.702   3.548 -2.8357 -1.9184 -4.0578
 1204SOL     OW15070   1.315   3.560   1.780 -0.2725 -0.2495 -0.4554
 1204SOL    HW115071   1.296   3.490   1.843 -1.3389 -0.0521 -0.5453
 1204SOL    HW215072   1.407   3.576   1.799 -0.1024  0.1921 -1.6959
 1205SOL     OW15073   1.358   1.824  16.072 -0.0562 -0.2104 -0.4928
 1205SOL    HW115074   1.378   1.733  16.051 -0.3790 -0.5604  0.7501
 1205SOL    HW215075   1.279   1.808  16.122  1.1391  0.2214  1.5314
 1206SOL     OW15076   1.103   2.872   2.430 -0.2433 -0.1561  0.2491
 1206SOL    HW115077   1.082   2.861   2.522 -1.2114 -1.5411 -0.1278
 1206SOL    HW215078   1.182   2.819   2.424 -0.6575 -1.0728  3.3778
 1207SOL     OW15079   0.767   2.120   7.957 -0.6461 -0.4059  0.0165
 1207SOL    HW115080   0.834   2.077   7.904 -0.0090 -0.8204  1.1732
 1207SOL    HW215081   0.704   2.121   7.885  1.8799  0.8634 -2.1913
 1208SOL     OW15082   1.355   3.168   3.030 -0.8932 -0.2063  0.3783
 1208SOL    HW115083   1.394   3.193   2.946 -0.0446 -0.5533  0.6674
 1208SOL    HW215084   1.440   3.149   3.071  0.4804  2.3405 -1.2759
 1209SOL     OW15085   0.362   3.595  16.992  0.0780 -0.2349 -0.4081
 1209SOL    HW115086   0.336   3.680  17.027 -1.2367 -0.0757 -1.7615
 1209SOL    HW215087   0.293   3.572  16.930 -0.7645 -1.0475  0.8323
 1210SOL     OW15088   0.470   4.219   8.962  0.3910  0.1649  0.8936
 1210SOL    HW115089   0.430   4.164   8.895 -1.1056  0.6714  1.3731
 1210SOL    HW215090   0.550   4.169   8.979  0.6600  0.7063  1.2130
 1211SOL     OW15091   0.939   1.009   5.956  0.1876 -0.3220 -0.0860
 1211SOL    HW115092   1.005   1.074   5.982  1.0703 -1.6811  1.0741
 1211SOL    HW215093   0.907   1.001   6.046 -0.6357 -1.9317 -0.5285
 1212SOL     OW15094   2.855   1.076   3.921 -0.3057  0.3211  0.3689
 1212SOL    HW115095   2.949   1.094   3.926 -0.1619 -0.1696 -0.5957
 1212SOL    HW215096   2.818   1.164   3.914  0.5345  0.5815 -0.7301
 1213SOL     OW15097   0.403   4.548  15.608 -0.3834 -0.3437 -0.3592
 1213SOL    HW115098   0.318   4.506  15.625  0.8959 -1.7516  2.5183
 1213SOL    HW215099   0.441   4.490  15.542  3.3079  0.2031  1.2708
 1214SOL     OW15100   1.996   0.497  16.895  0.2507 -0.0971 -0.0717
 1214SOL    HW115101   2.027   0.421  16.846  1.4003  0.7226 -0.6128
 1214SOL    HW215102   1.913   0.458  16.921  0.9923 -3.0343 -2.1798
 1215SOL     OW15103   2.469   2.937   5.105 -0.2976 -0.1709 -0.3474
 1215SOL    HW115104   2.503   2.882   5.035  1.2634  1.4847 -0.9057
 1215SOL    HW215105   2.389   2.970   5.065 -0.8145 -0.4757  0.4456
 1216SOL     OW15106   1.578   3.538   9.325 -0.6442 -0.1384 -0.3035
 1216SOL    HW115107   1.619   3.452   9.332  0.6938  0.6218  1.2324
 1216SOL    HW215108   1.542   3.562   9.410  0.3690  1.3914 -0.2988
 1217SOL     OW15109   4.126   2.607  10.972  0.0839 -0.1199  0.0029
 1217SOL    HW115110   4.173   2.579  11.050  0.8260 -0.1798 -0.4673
 1217SOL    HW215111   4.038   2.621  11.009 -1.1274 -1.8753 -2.1833
 1218SOL     OW15112   3.454   3.798   0.641 -0.7666 -0.3442 -0.3656
 1218SOL    HW115113   3.521   3.827   0.579 -1.4470  3.3786  0.6849
 1218SOL    HW215114   3.442   3.706   0.617  0.7834 -0.1906 -1.7680
 1219SOL     OW15115   4.093   4.064   5.639 -0.1540 -0.2706  0.5717
 1219SOL    HW115116   3.999   4.057   5.623  0.0689 -1.5785 -0.1062
 1219SOL    HW215117   4.111   3.970   5.640  0.9615 -0.0475  1.5006
 1220SOL     OW15118   1.012   1.736   9.827  0.3218  0.5844  0.2366
 1220SOL    HW115119   1.100   1.722   9.791  0.4917 -0.6970  1.1829
 1220SOL    HW215120   1.036   1.798   9.895 -0.2175  1.8134 -0.6779
 1221SOL     OW15121   2.214   1.800   7.008 -0.3794 -0.2252  0.0475
 1221SOL    HW115122   2.258   1.723   6.970 -0.2243 -0.1139 -0.0005
 1221SOL    HW215123   2.175   1.833   6.927  0.0023 -0.9062 -0.4138
 1222SOL     OW15124   3.938   0.417   1.184  0.0542  0.0354  0.8352
 1222SOL    HW115125   3.940   0.506   1.148  0.7179  0.4379  1.8686
 1222SOL    HW215126   3.843   0.403   1.189 -0.1760  1.3346 -0.0304
 1223SOL     OW15127   0.231   4.698  10.008 -0.8205  0.2326  0.1659
 1223SOL    HW115128   0.245   0.057   9.965  1.2554  0.2087  0.7867
 1223SOL    HW215129   0.230   4.725  10.100 -0.1410  1.1448 -0.0884
 1224SOL     OW15130   0.668   3.266   7.672  0.5951 -0.3393 -0.1265
 1224SOL    HW115131   0.681   3.283   7.579 -1.5013 -0.1889 -0.3899
 1224SOL    HW215132   0.573   3.267   7.680  0.6812 -0.3939  0.9806
 1225SOL     OW15133   0.713   0.168  11.880  0.2907  0.3096  0.2362
 1225SOL    HW115134   0.752   0.132  11.799  0.5162  1.1687 -0.0397
 1225SOL    HW215135   0.788   0.158  11.938 -1.0326 -0.6396  1.7623
 1226SOL     OW15136   4.042   4.594   4.487  0.2563 -0.0593  0.6131
 1226SOL    HW115137   3.981   4.666   4.481  0.9193  0.4874  0.4251
 1226SOL    HW215138   4.082   4.605   4.574 -0.1485 -0.0355  0.7923
 1227SOL     OW15139   3.687   1.199  10.769  0.0604  0.4725  0.2133
 1227SOL    HW115140   3.597   1.166  10.775 -0.3872  1.5009 -0.8611
 1227SOL    HW215141   3.729   1.170  10.850  2.2321  1.4245 -0.5881
 1228SOL     OW15142   4.426   0.813  10.872  0.8106 -0.1456  0.0171
 1228SOL    HW115143   4.335   0.809  10.904  0.4430  1.2707 -0.8530
 1228SOL    HW215144   4.457   0.876  10.938 -0.8342  1.7870 -1.0401
 1229SOL     OW15145   3.696   2.770   8.901  0.4950 -0.3458 -0.9597
 1229SOL    HW115146   3.766   2.715   8.867  0.8889 -0.0645 -0.6012
 1229SOL    HW215147   3.628   2.707   8.925 -0.3398  1.6765  1.9699
 1230SOL     OW15148   2.986   2.301  12.805 -0.1469 -0.0102 -0.5477
 1230SOL    HW115149   3.041   2.350  12.866  0.4625 -0.0956 -1.0425
 1230SOL    HW215150   2.990   2.367  12.736 -3.2326 -0.1158 -0.8321
 1231SOL     OW15151   4.040   1.016   3.536  0.3206 -0.4750  0.6008
 1231SOL    HW115152   3.960   1.024   3.587  0.7946  0.0152  1.2670
 1231SOL    HW215153   4.076   1.104   3.539 -1.5086  0.1268  4.0592
 1232SOL     OW15154   1.661   0.748   5.904 -0.2790 -0.5522  0.0926
 1232SOL    HW115155   1.744   0.772   5.864 -0.5199  1.4459  0.7489
 1232SOL    HW215156   1.668   0.653   5.906  1.6428 -0.4277 -1.9156
 1233SOL     OW15157   2.515   1.278  15.703 -0.0243 -0.4347 -0.0168
 1233SOL    HW115158   2.553   1.205  15.753  1.2901  0.5835  0.4547
 1233SOL    HW215159   2.568   1.353  15.729  0.3006 -0.8899  0.6365
 1234SOL     OW15160   1.461   1.292   1.068  0.0807  0.4741 -0.6246
 1234SOL    HW115161   1.465   1.349   1.144  0.6016 -0.7310  0.2479
 1234SOL    HW215162   1.517   1.345   1.010  1.4834  2.0411  2.1797
 1235SOL     OW15163   0.475   0.093   7.869  0.3444 -0.2009  0.0433
 1235SOL    HW115164   0.484   0.177   7.824 -0.5476 -0.1859 -0.1103
 1235SOL    HW215165   0.389   0.109   7.907  0.0200 -0.0890 -0.7319
 1236SOL     OW15166   0.334   1.236   7.544  0.3623  0.5077  0.1523
 1236SOL    HW115167   0.301   1.301   7.482 -2.2129 -1.2851 -0.3968
 1236SOL    HW215168   0.253   1.213   7.591 -0.0873  1.1463 -0.3169
 1237SOL     OW15169   3.147   4.233  15.588 -0.1055 -0.1564 -0.0022
 1237SOL    HW115170   3.070   4.238  15.645 -0.0826  2.1622 -0.1724
 1237SOL    HW215171   3.186   4.318  15.608  3.7887 -1.8487 -0.3660
 1238SOL     OW15172   3.276   4.502   4.020  0.0353 -0.2061  0.0736
 1238SOL    HW115173   3.307   4.582   4.063 -2.0124 -0.5246  2.0942
 1238SOL    HW215174   3.365   4.468   4.008 -0.6964 -2.0985  0.0417
 1239SOL     OW15175   2.342   2.521   9.758 -0.1404 -0.4254 -0.2850
 1239SOL    HW115176   2.252   2.553   9.770 -0.1729  0.3008 -2.5504
 1239SOL    HW215177   2.332   2.435   9.800  0.0428 -1.3632 -2.1861
 1240SOL     OW15178   1.855   3.168   3.423 -0.3856  0.2023  0.1965
 1240SOL    HW115179   1.862   3.123   3.339 -0.5216 -2.7219  1.7348
 1240SOL    HW215180   1.760   3.178   3.435 -0.0128  0.2441  3.1175
 1241SOL     OW15181   4.657   0.346   7.095 -0.4524  0.3225  0.6112
 1241SOL    HW115182   4.587   0.411   7.089  0.2343  0.9075 -1.0154
 1241SOL    HW215183   4.661   0.301   7.011 -1.1992  1.7285 -0.1748
 1242SOL     OW15184   3.691   4.141  14.289  0.0478 -0.1635  0.0101
 1242SOL    HW115185   3.655   4.087  14.359  1.2487 -1.7464 -0.6194
 1242SOL    HW215186   3.608   4.163  14.247 -1.2182 -0.2742  2.4062
 1243SOL     OW15187   3.281   0.799   8.270 -0.3828  0.5576 -0.8645
 1243SOL    HW115188   3.219   0.737   8.308 -1.6347  1.0999 -2.0117
 1243SOL    HW215189   3.348   0.731   8.264 -1.6157 -0.9215  2.4434
 1244SOL     OW15190   3.301   4.212  14.237 -0.3038  0.6428  0.4179
 1244SOL    HW115191   3.217   4.169  14.251  0.1126  0.3222  1.9187
 1244SOL    HW215192   3.356   4.166  14.300  0.9684  1.2194 -0.2720
 1245SOL     OW15193   3.705   0.774   6.691 -0.0164  0.1271 -0.2117
 1245SOL    HW115194   3.715   0.819   6.608  0.2842  0.1333 -0.1751
 1245SOL    HW215195   3.785   0.804   6.735  1.2832 -1.3895 -1.5347
 1246SOL     OW15196   1.325   3.056   0.672  0.4372 -0.4999  0.3703
 1246SOL    HW115197   1.348   3.114   0.599 -1.6878  1.2251  1.0729
 1246SOL    HW215198   1.331   3.126   0.737  0.3475 -1.3409  1.2811
 1247SOL     OW15199   1.185   0.349   6.768  0.3328  0.4170  0.0399
 1247SOL    HW115200   1.172   0.264   6.811  1.4475  0.2395  0.0274
 1247SOL    HW215201   1.184   0.414   6.838  1.8441  0.1523  0.3100
 1248SOL     OW15202   1.229   4.684   7.548  0.9024  0.2850 -0.2390
 1248SOL    HW115203   1.324   4.684   7.560  1.0298  0.0636 -1.2197
 1248SOL    HW215204   1.222   4.684   7.453  0.1189  0.3161 -0.1819
 1249SOL     OW15205   1.833   3.103   5.336  0.2655  0.1136 -0.5671
 1249SOL    HW115206   1.824   3.008   5.346 -0.8117  0.4897  2.1009
 1249SOL    HW215207   1.924   3.121   5.360  0.4303  1.7636 -2.4141
 1250SOL     OW15208   2.412   4.140  16.787  0.2838  0.4374  0.2041
 1250SOL    HW115209   2.362   4.145  16.706  1.5433 -0.7834 -0.6298
 1250SOL    HW215210   2.503   4.151  16.760  0.6024  3.1865  2.3973
 1251SOL     OW15211   2.425   1.162   7.346  0.5538  0.2078 -0.0232
 1251SOL    HW115212   2.388   1.244   7.379 -0.2606  0.2975 -1.1432
 1251SOL    HW215213   2.463   1.133   7.429  3.0716  0.0148 -1.2645
 1252SOL     OW15214   3.656   0.242   8.602  0.2356 -0.1999  0.3875
 1252SOL    HW115215   3.685   0.154   8.579 -0.9164  0.5694 -3.9490
 1252SOL    HW215216   3.577   0.218   8.650 -0.1435  0.5102  0.1255
 1253SOL     OW15217   1.320   2.510  11.321  0.0813 -0.0818  0.2539
 1253SOL    HW115218   1.375   2.569  11.372  0.1256 -1.4529  1.8008
 1253SOL    HW215219   1.388   2.457  11.278  1.9359  2.1040  0.5236
 1254SOL     OW15220   4.200   0.786  14.200  0.8360  0.6661 -0.3453
 1254SOL    HW115221   4.221   0.878  14.184  3.2224  0.3620  1.0507
 1254SOL    HW215222   4.275   0.762  14.255  1.9124  1.3406 -1.5368
 1255SOL     OW15223   3.450   2.807   0.390  0.0321 -0.5167  0.1614
 1255SOL    HW115224   3.530   2.831   0.345 -1.6212 -1.3862 -3.2218
 1255SOL    HW215225   3.404   2.886   0.362  1.4414  0.7461  1.3992
 1256SOL     OW15226   4.598   1.877   0.667  0.0404 -1.0545 -0.3771
 1256SOL    HW115227   4.541   1.916   0.733  0.3176 -1.8559  0.3409
 1256SOL    HW215228   4.626   1.799   0.715 -0.5585 -1.4292 -0.6360
 1257SOL     OW15229   3.971   3.600   0.290  0.2093  0.2509  0.5395
 1257SOL    HW115230   3.988   3.541   0.363  1.4519 -0.6642 -0.4843
 1257SOL    HW215231   4.017   3.674   0.328  2.4099 -0.7105 -0.2501
 1258SOL     OW15232   1.396   0.467   3.596 -0.1691  0.0111 -0.3434
 1258SOL    HW115233   1.370   0.462   3.688 -2.4745  0.9793 -0.9496
 1258SOL    HW215234   1.420   0.559   3.603 -1.8751  0.3121  1.5049
 1259SOL     OW15235   3.532   3.915   2.966 -0.1987 -0.0666 -0.1591
 1259SOL    HW115236   3.507   3.986   2.907 -0.1553  1.2185  1.3743
 1259SOL    HW215237   3.455   3.858   2.956 -0.7233  0.9175 -1.5752
 1260SOL     OW15238   2.762   2.110   3.975  0.2104  0.2993  0.1937
 1260SOL    HW115239   2.733   2.108   4.066 -2.5789  0.1000 -0.7051
 1260SOL    HW215240   2.840   2.166   3.979 -1.3645  2.5680 -0.9938
 1261SOL     OW15241   3.945   0.927   6.729 -0.3648 -0.3948 -0.1540
 1261SOL    HW115242   4.029   0.958   6.762 -1.1401  2.0125 -0.4108
 1261SOL    HW215243   3.902   1.010   6.706  3.9443  1.5000 -1.3567
 1262SOL     OW15244   3.111   3.418   9.713  0.5565 -0.0739 -0.1651
 1262SOL    HW115245   3.027   3.426   9.668  0.5930 -0.5842 -0.3195
 1262SOL    HW215246   3.170   3.469   9.657 -2.6498  1.8636 -1.7975
 1263SOL     OW15247   1.171   3.124   5.231  0.2047 -0.1762 -0.5151
 1263SOL    HW115248   1.231   3.181   5.182  1.6110  0.1491  1.6015
 1263SOL    HW215249   1.234   3.079   5.287  1.3034  2.1819  0.1738
 1264SOL     OW15250   1.834   2.891  16.239 -0.6609  0.0561 -0.3770
 1264SOL    HW115251   1.746   2.893  16.278 -0.4561 -1.8653  0.1908
 1264SOL    HW215252   1.878   2.952  16.298 -0.5906 -0.2603 -0.1043
 1265SOL     OW15253   0.246   1.742   7.020  0.0512 -0.4775 -0.7287
 1265SOL    HW115254   0.157   1.776   7.021 -0.3568 -1.6249  1.9731
 1265SOL    HW215255   0.226   1.675   6.955 -2.0372 -0.4968 -0.0675
 1266SOL     OW15256   1.852   0.203   2.897 -0.4410  0.0601  0.5803
 1266SOL    HW115257   1.799   0.154   2.834 -0.0949  0.3347  0.0711
 1266SOL    HW215258   1.929   0.147   2.907 -0.6738 -0.0516  1.7867
 1267SOL     OW15259   3.593   4.506   0.347 -0.1003  0.2082 -0.4165
 1267SOL    HW115260   3.633   4.580   0.301  0.8871  0.5230  0.9405
 1267SOL    HW215261   3.522   4.492   0.284 -0.3342  0.9567 -0.3206
 1268SOL     OW15262   3.088   1.001   4.947  0.4309  0.0530 -0.2843
 1268SOL    HW115263   3.150   0.982   5.018 -1.9566  0.8949  2.0568
 1268SOL    HW215264   3.053   0.921   4.909  2.4331 -0.9686  0.0370
 1269SOL     OW15265   2.706   2.002   8.038 -0.4316  0.4154  0.4570
 1269SOL    HW115266   2.718   2.016   8.132 -0.3785 -1.8220  0.7942
 1269SOL    HW215267   2.730   2.093   8.019  0.6985  0.2328  0.9939
 1270SOL     OW15268   2.272   2.720   2.010 -0.7074  0.1118 -0.1877
 1270SOL    HW115269   2.283   2.814   1.998 -2.5317  0.1158 -1.7465
 1270SOL    HW215270   2.189   2.710   1.964 -0.9184 -1.1020  0.4655
 1271SOL     OW15271   1.642   2.158   4.942  0.7162 -0.0780  0.2805
 1271SOL    HW115272   1.590   2.146   4.863 -1.1642 -0.0088  1.5185
 1271SOL    HW215273   1.588   2.211   5.000  1.2803  0.5528  0.2339
 1272SOL     OW15274   0.793   3.109   8.855 -0.3163 -0.0545  0.4410
 1272SOL    HW115275   0.827   3.159   8.929 -1.8529  0.1063  1.0408
 1272SOL    HW215276   0.703   3.096   8.886 -0.7699 -0.7276 -1.1649
 1273SOL     OW15277   2.822   4.601   3.072  0.3491 -0.0407 -0.1234
 1273SOL    HW115278   2.763   4.526   3.071 -1.1467  1.1197 -0.1348
 1273SOL    HW215279   2.907   4.562   3.053 -0.8401 -2.4998 -0.4359
 1274SOL     OW15280   0.594   2.170  13.604 -0.3606 -0.0103 -1.1847
 1274SOL    HW115281   0.566   2.257  13.575  1.5733  1.0737  0.1537
 1274SOL    HW215282   0.667   2.205  13.656  0.5851  1.0703 -3.2113
 1275SOL     OW15283   0.606   2.094   2.438 -0.5547 -0.6022  0.2717
 1275SOL    HW115284   0.541   2.164   2.434 -0.4451 -0.5683 -1.1076
 1275SOL    HW215285   0.618   2.090   2.343  1.9944 -0.9828  0.6098
 1276SOL     OW15286   1.187   4.098  14.371 -0.5469  0.1360 -0.5664
 1276SOL    HW115287   1.149   4.054  14.447  0.1993  0.6142  0.0853
 1276SOL    HW215288   1.142   4.054  14.299  0.1289 -1.1607 -0.2041
 1277SOL     OW15289   2.298   0.253   4.849 -0.5855  0.0320 -0.4241
 1277SOL    HW115290   2.366   0.186   4.858  0.2456  0.9572  0.2247
 1277SOL    HW215291   2.251   0.245   4.932 -0.0265 -1.9738 -0.2881
 1278SOL     OW15292   2.512   3.323   5.257  0.4729 -0.1502  0.0840
 1278SOL    HW115293   2.529   3.356   5.168 -1.5499 -0.3752 -0.3767
 1278SOL    HW215294   2.528   3.396   5.317 -0.2384 -0.4443  0.6226
 1279SOL     OW15295   1.582   2.473  11.044 -0.2364  0.2156 -0.7360
 1279SOL    HW115296   1.550   2.544  10.989  1.9313  2.4318  0.8964
 1279SOL    HW215297   1.539   2.396  11.005  3.0205 -0.1512 -3.6232
 1280SOL     OW15298   1.280   4.209   5.689 -0.5003  0.0997 -0.6262
 1280SOL    HW115299   1.260   4.302   5.701  2.2241  0.5779  0.3069
 1280SOL    HW215300   1.342   4.196   5.760  0.2239 -0.9644 -1.4467
 1281SOL     OW15301   0.251   1.844  13.712 -0.0653 -0.0581 -0.2866
 1281SOL    HW115302   0.181   1.780  13.720 -0.4132  0.5306  1.3414
 1281SOL    HW215303   0.227   1.897  13.788  0.7174  1.1345 -0.8566
 1282SOL     OW15304   1.091   0.299   3.843 -0.6775  0.6392 -0.0516
 1282SOL    HW115305   1.169   0.243   3.834 -0.2206  1.6112 -2.0625
 1282SOL    HW215306   1.120   0.358   3.913 -0.2199 -0.6197  0.8271
 1283SOL     OW15307   4.442   1.102   3.794 -0.3817 -0.1738  0.4337
 1283SOL    HW115308   4.442   1.144   3.708 -1.0633  0.2403  0.6288
 1283SOL    HW215309   4.369   1.143   3.841  0.1650  0.8662  0.3755
 1284SOL     OW15310   1.815   4.149   3.183  0.2443 -0.0805 -0.1729
 1284SOL    HW115311   1.818   4.143   3.279 -0.2875 -0.8950 -0.2105
 1284SOL    HW215312   1.866   4.229   3.176 -1.9460  1.4301  1.1088
 1285SOL     OW15313   4.243   2.461   8.681  0.3701 -0.1289 -0.5155
 1285SOL    HW115314   4.191   2.381   8.671 -0.9252  0.6486 -0.0256
 1285SOL    HW215315   4.287   2.469   8.596  1.4820 -0.2378  0.0567
 1286SOL     OW15316   1.898   3.544   5.170 -0.1758  0.5847 -0.5641
 1286SOL    HW115317   1.849   3.582   5.243  0.5449 -0.4026  0.4244
 1286SOL    HW215318   1.899   3.615   5.105  0.0306 -1.2401 -2.5295
 1287SOL     OW15319   0.626   2.084   8.184  0.3367 -0.2856  0.4831
 1287SOL    HW115320   0.677   2.121   8.257 -0.4739  1.5267  0.1488
 1287SOL    HW215321   0.688   2.090   8.112 -1.3352 -0.3046 -0.9413
 1288SOL     OW15322   3.872   3.030   5.405  0.7495  0.4558 -0.0211
 1288SOL    HW115323   3.888   3.052   5.313  2.4530 -0.2007  0.1144
 1288SOL    HW215324   3.837   3.110   5.445 -0.7077 -0.0108 -0.3661
 1289SOL     OW15325   0.365   3.647   5.532 -0.2981 -0.8605 -0.3730
 1289SOL    HW115326   0.274   3.636   5.503 -1.7263 -0.0967  3.7517
 1289SOL    HW215327   0.366   3.673   5.624  1.2238  2.9472 -1.4580
 1290SOL     OW15328   1.338   0.884  17.387 -0.3889  0.4933 -0.6590
 1290SOL    HW115329   1.317   0.791  17.386  0.8480  0.1908  2.7961
 1290SOL    HW215330   1.371   0.909  17.473  2.6405 -1.4705 -1.2459
 1291SOL     OW15331   1.832   4.118   0.267  0.4993  1.0980  0.1249
 1291SOL    HW115332   1.795   4.136   0.354 -0.7310  0.6563 -0.3042
 1291SOL    HW215333   1.863   4.028   0.272 -0.7717  0.6278 -0.5019
 1292SOL     OW15334   0.013   3.348  14.326  0.5671 -0.0424 -0.3013
 1292SOL    HW115335   4.681   3.419  14.297  2.0578  1.4985  0.4977
 1292SOL    HW215336   4.725   3.347  14.420 -0.8746 -2.4122 -0.5357
 1293SOL     OW15337   1.122   3.223   2.048  0.2155  0.4237 -0.2140
 1293SOL    HW115338   1.132   3.138   2.090 -1.1465  0.4095  0.0856
 1293SOL    HW215339   1.050   3.204   1.988 -1.2173  4.7869  0.1165
 1294SOL     OW15340   4.430   4.060  16.883  0.5158  0.2045  0.3241
 1294SOL    HW115341   4.458   4.015  16.803 -1.8337 -0.7711  0.0390
 1294SOL    HW215342   4.478   4.007  16.946 -0.0650 -1.2066 -0.4206
 1295SOL     OW15343   2.660   4.578   7.352  0.6799 -0.7199  0.2532
 1295SOL    HW115344   2.738   4.523   7.352  0.4674 -1.0211  1.1110
 1295SOL    HW215345   2.609   4.540   7.424  0.5419  0.2463  0.6545
 1296SOL     OW15346   1.969   2.776  10.013 -0.0173 -0.3328  0.3354
 1296SOL    HW115347   1.975   2.700  10.070  0.8721  0.2589  1.0259
 1296SOL    HW215348   1.882   2.811  10.035  0.4229  0.6576  0.5168
 1297SOL     OW15349   2.583   0.445  10.638  0.0491 -0.5600  0.1398
 1297SOL    HW115350   2.547   0.465  10.724 -0.2496  2.7104 -0.7500
 1297SOL    HW215351   2.517   0.486  10.582 -2.3935 -3.1673  1.1290
 1298SOL     OW15352   0.375   2.409   5.429 -0.4867  0.3337 -0.1321
 1298SOL    HW115353   0.299   2.367   5.389  1.5227 -1.9424 -1.6003
 1298SOL    HW215354   0.426   2.413   5.348  0.8411 -0.6073  0.6512
 1299SOL     OW15355   0.271   1.524   8.268 -0.1223 -0.1650 -0.4317
 1299SOL    HW115356   0.358   1.563   8.279  0.7181 -2.0548 -0.3717
 1299SOL    HW215357   0.230   1.568   8.194  0.3218 -0.5818 -0.9227
 1300SOL     OW15358   4.264   1.181   1.860  0.0324  0.6377  0.1136
 1300SOL    HW115359   4.206   1.257   1.854 -0.9108 -0.0696  0.1598
 1300SOL    HW215360   4.332   1.206   1.921 -1.0307 -1.0927  2.0081
 1301SOL     OW15361   4.101   1.950   4.694 -0.1691  0.7403 -0.4327
 1301SOL    HW115362   4.171   1.944   4.760  0.1088  2.0720 -0.6149
 1301SOL    HW215363   4.048   2.014   4.741 -0.1864  1.8185 -1.9523
 1302SOL     OW15364   4.048   2.391   5.978 -0.1519  0.0296 -0.1761
 1302SOL    HW115365   4.125   2.411   5.925 -0.4256 -0.6615 -0.8524
 1302SOL    HW215366   4.077   2.317   6.032 -2.0542 -0.0751  0.6951
 1303SOL     OW15367   2.599   2.993  15.151  0.0909  0.0621 -0.2805
 1303SOL    HW115368   2.691   2.968  15.137 -0.0398  0.6891 -2.2407
 1303SOL    HW215369   2.568   2.925  15.212  0.6519  1.1756  1.2507
 1304SOL     OW15370   0.840   4.579  14.779  0.2423  0.5967  0.1825
 1304SOL    HW115371   0.904   4.565  14.849  1.2537  4.3745 -0.0112
 1304SOL    HW215372   0.867   4.665  14.747 -1.3180  1.4553  1.1807
 1305SOL     OW15373   2.727   4.579  11.374 -0.2808  0.6229 -0.1594
 1305SOL    HW115374   2.730   4.674  11.383 -0.4632  0.5888  0.2837
 1305SOL    HW215375   2.711   4.544  11.462 -0.1985  0.8767 -0.0421
 1306SOL     OW15376   1.957   1.135   7.238 -0.6165 -0.8114 -0.1731
 1306SOL    HW115377   2.040   1.169   7.205 -0.3436 -0.6584  0.6725
 1306SOL    HW215378   1.943   1.190   7.315  2.4412 -1.9573  1.1986
 1307SOL     OW15379   0.045   3.962   7.995 -0.2102  0.9249  0.2202
 1307SOL    HW115380   0.057   4.020   7.920 -0.5580  1.5524  0.6498
 1307SOL    HW215381   0.047   3.873   7.960  2.3633  1.0924 -0.0294
 1308SOL     OW15382   0.340   4.223  15.215 -0.2201  0.2700 -0.0005
 1308SOL    HW115383   0.342   4.247  15.123 -2.2341 -4.8406 -1.3406
 1308SOL    HW215384   0.426   4.183  15.224 -0.0236  1.3055  2.8577
 1309SOL     OW15385   4.172   4.161   1.016 -0.7128  0.1197 -0.2105
 1309SOL    HW115386   4.225   4.087   0.986 -0.6735 -0.3955  1.1433
 1309SOL    HW215387   4.166   4.223   0.943  0.7552 -1.3357 -1.5456
 1310SOL     OW15388   4.217   3.265  10.989 -0.0135 -0.7039  0.3363
 1310SOL    HW115389   4.189   3.251  11.079  0.1299 -1.0023  0.3358
 1310SOL    HW215390   4.278   3.338  10.998 -0.9028  0.1358 -0.4746
 1311SOL     OW15391   2.115   1.433  13.027  0.2842  0.5351  0.6227
 1311SOL    HW115392   2.207   1.429  13.004 -0.1364 -1.3570 -0.7123
 1311SOL    HW215393   2.097   1.527  13.017 -0.2753  0.1366 -2.0484
 1312SOL     OW15394   4.234   3.777  15.071  0.1136  1.0901 -0.3316
 1312SOL    HW115395   4.280   3.722  15.009  0.0367 -2.7671  3.0590
 1312SOL    HW215396   4.148   3.782  15.030 -1.2021 -1.5547  2.1128
 1313SOL     OW15397   3.256   2.009  16.687 -0.0845 -0.4281 -0.1148
 1313SOL    HW115398   3.212   1.925  16.672  2.4922 -1.8727  0.2429
 1313SOL    HW215399   3.290   1.993  16.775  0.1690  0.0643 -0.1228
 1314SOL     OW15400   0.601   4.403   8.741 -0.8469  0.1550 -0.3514
 1314SOL    HW115401   0.678   4.347   8.742 -0.7141  0.3389 -0.2987
 1314SOL    HW215402   0.618   4.469   8.674 -0.2863  0.1420 -0.2172
 1315SOL     OW15403   4.520   0.289  10.072 -0.1298 -0.0655  0.6775
 1315SOL    HW115404   4.433   0.249  10.061 -0.5003  0.7576  0.6600
 1315SOL    HW215405   4.558   0.228  10.135  1.1748  1.3677  1.2616
 1316SOL     OW15406   2.325   2.664   7.229  0.1117  0.2032 -0.3062
 1316SOL    HW115407   2.299   2.607   7.302  0.7796 -0.2218 -0.3925
 1316SOL    HW215408   2.276   2.744   7.247  0.0665  0.0010  0.4825
 1317SOL     OW15409   1.425   0.637   5.398  0.1251 -0.3982  0.4104
 1317SOL    HW115410   1.512   0.642   5.358  0.7134 -0.7972  1.6296
 1317SOL    HW215411   1.392   0.708   5.343  0.7287 -0.9853 -0.7117
 1318SOL     OW15412   3.398   2.372  17.254  0.1381 -0.2698  0.0440
 1318SOL    HW115413   3.439   2.296  17.213 -1.4369 -0.4602 -1.1635
 1318SOL    HW215414   3.311   2.337  17.273 -0.6749  1.8443  0.2369
 1319SOL     OW15415   2.972   4.115   4.029 -0.9461  0.3735  0.2420
 1319SOL    HW115416   3.037   4.147   4.092 -0.3013  1.6597 -1.0751
 1319SOL    HW215417   2.895   4.131   4.083 -2.8421 -1.3919 -1.9721
 1320SOL     OW15418   3.810   3.235  17.122  0.1051 -0.1673  0.2077
 1320SOL    HW115419   3.733   3.182  17.143 -0.2633 -1.0843 -3.5044
 1320SOL    HW215420   3.868   3.159  17.127 -0.4567 -0.4457  2.5364
 1321SOL     OW15421   0.894   1.464   4.934 -0.0850  0.1339  0.2801
 1321SOL    HW115422   0.814   1.453   4.986 -0.8349 -2.3499 -1.3990
 1321SOL    HW215423   0.908   1.378   4.894  0.6952 -0.0029  0.8473
 1322SOL     OW15424   4.627   0.590   8.852 -0.1480  0.8300 -0.2142
 1322SOL    HW115425   4.694   0.648   8.816  1.0259  0.7458  1.8212
 1322SOL    HW215426   4.643   0.505   8.812 -1.1775 -0.6366  2.4651
 1323SOL     OW15427   4.635   2.405   3.562  0.4917 -0.4775  0.1021
 1323SOL    HW115428   4.579   2.401   3.640  0.5693 -0.8594  0.1392
 1323SOL    HW215429   4.575   2.415   3.489 -1.5729  1.2046  2.0025
 1324SOL     OW15430   1.638   2.515   0.400 -0.0104 -0.0087 -0.4276
 1324SOL    HW115431   1.655   2.422   0.417  0.4649  0.1312 -0.1551
 1324SOL    HW215432   1.714   2.558   0.438 -0.6672  0.5309  0.2711
 1325SOL     OW15433   3.191   4.725   5.906  0.0642 -0.5605 -0.1807
 1325SOL    HW115434   3.279   4.697   5.882  0.0568 -2.9695  2.6886
 1325SOL    HW215435   3.141   4.646   5.887 -1.1221  0.0160  0.5737
 1326SOL     OW15436   3.514   2.145  11.307 -0.2914 -0.3516  0.1456
 1326SOL    HW115437   3.437   2.111  11.352 -0.9050  2.5076  1.2536
 1326SOL    HW215438   3.587   2.101  11.352  0.5830 -0.0965 -1.0041
 1327SOL     OW15439   0.784   2.626   5.636 -0.6079  0.1844  0.3365
 1327SOL    HW115440   0.743   2.584   5.712 -0.2601 -1.6827 -0.5314
 1327SOL    HW215441   0.830   2.558   5.587 -0.4502 -1.2141  2.4264
 1328SOL     OW15442   0.072   2.642   4.638 -0.4826  0.0152 -0.5257
 1328SOL    HW115443   0.160   2.664   4.670 -1.2408  2.2632  0.0286
 1328SOL    HW215444   0.096   2.577   4.573 -1.7774 -2.3850  1.3825
 1329SOL     OW15445   1.221   3.126   9.768  0.4608  0.2872  0.2732
 1329SOL    HW115446   1.316   3.131   9.768  0.3371  2.3987 -0.1475
 1329SOL    HW215447   1.203   3.211   9.808  0.9575 -0.3591  1.8412
 1330SOL     OW15448   4.495   0.129   7.301 -0.0423 -0.2728  0.4053
 1330SOL    HW115449   4.448   0.046   7.306 -2.3484  0.8821 -2.6664
 1330SOL    HW215450   4.560   0.102   7.236 -0.3592 -0.2178  0.0718
 1331SOL     OW15451   2.136   0.236   5.339  0.2097  1.0209 -0.2966
 1331SOL    HW115452   2.217   0.256   5.385  1.7395 -0.3415 -2.4181
 1331SOL    HW215453   2.120   0.154   5.385  0.0947  1.7909  1.0385
 1332SOL     OW15454   0.326   4.704  11.011  0.0473  0.7800 -0.5819
 1332SOL    HW115455   0.415   0.002  10.987  0.5431 -1.7685 -1.2539
 1332SOL    HW215456   0.301   4.646  10.939 -1.6875 -0.7260  1.2437
 1333SOL     OW15457   3.968   3.443   1.288  0.5579  0.0022 -0.2762
 1333SOL    HW115458   3.909   3.517   1.301  0.9218  0.5602 -1.7523
 1333SOL    HW215459   3.944   3.391   1.364  1.0158  1.9387  1.1935
 1334SOL     OW15460   2.270   2.753   9.955 -0.6336 -0.2869 -0.3029
 1334SOL    HW115461   2.314   2.678   9.994  2.1343  0.8056 -1.3388
 1334SOL    HW215462   2.175   2.741   9.965 -0.7156 -0.0148 -0.7538
 1335SOL     OW15463   1.271   3.732   5.177 -0.3335  0.0563  0.2951
 1335SOL    HW115464   1.217   3.789   5.232  1.0388  2.6148 -1.0467
 1335SOL    HW215465   1.289   3.664   5.242 -0.1051  1.1016  1.3349
 1336SOL     OW15466   0.167   2.685   6.149 -0.2941  0.2193  0.2754
 1336SOL    HW115467   0.152   2.673   6.055 -1.2903  0.8146  0.3572
 1336SOL    HW215468   0.168   2.780   6.144  1.3549  0.0934 -1.9758
 1337SOL     OW15469   4.040   3.826   3.231  0.0781 -0.0203  0.0564
 1337SOL    HW115470   4.131   3.820   3.260  0.2853  0.3839 -0.5082
 1337SOL    HW215471   4.000   3.884   3.295 -2.0426 -1.8360  0.3784
 1338SOL     OW15472   3.407   4.581   5.986  0.2154  0.0690 -0.3312
 1338SOL    HW115473   3.474   4.611   6.046 -1.7521  1.4991  1.1271
 1338SOL    HW215474   3.352   4.534   6.049 -2.6221  2.6757 -0.8615
 1339SOL     OW15475   3.801   3.836   6.817 -0.1812  0.4670  0.1435
 1339SOL    HW115476   3.750   3.792   6.885  1.0197 -0.7458  0.2546
 1339SOL    HW215477   3.742   3.869   6.749 -2.3320  1.0673  2.2748
 1340SOL     OW15478   4.261   3.302   2.566  0.0786 -0.3056 -0.1685
 1340SOL    HW115479   4.192   3.314   2.631  0.2475  1.7980 -0.3969
 1340SOL    HW215480   4.303   3.387   2.577  0.5136 -0.7763  1.6697
 1341SOL     OW15481   4.106   3.586  16.373 -0.2241  0.3101  0.1646
 1341SOL    HW115482   4.115   3.624  16.460 -2.0797  1.3838 -0.0969
 1341SOL    HW215483   4.139   3.665  16.330 -1.0515  0.0093 -1.0404
 1342SOL     OW15484   0.567   2.734   7.413  0.1942  0.3522 -0.6455
 1342SOL    HW115485   0.554   2.800   7.481 -1.3153  0.0168 -0.6220
 1342SOL    HW215486   0.565   2.658   7.472  2.2595 -0.2465 -1.3575
 1343SOL     OW15487   4.614   0.402   8.652  0.0368  0.2021  0.5380
 1343SOL    HW115488   4.566   0.331   8.609 -2.2612 -0.0091  3.5011
 1343SOL    HW215489   4.704   0.371   8.652 -0.4358 -1.2169 -1.3816
 1344SOL     OW15490   1.085   2.086   4.139 -0.0708  0.0831  0.2802
 1344SOL    HW115491   1.022   2.048   4.078 -0.6088 -1.9513  2.1269
 1344SOL    HW215492   1.095   2.014   4.201 -2.6710  0.0517  0.6357
 1345SOL     OW15493   4.486   2.571   6.152 -0.1512  0.2685  0.3564
 1345SOL    HW115494   4.535   2.628   6.093 -0.1534 -0.2607 -0.1549
 1345SOL    HW215495   4.504   2.604   6.240 -0.1944 -0.2926  0.5781
 1346SOL     OW15496   2.435   3.232   1.274 -0.2158  0.1432 -0.2011
 1346SOL    HW115497   2.377   3.178   1.220 -1.8053  2.3665 -0.7314
 1346SOL    HW215498   2.518   3.229   1.227  0.2755 -0.7960  0.7352
 1347SOL     OW15499   3.779   2.149   4.558  0.0106  0.4081  0.2321
 1347SOL    HW115500   3.716   2.219   4.576  1.7631  2.4015 -1.4788
 1347SOL    HW215501   3.715   2.097   4.510  1.3938  1.3815 -2.6343
 1348SOL     OW15502   3.146   4.100   2.075 -0.1405  0.2977 -0.7172
 1348SOL    HW115503   3.134   4.119   1.982 -0.9260 -3.3859 -1.3886
 1348SOL    HW215504   3.216   4.160   2.102 -0.2678 -0.1653  0.6395
 1349SOL     OW15505   2.988   3.418   5.951  0.0560  0.2653 -0.3139
 1349SOL    HW115506   3.074   3.449   5.980 -0.8701  3.0452 -0.5563
 1349SOL    HW215507   2.939   3.465   6.018 -1.6211  1.2374 -2.2292
 1350SOL     OW15508   4.197   4.189   3.150  0.3236  0.0755 -0.3576
 1350SOL    HW115509   4.120   4.147   3.111  0.2102 -0.7013  0.6903
 1350SOL    HW215510   4.230   4.113   3.199 -2.4291 -0.0118  1.3741
 1351SOL     OW15511   0.865   2.172   5.421 -0.1436  0.3950 -0.2413
 1351SOL    HW115512   0.943   2.117   5.412 -0.3935 -0.3302  2.0326
 1351SOL    HW215513   0.829   2.122   5.494  0.2700  0.8338  0.2640
 1352SOL     OW15514   0.286   3.894   3.583  0.2369 -0.5583  0.6237
 1352SOL    HW115515   0.313   3.866   3.496 -3.4390 -0.2444 -0.6032
 1352SOL    HW215516   0.337   3.976   3.585 -0.8308  0.1244 -0.2737
 1353SOL     OW15517   4.049   1.345   9.266  0.0919  0.0885  1.1051
 1353SOL    HW115518   4.066   1.408   9.195 -2.4142 -1.1647 -0.6063
 1353SOL    HW215519   4.000   1.284   9.210  1.4943 -0.6655  0.7139
 1354SOL     OW15520   3.655   0.618   1.481 -0.2191 -0.1530 -0.6222
 1354SOL    HW115521   3.721   0.686   1.474 -0.2530 -0.0405  0.2215
 1354SOL    HW215522   3.599   0.648   1.408 -0.8251  0.3690  0.0579
 1355SOL     OW15523   3.992   4.220   7.552 -0.3316 -0.0771  0.5143
 1355SOL    HW115524   3.934   4.188   7.621 -1.1582 -0.7047 -0.4614
 1355SOL    HW215525   4.029   4.137   7.521  3.7991  1.8297  0.4019
 1356SOL     OW15526   4.712   3.510   5.135 -0.0877  0.4502  0.2768
 1356SOL    HW115527   4.711   3.423   5.094  1.1410  1.2387 -1.4430
 1356SOL    HW215528   4.622   3.539   5.119 -0.1769 -1.0553 -2.0284
 1357SOL     OW15529   0.335   1.950  14.984 -0.9835 -0.3085  0.4693
 1357SOL    HW115530   0.384   1.869  14.968  0.8553  0.3218  3.0009
 1357SOL    HW215531   0.354   2.001  14.905  0.2056 -0.3950  0.7069
 1358SOL     OW15532   3.602   1.901   8.308  0.4015  1.1222 -0.0584
 1358SOL    HW115533   3.590   1.883   8.401 -0.1917  1.5447 -0.0502
 1358SOL    HW215534   3.556   1.829   8.266  0.1431  1.7278 -0.8177
 1359SOL     OW15535   3.159   2.107   3.264  0.1976 -0.0003  0.1815
 1359SOL    HW115536   3.109   2.189   3.261 -2.0997 -1.5227 -2.8091
 1359SOL    HW215537   3.203   2.101   3.179 -1.0356 -0.0091 -0.4680
 1360SOL     OW15538   4.157   2.187   9.246 -0.4244  0.0022  0.1911
 1360SOL    HW115539   4.190   2.260   9.297 -0.2580  0.5101 -0.6433
 1360SOL    HW215540   4.221   2.170   9.177 -0.2472  2.5012 -0.2393
 1361SOL     OW15541   2.465   2.901  17.276 -0.2923  0.0970 -0.2237
 1361SOL    HW115542   2.456   2.991  17.308 -3.0668  0.2815 -1.5195
 1361SOL    HW215543   2.408   2.906  17.199  0.0616 -0.6090 -0.5315
 1362SOL     OW15544   1.644   1.992  15.598 -0.1915  0.1833 -0.4712
 1362SOL    HW115545   1.594   1.995  15.517  3.8037 -0.3506 -2.9690
 1362SOL    HW215546   1.591   1.933  15.652 -0.8955  1.5402  0.3200
 1363SOL     OW15547   1.933   3.769   7.684  0.2676  0.3079 -0.3419
 1363SOL    HW115548   2.007   3.827   7.666  0.9701 -0.1943  0.9268
 1363SOL    HW215549   1.942   3.711   7.608 -1.0984 -0.7894  0.3335
 1364SOL     OW15550   2.372   2.001  15.394 -0.0622  0.1718 -0.0799
 1364SOL    HW115551   2.398   2.061  15.465 -0.7821  0.2694  0.1078
 1364SOL    HW215552   2.281   1.986  15.419  0.0372  2.1059  1.4988
 1365SOL     OW15553   4.582   1.465   7.711 -0.5327 -0.0124  0.3757
 1365SOL    HW115554   4.653   1.438   7.769 -0.7280  1.0909  1.1212
 1365SOL    HW215555   4.601   1.409   7.635  0.3947 -0.5757  1.0197
 1366SOL     OW15556   4.243   4.525   2.873 -0.2198  0.8281 -0.5262
 1366SOL    HW115557   4.226   4.470   2.796 -1.2139 -0.0810  0.3583
 1366SOL    HW215558   4.167   4.516   2.929 -0.3510  2.2988 -0.4797
 1367SOL     OW15559   0.616   2.758   2.070 -0.0927  0.4223 -0.4602
 1367SOL    HW115560   0.616   2.853   2.074  2.4009  0.4064  0.0536
 1367SOL    HW215561   0.546   2.732   2.130 -0.2415  0.3353 -0.6691
 1368SOL     OW15562   2.533   1.491  13.859  0.7944  0.4824  0.7170
 1368SOL    HW115563   2.505   1.406  13.892  2.2488 -0.5555 -0.7191
 1368SOL    HW215564   2.473   1.501  13.785  1.0020  1.4159  0.6717
 1369SOL     OW15565   2.447   3.238   3.106 -0.0316  0.3058  0.0021
 1369SOL    HW115566   2.459   3.146   3.081  0.5143  0.8473 -1.7251
 1369SOL    HW215567   2.423   3.273   3.020 -0.1711  2.5025  0.9358
 1370SOL     OW15568   3.298   3.690   0.351 -0.1185  0.1821  0.5851
 1370SOL    HW115569   3.324   3.779   0.376 -1.8783  1.1615 -1.0405
 1370SOL    HW215570   3.377   3.659   0.307 -0.9001  0.1807 -0.8150
 1371SOL     OW15571   1.143   1.629  14.462  0.4072 -0.1405  0.2578
 1371SOL    HW115572   1.048   1.620  14.454  0.3343  0.0328  0.9205
 1371SOL    HW215573   1.171   1.542  14.494  0.9086  0.1440  0.5947
 1372SOL     OW15574   0.936   0.553   3.565  0.2745  0.4029 -0.5266
 1372SOL    HW115575   1.004   0.604   3.610  1.9200 -2.1544 -0.1250
 1372SOL    HW215576   0.948   0.589   3.477 -0.3019 -2.4352 -1.7617
 1373SOL     OW15577   1.012   3.983  14.180  0.7545  0.2326 -0.6020
 1373SOL    HW115578   1.041   3.905  14.133 -1.9612  0.1196 -2.0423
 1373SOL    HW215579   0.987   4.041  14.109  3.5615  2.1347 -0.0272
 1374SOL     OW15580   1.359   2.855   8.321  0.0832 -0.0604  0.3133
 1374SOL    HW115581   1.398   2.935   8.287  0.9168 -1.3146 -1.6655
 1374SOL    HW215582   1.271   2.884   8.345 -0.8063 -2.1114 -0.4482
 1375SOL     OW15583   1.864   4.233   8.749  0.3848  0.0411 -0.1969
 1375SOL    HW115584   1.922   4.308   8.741  0.4257  0.1615  1.2556
 1375SOL    HW215585   1.847   4.216   8.656 -1.3935  4.2513 -0.6410
 1376SOL     OW15586   4.408   1.858   2.284  0.5660  0.5081 -0.1354
 1376SOL    HW115587   4.352   1.793   2.326  0.5117 -0.4611 -1.7236
 1376SOL    HW215588   4.377   1.854   2.194 -0.2412 -0.3915  0.1846
 1377SOL     OW15589   3.657   0.408   4.098  0.0781  0.0686 -0.2180
 1377SOL    HW115590   3.568   0.429   4.125 -0.5506 -0.6099 -1.7644
 1377SOL    HW215591   3.691   0.491   4.065  0.2478 -0.2607 -0.8849
 1378SOL     OW15592   3.774   4.634   8.075  0.1172 -0.3772 -0.1655
 1378SOL    HW115593   3.758   4.568   8.008 -0.6424  0.9372 -1.2725
 1378SOL    HW215594   3.794   4.580   8.152 -0.2758  1.9377  1.5965
 1379SOL     OW15595   3.319   3.931   4.012 -0.0574  0.2783 -0.3452
 1379SOL    HW115596   3.365   3.978   3.942  0.2789 -1.9230 -1.5986
 1379SOL    HW215597   3.375   3.939   4.089  1.0055 -0.3258 -1.0627
 1380SOL     OW15598   1.127   3.834   4.281 -0.2853 -0.5255  0.2925
 1380SOL    HW115599   1.047   3.880   4.257  2.5609  2.1616 -3.9097
 1380SOL    HW215600   1.153   3.891   4.353  0.4113  1.2801 -1.3954
 1381SOL     OW15601   1.669   2.818   6.962 -0.5828 -0.3219 -0.0459
 1381SOL    HW115602   1.737   2.752   6.976 -0.2970  0.4102  2.0040
 1381SOL    HW215603   1.718   2.899   6.976  0.0897 -0.3329 -2.3662
 1382SOL     OW15604   3.208   3.685   6.442  0.0190  0.0032  0.1443
 1382SOL    HW115605   3.213   3.690   6.537 -1.1483 -2.0455  0.3145
 1382SOL    HW215606   3.235   3.774   6.418  2.5824 -0.5439  1.0745
 1383SOL     OW15607   2.673   3.118   9.216 -0.3575 -0.7654 -0.1880
 1383SOL    HW115608   2.710   3.059   9.282  1.7718 -1.7046 -2.2438
 1383SOL    HW215609   2.656   3.198   9.267  0.5300 -1.2389  0.8547
 1384SOL     OW15610   0.411   2.382   9.846 -0.2190 -1.1207  0.0680
 1384SOL    HW115611   0.367   2.302   9.818 -0.2000 -1.0063 -0.2924
 1384SOL    HW215612   0.483   2.353   9.901  1.9615  2.3212 -0.9323
 1385SOL     OW15613   2.226   3.327   3.736 -0.7902  0.2126  0.4660
 1385SOL    HW115614   2.162   3.281   3.682 -0.8876  2.6583 -1.5599
 1385SOL    HW215615   2.280   3.371   3.669  0.5429 -0.9595  0.7879
 1386SOL     OW15616   2.254   1.260   3.850  1.2537  0.1861 -0.2300
 1386SOL    HW115617   2.258   1.345   3.807  1.1919 -0.5265 -1.6443
 1386SOL    HW215618   2.201   1.280   3.927  1.2471  0.3902 -0.2878
 1387SOL     OW15619   3.755   3.157  11.042 -0.2707  0.7629  0.0192
 1387SOL    HW115620   3.836   3.125  11.002 -0.1495 -0.8678  1.5289
 1387SOL    HW215621   3.765   3.119  11.130 -2.4421  0.3172  0.0878
 1388SOL     OW15622   1.647   0.450   0.005  0.4193 -0.2728  0.4710
 1388SOL    HW115623   1.596   0.403   0.071 -3.1125  0.2279 -1.8558
 1388SOL    HW215624   1.621   0.410  17.625 -0.7328  1.4449  0.0092
 1389SOL     OW15625   1.641   0.894   6.148 -0.1868  0.3043 -0.0486
 1389SOL    HW115626   1.639   0.879   6.053  4.5545  1.7244 -0.3666
 1389SOL    HW215627   1.590   0.971   6.175  2.6534  1.4494  1.9972
 1390SOL     OW15628   2.020   3.770  11.119 -0.1638 -0.2220 -0.2390
 1390SOL    HW115629   2.056   3.752  11.206  2.1704 -0.1315 -1.2060
 1390SOL    HW215630   2.007   3.864  11.132 -1.3156 -0.2369 -1.3335
 1391SOL     OW15631   3.595   0.955  12.970  0.1791  0.2683  0.0572
 1391SOL    HW115632   3.591   0.904  13.052 -0.5014 -0.4833 -0.4442
 1391SOL    HW215633   3.648   0.894  12.919  0.4317  1.2275 -0.8186
 1392SOL     OW15634   0.139   0.312   8.663 -0.2774 -0.1271  0.0721
 1392SOL    HW115635   0.181   0.266   8.736 -3.0383 -3.0075 -0.1612
 1392SOL    HW215636   0.194   0.280   8.591  0.3171 -0.1161  0.5247
 1393SOL     OW15637   2.189   3.429   1.617 -0.1473 -0.2595  0.2793
 1393SOL    HW115638   2.146   3.345   1.601 -0.5778  0.2108 -1.1165
 1393SOL    HW215639   2.130   3.491   1.573  1.2544  0.0775 -1.1473
 1394SOL     OW15640   1.374   0.807   8.227  0.3182 -0.5641  1.1402
 1394SOL    HW115641   1.290   0.852   8.240  0.9760  0.7934  0.6592
 1394SOL    HW215642   1.398   0.802   8.319  2.6130  1.5456  0.6335
 1395SOL     OW15643   1.000   4.338   0.114 -0.2988  0.1291 -0.2014
 1395SOL    HW115644   1.009   4.388   0.033  0.7403 -0.9464 -0.7317
 1395SOL    HW215645   1.065   4.388   0.164  0.9647  0.1750 -1.9003
 1396SOL     OW15646   0.937   0.219   1.265  0.3112 -0.6725 -0.0843
 1396SOL    HW115647   0.941   0.264   1.349  2.1325  0.8703 -1.0008
 1396SOL    HW215648   1.016   0.166   1.268 -0.4457 -1.9192 -1.7898
 1397SOL     OW15649   3.914   3.675   6.207  0.5894 -0.2037  0.5460
 1397SOL    HW115650   3.881   3.744   6.151  0.4172 -0.8896 -0.1908
 1397SOL    HW215651   3.912   3.596   6.153 -0.9345  0.9267 -1.0056
 1398SOL     OW15652   4.218   4.023   6.342  0.4181  0.3800 -0.0046
 1398SOL    HW115653   4.190   3.933   6.329 -0.3576  0.5274  0.6269
 1398SOL    HW215654   4.259   4.042   6.257  0.3492  0.3848 -0.0368
 1399SOL     OW15655   3.840   1.445  11.078 -0.1514  0.0534  0.0267
 1399SOL    HW115656   3.894   1.522  11.094  1.7704 -1.4519  0.7371
 1399SOL    HW215657   3.774   1.486  11.022  1.1660 -0.4375 -1.8966
 1400SOL     OW15658   2.976   3.565   6.872  0.4406 -0.2886  0.3213
 1400SOL    HW115659   2.937   3.482   6.899  0.7152 -0.4517  0.2230
 1400SOL    HW215660   2.935   3.626   6.932  1.5713 -0.6887  1.4972
 1401SOL     OW15661   1.410   0.284   0.812 -0.6992 -0.0627  0.7242
 1401SOL    HW115662   1.428   0.365   0.861 -0.9291 -0.7569  1.9506
 1401SOL    HW215663   1.448   0.218   0.870 -0.5450  0.2299  0.9584
 1402SOL     OW15664   3.770   3.885  13.591 -0.0520 -0.2424  0.0967
 1402SOL    HW115665   3.727   3.864  13.674  2.7632  1.3355  1.9748
 1402SOL    HW215666   3.861   3.880  13.622 -0.4300 -0.8895  1.1103
 1403SOL     OW15667   3.767   0.884   7.985 -0.9190  0.2431 -0.0219
 1403SOL    HW115668   3.716   0.919   7.911 -2.8591 -0.5299  0.9557
 1403SOL    HW215669   3.706   0.844   8.047  0.3898 -2.1975 -0.3273
 1404SOL     OW15670   3.241   1.110  14.793  0.3526 -0.4879  0.6733
 1404SOL    HW115671   3.214   1.155  14.712  1.8288 -0.2071  0.3262
 1404SOL    HW215672   3.238   1.020  14.762 -1.5502 -0.9186  2.0900
 1405SOL     OW15673   1.583   0.480   4.328 -0.7311 -0.3286 -0.4647
 1405SOL    HW115674   1.591   0.497   4.421 -2.7707  1.9446 -0.7167
 1405SOL    HW215675   1.647   0.538   4.288 -2.1213  0.3017 -1.7922
 1406SOL     OW15676   4.568   4.113   7.648  0.4024  0.3563  0.4272
 1406SOL    HW115677   4.482   4.096   7.609 -0.7187 -1.7338  3.8613
 1406SOL    HW215678   4.534   4.131   7.736 -1.4052 -0.2254 -0.1618
 1407SOL     OW15679   2.055   2.744   0.239  0.3069 -0.3450  0.6773
 1407SOL    HW115680   1.984   2.682   0.223 -0.7784  0.8617  0.8623
 1407SOL    HW215681   2.102   2.744   0.155  1.7159  2.0447  1.4899
 1408SOL     OW15682   0.071   2.327  11.498 -0.2806  0.2348  0.3740
 1408SOL    HW115683   0.096   2.245  11.541  0.1605  0.2189  0.0904
 1408SOL    HW215684   0.055   2.296  11.408  2.2663 -1.1723  0.3952
 1409SOL     OW15685   0.277   3.659   3.785  0.1395  0.1624  0.0766
 1409SOL    HW115686   0.353   3.663   3.843 -0.2906  0.2530  0.6314
 1409SOL    HW215687   0.322   3.692   3.708 -0.5436 -0.2109 -0.4828
 1410SOL     OW15688   0.719   3.534   3.164  0.5108 -0.2270  0.3927
 1410SOL    HW115689   0.795   3.486   3.195  0.4724  0.0198  0.8699
 1410SOL    HW215690   0.675   3.528   3.249 -3.1526 -2.6106 -1.6380
 1411SOL     OW15691   0.141   3.726  15.135 -0.0672 -0.2529  0.2349
 1411SOL    HW115692   0.187   3.761  15.212 -0.5975  2.9568 -0.9230
 1411SOL    HW215693   0.169   3.790  15.069  0.0844 -1.7037 -1.1002
 1412SOL     OW15694   1.764   3.296   6.754  0.2280  0.3233 -0.2071
 1412SOL    HW115695   1.687   3.304   6.697 -1.0029  0.3018  1.4552
 1412SOL    HW215696   1.834   3.263   6.698  0.3248  2.0159 -1.0887
 1413SOL     OW15697   3.667   1.141   3.409 -1.2494  0.2101 -0.4411
 1413SOL    HW115698   3.657   1.232   3.380  0.2342  0.9504  1.3645
 1413SOL    HW215699   3.741   1.111   3.356  0.8528  2.2749  1.2855
 1414SOL     OW15700   1.869   4.114  13.585  0.0055 -0.4366  0.2087
 1414SOL    HW115701   1.896   4.182  13.647  0.5362 -0.9458  0.5260
 1414SOL    HW215702   1.777   4.139  13.579  0.4816  1.3163  0.1506
 1415SOL     OW15703   2.125   1.133   0.904  0.7472  0.0617  0.3035
 1415SOL    HW115704   2.050   1.087   0.867 -0.8850  2.5459  0.5483
 1415SOL    HW215705   2.192   1.075   0.868  0.1469 -0.8457  0.6469
 1416SOL     OW15706   1.512   4.400   1.543  0.1954  0.1511  0.1422
 1416SOL    HW115707   1.476   4.410   1.631 -0.6050  0.5698 -0.2290
 1416SOL    HW215708   1.476   4.481   1.507 -0.6687  0.2948  1.3140
 1417SOL     OW15709   4.519   1.542   3.690  0.1612  0.4752 -0.1934
 1417SOL    HW115710   4.554   1.453   3.690 -2.5776 -0.6003  1.9159
 1417SOL    HW215711   4.432   1.526   3.654  1.1344 -0.3125 -2.2186
 1418SOL     OW15712   4.469   1.952   0.897 -0.5969  0.0276  0.2884
 1418SOL    HW115713   4.478   2.020   0.964 -0.6570  1.4753 -1.1869
 1418SOL    HW215714   4.375   1.955   0.879 -0.3148  0.3251 -1.1256
 1419SOL     OW15715   4.525   4.182   7.318  0.0153  0.2199  0.0223
 1419SOL    HW115716   4.463   4.138   7.260  2.2752 -2.2977 -0.4867
 1419SOL    HW215717   4.463   4.243   7.357 -0.5112 -0.3538  0.0934
 1420SOL     OW15718   2.472   1.239   6.995  0.5011  0.4999  0.4669
 1420SOL    HW115719   2.548   1.194   7.031  0.6952 -0.2341 -0.8935
 1420SOL    HW215720   2.519   1.297   6.935 -0.1100  0.3639 -0.1307
 1421SOL     OW15721   1.406   2.680   7.800  0.0907  0.2881  0.1636
 1421SOL    HW115722   1.319   2.669   7.838  0.5934 -0.5316  1.0744
 1421SOL    HW215723   1.461   2.617   7.846  0.5190  1.9530  1.9150
 1422SOL     OW15724   3.160   2.260  13.245 -0.2987 -0.0243  0.0109
 1422SOL    HW115725   3.197   2.274  13.332  0.0535 -2.0294  0.1873
 1422SOL    HW215726   3.188   2.172  13.219 -0.1345 -0.1277  0.5336
 1423SOL     OW15727   1.435   1.522   9.575  0.2844  0.3592 -0.1800
 1423SOL    HW115728   1.520   1.514   9.617 -1.7162  0.1796  3.8072
 1423SOL    HW215729   1.412   1.430   9.562 -0.5328  0.6819 -1.0017
 1424SOL     OW15730   2.462   4.116   1.051 -0.2399 -0.1797  0.2745
 1424SOL    HW115731   2.496   4.186   1.108  3.1335 -0.4463 -1.4251
 1424SOL    HW215732   2.543   4.096   1.005 -0.5831  1.2973 -0.9962
 1425SOL     OW15733   0.803   4.139   5.736 -0.5263 -0.1525 -0.8031
 1425SOL    HW115734   0.893   4.108   5.736 -0.4947 -0.0606 -0.9343
 1425SOL    HW215735   0.808   4.212   5.798 -0.6980 -1.4288  0.6976
 1426SOL     OW15736   3.126   1.115   3.630  0.1289 -0.5632 -0.1113
 1426SOL    HW115737   3.096   1.121   3.721 -1.6818 -1.0298 -0.6609
 1426SOL    HW215738   3.053   1.160   3.588 -1.2921 -1.4233  1.4129
 1427SOL     OW15739   4.606   0.625   8.295  0.4003  0.6200 -0.0738
 1427SOL    HW115740   4.657   0.585   8.224 -0.6560  0.4571 -0.7417
 1427SOL    HW215741   4.593   0.715   8.266 -0.5660  1.6231  3.5364
 1428SOL     OW15742   0.721   3.256   9.139 -0.3536 -0.6399  1.1636
 1428SOL    HW115743   0.669   3.335   9.127 -0.5322 -0.6348  1.9651
 1428SOL    HW215744   0.681   3.220   9.219  0.3333 -1.6803  1.0371
 1429SOL     OW15745   2.586   4.124  13.924  0.1200  0.0379  0.1547
 1429SOL    HW115746   2.569   4.050  13.982  0.6723  0.0806  0.3723
 1429SOL    HW215747   2.670   4.148  13.962  1.2391 -4.2667  0.3658
 1430SOL     OW15748   3.292   4.209   7.656  0.1817  0.4809  0.2658
 1430SOL    HW115749   3.358   4.241   7.716  0.9026 -2.3625  1.0047
 1430SOL    HW215750   3.350   4.163   7.595  0.0869 -0.1573  0.6574
 1431SOL     OW15751   1.848   2.596   0.525  0.0478  0.1148  0.1815
 1431SOL    HW115752   1.818   2.609   0.615 -0.1781  0.4088  0.0644
 1431SOL    HW215753   1.943   2.608   0.524  0.1261 -0.5242  0.3415
 1432SOL     OW15754   0.282   2.285   3.458 -0.1468 -0.1999 -0.3235
 1432SOL    HW115755   0.247   2.285   3.369 -0.5608 -0.0940 -0.1631
 1432SOL    HW215756   0.375   2.284   3.436  0.0645 -0.2196  0.5852
 1433SOL     OW15757   4.572   2.378   0.400 -0.0028 -0.2674 -0.5949
 1433SOL    HW115758   4.612   2.417   0.323 -0.7809 -3.6523 -2.7383
 1433SOL    HW215759   4.511   2.447   0.425  0.7037  0.4781 -0.9433
 1434SOL     OW15760   4.602   1.131   2.546 -0.1401  0.4684  0.1941
 1434SOL    HW115761   4.520   1.082   2.541  0.7140 -0.6563 -2.9957
 1434SOL    HW215762   4.613   1.134   2.641 -2.0475  0.6997  0.4106
 1435SOL     OW15763   0.494   1.340   7.911 -0.0039  0.0059  0.2381
 1435SOL    HW115764   0.537   1.425   7.897  1.6972 -1.5709 -4.4109
 1435SOL    HW215765   0.566   1.285   7.943 -0.7615 -0.6408  0.8090
 1436SOL     OW15766   3.978   3.630   3.755  0.5427  0.1404 -0.3508
 1436SOL    HW115767   3.977   3.540   3.721  1.9232  0.3750 -1.0029
 1436SOL    HW215768   3.924   3.612   3.831 -0.1994 -1.8255 -1.3454
 1437SOL     OW15769   2.895   1.886   2.725 -0.4564 -0.2909 -0.0824
 1437SOL    HW115770   2.982   1.926   2.722  0.0580 -1.4243 -0.3402
 1437SOL    HW215771   2.848   1.934   2.657 -0.5873  0.2288  0.3837
 1438SOL     OW15772   2.454   3.327  11.356  0.2286  0.0623 -0.0389
 1438SOL    HW115773   2.532   3.288  11.394 -0.4211 -0.3642  0.8403
 1438SOL    HW215774   2.494   3.340  11.270 -1.3199  0.8181 -0.6591
 1439SOL     OW15775   1.288   2.091  11.793 -0.8247 -0.3867  0.4008
 1439SOL    HW115776   1.273   2.003  11.829 -0.6682 -1.7242 -2.7770
 1439SOL    HW215777   1.259   2.086  11.702 -1.3198  0.0038  0.5392
 1440SOL     OW15778   4.130   1.511   9.044  0.4180 -0.4699  0.1191
 1440SOL    HW115779   4.224   1.496   9.046  0.4449 -0.5821 -1.6628
 1440SOL    HW215780   4.126   1.555   8.959 -0.0251 -0.3433  0.2076
 1441SOL     OW15781   0.784   4.686   3.924  0.0493  0.1687 -0.5783
 1441SOL    HW115782   0.745   4.609   3.883 -1.0808  0.4107  0.0313
 1441SOL    HW215783   0.719   4.712   3.990  0.2003  1.1247 -0.8153
 1442SOL     OW15784   2.556   2.479  11.087  0.2669 -0.0405  0.3676
 1442SOL    HW115785   2.524   2.403  11.038  0.2930 -0.1464  0.5136
 1442SOL    HW215786   2.635   2.503  11.039 -1.4181 -0.8893 -2.8237
 1443SOL     OW15787   2.518   4.572   6.051  0.1402 -0.1443 -0.0481
 1443SOL    HW115788   2.601   4.552   6.095 -0.0066  3.7974  1.9869
 1443SOL    HW215789   2.528   4.508   5.981 -0.0668 -0.3012  0.0684
 1444SOL     OW15790   2.533   1.766  14.592 -0.2581  0.2954  0.2048
 1444SOL    HW115791   2.464   1.702  14.611  0.7982 -0.0456  2.8508
 1444SOL    HW215792   2.597   1.715  14.543 -0.5247  0.5684 -0.4268
 1445SOL     OW15793   4.396   3.895   3.930 -0.0311  0.1545 -0.3734
 1445SOL    HW115794   4.423   3.805   3.911 -0.5571 -0.1434  0.2799
 1445SOL    HW215795   4.380   3.877   4.023  0.9595 -1.3095 -0.4829
 1446SOL     OW15796   0.107   0.922  13.269  0.6471 -0.6104  0.0021
 1446SOL    HW115797   0.175   0.975  13.228 -0.1339 -0.7881 -1.5220
 1446SOL    HW215798   0.029   0.977  13.277  0.8528 -0.0441 -2.1068
 1447SOL     OW15799   3.122   3.665   7.095  0.0601  0.0782 -0.2645
 1447SOL    HW115800   3.129   3.638   7.003 -0.7370  3.0676 -1.2229
 1447SOL    HW215801   3.126   3.585   7.147 -2.4634  0.9085  1.2110
 1448SOL     OW15802   2.213   4.254  17.280  0.4358 -0.2449  0.0736
 1448SOL    HW115803   2.274   4.240  17.208 -0.8434  1.8016 -1.3935
 1448SOL    HW215804   2.245   4.341  17.304  1.5331 -0.5390 -0.2981
 1449SOL     OW15805   2.348   3.720   3.367  0.0868 -0.5953  0.1571
 1449SOL    HW115806   2.393   3.640   3.392  0.3081 -0.1027  1.3012
 1449SOL    HW215807   2.427   3.767   3.340  0.2653 -0.5546  0.7599
 1450SOL     OW15808   1.588   0.133  11.253  0.2015 -0.6624  0.1056
 1450SOL    HW115809   1.498   0.111  11.228  0.0505  1.5648 -1.2363
 1450SOL    HW215810   1.598   0.218  11.212  0.5988 -1.5874 -1.7245
 1451SOL     OW15811   3.409   4.062  14.465 -0.3858 -0.6274 -0.4452
 1451SOL    HW115812   3.499   4.036  14.484 -0.3337 -0.1757 -0.0669
 1451SOL    HW215813   3.364   4.064  14.549  0.6530 -2.0751  0.1494
 1452SOL     OW15814   4.719   3.541   0.722 -0.3812 -0.1796  0.2179
 1452SOL    HW115815   0.035   3.468   0.676  1.5287 -0.5254  2.4286
 1452SOL    HW215816   4.633   3.518   0.690 -0.7417  0.7580  0.5052
 1453SOL     OW15817   1.101   2.186   9.227  0.5031  0.1762 -0.0217
 1453SOL    HW115818   1.018   2.160   9.187 -0.3894  0.5141  1.6054
 1453SOL    HW215819   1.165   2.158   9.161  2.7698  3.1491  0.8874
 1454SOL     OW15820   0.939   2.986   3.047  0.8877 -0.0412  0.4233
 1454SOL    HW115821   0.992   2.907   3.059  0.4216 -0.1636  1.6988
 1454SOL    HW215822   0.995   3.040   2.990 -0.8814  1.6708  0.3006
 1455SOL     OW15823   1.016   4.625   5.362 -0.2187 -0.4138  0.0405
 1455SOL    HW115824   1.035   4.621   5.456 -0.7581  0.0073  0.1634
 1455SOL    HW215825   0.936   4.678   5.364 -0.0061 -0.0584 -0.9612
 1456SOL     OW15826   4.706   0.655   6.479 -0.3949  0.1212  0.1024
 1456SOL    HW115827   0.001   0.715   6.407 -0.2647  0.1937  0.1994
 1456SOL    HW215828   4.618   0.624   6.459 -0.1191 -0.7290  0.1906
 1457SOL     OW15829   1.899   3.257  13.485  0.1026 -0.0505  0.2338
 1457SOL    HW115830   1.984   3.286  13.451  0.7366 -2.0177  0.1382
 1457SOL    HW215831   1.844   3.300  13.419 -1.3707 -0.2575  1.3268
 1458SOL     OW15832   2.657   0.317   0.124 -1.1434 -0.1639 -0.0937
 1458SOL    HW115833   2.609   0.242   0.159 -1.6494  1.0848  1.8545
 1458SOL    HW215834   2.691   0.283   0.041 -1.3985 -0.1360 -0.2102
 1459SOL     OW15835   0.550   0.732   7.501  0.3915 -0.2852  0.4852
 1459SOL    HW115836   0.494   0.770   7.434  0.7417 -1.3921 -0.4414
 1459SOL    HW215837   0.610   0.804   7.517  0.4391 -1.0555  3.7302
 1460SOL     OW15838   3.580   3.066   8.965  0.1384 -0.0616 -0.3181
 1460SOL    HW115839   3.654   3.065   9.027  0.5520 -0.9841 -0.8195
 1460SOL    HW215840   3.558   2.973   8.968 -0.6717  0.1634  0.5520
 1461SOL     OW15841   2.618   2.546   3.843  0.2694 -0.1327  0.3797
 1461SOL    HW115842   2.692   2.587   3.887 -0.1420  0.0707  0.8878
 1461SOL    HW215843   2.578   2.493   3.913 -1.4374  1.0068  0.2742
 1462SOL     OW15844   4.600   3.241  14.611 -0.4732 -0.1447  0.3874
 1462SOL    HW115845   4.622   3.157  14.650 -0.1359 -0.2160  0.0469
 1462SOL    HW215846   4.623   3.298  14.684  0.0363 -0.1631  0.2413
 1463SOL     OW15847   0.054   0.869  14.555  0.1570  0.2011  0.2721
 1463SOL    HW115848   4.686   0.851  14.545  0.0204  1.0407  0.0301
 1463SOL    HW215849   0.089   0.810  14.621 -0.9487 -0.0767  0.6070
 1464SOL     OW15850   4.324   4.278   9.204 -0.1034  0.5409  0.6232
 1464SOL    HW115851   4.271   4.324   9.270 -2.5895  0.9744 -1.6806
 1464SOL    HW215852   4.374   4.350   9.167 -0.7678  0.0275 -1.2351
 1465SOL     OW15853   3.323   4.685   4.676  0.2883  0.0383  0.2189
 1465SOL    HW115854   3.269   0.039   4.671 -1.8280 -1.4840 -1.0836
 1465SOL    HW215855   3.407   0.007   4.675  0.7025 -0.7179 -1.2623
 1466SOL     OW15856   4.207   1.053   9.335  0.2269  0.0842  0.0040
 1466SOL    HW115857   4.239   1.126   9.388 -0.1781 -0.0391  0.4238
 1466SOL    HW215858   4.126   1.089   9.297 -0.9387  0.7408  3.1339
 1467SOL     OW15859   3.169   1.934   5.862  0.1095  0.4178  0.2949
 1467SOL    HW115860   3.255   1.968   5.885  0.2052 -0.7221  1.5839
 1467SOL    HW215861   3.173   1.843   5.889  0.2683  0.5586  0.7479
 1468SOL     OW15862   2.591   1.918   3.782  0.1851  0.1159  0.3278
 1468SOL    HW115863   2.685   1.899   3.778  0.0064 -0.3401 -1.8348
 1468SOL    HW215864   2.584   1.928   3.877  1.6032  2.4826  0.1907
 1469SOL     OW15865   3.379   2.511   2.980  0.0813  0.1608 -0.3589
 1469SOL    HW115866   3.433   2.590   2.990  1.3901 -0.8034  0.3206
 1469SOL    HW215867   3.433   2.463   2.917 -0.0099  0.8552 -0.9621
 1470SOL     OW15868   1.839   3.362   9.235  0.0216  0.3861  0.2582
 1470SOL    HW115869   1.914   3.320   9.193  1.6203  0.5282  3.0265
 1470SOL    HW215870   1.830   3.317   9.319 -0.5108 -0.5290 -0.2891
 1471SOL     OW15871   3.892   4.440   5.139 -0.1469  0.1818  0.4938
 1471SOL    HW115872   3.985   4.447   5.159 -0.5732  1.3475  2.1477
 1471SOL    HW215873   3.886   4.357   5.092  2.4696  0.9363 -1.1573
 1472SOL     OW15874   3.567   4.606  12.019 -0.2116  0.7540 -0.0417
 1472SOL    HW115875   3.658   4.581  12.035 -0.7391 -1.0354  0.2428
 1472SOL    HW215876   3.534   4.517  12.003 -0.1622  0.5556  0.9767
 1473SOL     OW15877   2.890   1.642   7.226  0.5900 -0.9380  0.5298
 1473SOL    HW115878   2.838   1.562   7.228  0.4871 -0.8716  0.4668
 1473SOL    HW215879   2.839   1.702   7.280  1.7027  1.0521 -0.6358
 1474SOL     OW15880   0.522   3.567  12.941  0.4009 -0.3077 -0.5187
 1474SOL    HW115881   0.588   3.598  12.879  1.0975  1.4718  1.1495
 1474SOL    HW215882   0.441   3.596  12.898  1.5804  2.5521 -0.7331
 1475SOL     OW15883   2.053   0.046  10.170 -0.6192 -0.0167 -0.5388
 1475SOL    HW115884   2.088   0.076  10.087 -0.8443  1.0414 -0.2504
 1475SOL    HW215885   2.020   0.125  10.212 -1.5512 -0.8408  0.2957
 1476SOL     OW15886   1.898   4.255  11.079 -0.5872  0.0826  0.1115
 1476SOL    HW115887   1.971   4.310  11.053  1.9056 -2.0656  2.5680
 1476SOL    HW215888   1.940   4.183  11.126  0.2467  0.3282 -0.2627
 1477SOL     OW15889   0.107   4.097   7.766  0.6784 -0.4011 -0.1199
 1477SOL    HW115890   0.171   4.079   7.697 -1.1612 -1.1339 -1.6345
 1477SOL    HW215891   0.029   4.118   7.714 -1.2367 -0.6463  2.6782
 1478SOL     OW15892   1.369   4.622   0.763  0.3946  0.0551 -0.2675
 1478SOL    HW115893   1.347   4.637   0.855  2.7508 -1.2818  0.5137
 1478SOL    HW215894   1.349   4.528   0.765  0.6695  0.0374  1.2680
 1479SOL     OW15895   0.181   1.780   7.381 -0.1573 -0.7320 -0.8344
 1479SOL    HW115896   0.159   1.853   7.322  1.7201  1.2331  0.9093
 1479SOL    HW215897   0.106   1.781   7.440  0.7861  0.5455  0.3358
 1480SOL     OW15898   3.959   0.829   5.391  0.2783  0.2255  0.6419
 1480SOL    HW115899   3.982   0.903   5.447  1.5750  0.4975 -0.2623
 1480SOL    HW215900   3.948   0.767   5.463 -0.2751 -1.1622 -0.6317
 1481SOL     OW15901   0.419   3.097   6.487 -0.4694 -0.4376 -0.1912
 1481SOL    HW115902   0.418   3.111   6.392  0.0208  0.8720 -0.0071
 1481SOL    HW215903   0.508   3.131   6.492 -1.8434  2.9361  1.1704
 1482SOL     OW15904   3.839   3.193   4.189  0.1690 -0.4513  0.0931
 1482SOL    HW115905   3.754   3.152   4.170 -0.2680  0.7253 -0.5083
 1482SOL    HW215906   3.817   3.270   4.243 -2.0893 -2.4475  2.0512
 1483SOL     OW15907   2.685   1.678   8.667 -0.1482  0.1502  0.3525
 1483SOL    HW115908   2.674   1.762   8.622 -1.3338  0.3889  1.0927
 1483SOL    HW215909   2.748   1.682   8.738 -0.9051  1.1710  0.9562
 1484SOL     OW15910   1.013   1.067  10.161  0.3463 -0.2935 -0.0379
 1484SOL    HW115911   0.958   1.111  10.226  0.5535 -0.6797  0.3988
 1484SOL    HW215912   1.080   1.011  10.201  0.7901 -0.1810 -0.6279
 1485SOL     OW15913   2.633   4.460   7.091 -0.3938 -0.3447  0.0888
 1485SOL    HW115914   2.720   4.422   7.081 -1.0509 -1.6341 -0.7927
 1485SOL    HW215915   2.632   4.485   7.183 -1.0730  1.2792 -0.3415
 1486SOL     OW15916   2.521   3.602   9.115 -0.0479 -0.2280 -0.2711
 1486SOL    HW115917   2.539   3.682   9.065 -0.1063  0.4929  0.8669
 1486SOL    HW215918   2.429   3.618   9.138  0.2604  2.7902 -1.0949
 1487SOL     OW15919   3.605   0.819   2.661  0.0991 -0.3565  0.1154
 1487SOL    HW115920   3.608   0.728   2.631 -2.9415  0.1766 -1.8369
 1487SOL    HW215921   3.690   0.853   2.631 -0.9722  0.8379 -1.5927
 1488SOL     OW15922   4.486   0.580   0.267 -0.5387 -0.3189 -0.0918
 1488SOL    HW115923   4.433   0.549   0.341  0.0948  2.2623  1.4514
 1488SOL    HW215924   4.541   0.507   0.240 -0.3940 -0.9017  1.7613
 1489SOL     OW15925   0.575   3.580   3.382 -0.1711 -0.2112 -0.1635
 1489SOL    HW115926   0.488   3.613   3.407 -0.5449 -0.8716 -0.5902
 1489SOL    HW215927   0.603   3.574   3.473  0.1021 -1.0673 -0.3033
 1490SOL     OW15928   2.064   4.338   6.365  0.3933 -0.0697  0.8930
 1490SOL    HW115929   1.968   4.331   6.363  0.3785  0.0560  1.2340
 1490SOL    HW215930   2.081   4.262   6.420  2.2426 -1.4544 -1.5874
 1491SOL     OW15931   4.545   3.283   3.594 -0.6701  0.4947  0.0377
 1491SOL    HW115932   4.586   3.361   3.556  0.5279 -1.6102 -3.0239
 1491SOL    HW215933   4.581   3.214   3.538  1.2453  1.3212  0.2563
 1492SOL     OW15934   2.041   4.110   6.509  0.4609  0.0207  0.0978
 1492SOL    HW115935   1.976   4.103   6.578  0.5231  2.9884  0.4562
 1492SOL    HW215936   2.102   4.040   6.535 -0.4703  0.0939  2.4179
 1493SOL     OW15937   2.899   1.621  12.003  0.0792  0.3484 -0.1577
 1493SOL    HW115938   2.978   1.644  12.053  2.0836 -1.3115 -2.5261
 1493SOL    HW215939   2.944   1.634  11.919 -0.5505  3.3853 -0.0412
 1494SOL     OW15940   2.026   4.416   1.018  0.5231  0.4668  0.0722
 1494SOL    HW115941   2.034   4.410   1.113 -0.4690  1.5429  0.2297
 1494SOL    HW215942   2.023   4.510   1.001  0.4247  0.6172  0.9196
 1495SOL     OW15943   4.552   1.180   5.391 -0.1230  0.5648  0.4766
 1495SOL    HW115944   4.496   1.155   5.464  0.0851  1.0812  0.8055
 1495SOL    HW215945   4.621   1.214   5.447  0.8098  0.3998 -0.5638
 1496SOL     OW15946   0.042   3.812   7.137  0.6942 -0.5650 -0.7648
 1496SOL    HW115947   0.088   3.761   7.071  2.5345 -2.2444  1.8332
 1496SOL    HW215948   0.052   3.899   7.098 -0.2529 -0.5790 -1.0505
 1497SOL     OW15949   3.878   4.494  11.493 -0.1124  0.2546  0.2331
 1497SOL    HW115950   3.866   4.448  11.576 -1.4133 -2.3677 -1.4367
 1497SOL    HW215951   3.787   4.505  11.468  0.5406  3.1309 -0.9607
 1498SOL     OW15952   3.181   0.317  15.054  0.1159 -0.6149  0.0483
 1498SOL    HW115953   3.120   0.380  15.092 -0.6533  0.0257 -2.2645
 1498SOL    HW215954   3.117   0.248  15.038 -1.3270  1.1944 -2.0528
 1499SOL     OW15955   0.517   4.073   0.607 -0.2589 -0.0359 -0.2268
 1499SOL    HW115956   0.434   4.076   0.655 -0.3758 -0.6745 -0.3974
 1499SOL    HW215957   0.540   4.151   0.555  1.8186 -0.8801 -0.5560
 1500SOL     OW15958   4.508   2.558   5.495 -0.5258  0.5566  0.0369
 1500SOL    HW115959   4.471   2.474   5.524  0.0162  0.0742 -0.6903
 1500SOL    HW215960   4.433   2.580   5.439  0.6390  0.3326 -1.5952
 1501SOL     OW15961   4.533   2.585   9.649 -0.0706  0.8227  0.3421
 1501SOL    HW115962   4.577   2.504   9.674 -1.2581  0.4515  1.2444
 1501SOL    HW215963   4.450   2.569   9.694 -1.6721  1.0121 -2.5293
 1502SOL     OW15964   3.743   1.598   2.233  0.5808 -0.2872  0.1970
 1502SOL    HW115965   3.793   1.638   2.161  1.1173 -1.1520  0.0867
 1502SOL    HW215966   3.809   1.612   2.302  2.1031 -2.2494 -0.8689
 1503SOL     OW15967   0.329   3.390   2.441  0.4925 -0.2728 -0.4862
 1503SOL    HW115968   0.383   3.461   2.406 -0.0045  1.0172  1.3664
 1503SOL    HW215969   0.394   3.336   2.486 -0.7342 -1.5318 -0.2103
 1504SOL     OW15970   2.749   3.964   2.028 -0.7155 -0.3196 -0.5191
 1504SOL    HW115971   2.655   3.969   2.046 -0.2489  0.0062  1.8248
 1504SOL    HW215972   2.784   3.915   2.102 -0.1059 -0.9197 -1.2056
 1505SOL     OW15973   3.551   0.751   8.659 -0.0940 -0.0309 -0.1942
 1505SOL    HW115974   3.474   0.784   8.706 -1.7422  1.5554 -4.0294
 1505SOL    HW215975   3.597   0.721   8.737  1.6247 -0.3074 -1.3013
 1506SOL     OW15976   1.114   0.540   4.007  0.4690  0.0347 -0.2242
 1506SOL    HW115977   1.182   0.522   4.072  0.7217 -0.7450 -0.7015
 1506SOL    HW215978   1.046   0.584   4.058  1.8530 -1.4617  2.8945
 1507SOL     OW15979   1.670   2.287   7.997  0.1842  0.0286  0.1582
 1507SOL    HW115980   1.717   2.214   7.959 -1.5823 -2.2956  2.3999
 1507SOL    HW215981   1.619   2.246   8.067  0.1978  0.6583  0.5389
 1508SOL     OW15982   2.964   2.209   2.441 -1.0378 -0.4604  1.0489
 1508SOL    HW115983   2.997   2.254   2.363  0.5263 -4.0626 -0.3771
 1508SOL    HW215984   2.980   2.117   2.418 -0.3267 -0.4006  1.2984
 1509SOL     OW15985   3.704   3.277   3.287 -0.5484 -0.0372 -0.3221
 1509SOL    HW115986   3.654   3.311   3.212 -2.0974  1.3454  1.3495
 1509SOL    HW215987   3.703   3.339   3.359  0.7813 -0.4869  0.0730
 1510SOL     OW15988   1.700   1.834  10.923  0.0873 -0.9441  0.1246
 1510SOL    HW115989   1.657   1.754  10.953  1.5242 -2.4180 -1.7685
 1510SOL    HW215990   1.782   1.834  10.971  0.6761  1.9542 -0.9099
 1511SOL     OW15991   3.694   2.792   5.531 -0.2658 -0.3620 -0.1958
 1511SOL    HW115992   3.753   2.740   5.476  0.7692  1.3660 -0.7176
 1511SOL    HW215993   3.713   2.884   5.513 -2.1210 -0.2952 -1.8912
 1512SOL     OW15994   2.646   2.063   6.825 -0.4559 -0.7076  0.0531
 1512SOL    HW115995   2.693   2.133   6.780 -1.3898  2.1764  3.5857
 1512SOL    HW215996   2.556   2.088   6.804 -0.8142 -1.3186  0.8251
 1513SOL     OW15997   3.077   1.173  10.115  0.1670  0.2051 -0.6433
 1513SOL    HW115998   3.126   1.255  10.125  0.5185 -0.0414 -0.3486
 1513SOL    HW215999   3.090   1.135  10.202  0.2784 -0.2371 -0.8555
 1514SOL     OW16000   3.184   0.263   2.611 -0.6229 -0.0272 -0.5720
 1514SOL    HW116001   3.108   0.306   2.650 -1.6209 -0.9020 -1.5645
 1514SOL    HW216002   3.207   0.204   2.682  1.3234  0.7233 -0.5842
 1515SOL     OW16003   2.484   0.323  17.244 -0.2907 -0.0067 -0.7814
 1515SOL    HW116004   2.572   0.292  17.265 -2.0348 -2.2885  3.1953
 1515SOL    HW216005   2.462   0.328  17.337  0.5501 -0.8606 -0.5450
 1516SOL     OW16006   2.143   3.721  11.355 -0.1621  0.7034  0.2598
 1516SOL    HW116007   2.198   3.658  11.403  1.4823  1.6940 -0.2963
 1516SOL    HW216008   2.057   3.695  11.387  0.4034 -1.6515 -0.0714
 1517SOL     OW16009   1.055   0.975   0.662  0.0794  0.6961 -0.0969
 1517SOL    HW116010   0.988   0.910   0.683 -2.0986  2.9904  0.0891
 1517SOL    HW216011   1.128   0.931   0.618  0.5479  2.5963 -1.2371
 1518SOL     OW16012   1.909   1.043   6.689  0.2705  0.0987 -0.1024
 1518SOL    HW116013   1.954   0.965   6.658  1.3844  0.7439 -0.1123
 1518SOL    HW216014   1.982   1.083   6.737  0.0267  0.3958  0.0177
 1519SOL     OW16015   2.900   3.744   8.373 -0.1091 -0.0653  0.0948
 1519SOL    HW116016   2.953   3.775   8.300  1.0132 -0.5441  0.7174
 1519SOL    HW216017   2.954   3.767   8.448 -0.6886 -1.8874  1.0584
 1520SOL     OW16018   3.164   4.573   2.717 -0.4620 -0.4760  0.3960
 1520SOL    HW116019   3.180   4.629   2.641  1.1514 -0.9402  0.4079
 1520SOL    HW216020   3.096   4.511   2.690  1.0586 -1.1303 -1.9487
 1521SOL     OW16021   3.638   1.468   5.558 -0.5430 -0.6043  0.4517
 1521SOL    HW116022   3.698   1.404   5.596  2.7128  0.8974 -2.2616
 1521SOL    HW216023   3.571   1.403   5.536 -3.1213  2.5081 -0.8781
 1522SOL     OW16024   3.565   1.221  12.945  0.1790  0.2521  0.5625
 1522SOL    HW116025   3.586   1.130  12.966 -0.1111  0.1618  0.4630
 1522SOL    HW216026   3.640   1.260  12.900  0.7516 -1.7403 -0.2023
 1523SOL     OW16027   0.770   3.499   9.672  0.2038  0.2601 -0.0848
 1523SOL    HW116028   0.838   3.440   9.705  1.0922  0.8530 -0.8797
 1523SOL    HW216029   0.776   3.573   9.733 -1.6537  0.7406 -0.4758
 1524SOL     OW16030   1.891   2.217   5.993  0.2289  0.1199  0.6397
 1524SOL    HW116031   1.868   2.155   5.923  0.7934 -1.2655  1.6892
 1524SOL    HW216032   1.833   2.291   5.972 -2.6215 -1.8236  1.6344
 1525SOL     OW16033   3.366   0.874   2.511  0.4424  0.6659 -0.3707
 1525SOL    HW116034   3.331   0.899   2.596  0.2928  0.8558 -0.4900
 1525SOL    HW216035   3.446   0.829   2.539  1.0558  1.3611 -1.0119
 1526SOL     OW16036   0.960   1.378   8.991 -0.0215 -0.2853  0.4260
 1526SOL    HW116037   0.906   1.364   9.069 -0.0629 -0.7577  0.3146
 1526SOL    HW216038   0.994   1.290   8.972 -1.7172 -0.7736 -0.3685
 1527SOL     OW16039   3.202   2.789   4.624  0.4056 -0.3738  0.0550
 1527SOL    HW116040   3.215   2.695   4.635  2.8837 -0.0430 -0.1536
 1527SOL    HW216041   3.124   2.794   4.680 -1.1076 -1.8931 -1.8780
 1528SOL     OW16042   2.366   0.492   9.612  0.1424 -0.1441  0.2440
 1528SOL    HW116043   2.380   0.538   9.529  0.8247 -1.1228 -0.1902
 1528SOL    HW216044   2.442   0.517   9.665  0.6497  1.4107 -1.2003
 1529SOL     OW16045   1.358   4.232   0.371  0.1594  0.3655 -0.3050
 1529SOL    HW116046   1.324   4.247   0.283 -1.2443  1.8114  0.4955
 1529SOL    HW216047   1.378   4.138   0.370 -2.3266 -0.1692 -0.6215
 1530SOL     OW16048   0.743   0.800   9.346  0.1280 -0.4524 -0.0286
 1530SOL    HW116049   0.785   0.757   9.420  0.6469 -0.3342 -0.2506
 1530SOL    HW216050   0.653   0.820   9.370  0.5858 -0.2081  1.4990
 1531SOL     OW16051   4.165   3.534   0.871 -0.1051  0.2066  0.2361
 1531SOL    HW116052   4.218   3.551   0.949 -0.8635 -0.6275  0.9372
 1531SOL    HW216053   4.223   3.467   0.834  3.0327  2.2654  1.4512
 1532SOL     OW16054   4.463   1.900   4.772 -0.1489  0.9504  1.2247
 1532SOL    HW116055   4.397   1.876   4.837 -0.9877  3.9682  1.4982
 1532SOL    HW216056   4.444   1.994   4.768 -1.3819  0.6442  0.0805
 1533SOL     OW16057   1.485   3.402  16.281 -0.3083 -0.4973 -0.0414
 1533SOL    HW116058   1.448   3.445  16.203  0.3490 -1.2128 -0.7406
 1533SOL    HW216059   1.406   3.357  16.312 -0.9615 -0.6387 -1.9000
 1534SOL     OW16060   2.756   1.383   6.549  0.5347  0.0001 -0.0363
 1534SOL    HW116061   2.784   1.445   6.482  0.0679  1.3961  1.0518
 1534SOL    HW216062   2.686   1.343   6.498  1.5142  1.2385 -2.3613
 1535SOL     OW16063   4.094   4.711   6.120  0.1775  0.1448  0.2796
 1535SOL    HW116064   4.109   4.689   6.028  0.1354  0.8451  0.1061
 1535SOL    HW216065   4.036   0.061   6.108  0.8747  0.5709 -0.4502
 1536SOL     OW16066   3.021   3.283  16.918  0.1964  0.1365  0.5499
 1536SOL    HW116067   3.072   3.358  16.950 -2.1515  1.8502  0.2574
 1536SOL    HW216068   3.089   3.231  16.874 -0.8106 -0.5684 -0.1637
 1537SOL     OW16069   3.172   0.474  13.120 -0.0487  0.4160  0.3673
 1537SOL    HW116070   3.149   0.381  13.115  1.8658  0.0394 -1.4396
 1537SOL    HW216071   3.111   0.499  13.190  0.0054  3.5208 -0.7271
 1538SOL     OW16072   3.789   0.901   1.741 -0.1890  0.0795 -0.1368
 1538SOL    HW116073   3.783   0.952   1.822  3.0987 -1.7827  1.2920
 1538SOL    HW216074   3.771   0.963   1.670  1.2853 -0.2783 -0.8129
 1539SOL     OW16075   4.010   3.996   7.012 -0.6662  0.7995 -0.1211
 1539SOL    HW116076   3.967   3.939   7.076  0.3707  1.6981  1.3613
 1539SOL    HW216077   3.964   3.961   6.935  0.2961 -1.0950  0.1548
 1540SOL     OW16078   1.398   0.928  15.382  0.5951 -0.3697 -0.3663
 1540SOL    HW116079   1.459   0.918  15.309  0.2078  1.1888 -0.8948
 1540SOL    HW216080   1.351   1.008  15.360  0.1614 -0.6164 -0.3291
 1541SOL     OW16081   4.429   3.893  13.357 -0.1773 -0.0724 -0.4429
 1541SOL    HW116082   4.510   3.898  13.306  0.7771  1.3901  1.2068
 1541SOL    HW216083   4.387   3.975  13.330  0.9668  0.6835  0.0316
 1542SOL     OW16084   2.785   1.672   7.641  1.1250  0.1756  0.0148
 1542SOL    HW116085   2.764   1.584   7.671  2.0371 -0.2945 -0.7114
 1542SOL    HW216086   2.879   1.680   7.625  1.3573 -0.7896  0.8928
 1543SOL     OW16087   2.256   2.831  13.932  0.3070 -0.2564  0.0440
 1543SOL    HW116088   2.310   2.814  13.854 -0.5100 -1.6104 -0.2290
 1543SOL    HW216089   2.167   2.824  13.899 -0.2340  1.9234  1.0254
 1544SOL     OW16090   1.506   1.203   2.458  0.3722 -0.2432  0.8718
 1544SOL    HW116091   1.573   1.269   2.440  0.3042 -0.0274  1.4053
 1544SOL    HW216092   1.528   1.182   2.549  2.8571 -0.0317  0.3112
 1545SOL     OW16093   1.286   3.392   7.814  0.5100 -0.0700  0.1893
 1545SOL    HW116094   1.336   3.457   7.864 -0.9860  0.5378  0.8853
 1545SOL    HW216095   1.320   3.309   7.847 -0.3849 -0.8008 -0.7221
 1546SOL     OW16096   3.754   3.375   9.086 -0.1535 -0.1091 -0.1115
 1546SOL    HW116097   3.820   3.441   9.063 -1.8341  0.5471 -3.0813
 1546SOL    HW216098   3.798   3.293   9.064 -0.0385 -0.5578  1.7853
 1547SOL     OW16099   0.691   1.014   2.403 -0.0640 -0.1447 -0.0938
 1547SOL    HW116100   0.723   1.094   2.363  0.1850  0.3070  1.0094
 1547SOL    HW216101   0.757   0.952   2.371  1.1122  0.3265  1.4165
 1548SOL     OW16102   1.236   0.745  14.922  0.1043 -0.2367  0.1396
 1548SOL    HW116103   1.171   0.745  14.992 -1.2032 -0.7283 -1.0810
 1548SOL    HW216104   1.304   0.795  14.966 -0.2141 -1.0420  1.5315
 1549SOL     OW16105   1.199   3.708   9.665 -0.3775  0.8122 -0.3225
 1549SOL    HW116106   1.148   3.763   9.605 -1.3616  1.5808  1.2066
 1549SOL    HW216107   1.126   3.663   9.708  0.3340 -0.0680 -0.0491
 1550SOL     OW16108   2.257   1.979   8.563  0.1567 -0.1964 -0.1891
 1550SOL    HW116109   2.220   2.000   8.649 -0.8889  0.1362 -0.7236
 1550SOL    HW216110   2.248   1.884   8.563 -0.4361 -0.1335 -2.8984
 1551SOL     OW16111   3.742   4.106  13.912 -0.0799  0.6443  0.1909
 1551SOL    HW116112   3.652   4.120  13.882 -0.6650 -0.1810  1.5382
 1551SOL    HW216113   3.749   4.011  13.907  0.4019  0.6877  0.0230
 1552SOL     OW16114   4.725   4.225   0.972 -0.7920  0.5262  0.4235
 1552SOL    HW116115   4.684   4.310   0.986 -0.1255  0.6918  1.3121
 1552SOL    HW216116   0.048   4.239   0.890 -4.0056  1.4282 -1.3486
 1553SOL     OW16117   0.899   1.600  15.241 -0.2442 -0.3738 -0.0190
 1553SOL    HW116118   0.915   1.648  15.322 -2.3311  0.7553 -0.2634
 1553SOL    HW216119   0.828   1.653  15.205 -0.2157 -0.7891 -0.6857
 1554SOL     OW16120   0.258   0.299   3.398 -1.0059 -0.2441 -0.2098
 1554SOL    HW116121   0.181   0.331   3.446 -1.1877 -1.2475  0.1717
 1554SOL    HW216122   0.305   0.381   3.386 -0.9681 -0.0967  0.8847
 1555SOL     OW16123   1.594   0.632   4.885  0.1064  0.5760  0.4580
 1555SOL    HW116124   1.677   0.584   4.886 -0.7638 -0.9327 -0.4142
 1555SOL    HW216125   1.542   0.590   4.954 -1.2801  1.7727  0.1210
 1556SOL     OW16126   2.383   1.645   3.012  0.2251 -0.4811 -0.3950
 1556SOL    HW116127   2.468   1.626   3.052  1.0068  1.0694 -1.3092
 1556SOL    HW216128   2.415   1.637   2.922  1.4410  0.2839 -0.0286
 1557SOL     OW16129   4.297   3.010  11.229  0.0422 -0.2497 -0.1668
 1557SOL    HW116130   4.333   3.098  11.238 -0.6223 -0.3442  3.4841
 1557SOL    HW216131   4.316   2.992  11.137 -1.0669 -0.3991 -0.3729
 1558SOL     OW16132   0.788   0.513   2.292  0.1344 -0.0896  0.1904
 1558SOL    HW116133   0.739   0.432   2.272 -0.2908  0.1655  0.1990
 1558SOL    HW216134   0.743   0.575   2.235 -0.1494 -1.0090 -0.5883
 1559SOL     OW16135   3.888   1.902   8.235 -0.5372  0.5522 -0.0167
 1559SOL    HW116136   3.841   1.851   8.169 -3.3165  1.0970  1.5262
 1559SOL    HW216137   3.820   1.953   8.279 -1.3220  2.3444 -3.3621
 1560SOL     OW16138   1.477   0.400  16.691  0.0433 -0.0451 -0.4401
 1560SOL    HW116139   1.407   0.335  16.694 -1.0859  1.0396 -3.1282
 1560SOL    HW216140   1.482   0.417  16.785  0.6448 -0.9024 -0.3156
 1561SOL     OW16141   4.246   1.192   2.361  0.0201  0.1411  0.6836
 1561SOL    HW116142   4.199   1.243   2.295 -1.5338  0.5213  2.0842
 1561SOL    HW216143   4.186   1.117   2.365  1.4713 -0.9567  2.0343
 1562SOL     OW16144   0.306   1.743   2.647 -0.8574  0.6948 -0.1102
 1562SOL    HW116145   0.291   1.656   2.610  1.5580  0.9907 -1.7732
 1562SOL    HW216146   0.401   1.750   2.637 -0.8981  2.3118  0.7293
 1563SOL     OW16147   1.791   3.363  16.877  0.3085 -0.6374 -0.1289
 1563SOL    HW116148   1.750   3.365  16.790  0.1406 -0.5333 -0.0481
 1563SOL    HW216149   1.732   3.299  16.916  0.3992 -0.1425  0.8167
 1564SOL     OW16150   3.474   3.604   7.213  0.0923 -0.2940  0.8650
 1564SOL    HW116151   3.522   3.526   7.241 -0.2005  0.1138  2.4927
 1564SOL    HW216152   3.411   3.620   7.282 -1.8842 -2.2806 -0.4592
 1565SOL     OW16153   0.903   0.787   5.173  0.3605  0.4035  0.3634
 1565SOL    HW116154   0.836   0.855   5.181  0.2159  0.0275  2.2827
 1565SOL    HW216155   0.905   0.766   5.079  2.0807  0.4109  0.4084
 1566SOL     OW16156   0.466   0.539  11.081  0.2682 -0.1728 -0.1002
 1566SOL    HW116157   0.558   0.540  11.055  0.2345  1.1424 -0.1734
 1566SOL    HW216158   0.431   0.576  10.999  1.4460 -0.6192 -0.7923
 1567SOL     OW16159   1.322   4.033   0.067  0.1166  0.1931  0.4327
 1567SOL    HW116160   1.384   4.105   0.072 -0.1207  0.6090 -2.6302
 1567SOL    HW216161   1.248   4.068   0.017  0.5748  1.5723  0.7142
 1568SOL     OW16162   3.265   3.218   0.113 -0.3093 -0.1214 -0.4781
 1568SOL    HW116163   3.299   3.297   0.070 -0.0671  0.1480  0.2086
 1568SOL    HW216164   3.172   3.237   0.114 -0.8834 -2.8275 -1.8632
 1569SOL     OW16165   2.729   1.277   4.692 -0.1360  0.2425 -0.5256
 1569SOL    HW116166   2.716   1.213   4.762  0.1658  2.3819  1.4941
 1569SOL    HW216167   2.686   1.353   4.731 -1.7854 -0.3227 -1.2643
 1570SOL     OW16168   2.850   0.249   2.302  0.1980 -0.1801  0.0783
 1570SOL    HW116169   2.790   0.204   2.242  0.4492 -0.1988 -0.1568
 1570SOL    HW216170   2.793   0.317   2.339  1.5842  0.6766  0.6097
 1571SOL     OW16171   0.533   2.253  13.914  0.3399 -0.2037  0.7074
 1571SOL    HW116172   0.540   2.251  14.009 -0.0862  2.3560  0.7881
 1571SOL    HW216173   0.514   2.162  13.890 -0.6118 -0.4887  2.5245
 1572SOL     OW16174   2.497   4.634   0.693  0.1927  0.0118 -0.2228
 1572SOL    HW116175   2.466   4.701   0.632  0.6247  2.3914  2.1848
 1572SOL    HW216176   2.579   4.619   0.647 -0.0431  0.9765 -0.9439
 1573SOL     OW16177   4.603   1.368   2.428  0.2839  0.3814 -0.2249
 1573SOL    HW116178   4.631   1.293   2.480 -0.2475  0.1658 -0.2577
 1573SOL    HW216179   4.545   1.415   2.488 -0.1549 -1.6670  0.9340
 1574SOL     OW16180   2.306   0.050  17.331 -0.0231 -0.3169 -0.4186
 1574SOL    HW116181   2.289   0.075  17.422  1.0837  0.5353 -0.4566
 1574SOL    HW216182   2.227   0.075  17.284  0.2292  0.1965 -0.5729
 1575SOL     OW16183   1.340   4.625   5.160  0.3944  0.3774 -0.4850
 1575SOL    HW116184   1.408   4.609   5.226  0.3513  0.4859 -0.4140
 1575SOL    HW216185   1.303   4.709   5.187  0.0496 -0.2227  0.9204
 1576SOL     OW16186   3.042   1.837   0.994  0.1363 -0.6912 -0.3594
 1576SOL    HW116187   3.079   1.904   1.050 -1.6603 -0.1052  0.1275
 1576SOL    HW216188   2.955   1.876   0.979  0.7151  0.4583 -0.7349
 1577SOL     OW16189   3.426   0.568   4.722  0.6087  0.4123  1.0637
 1577SOL    HW116190   3.457   0.515   4.796  1.3418 -0.7480 -0.0706
 1577SOL    HW216191   3.335   0.587   4.745  0.1112  2.0685 -2.2477
 1578SOL     OW16192   0.122   0.639   9.625  0.3583 -0.3980  0.2901
 1578SOL    HW116193   0.026   0.633   9.625  0.4106 -1.0759 -0.4566
 1578SOL    HW216194   0.136   0.732   9.604 -1.6473 -1.0425 -3.7616
 1579SOL     OW16195   0.748   0.220  15.317 -0.2049  0.0422  0.2127
 1579SOL    HW116196   0.812   0.225  15.388  0.8151  1.1276 -0.7850
 1579SOL    HW216197   0.789   0.280  15.255 -0.8539 -1.6273 -1.8436
 1580SOL     OW16198   3.335   0.901   5.792 -0.2883 -0.4112  0.2677
 1580SOL    HW116199   3.267   0.907   5.859 -0.8775  1.7262 -0.5281
 1580SOL    HW216200   3.416   0.907   5.842 -0.4311  3.1561  0.0810
 1581SOL     OW16201   4.562   3.342   6.797  0.4450 -0.7298 -0.0865
 1581SOL    HW116202   4.621   3.399   6.847  0.7506  0.9115 -2.3448
 1581SOL    HW216203   4.610   3.259   6.796  1.5607 -0.0936 -0.3074
 1582SOL     OW16204   0.667   2.653  13.025 -0.5406 -0.1049 -0.7146
 1582SOL    HW116205   0.698   2.734  13.065  1.6869 -0.5195 -1.6318
 1582SOL    HW216206   0.746   2.602  13.038  1.1182  2.9424  1.1553
 1583SOL     OW16207   4.554   2.295  17.414 -0.4172 -0.4369  0.2669
 1583SOL    HW116208   4.556   2.381  17.457  2.7070  0.8756 -2.4887
 1583SOL    HW216209   4.594   2.232  17.474 -1.5535 -1.6874 -0.2837
 1584SOL     OW16210   4.644   3.283  13.780 -0.1812 -0.1904  0.3608
 1584SOL    HW116211   4.568   3.319  13.827  0.3690  0.8402  0.4580
 1584SOL    HW216212   4.708   3.354  13.780  0.8314 -1.1133 -0.0833
 1585SOL     OW16213   2.897   1.114   0.966  0.1096 -0.1290 -0.4948
 1585SOL    HW116214   2.946   1.115   1.048 -1.4333  0.1576  0.4385
 1585SOL    HW216215   2.820   1.070   1.002  0.3986 -1.3970 -1.4308
 1586SOL     OW16216   3.579   0.780  11.815 -0.1591  0.1306  0.7769
 1586SOL    HW116217   3.594   0.864  11.857 -0.3997  1.3350 -1.5454
 1586SOL    HW216218   3.668   0.745  11.814 -0.7250 -1.3285  2.9182
 1587SOL     OW16219   3.558   3.131  17.164 -0.4639  0.4975 -0.7031
 1587SOL    HW116220   3.476   3.082  17.179 -0.4255  1.6710  3.4838
 1587SOL    HW216221   3.519   3.209  17.124 -0.4800  0.2271 -1.2149
 1588SOL     OW16222   1.442   0.514   6.305  0.1823 -0.2490  0.4106
 1588SOL    HW116223   1.409   0.492   6.392 -0.5522 -2.4600 -0.4140
 1588SOL    HW216224   1.371   0.489   6.246 -1.0329  0.0558  1.7412
 1589SOL     OW16225   2.927   4.681   6.487 -0.8531 -0.2303  0.1669
 1589SOL    HW116226   2.885   0.016   6.548 -1.5909 -3.2429  2.6983
 1589SOL    HW216227   3.002   4.651   6.538 -2.1215 -2.5572  0.6651
 1590SOL     OW16228   3.887   2.686   9.428 -0.0151  0.1689 -0.4629
 1590SOL    HW116229   3.820   2.752   9.412  0.1889  0.3441 -0.5956
 1590SOL    HW216230   3.963   2.731   9.391  0.2816  1.9063  2.2445
 1591SOL     OW16231   1.016   3.664   0.239  0.4409  0.0253 -0.4170
 1591SOL    HW116232   1.028   3.669   0.144 -1.3552 -1.6300 -0.7132
 1591SOL    HW216233   1.049   3.751   0.262 -0.1750 -0.1647  1.1280
 1592SOL     OW16234   1.637   3.922   2.351 -0.1641  0.1581  0.4447
 1592SOL    HW116235   1.589   3.997   2.316  0.2889 -0.6219 -1.8173
 1592SOL    HW216236   1.681   3.970   2.421  1.2109 -0.3149 -0.0951
 1593SOL     OW16237   1.772   4.683   1.668  0.0504  0.0520 -0.4879
 1593SOL    HW116238   1.764   4.646   1.579 -0.4784 -0.6735 -0.1447
 1593SOL    HW216239   1.813   0.034   1.628 -0.1745 -0.3248 -1.4649
 1594SOL     OW16240   2.079   2.621   7.376 -0.2992  0.1813 -0.0628
 1594SOL    HW116241   2.015   2.638   7.444 -0.7282 -1.5051 -0.0438
 1594SOL    HW216242   2.084   2.703   7.326  0.7252  0.7182  0.9254
 1595SOL     OW16243   3.609   1.726   9.156 -0.1453  0.1230 -0.0326
 1595SOL    HW116244   3.597   1.674   9.076  2.0126 -0.0560 -0.2574
 1595SOL    HW216245   3.683   1.782   9.135 -0.3093  0.4978  0.3986
 1596SOL     OW16246   1.113   2.885   5.658  0.2007  0.2981 -0.2370
 1596SOL    HW116247   1.147   2.817   5.599  1.5606 -0.8986  1.9106
 1596SOL    HW216248   1.029   2.891   5.613  0.3417  1.5636 -0.3319
 1597SOL     OW16249   3.371   0.655   1.662 -0.9260  0.1093  0.2888
 1597SOL    HW116250   3.409   0.602   1.733  0.0715  0.8404  0.2980
 1597SOL    HW216251   3.432   0.728   1.660  0.2748 -0.9300 -1.0359
 1598SOL     OW16252   4.207   2.372   3.525 -0.4054 -0.2792 -0.0286
 1598SOL    HW116253   4.217   2.459   3.487  2.0484  0.6034  2.6190
 1598SOL    HW216254   4.285   2.366   3.580 -0.8007 -1.3365  0.4143
 1599SOL     OW16255   1.392   4.137  15.178 -0.1825 -0.1226  0.7000
 1599SOL    HW116256   1.343   4.095  15.248 -0.5444 -0.8196  0.0264
 1599SOL    HW216257   1.447   4.065  15.147 -0.9145 -0.2624 -0.2628
 1600SOL     OW16258   3.523   3.090  13.553 -0.1235  0.7835  0.5545
 1600SOL    HW116259   3.484   3.177  13.553  0.2562  0.9579 -0.1232
 1600SOL    HW216260   3.599   3.108  13.608 -0.5203 -0.5365  1.5459
 1601SOL     OW16261   3.288   4.725   1.942  0.0297 -0.0652 -0.7611
 1601SOL    HW116262   3.291   4.698   2.034  0.1013 -1.2470 -1.1087
 1601SOL    HW216263   3.227   0.071   1.957  1.2080  0.8045 -0.1405
 1602SOL     OW16264   2.942   1.438  11.255  0.0207 -0.0680 -0.2808
 1602SOL    HW116265   2.968   1.348  11.238 -1.2856 -0.7057  1.1234
 1602SOL    HW216266   3.025   1.482  11.235  0.0185 -1.2766 -3.0220
 1603SOL     OW16267   2.496   1.941   2.129 -0.3126  0.7120  0.0614
 1603SOL    HW116268   2.448   1.984   2.200  0.6969  0.1884  1.0525
 1603SOL    HW216269   2.431   1.953   2.059 -0.3817 -1.7961 -0.2928
 1604SOL     OW16270   2.921   0.386   4.212  0.4849  0.1727 -0.3806
 1604SOL    HW116271   2.948   0.442   4.139 -0.1208  0.2881 -0.5109
 1604SOL    HW216272   2.868   0.447   4.262  0.4177 -0.0995 -0.1198
 1605SOL     OW16273   3.583   0.922   3.802 -0.0697 -0.0613  0.0103
 1605SOL    HW116274   3.534   0.948   3.880 -0.3794  1.1703 -0.6001
 1605SOL    HW216275   3.520   0.954   3.738 -0.8812 -0.2965  0.6994
 1606SOL     OW16276   1.340   2.964  12.124 -0.1489 -0.1986 -0.3582
 1606SOL    HW116277   1.371   3.046  12.163  1.8949 -1.2337  0.1562
 1606SOL    HW216278   1.426   2.923  12.130  0.5042  0.9528 -1.9056
 1607SOL     OW16279   0.118   4.036   1.812  0.1612  0.0975  0.0999
 1607SOL    HW116280   0.081   3.990   1.737 -1.2205  0.9140  0.2819
 1607SOL    HW216281   0.212   4.025   1.797 -0.1723 -1.3892 -0.8851
 1608SOL     OW16282   2.320   1.125  15.605 -0.3639  0.0087 -0.1882
 1608SOL    HW116283   2.405   1.168  15.614  0.0869 -0.7647 -0.7805
 1608SOL    HW216284   2.281   1.167  15.682  0.7271  0.9298 -0.1276
 1609SOL     OW16285   4.110   3.160   6.143  0.7822 -0.2230  0.7980
 1609SOL    HW116286   4.156   3.079   6.121 -1.8591 -1.2290 -1.0083
 1609SOL    HW216287   4.087   3.132   6.231  1.1956 -0.9516  0.6794
 1610SOL     OW16288   2.089   1.947  17.293  0.0980 -0.0032 -0.1734
 1610SOL    HW116289   2.086   1.963  17.387 -2.3598 -0.3626 -0.1998
 1610SOL    HW216290   2.087   1.852  17.285  3.4430  0.0790 -2.1326
 1611SOL     OW16291   0.913   1.944   6.527  0.5292 -0.3774  0.2956
 1611SOL    HW116292   0.970   1.975   6.598  1.9757 -1.2299 -0.5048
 1611SOL    HW216293   0.824   1.979   6.540  0.7087 -0.3749  1.5110
 1612SOL     OW16294   0.151   2.460   9.530  0.5271 -0.7560 -0.1735
 1612SOL    HW116295   0.233   2.413   9.512  0.7894 -0.2489 -0.2911
 1612SOL    HW216296   0.087   2.393   9.555  1.6664 -0.2239  4.3068
 1613SOL     OW16297   2.862   4.482   8.537  0.8918  0.4342 -0.5692
 1613SOL    HW116298   2.901   4.555   8.488  0.5466  0.4442 -0.8273
 1613SOL    HW216299   2.938   4.455   8.588  1.1074  0.6669 -0.7611
 1614SOL     OW16300   1.187   4.604   3.456 -0.1839 -0.4312 -0.3460
 1614SOL    HW116301   1.223   4.663   3.521  0.3636 -1.0645 -0.0780
 1614SOL    HW216302   1.119   4.658   3.417  0.7630 -0.3664 -1.9048
 1615SOL     OW16303   3.415   2.494   6.851  0.0613  0.0039  0.0948
 1615SOL    HW116304   3.452   2.582   6.854 -1.8022  0.7411  1.5824
 1615SOL    HW216305   3.424   2.477   6.944 -1.0351  0.3287  0.2589
 1616SOL     OW16306   0.530   2.545  16.167  0.3944 -0.5212 -0.1446
 1616SOL    HW116307   0.535   2.450  16.153  0.8705 -0.5443  0.2019
 1616SOL    HW216308   0.439   2.549  16.195 -0.1231 -2.5921 -1.5615
 1617SOL     OW16309   1.893   1.845   3.945  0.3999  0.0915 -0.0936
 1617SOL    HW116310   1.838   1.916   3.979  0.2691 -0.7398  1.4334
 1617SOL    HW216311   1.935   1.821   4.027  1.5719  1.3743 -0.3366
 1618SOL     OW16312   0.239   3.283   9.414 -0.0056  0.9518  0.0970
 1618SOL    HW116313   0.269   3.201   9.453  0.3407  1.4560  0.8986
 1618SOL    HW216314   0.246   3.340   9.490  0.3348 -1.1112  1.6308
 1619SOL     OW16315   1.278   2.557  13.096  0.1739  0.0378 -0.1745
 1619SOL    HW116316   1.206   2.504  13.062 -0.0929  0.1164  0.2844
 1619SOL    HW216317   1.329   2.486  13.137  0.6964  0.6100  0.1648
 1620SOL     OW16318   3.284   3.651   0.835  0.8254  0.1998 -0.1185
 1620SOL    HW116319   3.251   3.666   0.746  1.4436  0.9464 -0.2247
 1620SOL    HW216320   3.366   3.614   0.802  1.6392 -0.1166  2.2997
 1621SOL     OW16321   2.934   2.362   9.025  0.2893 -0.0287  0.4540
 1621SOL    HW116322   2.944   2.456   9.007  1.2995  0.0580  1.4470
 1621SOL    HW216323   3.008   2.342   9.082  0.0381 -0.7133  0.5321
 1622SOL     OW16324   2.903   1.686  16.896  0.6730 -0.2775  0.3238
 1622SOL    HW116325   2.899   1.735  16.814  0.1299  0.8451  1.0171
 1622SOL    HW216326   2.818   1.641  16.894  1.9054 -2.3694 -3.6321
 1623SOL     OW16327   1.550   3.605  14.925 -0.3361 -0.1188  0.1648
 1623SOL    HW116328   1.509   3.523  14.952  2.1345 -0.3855  3.1584
 1623SOL    HW216329   1.612   3.612  14.998 -1.3976 -1.3537  1.1930
 1624SOL     OW16330   0.309   0.829  17.141 -0.1093  0.4628  0.1258
 1624SOL    HW116331   0.337   0.847  17.051 -1.3046 -1.2760 -0.5894
 1624SOL    HW216332   0.324   0.734  17.141 -0.3037  0.4279 -1.3655
 1625SOL     OW16333   4.101   4.618   7.592  0.3221 -0.4752  0.1144
 1625SOL    HW116334   4.070   4.607   7.681 -0.4015 -0.7867 -0.1809
 1625SOL    HW216335   4.017   4.637   7.551  0.9778  0.7414 -0.6957
 1626SOL     OW16336   0.537   3.014   3.850  0.7491  1.0595  0.2721
 1626SOL    HW116337   0.464   2.952   3.844  0.0288  2.0877 -1.3933
 1626SOL    HW216338   0.539   3.043   3.759  3.3501  0.8864  0.2808
 1627SOL     OW16339   1.021   0.683   8.159  0.5539  0.0319  0.3148
 1627SOL    HW116340   1.053   0.770   8.180 -2.2697  1.1309  0.0431
 1627SOL    HW216341   1.004   0.696   8.066 -1.2451  1.5692  0.8672
 1628SOL     OW16342   3.413   1.733   1.670  0.5066 -0.0591 -0.3902
 1628SOL    HW116343   3.393   1.722   1.577  2.0543  1.4827 -0.8951
 1628SOL    HW216344   3.339   1.688   1.711  0.3963  1.8901  1.5598
 1629SOL     OW16345   2.704   0.405   3.183 -0.4779 -0.4320 -0.2006
 1629SOL    HW116346   2.711   0.491   3.224  1.8189  0.0686 -1.6796
 1629SOL    HW216347   2.631   0.361   3.227  1.3896 -0.8222  2.4976
 1630SOL     OW16348   4.489   4.630  17.301 -0.2969  0.3841  0.2767
 1630SOL    HW116349   4.469   4.602  17.391  0.2599  0.6785  0.4937
 1630SOL    HW216350   4.474   4.547  17.255 -2.8539  0.7996  0.3928
 1631SOL     OW16351   4.700   3.168   6.247 -0.1979  0.1490 -0.6743
 1631SOL    HW116352   0.008   3.100   6.188 -0.4330 -1.7220  1.3440
 1631SOL    HW216353   0.048   3.230   6.244  0.8940 -1.1339 -0.6566
 1632SOL     OW16354   1.572   1.769   6.264  0.1400  0.1566 -0.6108
 1632SOL    HW116355   1.553   1.683   6.229  0.6391  0.8790 -2.6231
 1632SOL    HW216356   1.579   1.744   6.356 -0.4103  2.4659  0.0818
 1633SOL     OW16357   0.477   1.640   4.461  0.0081 -0.1993  0.0320
 1633SOL    HW116358   0.411   1.667   4.525 -1.1407 -1.5735 -0.5869
 1633SOL    HW216359   0.435   1.561   4.429 -1.5562  0.4587  0.4602
 1634SOL     OW16360   1.805   1.493   8.352  0.0476 -0.3456  0.7434
 1634SOL    HW116361   1.819   1.406   8.315  1.5726  0.4122 -0.4859
 1634SOL    HW216362   1.787   1.546   8.275  1.1484  1.2122  1.5619
 1635SOL     OW16363   3.587   1.152   7.260 -0.6880 -0.3809 -0.5102
 1635SOL    HW116364   3.494   1.172   7.249 -0.6068 -0.9315 -2.1092
 1635SOL    HW216365   3.600   1.155   7.355 -1.4252 -0.7214 -0.3969
 1636SOL     OW16366   4.363   4.236   4.254 -0.2893 -0.6634 -0.2532
 1636SOL    HW116367   4.283   4.288   4.247  0.7118  0.5258 -2.9171
 1636SOL    HW216368   4.321   4.152   4.232  1.0880 -1.4805  0.2371
 1637SOL     OW16369   4.679   3.010  16.737  0.4933  0.5054 -0.1272
 1637SOL    HW116370   0.002   3.044  16.812  2.2334  1.5253 -1.7445
 1637SOL    HW216371   4.630   2.932  16.764  0.9734  0.1639 -0.2538
 1638SOL     OW16372   0.775   1.441   7.628 -0.3291 -0.3952 -0.0756
 1638SOL    HW116373   0.814   1.501   7.565  1.5783  0.1194  1.5653
 1638SOL    HW216374   0.734   1.502   7.689 -1.9479 -2.3679  0.7849
 1639SOL     OW16375   3.009   4.122  15.323  0.4839 -0.8466  0.5752
 1639SOL    HW116376   3.013   4.053  15.257  0.6342 -0.5331  0.2547
 1639SOL    HW216377   3.050   4.078  15.397  0.6828 -0.0784  0.9198
 1640SOL     OW16378   1.446   2.090   6.534  0.1481 -0.0816 -0.2079
 1640SOL    HW116379   1.522   2.069   6.479 -0.5109 -0.0348 -1.1255
 1640SOL    HW216380   1.469   2.060   6.622  2.2460  2.0780  0.0000
 1641SOL     OW16381   0.833   4.235   6.731 -0.8051  0.1662  0.3743
 1641SOL    HW116382   0.910   4.195   6.690 -0.7014  0.2486  0.4892
 1641SOL    HW216383   0.825   4.320   6.689 -1.3644  0.5668  1.3014
 1642SOL     OW16384   2.400   1.940   9.067 -1.1938  0.3698 -0.3909
 1642SOL    HW116385   2.411   2.019   9.014 -0.7355  0.6016  0.0458
 1642SOL    HW216386   2.425   1.977   9.151 -0.1930  2.5637 -1.6574
 1643SOL     OW16387   3.133   4.059  12.089  0.0825  0.0001  0.1475
 1643SOL    HW116388   3.227   4.056  12.076 -0.2752 -3.3954 -1.5312
 1643SOL    HW216389   3.122   4.154  12.097 -0.9884 -0.2262  1.4940
 1644SOL     OW16390   2.795   1.356  14.575 -0.2805 -0.1946  0.0554
 1644SOL    HW116391   2.860   1.304  14.528  1.3774  2.4635 -0.5983
 1644SOL    HW216392   2.797   1.309  14.659  0.3647 -0.6354 -0.2040
 1645SOL     OW16393   4.067   0.617   3.160  0.0119 -0.2801 -0.1081
 1645SOL    HW116394   4.004   0.562   3.207 -2.6049  3.4517  0.7789
 1645SOL    HW216395   4.012   0.695   3.150  0.4910 -0.1272 -1.5091
 1646SOL     OW16396   1.785   4.713   4.832  0.0102  0.2065  0.3196
 1646SOL    HW116397   1.862   0.001   4.886  1.9583 -0.5753 -2.2145
 1646SOL    HW216398   1.824   0.017   4.749 -0.2051 -0.6697 -0.0985
 1647SOL     OW16399   0.537   2.331   8.579  0.4868 -0.1723  0.4752
 1647SOL    HW116400   0.455   2.288   8.602  0.2002  0.0143 -0.1974
 1647SOL    HW216401   0.497   2.395   8.520  0.7382  0.3015  0.8121
 1648SOL     OW16402   2.448   1.886   7.710 -0.5396 -0.2716  0.0330
 1648SOL    HW116403   2.429   1.969   7.753 -0.4003 -1.1755  1.8535
 1648SOL    HW216404   2.477   1.932   7.632  1.5059 -0.1582  0.8651
 1649SOL     OW16405   1.413   2.485   6.110  0.3138  0.3328  0.4169
 1649SOL    HW116406   1.478   2.421   6.141  0.6783  0.7709  0.5667
 1649SOL    HW216407   1.348   2.424   6.076  1.1702  0.1544 -0.9095
 1650SOL     OW16408   3.396   3.609   6.227  0.5987  0.1133 -0.0451
 1650SOL    HW116409   3.338   3.608   6.303  0.1572  0.7798 -0.3766
 1650SOL    HW216410   3.472   3.656   6.260  0.1405  0.4982  0.4616
 1651SOL     OW16411   2.913   0.856   7.751 -0.7456  0.2743 -0.3022
 1651SOL    HW116412   2.908   0.863   7.656 -1.8242  0.7176 -0.2135
 1651SOL    HW216413   2.877   0.768   7.758  0.9105 -0.4679 -1.0619
 1652SOL     OW16414   1.987   0.064   7.578  0.0368  0.4632  0.4478
 1652SOL    HW116415   1.970   4.701   7.610  0.2356  0.3410  0.2106
 1652SOL    HW216416   1.901   0.073   7.538 -1.2109 -0.1543  2.9574
 1653SOL     OW16417   2.897   0.922   8.472  0.1563  0.3675  0.1649
 1653SOL    HW116418   2.858   0.892   8.390  1.0401  0.2964 -0.2241
 1653SOL    HW216419   2.850   0.883   8.545  1.5722  0.2927  1.0317
 1654SOL     OW16420   2.098   1.578   5.711  0.1136  0.1085 -0.8668
 1654SOL    HW116421   2.172   1.541   5.759 -0.2932 -0.1761 -0.4721
 1654SOL    HW216422   2.156   1.623   5.649 -2.0632  2.2191 -1.3643
 1655SOL     OW16423   1.336   4.448   4.602 -0.1915  0.3025  0.2830
 1655SOL    HW116424   1.325   4.368   4.654  0.6077 -0.1939 -0.3291
 1655SOL    HW216425   1.247   4.469   4.574 -0.5756 -0.3390  1.0215
 1656SOL     OW16426   3.503   1.584   8.967  0.2857 -0.2928 -0.1695
 1656SOL    HW116427   3.526   1.496   8.998 -0.5364 -0.1390  0.8561
 1656SOL    HW216428   3.414   1.577   9.001  0.9983 -2.7736  1.2079
 1657SOL     OW16429   2.329   1.446  13.695 -0.2478  0.5642  0.3897
 1657SOL    HW116430   2.298   1.418  13.781  0.3656 -0.1573  0.3659
 1657SOL    HW216431   2.261   1.411  13.637  0.4903  0.1058 -0.1843
 1658SOL     OW16432   2.483   0.498   5.843  0.0491 -0.0793  0.4101
 1658SOL    HW116433   2.504   0.498   5.937  0.1636 -2.4244  0.3969
 1658SOL    HW216434   2.569   0.503   5.802 -0.6175  2.4354 -0.6516
 1659SOL     OW16435   1.500   2.065   3.128  0.1424  0.1277  0.0130
 1659SOL    HW116436   1.495   2.065   3.224 -0.0084  1.8491  0.0091
 1659SOL    HW216437   1.445   1.988   3.113  0.2377 -0.0227  0.4205
 1660SOL     OW16438   1.600   1.708  13.908  0.3462  0.4386 -0.4615
 1660SOL    HW116439   1.630   1.782  13.960 -1.6714  1.4286 -0.7215
 1660SOL    HW216440   1.529   1.680  13.966  3.6299 -2.3163  2.1922
 1661SOL     OW16441   3.808   4.117   7.735  0.2472 -0.0305 -0.4188
 1661SOL    HW116442   3.726   4.123   7.783  0.4365  0.9785 -0.2120
 1661SOL    HW216443   3.797   4.032   7.693  1.4163 -0.8638  0.9364
 1662SOL     OW16444   1.400   1.849   5.838 -0.0224 -0.2494  0.2649
 1662SOL    HW116445   1.478   1.796   5.822 -0.7180 -0.7750 -1.4728
 1662SOL    HW216446   1.343   1.779   5.868  1.8430 -1.2918  1.3588
 1663SOL     OW16447   1.604   3.652   6.515 -0.2548  0.4328  0.2347
 1663SOL    HW116448   1.666   3.687   6.579 -0.0784  0.5036  0.0243
 1663SOL    HW216449   1.666   3.627   6.446 -0.1989 -1.1099  0.8391
 1664SOL     OW16450   1.569   3.873   0.073  0.1564  0.0023 -0.8884
 1664SOL    HW116451   1.603   3.934   0.008 -0.6711 -0.8312 -2.1099
 1664SOL    HW216452   1.480   3.909   0.071  0.4533  0.8163  0.1909
 1665SOL     OW16453   2.295   4.374   4.579  0.1715  0.6670 -0.9998
 1665SOL    HW116454   2.370   4.411   4.625  1.9827 -2.1275 -1.6800
 1665SOL    HW216455   2.333   4.314   4.514 -1.9016 -0.3770 -1.2474
 1666SOL     OW16456   2.946   1.014  14.978 -0.0019  0.8946 -0.0627
 1666SOL    HW116457   2.914   0.939  15.027  1.1349 -1.8253 -3.5461
 1666SOL    HW216458   3.041   1.013  14.990 -0.2068  1.0655  1.6902
 1667SOL     OW16459   0.261   1.582   6.793  0.4503  0.5867 -0.2164
 1667SOL    HW116460   0.194   1.514   6.790 -0.7990  1.9312 -2.7660
 1667SOL    HW216461   0.295   1.588   6.704 -1.1140  1.9704 -0.7352
 1668SOL     OW16462   1.638   4.066   8.803 -0.0549 -0.0058 -0.5067
 1668SOL    HW116463   1.682   4.150   8.791  1.0809 -0.4734  0.3025
 1668SOL    HW216464   1.619   4.032   8.716 -3.6408  0.5315  0.0834
 1669SOL     OW16465   3.882   2.701  17.216 -0.3858  0.9044  0.3949
 1669SOL    HW116466   3.834   2.727  17.137  2.2215 -0.6726 -1.6863
 1669SOL    HW216467   3.807   2.656  17.254  0.3943  0.1876  1.0786
 1670SOL     OW16468   0.288   3.694   4.130  0.4732  0.0890 -1.0264
 1670SOL    HW116469   0.258   3.635   4.199  0.8614  1.3013  0.1681
 1670SOL    HW216470   0.382   3.690   4.147  0.3101  1.5924  0.2940
 1671SOL     OW16471   2.606   2.287   7.053 -0.1785  0.0231  0.7161
 1671SOL    HW116472   2.617   2.307   6.960  1.5926  0.1662  0.9636
 1671SOL    HW216473   2.607   2.372   7.097 -1.2631 -0.1549  1.0968
 1672SOL     OW16474   1.663   4.385  10.978  0.3965 -0.3582  0.2291
 1672SOL    HW116475   1.654   4.479  10.992  3.1808 -0.0443 -0.0813
 1672SOL    HW216476   1.747   4.371  11.024  0.1673  2.1084  1.4044
 1673SOL     OW16477   1.772   4.210   2.199 -0.1846  0.2514 -0.1967
 1673SOL    HW116478   1.691   4.231   2.152 -1.0590 -0.4080  1.0176
 1673SOL    HW216479   1.750   4.149   2.269  0.7360 -0.1368 -0.2373
 1674SOL     OW16480   1.960   2.481   7.698 -0.3665 -0.0768 -0.4146
 1674SOL    HW116481   1.883   2.425   7.696 -0.2716 -0.2267  0.0474
 1674SOL    HW216482   1.924   2.558   7.655 -1.6029  0.6659  1.9318
 1675SOL     OW16483   1.892   3.859   0.307  0.4087  0.7560  0.0211
 1675SOL    HW116484   1.915   3.831   0.218 -0.5743 -0.6090  0.1938
 1675SOL    HW216485   1.854   3.778   0.341 -0.3990  0.5928 -1.2457
 1676SOL     OW16486   3.225   2.602   6.079  0.1888  0.0730  0.7319
 1676SOL    HW116487   3.312   2.571   6.056 -0.2402 -2.2584  2.1395
 1676SOL    HW216488   3.188   2.635   5.998  0.7972 -1.2231 -0.0791
 1677SOL     OW16489   3.928   2.979  17.153 -0.1487  0.4824  0.3338
 1677SOL    HW116490   3.906   2.910  17.216 -2.2215  2.8458  2.1899
 1677SOL    HW216491   4.021   2.958  17.143  0.0809  1.3903  0.5739
 1678SOL     OW16492   0.805   2.336   3.591  0.6967  0.1236 -0.0212
 1678SOL    HW116493   0.791   2.418   3.638 -0.5116  0.4354 -0.9068
 1678SOL    HW216494   0.819   2.274   3.662  1.2237 -0.9670 -1.0805
 1679SOL     OW16495   3.162   3.245  12.291  0.4237 -0.2239  0.2117
 1679SOL    HW116496   3.102   3.302  12.339  1.8892  1.9345 -0.4856
 1679SOL    HW216497   3.240   3.286  12.326  0.4327 -0.6906  0.7334
 1680SOL     OW16498   1.336   3.716  11.617  0.2274  0.6860 -0.1380
 1680SOL    HW116499   1.403   3.700  11.683  0.9609 -2.5256 -1.6180
 1680SOL    HW216500   1.289   3.632  11.610 -0.0230  0.8443 -0.3597
 1681SOL     OW16501   1.362   1.399   4.349 -0.1546 -0.1215  0.1469
 1681SOL    HW116502   1.285   1.347   4.371 -0.4921 -0.1749 -1.1392
 1681SOL    HW216503   1.392   1.426   4.436  0.3115  1.3207 -0.4493
 1682SOL     OW16504   1.827   0.298   3.858  0.1155  0.1315 -0.3347
 1682SOL    HW116505   1.794   0.253   3.780  2.8058  0.7177 -1.8044
 1682SOL    HW216506   1.805   0.390   3.844 -1.2328 -0.4618 -2.0986
 1683SOL     OW16507   3.600   0.509   6.426 -0.3076  0.0125  0.0912
 1683SOL    HW116508   3.618   0.527   6.518  2.0980 -0.1493 -0.3568
 1683SOL    HW216509   3.505   0.521   6.425  0.0428  2.5638 -1.0009
 1684SOL     OW16510   1.463   4.075  14.409  0.2988  0.2720  0.3047
 1684SOL    HW116511   1.471   3.980  14.403  0.8509  0.3541 -0.3042
 1684SOL    HW216512   1.371   4.081  14.385  0.0972  0.0021  0.9958
 1685SOL     OW16513   4.308   1.183   2.973  0.1456  0.4880 -0.1552
 1685SOL    HW116514   4.354   1.118   2.921  0.7790  2.4866 -2.1210
 1685SOL    HW216515   4.378   1.247   2.987 -0.5799  1.1859  0.2617
 1686SOL     OW16516   4.077   4.614   5.465  0.1853 -0.5700 -0.1654
 1686SOL    HW116517   4.103   4.634   5.375  1.8490 -2.1213 -0.0245
 1686SOL    HW216518   4.006   4.674   5.489  1.7699  0.4891  1.9778
 1687SOL     OW16519   0.071   1.961   0.926  0.4391 -0.1059  0.1083
 1687SOL    HW116520   0.002   1.915   0.972  1.3832 -0.9512  0.6723
 1687SOL    HW216521   0.028   2.022   0.866 -1.0917 -2.8402 -1.5785
 1688SOL     OW16522   1.633   3.504  10.131 -0.6919  0.1540 -0.9086
 1688SOL    HW116523   1.564   3.439  10.125 -0.6067  0.0223 -0.4466
 1688SOL    HW216524   1.651   3.522  10.223  2.5989  1.2854 -1.7559
 1689SOL     OW16525   3.368   4.140  13.273 -0.5520 -0.5960 -0.5291
 1689SOL    HW116526   3.455   4.148  13.312 -1.5208  1.2889  1.2516
 1689SOL    HW216527   3.363   4.057  13.226  0.3862  0.1862 -2.0373
 1690SOL     OW16528   2.605   0.826   7.697  0.3495  0.0960 -0.5659
 1690SOL    HW116529   2.600   0.877   7.778 -1.5083 -2.1817  0.7677
 1690SOL    HW216530   2.601   0.737   7.732  2.0819 -0.0740 -0.7921
 1691SOL     OW16531   2.140   4.352   8.052  0.1618 -0.1716  0.4635
 1691SOL    HW116532   2.170   4.413   7.985  1.6103 -0.1198  1.1562
 1691SOL    HW216533   2.221   4.305   8.072  0.4005 -0.2157 -0.5997
 1692SOL     OW16534   2.930   3.330   3.423 -0.4734  0.7001 -0.1265
 1692SOL    HW116535   2.995   3.264   3.449 -1.6414 -0.7828 -0.9721
 1692SOL    HW216536   2.926   3.307   3.330 -4.0062  1.0052 -0.0424
 1693SOL     OW16537   2.539   1.425   2.632  0.1249 -0.6486 -0.2471
 1693SOL    HW116538   2.529   1.440   2.538 -1.5427 -0.1475  0.0172
 1693SOL    HW216539   2.584   1.340   2.626  0.8351 -0.3654  1.1347
 1694SOL     OW16540   1.544   4.222   2.909 -0.3135 -0.7649  0.3111
 1694SOL    HW116541   1.478   4.290   2.907  1.1214  0.6695  1.4976
 1694SOL    HW216542   1.613   4.276   2.869 -0.1155 -0.0542  1.5944
 1695SOL     OW16543   0.992   4.454   6.356  0.2783 -0.3001  0.6104
 1695SOL    HW116544   0.939   4.462   6.435  0.0278 -0.6866  0.4813
 1695SOL    HW216545   0.953   4.386   6.301  1.8780 -0.3875 -0.4353
 1696SOL     OW16546   3.410   1.774   5.267  0.1075 -0.0117  0.8210
 1696SOL    HW116547   3.413   1.866   5.291 -0.5751  0.9384 -2.6562
 1696SOL    HW216548   3.326   1.751   5.307  0.4013 -1.4435  0.5954
 1697SOL     OW16549   3.448   3.954   4.989 -0.5185  0.0485 -0.3554
 1697SOL    HW116550   3.534   3.937   4.951  2.1611  2.0057  4.8611
 1697SOL    HW216551   3.417   4.013   4.920 -0.0534  1.1267  0.3445
 1698SOL     OW16552   2.978   1.138   7.071 -0.8887 -0.5047  0.0854
 1698SOL    HW116553   2.999   1.106   7.159 -2.2240 -2.2883 -0.2388
 1698SOL    HW216554   2.917   1.067   7.049 -1.7454  1.0490 -2.5747
 1699SOL     OW16555   2.144   0.126  17.090  0.9639 -0.8331  1.0854
 1699SOL    HW116556   2.168   0.213  17.056 -0.6687 -0.7207  0.2046
 1699SOL    HW216557   2.222   0.082  17.056 -0.2295 -1.7057 -0.5071
 1700SOL     OW16558   3.013   2.320  14.307 -0.0478  0.5762  0.4550
 1700SOL    HW116559   2.923   2.340  14.283  0.9048  2.6206 -1.4273
 1700SOL    HW216560   3.049   2.408  14.292  3.6700 -0.6584  2.0265
 1701SOL     OW16561   3.109   1.697  11.092 -0.7240  0.5098  0.3258
 1701SOL    HW116562   3.178   1.636  11.117 -0.6959  0.2372 -0.4337
 1701SOL    HW216563   3.106   1.698  10.996  0.0576 -0.2037  0.2959
 1702SOL     OW16564   2.513   0.678   7.907 -0.3038 -0.0274  0.6459
 1702SOL    HW116565   2.535   0.765   7.940 -0.4835  1.0133 -1.9683
 1702SOL    HW216566   2.443   0.652   7.967 -0.8834 -1.8559 -0.8362
 1703SOL     OW16567   4.131   0.695   4.784 -0.0876 -0.2183  0.1673
 1703SOL    HW116568   4.049   0.646   4.773  0.5320 -1.7078  2.2291
 1703SOL    HW216569   4.200   0.647   4.739  1.1337  1.1652  0.5769
 1704SOL     OW16570   3.342   0.153   7.949  0.1771  0.2126  0.1859
 1704SOL    HW116571   3.322   0.075   8.001 -3.0011  0.1561 -1.1556
 1704SOL    HW216572   3.257   0.170   7.909  0.4909 -1.1787 -1.0438
 1705SOL     OW16573   1.661   3.298   5.991  0.5771 -0.0614 -0.4403
 1705SOL    HW116574   1.656   3.304   5.895 -0.4917 -2.4874 -0.5469
 1705SOL    HW216575   1.569   3.304   6.014  0.7839  1.9290 -0.2152
 1706SOL     OW16576   1.246   2.650   2.774  0.1232  0.1549  0.2191
 1706SOL    HW116577   1.267   2.614   2.860 -1.2939 -0.9580  0.1028
 1706SOL    HW216578   1.241   2.575   2.715 -0.3174 -0.8924  1.5854
 1707SOL     OW16579   0.237   1.027   5.226  0.0681  0.2512  0.4760
 1707SOL    HW116580   0.231   1.054   5.318 -0.3207 -2.3945  1.2486
 1707SOL    HW216581   0.148   1.052   5.202  0.5640  3.1578  1.6497
 1708SOL     OW16582   2.495   4.325   1.223  0.4930  0.0468  0.3922
 1708SOL    HW116583   2.568   4.373   1.264  0.0891 -0.4195  1.6673
 1708SOL    HW216584   2.436   4.396   1.198  0.2077 -0.9262 -1.6454
 1709SOL     OW16585   4.186   1.721  13.502 -0.3481 -0.1969 -0.0716
 1709SOL    HW116586   4.167   1.688  13.414 -1.4212  1.9457 -0.6382
 1709SOL    HW216587   4.107   1.726  13.556 -1.6459 -2.3979 -1.7582
 1710SOL     OW16588   4.552   2.794   8.479  1.0165  0.3358 -0.4902
 1710SOL    HW116589   4.561   2.760   8.391 -1.6052  1.1432 -1.0751
 1710SOL    HW216590   4.521   2.719   8.531 -1.4045  0.4639 -1.7525
 1711SOL     OW16591   3.609   2.182  12.553 -0.3856 -0.0846  0.1959
 1711SOL    HW116592   3.695   2.156  12.587 -0.4671  0.2880  0.6928
 1711SOL    HW216593   3.613   2.276  12.572 -0.5666 -0.0398  0.0077
 1712SOL     OW16594   3.161   0.348   3.780  0.3379 -0.2335 -0.3999
 1712SOL    HW116595   3.176   0.291   3.705  0.0617 -3.8493  2.2856
 1712SOL    HW216596   3.191   0.293   3.853 -0.1855 -0.4674 -0.3597
 1713SOL     OW16597   4.378   0.353   2.404  0.3137 -0.6985  0.5947
 1713SOL    HW116598   4.356   0.402   2.325  0.5236 -0.6923  0.5402
 1713SOL    HW216599   4.318   0.281   2.387 -1.0381 -0.2294  3.3199
 1714SOL     OW16600   0.080   2.509  11.723  0.2178 -0.4120  0.1480
 1714SOL    HW116601   0.051   2.418  11.721  0.7143 -0.5901  1.1222
 1714SOL    HW216602   4.720   2.553  11.727  0.7769  0.6807 -0.0162
 1715SOL     OW16603   2.985   2.543  15.963  0.4102 -0.1123  0.0787
 1715SOL    HW116604   2.905   2.553  15.912  0.2111  1.4808  0.7237
 1715SOL    HW216605   2.980   2.447  15.966 -1.1444 -0.0030  0.8958
 1716SOL     OW16606   4.721   0.806  16.580  0.3260 -0.1967  0.5956
 1716SOL    HW116607   4.642   0.758  16.557  0.1116  0.2477  0.4103
 1716SOL    HW216608   4.690   0.872  16.642  0.8799 -0.0193  0.6807
 1717SOL     OW16609   3.580   2.844   7.375 -0.2681 -0.1774  0.0530
 1717SOL    HW116610   3.541   2.760   7.398  1.2904 -0.6412  0.9777
 1717SOL    HW216611   3.651   2.818   7.316 -0.5585 -1.7381  0.3951
 1718SOL     OW16612   0.770   3.552   3.970  0.0782  0.0914  0.0789
 1718SOL    HW116613   0.723   3.472   3.946 -1.5609  0.4156  2.2067
 1718SOL    HW216614   0.824   3.558   3.891  2.5008 -0.2444  1.7114
 1719SOL     OW16615   3.952   0.687   0.108 -0.2171  0.1853 -0.3353
 1719SOL    HW116616   4.046   0.672   0.124 -0.3294  0.9625  1.0643
 1719SOL    HW216617   3.934   0.736   0.188 -1.0667 -1.6917  0.5996
 1720SOL     OW16618   4.368   2.991   4.177  0.3986  0.1485 -0.3544
 1720SOL    HW116619   4.274   2.998   4.195 -0.0120 -0.3691 -2.3617
 1720SOL    HW216620   4.371   2.916   4.118 -1.5562 -0.1697 -0.0649
 1721SOL     OW16621   1.349   3.825  10.145 -0.2645  0.3133 -0.0473
 1721SOL    HW116622   1.438   3.839  10.114  0.0154 -3.7642 -1.1603
 1721SOL    HW216623   1.366   3.798  10.236  2.2165  2.3092  0.0742
 1722SOL     OW16624   3.140   2.784  12.449  0.4776  0.0348  0.0102
 1722SOL    HW116625   3.153   2.862  12.504 -1.7479 -0.1507  0.7910
 1722SOL    HW216626   3.185   2.808  12.368 -1.5391 -1.7776 -1.6475
 1723SOL     OW16627   0.155   3.535   7.598 -0.0964  0.7607 -0.1225
 1723SOL    HW116628   0.149   3.477   7.522 -1.5850  0.5430  0.1693
 1723SOL    HW216629   0.203   3.606   7.556  2.5316  0.3137  2.0984
 1724SOL     OW16630   4.146   2.215   4.093  0.1830  0.2162 -0.3561
 1724SOL    HW116631   4.187   2.274   4.030  0.5019 -0.2447 -0.5858
 1724SOL    HW216632   4.171   2.251   4.178 -1.0649  0.0580  0.0721
 1725SOL     OW16633   0.131   3.655   2.672  0.4862  0.5256  0.7530
 1725SOL    HW116634   0.205   3.673   2.613  0.1832 -1.0008 -0.0913
 1725SOL    HW216635   0.150   3.564   2.692  0.3936  0.2643 -0.3359
 1726SOL     OW16636   4.303   3.244   7.449  0.0846 -0.4619 -1.2013
 1726SOL    HW116637   4.334   3.302   7.379 -0.9949 -0.9217 -2.0672
 1726SOL    HW216638   4.335   3.158   7.420  1.0899  0.0857 -1.7401
 1727SOL     OW16639   2.145   4.019  13.553 -0.2083 -0.3556  0.0772
 1727SOL    HW116640   2.197   4.087  13.595 -0.6451  0.6190 -0.9405
 1727SOL    HW216641   2.140   4.064  13.469  0.1325  0.1731  0.3409
 1728SOL     OW16642   2.346   3.915   7.436 -0.2580 -0.2948 -0.5347
 1728SOL    HW116643   2.393   3.999   7.432  0.1109 -0.3121  3.0788
 1728SOL    HW216644   2.421   3.855   7.446  1.4116  1.6195 -1.6153
 1729SOL     OW16645   3.236   3.290   5.160  0.4595  0.1076  0.5308
 1729SOL    HW116646   3.299   3.235   5.207 -0.4522 -1.2957  0.1150
 1729SOL    HW216647   3.259   3.376   5.195 -0.4212  0.1360  1.0357
 1730SOL     OW16648   2.337   2.203   3.098  0.3808  0.2860  0.0010
 1730SOL    HW116649   2.417   2.208   3.150  0.2282  1.3688  0.1359
 1730SOL    HW216650   2.360   2.132   3.037 -2.8864 -0.8467  0.0762
 1731SOL     OW16651   0.563   3.740   4.191 -0.2490  0.5593  0.5052
 1731SOL    HW116652   0.602   3.688   4.261 -1.3604  0.0080  0.7243
 1731SOL    HW216653   0.603   3.826   4.198  1.1692 -0.0032 -0.7664
 1732SOL     OW16654   4.102   4.396   8.231  0.0987 -0.1818  0.4525
 1732SOL    HW116655   4.182   4.382   8.181  0.3172 -0.7170  0.9617
 1732SOL    HW216656   4.131   4.463   8.293  2.0247  1.0099 -1.7173
 1733SOL     OW16657   2.528   1.557   3.692 -0.1221  0.4599 -0.6022
 1733SOL    HW116658   2.481   1.639   3.677  0.9619  1.5374  1.8422
 1733SOL    HW216659   2.510   1.536   3.784  3.1991 -1.6142 -0.4099
 1734SOL     OW16660   2.266   2.291  12.073  0.0930 -0.4689 -0.0734
 1734SOL    HW116661   2.315   2.217  12.037  2.5956  0.9965  0.3332
 1734SOL    HW216662   2.267   2.353  12.000  0.7956  0.2295  0.5319
 1735SOL     OW16663   0.160   2.015  13.912 -0.2777  0.4572  0.0195
 1735SOL    HW116664   0.116   1.952  13.969  0.9585 -0.9102 -0.5632
 1735SOL    HW216665   0.210   2.067  13.975  0.1998 -0.4957  0.4144
 1736SOL     OW16666   4.239   3.251   3.302  0.5607  0.1810 -0.4971
 1736SOL    HW116667   4.146   3.238   3.285  1.5209 -2.9126 -3.2631
 1736SOL    HW216668   4.278   3.237   3.216  0.0621  2.5414 -1.0950
 1737SOL     OW16669   4.642   1.014   5.183 -0.1960 -0.3363  0.2262
 1737SOL    HW116670   4.586   1.061   5.244 -0.2334  0.2585 -0.2707
 1737SOL    HW216671   4.654   0.934   5.235 -1.0374 -0.7172 -0.1760
 1738SOL     OW16672   4.064   2.121   6.665  0.0428 -0.2296  0.6859
 1738SOL    HW116673   4.007   2.196   6.646 -0.5663 -0.5858  1.1542
 1738SOL    HW216674   4.130   2.123   6.595  0.3107 -1.0876  0.9123
 1739SOL     OW16675   3.041   4.534   7.130  0.2108 -0.1303 -0.1813
 1739SOL    HW116676   3.040   4.440   7.109  1.2210 -0.1003 -0.3301
 1739SOL    HW216677   3.133   4.553   7.116 -0.7784  3.5897 -1.5178
 1740SOL     OW16678   4.026   2.627   1.407 -0.5894 -0.7906  0.2912
 1740SOL    HW116679   4.006   2.652   1.317 -0.1571 -1.0132  0.1321
 1740SOL    HW216680   3.961   2.561   1.430 -0.3832 -1.5867 -1.4577
 1741SOL     OW16681   0.424   1.021   3.363 -0.2217  0.2335  0.1510
 1741SOL    HW116682   0.488   1.049   3.298 -0.9094  0.9878 -0.1945
 1741SOL    HW216683   0.343   1.064   3.335 -0.5605  0.8925  2.1053
 1742SOL     OW16684   2.563   4.044   7.015  0.0877  0.1102 -0.1723
 1742SOL    HW116685   2.531   4.062   6.927 -1.2913 -0.1648  0.2664
 1742SOL    HW216686   2.484   4.047   7.069  1.2959  0.2713  1.6117
 1743SOL     OW16687   2.204   2.462  15.838  0.3055 -0.5796  0.0547
 1743SOL    HW116688   2.123   2.500  15.872 -0.7709 -1.0001 -2.0715
 1743SOL    HW216689   2.187   2.371  15.862 -0.0974 -0.8401 -1.2278
 1744SOL     OW16690   2.285   4.617   6.480 -0.1604  0.5823  0.4981
 1744SOL    HW116691   2.194   4.631   6.455  0.3903  0.7386 -1.4710
 1744SOL    HW216692   2.268   4.555   6.550  0.4986  1.1900  1.1980
 1745SOL     OW16693   0.493   3.097   5.697 -0.2009 -0.1180  0.3923
 1745SOL    HW116694   0.405   3.063   5.680 -0.4430 -1.1251  3.5987
 1745SOL    HW216695   0.534   3.054   5.622 -0.1713  0.5974  0.0034
 1746SOL     OW16696   0.413   0.021   5.891  0.4799  0.1616  0.2242
 1746SOL    HW116697   0.329   4.701   5.895 -0.8288  2.5032 -0.6701
 1746SOL    HW216698   0.380   0.101   5.932  0.6170 -0.5266  1.6616
 1747SOL     OW16699   4.068   0.089   6.476 -0.5543 -0.3676  0.2436
 1747SOL    HW116700   3.977   0.115   6.464 -0.0334  0.7413 -1.2288
 1747SOL    HW216701   4.120   0.167   6.493  0.8690 -1.3137  0.3062
 1748SOL     OW16702   1.409   3.772  10.391 -0.0427  0.4150 -0.5201
 1748SOL    HW116703   1.438   3.697  10.444  0.3727  1.5156  0.8171
 1748SOL    HW216704   1.442   3.840  10.450 -0.2010 -0.6615  0.8307
 1749SOL     OW16705   2.273   2.011   4.051 -0.1124 -0.2668  0.2495
 1749SOL    HW116706   2.329   2.068   3.999  1.2475 -0.1849  1.7952
 1749SOL    HW216707   2.210   2.071   4.091  1.7936  1.4524  0.6669
 1750SOL     OW16708   1.831   0.014   1.939  0.1304 -0.1989 -0.1634
 1750SOL    HW116709   1.823   4.710   1.848 -1.5554 -0.2978  0.0157
 1750SOL    HW216710   1.739   0.020   1.964  0.9892 -1.3131  3.1405
 1751SOL     OW16711   1.078   3.378   7.432  0.4083 -0.2699 -0.3257
 1751SOL    HW116712   1.154   3.402   7.484  0.2606 -1.4386  0.4351
 1751SOL    HW216713   1.078   3.282   7.430  0.1470 -0.2601 -0.8737
 1752SOL     OW16714   1.969   3.955   4.267  0.2510 -0.0353  0.0683
 1752SOL    HW116715   1.879   3.979   4.249  1.4761  1.5985 -3.8725
 1752SOL    HW216716   1.984   3.903   4.187 -1.7172 -0.6447  0.0871
 1753SOL     OW16717   0.718   4.473   6.909 -0.2054  0.1599  0.1477
 1753SOL    HW116718   0.637   4.469   6.859 -0.0154 -1.0395 -0.0780
 1753SOL    HW216719   0.705   4.556   6.954  1.4021 -1.3553  3.4671
 1754SOL     OW16720   3.328   3.717   4.381 -0.3474  0.2195  0.2084
 1754SOL    HW116721   3.342   3.787   4.317 -0.7658 -0.3511 -0.5094
 1754SOL    HW216722   3.349   3.757   4.466  0.8069 -2.2534  1.1004
 1755SOL     OW16723   2.934   3.472   8.335  0.2988 -0.3947  0.5588
 1755SOL    HW116724   2.917   3.564   8.353 -0.4517 -0.4410  0.0591
 1755SOL    HW216725   2.844   3.453   8.309 -0.2754 -1.9229  3.5507
 1756SOL     OW16726   3.589   4.635   2.009  0.3834 -0.2233 -0.8504
 1756SOL    HW116727   3.653   4.570   1.982  0.2911 -0.3191 -0.8359
 1756SOL    HW216728   3.609   4.642   2.103 -2.7567  0.4614 -0.2196
 1757SOL     OW16729   0.540   3.622   1.512  0.9748 -0.5462  0.0534
 1757SOL    HW116730   0.592   3.588   1.439 -0.8840 -1.3253 -0.8992
 1757SOL    HW216731   0.603   3.684   1.549 -1.7642 -0.2325  4.2182
 1758SOL     OW16732   1.183   0.901   7.219 -0.1898 -0.2353 -0.4235
 1758SOL    HW116733   1.092   0.893   7.247  0.1400  0.1724  0.7665
 1758SOL    HW216734   1.236   0.846   7.278 -0.0134  2.5737  2.0462
 1759SOL     OW16735   3.459   2.630   4.434  0.1887 -0.8130  0.0499
 1759SOL    HW116736   3.529   2.690   4.410 -0.8183 -0.3325 -1.7302
 1759SOL    HW216737   3.389   2.677   4.388  0.4079  1.1985  1.8017
 1760SOL     OW16738   0.806   2.041   1.740 -0.4285  0.3089 -0.1455
 1760SOL    HW116739   0.816   1.949   1.762 -1.3766  0.3614  0.5131
 1760SOL    HW216740   0.754   2.036   1.660 -1.4968  0.3198  0.5627
 1761SOL     OW16741   1.437   0.096   6.102  0.4288  0.0320 -0.1140
 1761SOL    HW116742   1.459   0.036   6.031 -1.3476  0.8622 -1.3802
 1761SOL    HW216743   1.366   0.045   6.142  0.6332  0.7108  1.1043
 1762SOL     OW16744   4.255   0.471   1.955 -0.8548  0.0224  0.0405
 1762SOL    HW116745   4.322   0.416   1.914  0.9644  1.8152  0.5786
 1762SOL    HW216746   4.184   0.459   1.893 -0.0246 -0.4269 -0.8179
 1763SOL     OW16747   4.596   0.729  15.765  0.7290  0.2342 -0.0535
 1763SOL    HW116748   4.604   0.815  15.724 -1.2488  0.0491 -0.8279
 1763SOL    HW216749   4.672   0.681  15.730  0.8871  0.9604 -0.6932
 1764SOL     OW16750   3.633   3.650   9.394  0.4314  0.2142 -0.0025
 1764SOL    HW116751   3.609   3.598   9.470  2.0913 -1.3352 -0.5309
 1764SOL    HW216752   3.721   3.612   9.389  0.0229 -0.4778 -1.9926
 1765SOL     OW16753   1.381   1.227  17.543 -0.0224  0.7078  0.1724
 1765SOL    HW116754   1.459   1.273  17.573 -0.7167  0.9085  1.6546
 1765SOL    HW216755   1.417   1.139  17.554  0.5837  0.8808 -0.4030
 1766SOL     OW16756   1.067   0.435   8.237 -0.1413  0.4481  0.3655
 1766SOL    HW116757   1.089   0.483   8.317  0.2098  0.6155  0.1668
 1766SOL    HW216758   1.029   0.504   8.183 -0.9155  0.0805  0.4355
 1767SOL     OW16759   4.134   3.424   3.940 -0.4615 -0.1307  0.0316
 1767SOL    HW116760   4.091   3.339   3.938 -1.1248  0.2125 -0.1010
 1767SOL    HW216761   4.121   3.478   3.862 -0.6223 -0.8080 -0.4084
 1768SOL     OW16762   0.856   2.459   8.818 -0.0298 -0.1073 -0.3730
 1768SOL    HW116763   0.801   2.452   8.897 -0.8910  0.9817 -0.8630
 1768SOL    HW216764   0.884   2.551   8.819  1.0605 -0.4340 -1.4854
 1769SOL     OW16765   2.268   3.055   3.903 -0.3967 -0.2035 -0.4249
 1769SOL    HW116766   2.256   3.140   3.860 -2.3084  1.0805  2.6187
 1769SOL    HW216767   2.277   2.995   3.829  0.2248 -1.8396  0.9696
 1770SOL     OW16768   3.019   4.283   8.274 -0.1535  1.0194  0.2728
 1770SOL    HW116769   2.972   4.249   8.199 -0.4926  1.8087  0.1250
 1770SOL    HW216770   3.071   4.207   8.300 -2.8869 -0.7515  0.4661
 1771SOL     OW16771   3.835   3.163   7.530  0.2552  0.0155 -0.2794
 1771SOL    HW116772   3.879   3.218   7.595 -0.5771  0.1342  0.1822
 1771SOL    HW216773   3.914   3.124   7.492 -1.6624 -1.8128 -2.3502
 1772SOL     OW16774   2.835   4.707   1.546 -0.6822  0.5569 -0.3574
 1772SOL    HW116775   2.761   4.676   1.598 -0.0653  2.3862  1.5519
 1772SOL    HW216776   2.906   4.715   1.609 -0.9985  1.6125 -0.1421
 1773SOL     OW16777   1.699   4.457  13.786  0.1006 -0.0400  0.3512
 1773SOL    HW116778   1.720   4.491  13.698  3.2073  1.2627  1.5575
 1773SOL    HW216779   1.759   4.511  13.838 -0.5085  1.0783 -0.0851
 1774SOL     OW16780   3.210   3.567   9.500 -0.5641 -0.2065  0.5726
 1774SOL    HW116781   3.128   3.615   9.492 -0.5288 -0.0654  1.0286
 1774SOL    HW216782   3.190   3.502   9.433  0.7810 -0.5044  0.4600
 1775SOL     OW16783   1.350   3.662  11.972  0.4407 -0.7405 -0.0314
 1775SOL    HW116784   1.435   3.661  11.928 -1.0408 -1.5760 -2.9007
 1775SOL    HW216785   1.365   3.599  12.043  3.2261  1.4072  1.2953
 1776SOL     OW16786   2.442   2.735   9.334 -0.0393 -0.3899 -0.0660
 1776SOL    HW116787   2.512   2.765   9.276  0.3872 -0.5521  0.3677
 1776SOL    HW216788   2.374   2.716   9.269  0.7563 -3.2934 -0.0352
 1777SOL     OW16789   2.810   0.520   7.247 -0.1855 -0.3707 -0.2717
 1777SOL    HW116790   2.859   0.566   7.316 -0.8583  0.5558 -0.4115
 1777SOL    HW216791   2.739   0.581   7.226  1.7436  1.6596 -0.9348
 1778SOL     OW16792   1.288   4.233   6.049 -0.2322  0.1792 -0.5217
 1778SOL    HW116793   1.362   4.223   5.989  0.0872  2.6585 -0.5589
 1778SOL    HW216794   1.284   4.328   6.061 -3.6930 -0.1033  0.6018
 1779SOL     OW16795   3.621   4.224   8.127  0.0433 -0.8624 -0.3470
 1779SOL    HW116796   3.642   4.300   8.182 -0.4700 -1.2748  0.4208
 1779SOL    HW216797   3.705   4.204   8.086  1.8908  1.0381  2.5338
 1780SOL     OW16798   2.998   3.792   0.092  0.3292 -0.0794  0.0461
 1780SOL    HW116799   2.980   3.698   0.082 -0.3085  0.1374 -0.8764
 1780SOL    HW216800   3.053   3.815   0.017 -0.1576  2.4517  0.4564
 1781SOL     OW16801   1.858   3.983  14.297 -0.4965  0.2810  0.1997
 1781SOL    HW116802   1.917   3.954  14.366 -1.6597  1.3740  1.6465
 1781SOL    HW216803   1.806   3.905  14.278 -1.2559  1.4361 -2.5032
 1782SOL     OW16804   3.450   2.858   6.170  0.1024 -0.0524  0.0468
 1782SOL    HW116805   3.369   2.807   6.162 -0.7859  1.7802 -2.6338
 1782SOL    HW216806   3.490   2.858   6.083 -1.4407  0.0496 -0.6659
 1783SOL     OW16807   3.524   4.369   4.000 -0.0946  0.0211  0.2028
 1783SOL    HW116808   3.618   4.376   4.013 -0.2284  1.8469  0.2934
 1783SOL    HW216809   3.518   4.388   3.906  0.9599  0.6205  0.2538
 1784SOL     OW16810   1.046   1.249   5.543  0.0949 -0.5134 -0.1679
 1784SOL    HW116811   0.976   1.207   5.593 -0.5312  0.8165  0.0647
 1784SOL    HW216812   0.991   1.287   5.474  1.7536  0.2843 -1.0339
 1785SOL     OW16813   0.342   4.150   4.468 -0.5779 -0.5602 -0.4592
 1785SOL    HW116814   0.421   4.167   4.520 -0.9463  0.5904 -0.2639
 1785SOL    HW216815   0.278   4.133   4.537 -0.0459  1.3683  0.5147
 1786SOL     OW16816   1.347   4.198  13.812 -0.4674  0.2112 -0.1411
 1786SOL    HW116817   1.409   4.205  13.884  0.9218  0.0386 -1.3094
 1786SOL    HW216818   1.320   4.106  13.816  1.3068 -0.2673  1.2670
 1787SOL     OW16819   0.045   3.219   1.289  0.2111 -0.7074  0.3497
 1787SOL    HW116820   0.016   3.302   1.251  1.4795 -1.0013 -1.2594
 1787SOL    HW216821   4.693   3.171   1.317  0.2012  0.5047  2.3834
 1788SOL     OW16822   1.409   2.419   2.316 -0.3610  0.5880 -0.1125
 1788SOL    HW116823   1.475   2.440   2.250 -1.6985  0.2914 -1.5500
 1788SOL    HW216824   1.438   2.335   2.351  0.6695  1.6947  1.6710
 1789SOL     OW16825   0.474   2.554   5.907 -0.4723  0.1588  0.1848
 1789SOL    HW116826   0.545   2.616   5.889 -0.0694 -0.4668 -0.3696
 1789SOL    HW216827   0.486   2.500   5.830  0.2292 -0.2920  0.6143
 1790SOL     OW16828   0.651   0.522  13.283  0.2477  0.2426  0.5095
 1790SOL    HW116829   0.639   0.438  13.327  1.5737 -0.7580 -1.0528
 1790SOL    HW216830   0.568   0.529  13.235 -0.2089  0.9818  1.3897
 1791SOL     OW16831   4.530   2.917   4.395  1.0872  0.2871 -0.0730
 1791SOL    HW116832   4.468   2.955   4.332  0.5618 -1.2481 -0.4770
 1791SOL    HW216833   4.512   2.825   4.375 -2.9210  0.6982  1.7277
 1792SOL     OW16834   0.491   2.477   3.640  0.0873 -0.0733  0.1437
 1792SOL    HW116835   0.525   2.566   3.629  1.6415 -0.6709  0.1595
 1792SOL    HW216836   0.398   2.501   3.633  0.0437 -0.7749 -1.6429
 1793SOL     OW16837   3.190   3.000   6.310  0.2973  0.4657  0.0407
 1793SOL    HW116838   3.238   3.078   6.282  2.7376 -0.9006  0.4386
 1793SOL    HW216839   3.115   3.011   6.251  0.6622 -3.2212 -1.1096
 1794SOL     OW16840   3.631   0.521  10.431 -0.6889  0.1764  0.1732
 1794SOL    HW116841   3.559   0.461  10.414 -0.6761  0.7167 -1.8486
 1794SOL    HW216842   3.616   0.570  10.350  2.4906 -0.6158 -0.9107
 1795SOL     OW16843   4.562   4.525   4.853  0.7983  0.2334  0.6051
 1795SOL    HW116844   4.488   4.495   4.800  0.3932  0.0687  1.2763
 1795SOL    HW216845   4.552   4.470   4.930  0.8042  1.4835  1.5058
 1796SOL     OW16846   1.196   1.284  11.239  0.3120 -0.3997 -0.2878
 1796SOL    HW116847   1.237   1.247  11.161 -2.1383 -3.4211 -0.1502
 1796SOL    HW216848   1.225   1.221  11.304 -0.0961 -0.5520 -0.2551
 1797SOL     OW16849   0.408   3.205  15.017 -0.2922  0.3535  0.1141
 1797SOL    HW116850   0.498   3.183  14.992 -0.5440  2.1261 -2.3550
 1797SOL    HW216851   0.391   3.138  15.083  1.7250  0.5418  0.8509
 1798SOL     OW16852   1.969   0.504  11.474 -0.3362 -0.0138 -0.4423
 1798SOL    HW116853   1.956   0.444  11.547 -1.1305  1.7602  0.8515
 1798SOL    HW216854   1.887   0.476  11.434 -0.6618  0.6516 -0.2330
 1799SOL     OW16855   3.444   4.173   2.857 -0.2084 -0.4008 -0.1641
 1799SOL    HW116856   3.436   4.126   2.774  1.0759 -0.2165 -0.3857
 1799SOL    HW216857   3.363   4.223   2.867  0.2500  0.7378 -2.2383
 1800SOL     OW16858   4.302   4.409   6.255 -0.3446 -0.0559 -0.1420
 1800SOL    HW116859   4.281   4.489   6.302 -0.8705  1.1067 -2.3567
 1800SOL    HW216860   4.228   4.399   6.195 -0.6243 -2.8184  0.6491
 1801SOL     OW16861   3.521   4.354   1.011  0.0269 -0.0178  0.0970
 1801SOL    HW116862   3.556   4.300   0.940 -0.7833  0.6334 -0.8036
 1801SOL    HW216863   3.541   4.443   0.985 -1.9465  0.8780  1.6291
 1802SOL     OW16864   3.259   4.441   1.181 -0.3500 -0.2717  0.0583
 1802SOL    HW116865   3.298   4.459   1.267 -1.6847  1.7357  0.2391
 1802SOL    HW216866   3.335   4.456   1.125  0.3452  0.8805  1.3203
 1803SOL     OW16867   2.785   3.411   7.240  0.3993  0.1238 -0.3585
 1803SOL    HW116868   2.750   3.346   7.179  0.3989  0.6419 -0.9095
 1803SOL    HW216869   2.865   3.446   7.202 -0.0617 -0.3611 -1.7838
 1804SOL     OW16870   1.704   2.595   4.961 -0.0569 -0.4906  0.7960
 1804SOL    HW116871   1.661   2.680   4.971 -0.2847 -0.7044  1.6973
 1804SOL    HW216872   1.718   2.608   4.868  1.9883  0.2609  1.2052
 1805SOL     OW16873   4.245   1.371   5.552  0.4234 -0.2838  0.8937
 1805SOL    HW116874   4.154   1.370   5.582 -0.0741  0.6998 -0.6157
 1805SOL    HW216875   4.278   1.460   5.566  2.6293 -1.3034  2.1274
 1806SOL     OW16876   1.448   0.921   7.441  0.2502 -0.0811 -0.4424
 1806SOL    HW116877   1.531   0.968   7.439  1.5220 -2.2198  1.0690
 1806SOL    HW216878   1.481   0.839   7.479 -0.7760  1.4791  3.7876
 1807SOL     OW16879   1.672   0.522   7.524  0.3059 -0.4100  0.1621
 1807SOL    HW116880   1.590   0.540   7.570 -0.1850  0.5876 -1.0749
 1807SOL    HW216881   1.725   0.485   7.595  0.2025 -1.4833 -0.3184
 1808SOL     OW16882   4.455   3.086   2.719  0.4970  0.1472 -0.3639
 1808SOL    HW116883   4.390   3.066   2.652 -0.5964 -0.5104  0.9036
 1808SOL    HW216884   4.412   3.131   2.791  0.4441  3.4760 -2.4668
 1809SOL     OW16885   4.041   3.661  15.997  0.2136 -0.2322  0.0838
 1809SOL    HW116886   4.033   3.645  15.902 -2.0472  1.4550 -0.0171
 1809SOL    HW216887   3.975   3.602  16.033 -1.9177  1.1248 -1.5477
 1810SOL     OW16888   2.944   4.252   7.109  0.0611 -0.3175  0.0933
 1810SOL    HW116889   3.025   4.206   7.086  0.3537  1.2504 -2.0175
 1810SOL    HW216890   2.896   4.182   7.151 -1.4515  1.0375  0.6241
 1811SOL     OW16891   4.319   1.239  11.237 -0.4538 -0.1002  0.1289
 1811SOL    HW116892   4.247   1.272  11.184 -0.6288  0.4831  0.7334
 1811SOL    HW216893   4.324   1.303  11.307  0.2962  1.4219 -1.3037
 1812SOL     OW16894   3.026   0.952   6.653  0.1566  0.6188 -0.0331
 1812SOL    HW116895   3.101   0.896   6.675 -0.0865 -0.1805 -1.2505
 1812SOL    HW216896   3.025   0.925   6.561  0.4556 -3.6351  1.1734
 1813SOL     OW16897   4.200   1.456  15.263  0.0703 -0.0696  0.1327
 1813SOL    HW116898   4.195   1.430  15.171  1.9594 -0.0417  0.0218
 1813SOL    HW216899   4.147   1.535  15.252  0.4576  0.1735  0.0111
 1814SOL     OW16900   1.996   2.054  14.025 -0.1561 -0.3154 -0.2105
 1814SOL    HW116901   2.063   2.093  14.080  1.1065 -0.0524 -1.9196
 1814SOL    HW216902   1.938   2.130  14.017 -1.2246 -1.3129 -2.0053
 1815SOL     OW16903   3.807   4.020  16.423  0.4437 -0.5771 -0.3921
 1815SOL    HW116904   3.889   4.000  16.378  1.1278  1.1576  0.0793
 1815SOL    HW216905   3.798   3.942  16.478  2.5146 -0.6595 -0.1512
 1816SOL     OW16906   0.133   4.602   4.820 -0.1307  0.1169  0.5975
 1816SOL    HW116907   0.117   4.675   4.880 -1.1577  1.8675 -1.8101
 1816SOL    HW216908   0.045   4.565   4.810  0.1877 -0.4802 -0.0062
 1817SOL     OW16909   0.523   3.155   4.388  0.4617 -0.1860  0.1631
 1817SOL    HW116910   0.471   3.140   4.309  0.3243 -0.1285  0.2427
 1817SOL    HW216911   0.614   3.134   4.366  0.1732 -0.9109 -0.3292
 1818SOL     OW16912   3.798   1.869   1.891  0.5709  0.2961 -0.4850
 1818SOL    HW116913   3.842   1.907   1.967  0.6541  0.8337 -0.8057
 1818SOL    HW216914   3.716   1.841   1.932  1.9944  3.4644  4.5001
 1819SOL     OW16915   2.672   3.636   4.535  0.3497  0.7654 -0.1096
 1819SOL    HW116916   2.671   3.731   4.546 -0.0265  0.9192 -1.4841
 1819SOL    HW216917   2.579   3.629   4.517  0.4610 -0.1429 -0.3387
 1820SOL     OW16918   2.141   3.608   6.766 -0.3675 -0.4764  0.1401
 1820SOL    HW116919   2.119   3.521   6.798  1.4426  0.2641  3.3899
 1820SOL    HW216920   2.075   3.664   6.806  0.1053 -0.9034  1.4909
 1821SOL     OW16921   1.121   0.438  14.224 -0.1398  0.3738  0.0198
 1821SOL    HW116922   1.047   0.427  14.285 -0.6203 -1.4808 -0.9054
 1821SOL    HW216923   1.114   0.349  14.190 -0.1554  0.4027 -0.0519
 1822SOL     OW16924   3.824   1.728   8.540 -0.2860  0.1028 -0.2231
 1822SOL    HW116925   3.826   1.649   8.486 -1.1564  0.3669 -0.6504
 1822SOL    HW216926   3.732   1.756   8.539 -0.1171  0.6674  0.3111
 1823SOL     OW16927   2.414   0.279   3.716 -0.1000 -0.9053  0.5182
 1823SOL    HW116928   2.453   0.264   3.630  1.4713  1.2160  0.8377
 1823SOL    HW216929   2.444   0.367   3.742  0.5314 -0.8731 -0.3143
 1824SOL     OW16930   4.241   0.452   9.372  0.2230 -0.0973 -0.4268
 1824SOL    HW116931   4.292   0.371   9.361  0.5544  0.2626 -1.5273
 1824SOL    HW216932   4.313   0.515   9.375 -1.1680  1.5030 -0.6815
 1825SOL     OW16933   0.462   3.442   7.408 -0.0274 -0.1485 -0.3384
 1825SOL    HW116934   0.385   3.497   7.395 -0.4321 -0.5826  0.2685
 1825SOL    HW216935   0.456   3.409   7.498 -2.0564  1.6633  0.1934
 1826SOL     OW16936   3.658   2.452   8.211 -0.0330  0.0938 -0.1584
 1826SOL    HW116937   3.663   2.358   8.230 -1.6949  0.0253 -0.0661
 1826SOL    HW216938   3.565   2.471   8.223  0.0790  0.9148 -0.6207
 1827SOL     OW16939   2.586   2.781  15.337 -0.1570 -0.0565 -0.0033
 1827SOL    HW116940   2.566   2.687  15.335  0.1599 -0.1645  2.1128
 1827SOL    HW216941   2.536   2.803  15.415  0.4267  2.7683 -0.4347
 1828SOL     OW16942   3.243   3.133   6.580 -0.3092 -0.4911 -0.0502
 1828SOL    HW116943   3.269   3.212   6.532  0.0251 -1.0403 -0.7726
 1828SOL    HW216944   3.211   3.075   6.511  0.5666 -0.1335 -0.7562
 1829SOL     OW16945   0.477   0.596  14.026 -0.0823  0.3363 -0.2326
 1829SOL    HW116946   0.482   0.674  14.080 -1.5645  0.1762  0.1247
 1829SOL    HW216947   0.389   0.569  14.051  0.8364 -1.7084  0.8242
 1830SOL     OW16948   4.702   3.945   5.628  0.5768 -0.3321 -0.4835
 1830SOL    HW116949   4.651   3.889   5.688 -0.8314 -0.1215 -1.4871
 1830SOL    HW216950   4.703   3.894   5.547  3.7144  0.9642 -1.2750
 1831SOL     OW16951   4.585   2.764   1.424  0.1511  0.0963  0.1780
 1831SOL    HW116952   4.672   2.794   1.451  0.3535  0.4308 -0.8415
 1831SOL    HW216953   4.574   2.814   1.343 -1.0578 -2.3402 -1.1635
 1832SOL     OW16954   1.745   4.429   5.354  0.6690  0.4272  0.0060
 1832SOL    HW116955   1.782   4.512   5.324 -1.3571  1.6823  0.9434
 1832SOL    HW216956   1.822   4.383   5.387 -0.4348 -0.8284  0.8412
 1833SOL     OW16957   1.465   0.173   7.134  0.0992  0.2000 -0.1043
 1833SOL    HW116958   1.402   0.244   7.145 -2.1668 -1.9673  0.9323
 1833SOL    HW216959   1.526   0.203   7.201  1.7230 -1.5809 -0.7699
 1834SOL     OW16960   0.282   4.121   6.178  0.2622  0.0554  0.2253
 1834SOL    HW116961   0.242   4.186   6.119 -1.9677 -1.1901  0.3599
 1834SOL    HW216962   0.226   4.113   6.255 -0.3632  1.2794 -0.0924
 1835SOL     OW16963   2.130   2.613  12.205  0.3098 -0.6074  0.0195
 1835SOL    HW116964   2.123   2.558  12.127  1.3752 -0.5274 -0.1416
 1835SOL    HW216965   2.058   2.675  12.207  0.3198 -0.5625 -1.0197
 1836SOL     OW16966   4.008   2.270   1.825  0.2475  0.7291 -0.4663
 1836SOL    HW116967   3.955   2.343   1.795 -1.8582 -0.6290 -0.0845
 1836SOL    HW216968   3.950   2.234   1.892  1.9527 -1.2105 -0.0200
 1837SOL     OW16969   1.964   0.281  15.557 -0.0398 -0.3561 -0.3700
 1837SOL    HW116970   1.914   0.315  15.631  1.1760  3.2288 -1.1862
 1837SOL    HW216971   1.938   0.190  15.569  0.9996 -0.7105 -0.8656
 1838SOL     OW16972   1.831   4.316   7.756 -0.0426 -0.1457 -0.2051
 1838SOL    HW116973   1.865   4.229   7.774 -0.2549  0.1852  1.7498
 1838SOL    HW216974   1.784   4.328   7.838 -1.3323 -1.8931 -0.6747
 1839SOL     OW16975   3.166   4.302   4.185 -0.2017  0.1745  0.1636
 1839SOL    HW116976   3.197   4.366   4.121  0.1385  0.3383  0.4911
 1839SOL    HW216977   3.125   4.370   4.239 -0.0786  0.2856  0.1172
 1840SOL     OW16978   1.819   2.001  16.011 -1.0612 -0.0637  0.0509
 1840SOL    HW116979   1.744   1.968  16.060 -0.3048 -0.4104  0.9813
 1840SOL    HW216980   1.777   2.004  15.925  0.4007  0.0418 -0.6524
 1841SOL     OW16981   1.115   2.446   5.668  0.6367  0.2670 -0.3004
 1841SOL    HW116982   1.038   2.474   5.618  1.4644 -1.6622 -2.6603
 1841SOL    HW216983   1.174   2.428   5.595  0.0776  0.7207 -0.8634
 1842SOL     OW16984   1.319   0.726   5.626  0.6709 -0.1096 -0.4859
 1842SOL    HW116985   1.226   0.747   5.615  0.5379 -0.6521 -0.4027
 1842SOL    HW216986   1.343   0.685   5.542  2.7084  1.4415 -0.6689
 1843SOL     OW16987   0.497   1.805   7.738  0.3534  0.1171  0.3417
 1843SOL    HW116988   0.525   1.894   7.719 -0.6286  0.3585  0.0266
 1843SOL    HW216989   0.485   1.769   7.650 -2.0098  1.8270 -0.0110
 1844SOL     OW16990   1.451   2.278   5.098  0.1279 -0.5506  0.2557
 1844SOL    HW116991   1.485   2.319   5.177  1.4887  0.3710 -0.8121
 1844SOL    HW216992   1.357   2.289   5.117  0.3965  2.0209  0.0526
 1845SOL     OW16993   1.501   2.002   5.373  0.6949  0.4347 -0.1874
 1845SOL    HW116994   1.423   2.013   5.319  0.6856 -0.2269 -0.3100
 1845SOL    HW216995   1.473   2.015   5.464 -1.8805  0.8836 -1.0576
 1846SOL     OW16996   4.715   0.115   4.963  0.0620 -0.3945 -0.4747
 1846SOL    HW116997   0.030   0.199   4.942 -0.5687 -0.0032 -0.1033
 1846SOL    HW216998   4.621   0.126   4.951  0.1537  1.9462  0.9241
 1847SOL     OW16999   1.310   4.152  16.244 -0.3981 -0.1369 -0.0649
 1847SOL    HW117000   1.323   4.222  16.179  3.0563 -1.0586 -0.3915
 1847SOL    HW217001   1.398   4.138  16.278 -0.0792 -2.3508 -1.8005
 1848SOL     OW17002   2.149   2.550   7.000  0.2518  0.3426 -0.2761
 1848SOL    HW117003   2.199   2.626   7.027  1.5723  0.0725 -2.0032
 1848SOL    HW217004   2.219   2.491   6.973 -1.2749 -1.8464  0.5327
 1849SOL     OW17005   2.220   0.788   9.867 -0.1485 -0.0565  0.7416
 1849SOL    HW117006   2.282   0.735   9.817 -1.0245  3.0621 -3.6167
 1849SOL    HW217007   2.276   0.818   9.939  1.9589 -0.7159 -0.6090
 1850SOL     OW17008   1.651   2.936   2.205  0.3591  0.4925 -0.0577
 1850SOL    HW117009   1.712   3.008   2.187  1.2151  0.2668  1.9229
 1850SOL    HW217010   1.696   2.866   2.158  2.5439  0.4609  2.0733
 1851SOL     OW17011   3.727   3.449   3.492 -0.2342  0.4673  0.0879
 1851SOL    HW117012   3.660   3.460   3.560  1.9452 -0.8635  2.4147
 1851SOL    HW217013   3.776   3.529   3.509  4.2197 -2.1170 -0.5514
 1852SOL     OW17014   2.714   3.956  11.981  0.4367 -0.7088 -0.2126
 1852SOL    HW117015   2.792   3.913  12.014 -0.9858 -2.6426  0.6514
 1852SOL    HW217016   2.647   3.888  11.986  0.6321 -0.8895 -0.1118
 1853SOL     OW17017   0.130   2.971   3.200  0.4076  0.0523  0.3124
 1853SOL    HW117018   0.178   3.035   3.148 -0.6981  1.6597  1.2809
 1853SOL    HW217019   0.039   2.981   3.172  0.9432 -2.2158 -2.2491
 1854SOL     OW17020   2.866   4.583  17.688 -0.4170 -0.5105  0.0325
 1854SOL    HW117021   2.849   4.504   0.036 -1.4559 -0.9221 -0.9574
 1854SOL    HW217022   2.828   4.558  17.604  0.5073 -2.3353  0.1571
 1855SOL     OW17023   4.261   2.384   5.816  0.0486  0.3935  0.4248
 1855SOL    HW117024   4.340   2.330   5.820  1.3292  2.3007  0.5046
 1855SOL    HW217025   4.299   2.471   5.823  0.3522  0.3823 -1.0383
 1856SOL     OW17026   1.590   0.893   8.481 -0.0573 -0.2656  0.2568
 1856SOL    HW117027   1.592   0.955   8.554 -2.4395 -1.7812  1.5866
 1856SOL    HW217028   1.682   0.866   8.479 -0.4819 -1.7966  1.7166
 1857SOL     OW17029   4.565   4.429   6.172 -0.1429 -0.0131 -0.4438
 1857SOL    HW117030   4.485   4.408   6.219  0.7734 -0.9582  0.6858
 1857SOL    HW217031   4.526   4.454   6.088 -0.2713  1.9880  0.2131
 1858SOL     OW17032   1.932   2.199   5.259 -0.1124  0.0536  0.4777
 1858SOL    HW117033   1.881   2.119   5.246  1.6659 -0.5661 -2.8976
 1858SOL    HW217034   1.905   2.254   5.186 -0.5507  0.0118  0.6079
 1859SOL     OW17035   4.187   0.520   4.380  0.1034  0.3012 -0.8921
 1859SOL    HW117036   4.236   0.573   4.443 -0.3471 -2.2768  1.6239
 1859SOL    HW217037   4.263   0.486   4.331 -0.3283  0.7868 -1.8857
 1860SOL     OW17038   0.941   2.231   7.163  0.1590 -0.5904  0.0611
 1860SOL    HW117039   0.847   2.246   7.146  0.4627  0.9399 -0.2796
 1860SOL    HW217040   0.994   2.278   7.099  1.2006 -2.0525 -0.1426
 1861SOL     OW17041   0.587   0.688   2.505 -0.1028 -0.0040  0.1183
 1861SOL    HW117042   0.682   0.697   2.512  0.1740 -2.8057  0.3227
 1861SOL    HW217043   0.573   0.593   2.505 -2.1301  0.3103 -2.8398
 1862SOL     OW17044   2.346   2.177   4.727  0.7478 -0.3867  0.1539
 1862SOL    HW117045   2.338   2.211   4.638 -0.0623 -1.8813 -0.3523
 1862SOL    HW217046   2.255   2.175   4.757  0.1901  0.0755 -1.4774
 1863SOL     OW17047   0.539   3.223   2.255  0.6519  0.2947  0.3961
 1863SOL    HW117048   0.445   3.206   2.246  1.2220 -1.4634 -2.3284
 1863SOL    HW217049   0.549   3.185   2.342  0.5486  0.6684  0.5695
 1864SOL     OW17050   0.159   0.347   1.729  0.1668  0.0300 -0.5658
 1864SOL    HW117051   0.120   0.355   1.816  0.0514  1.1012 -0.7085
 1864SOL    HW217052   0.079   0.370   1.680  0.6844  0.3233 -1.2789
 1865SOL     OW17053   2.967   3.950   3.248 -0.0652 -0.1190 -0.5408
 1865SOL    HW117054   2.884   3.920   3.286  0.7902 -2.1574 -0.2967
 1865SOL    HW217055   3.003   3.862   3.238  2.2243  0.5483  1.9491
 1866SOL     OW17056   1.897   0.171  14.115 -0.1881 -0.1826  0.3690
 1866SOL    HW117057   1.920   0.098  14.173  1.1759 -0.9918 -1.1782
 1866SOL    HW217058   1.942   0.132  14.040 -1.5756 -2.5789  0.7794
 1867SOL     OW17059   2.488   1.992   1.235  0.2409  0.2323  0.0544
 1867SOL    HW117060   2.580   1.984   1.210 -0.3673 -1.7790 -1.5548
 1867SOL    HW217061   2.491   2.039   1.318  4.3007  0.4863 -0.2307
 1868SOL     OW17062   4.171   3.040   2.564 -0.1816  0.2536  0.4510
 1868SOL    HW117063   4.077   3.057   2.563 -0.2554 -0.2692 -1.4911
 1868SOL    HW217064   4.207   3.128   2.551 -1.6549  0.5449 -1.6192
 1869SOL     OW17065   0.093   4.064   2.572  0.0176  0.4464 -0.1921
 1869SOL    HW117066   0.036   4.015   2.631  1.8155 -1.0939  0.2637
 1869SOL    HW217067   0.091   4.014   2.491 -1.9223  0.7996 -0.3473
 1870SOL     OW17068   0.537   3.012   8.935 -0.2228  0.0628 -0.1363
 1870SOL    HW117069   0.520   2.999   9.029  0.4184  2.5944  0.3258
 1870SOL    HW217070   0.474   3.082   8.917 -0.7452  0.5876  3.6122
 1871SOL     OW17071   0.474   2.697   9.319  0.4967 -0.1867 -0.1557
 1871SOL    HW117072   0.431   2.717   9.402  0.5684 -0.5309 -0.0379
 1871SOL    HW217073   0.470   2.603   9.306  1.3689 -0.3728  0.9496
 1872SOL     OW17074   1.900   2.478   3.617 -0.3820 -0.0049 -0.1647
 1872SOL    HW117075   1.816   2.503   3.656 -0.4387 -0.1218 -0.2121
 1872SOL    HW217076   1.897   2.382   3.615  1.0491 -0.0596  0.2084
 1873SOL     OW17077   0.913   3.303   4.525 -0.2378  0.7704 -0.9772
 1873SOL    HW117078   0.997   3.259   4.536 -1.6436 -2.4848 -3.3861
 1873SOL    HW217079   0.947   3.393   4.517  1.3597  0.2446 -0.2336
 1874SOL     OW17080   1.994   1.993  10.906  0.0919  0.4439 -0.3794
 1874SOL    HW117081   2.051   2.051  10.855 -0.7663  1.0461 -0.6503
 1874SOL    HW217082   2.058   1.928  10.934 -1.3632 -1.0004 -0.3739
 1875SOL     OW17083   1.634   2.754   8.102  0.1268 -0.3121  0.0385
 1875SOL    HW117084   1.618   2.827   8.043  0.8365  1.0642  1.5424
 1875SOL    HW217085   1.709   2.708   8.063 -0.9783 -1.3822 -0.8067
 1876SOL     OW17086   1.423   1.425   1.641 -0.1579 -0.4635 -0.3147
 1876SOL    HW117087   1.343   1.419   1.694  0.5941  2.6554  1.1714
 1876SOL    HW217088   1.401   1.500   1.587  0.0585 -2.5074 -3.2059
 1877SOL     OW17089   2.163   3.626   5.933 -0.0467 -0.4345 -0.2586
 1877SOL    HW117090   2.202   3.699   5.885 -1.8163  0.8122  0.1976
 1877SOL    HW217091   2.071   3.627   5.905 -0.8792  0.9125  2.4297
 1878SOL     OW17092   4.458   3.632   6.004 -0.0094 -0.1202 -0.5696
 1878SOL    HW117093   4.398   3.557   6.008  1.4876 -1.4001 -1.8647
 1878SOL    HW217094   4.521   3.620   6.075 -0.0595 -1.3947 -0.7406
 1879SOL     OW17095   4.440   0.309   5.839 -0.9607 -0.0777 -0.2680
 1879SOL    HW117096   4.482   0.381   5.792  2.1499 -0.7085  1.4743
 1879SOL    HW217097   4.502   0.312   5.913 -0.3618 -0.7407 -0.7419
 1880SOL     OW17098   2.720   4.423   6.159 -0.2125 -0.0913 -0.0963
 1880SOL    HW117099   2.806   4.458   6.137 -0.6272 -0.0255 -1.5836
 1880SOL    HW217100   2.746   4.332   6.174  2.6627  0.3735 -2.4482
 1881SOL     OW17101   2.280   0.015   9.629 -0.4774  0.3098  0.9945
 1881SOL    HW117102   2.270   4.679   9.557  1.9591 -0.9133  1.7025
 1881SOL    HW217103   2.357   0.061   9.599  0.1611 -1.4170 -0.0271
 1882SOL     OW17104   3.753   0.410   7.019 -0.2171 -0.2048 -0.5344
 1882SOL    HW117105   3.742   0.316   7.035 -0.6345  0.0228  0.5085
 1882SOL    HW217106   3.774   0.439   7.107 -1.7604  0.3664 -0.3534
 1883SOL     OW17107   1.650   3.152   1.778 -0.7191  0.1527  0.0058
 1883SOL    HW117108   1.698   3.223   1.821 -2.3519  0.4619  1.3035
 1883SOL    HW217109   1.598   3.206   1.718 -0.1741 -0.3010 -0.8855
 1884SOL     OW17110   0.834   2.269   2.521 -0.0397 -0.1829  0.3202
 1884SOL    HW117111   0.773   2.200   2.546 -1.8957  1.0113 -0.9731
 1884SOL    HW217112   0.806   2.281   2.431 -0.7182  1.7186  0.7829
 1885SOL     OW17113   3.068   3.767   4.615 -0.2562 -0.1241  0.4019
 1885SOL    HW117114   2.994   3.828   4.608 -0.2205 -0.5045 -3.2177
 1885SOL    HW217115   3.133   3.800   4.553 -0.9572 -0.9061 -0.7393
 1886SOL     OW17116   2.028   0.957   9.906 -0.2618  0.8245 -1.0123
 1886SOL    HW117117   2.016   1.008   9.826 -1.9959  0.0671 -1.2294
 1886SOL    HW217118   2.091   0.893   9.874  1.9532  1.7715  1.3841
 1887SOL     OW17119   1.756   1.164   3.368 -0.0010 -0.1223 -0.1368
 1887SOL    HW117120   1.738   1.131   3.455 -2.4517  2.1217  0.2132
 1887SOL    HW217121   1.849   1.141   3.359  0.1320 -0.2160  1.5251
 1888SOL     OW17122   3.472   0.837   4.045  0.1679  0.3454 -0.5565
 1888SOL    HW117123   3.553   0.786   4.044 -0.2319 -0.2866 -0.5460
 1888SOL    HW217124   3.402   0.771   4.049  1.8099 -1.2905  1.1128
 1889SOL     OW17125   3.798   1.722   8.046 -0.1975 -0.1978  0.4436
 1889SOL    HW117126   3.850   1.723   7.966  1.0405 -2.1021  1.1966
 1889SOL    HW217127   3.845   1.653   8.094  0.6997 -0.0384 -0.2021
 1890SOL     OW17128   1.540   3.911  12.014 -1.0398 -0.3793  0.2571
 1890SOL    HW117129   1.465   3.851  12.018 -1.9290  0.7438  0.3830
 1890SOL    HW217130   1.554   3.911  11.919  3.4865 -1.0905  0.9471
 1891SOL     OW17131   3.421   4.086  12.081  0.0169  0.4642  0.2559
 1891SOL    HW117132   3.440   4.067  12.173 -0.1278  1.2564  0.4539
 1891SOL    HW217133   3.468   4.168  12.069 -1.8235  1.6088  0.8881
 1892SOL     OW17134   3.179   1.392  16.334 -0.3255 -0.1834  0.1085
 1892SOL    HW117135   3.188   1.354  16.422  2.5829  0.9098  0.2646
 1892SOL    HW217136   3.213   1.479  16.355 -0.4026  0.7379 -3.6424
 1893SOL     OW17137   0.188   4.058  16.252 -0.3816 -0.0725 -0.2791
 1893SOL    HW117138   0.146   4.133  16.294  0.7535  1.6284 -2.1664
 1893SOL    HW217139   0.122   4.027  16.190 -1.3275 -1.4726  1.4209
 1894SOL     OW17140   1.281   1.463  17.420 -0.4694  0.5231  0.2932
 1894SOL    HW117141   1.358   1.425  17.377  0.6042 -0.2191  2.8715
 1894SOL    HW217142   1.254   1.393  17.478  0.6928  0.1626  0.4035
 1895SOL     OW17143   3.672   3.768   0.464  0.3284  0.2230 -0.6140
 1895SOL    HW117144   3.682   3.708   0.390  0.2662  1.2606 -1.4687
 1895SOL    HW217145   3.690   3.713   0.540 -2.7594  1.0832  0.7377
 1896SOL     OW17146   2.815   2.117   7.140 -0.3097 -0.7910 -0.2090
 1896SOL    HW117147   2.828   2.093   7.048  1.1533 -1.7827  0.2566
 1896SOL    HW217148   2.734   2.167   7.132  1.1702  1.3413 -1.8777
 1897SOL     OW17149   2.697   2.485   1.935 -0.1201  0.6388  0.9495
 1897SOL    HW117150   2.603   2.481   1.953 -0.3994 -0.5023 -0.7164
 1897SOL    HW217151   2.727   2.566   1.975  0.8311  0.1709  1.2012
 1898SOL     OW17152   3.310   0.819   2.242 -0.2810 -0.3492 -0.0308
 1898SOL    HW117153   3.319   0.837   2.335  1.0248 -0.1117 -0.2050
 1898SOL    HW217154   3.215   0.816   2.236 -0.3422  3.1101 -0.7127
 1899SOL     OW17155   3.369   2.655  16.873 -1.0436  0.3231 -0.3557
 1899SOL    HW117156   3.346   2.678  16.783  0.2673 -1.0355 -1.0254
 1899SOL    HW217157   3.340   2.738  16.911  0.9378  1.5559 -1.5437
 1900SOL     OW17158   4.035   1.626  14.645 -0.0294 -0.3128  0.1135
 1900SOL    HW117159   4.084   1.697  14.687  0.5714 -0.7848  0.2041
 1900SOL    HW217160   4.019   1.671  14.561 -1.3772  1.5597  1.3707
 1901SOL     OW17161   2.029   4.276   4.557 -0.6987  0.1017  0.3059
 1901SOL    HW117162   1.989   4.348   4.605  1.1359  2.4130 -1.6670
 1901SOL    HW217163   2.121   4.299   4.564 -0.4804 -0.5246 -0.4748
 1902SOL     OW17164   0.468   1.551   9.133 -0.3844 -0.0015  0.3221
 1902SOL    HW117165   0.512   1.472   9.104  0.7149  1.5378 -2.1725
 1902SOL    HW217166   0.379   1.516   9.137  0.1863 -1.4039  0.7270
 1903SOL     OW17167   2.226   1.798  16.574 -0.2925  0.3638 -0.1074
 1903SOL    HW117168   2.259   1.888  16.572  0.7447  0.0308  2.8592
 1903SOL    HW217169   2.262   1.771  16.490 -1.4589 -0.1390 -0.4513
 1904SOL     OW17170   4.147   3.171   8.414 -0.0226  0.1675 -0.2469
 1904SOL    HW117171   4.181   3.092   8.373 -2.7221 -1.6791  1.1103
 1904SOL    HW217172   4.186   3.242   8.363  0.4707 -0.2937 -0.5137
 1905SOL     OW17173   1.686   0.706  11.808 -0.1377  0.1116 -0.5230
 1905SOL    HW117174   1.728   0.792  11.818 -0.7115  0.2811  0.4515
 1905SOL    HW217175   1.672   0.708  11.713 -0.5420 -2.0278 -0.4971
 1906SOL     OW17176   2.521   1.148  13.306  0.4070 -0.0419 -0.1237
 1906SOL    HW117177   2.553   1.133  13.217 -0.4189 -1.2219 -0.2156
 1906SOL    HW217178   2.433   1.114  13.294  1.2156 -2.1300 -0.1812
 1907SOL     OW17179   3.858   4.033   8.476 -0.0898 -0.0573  0.0040
 1907SOL    HW117180   3.768   4.007   8.497 -0.5808 -0.3643 -2.3970
 1907SOL    HW217181   3.873   4.089   8.552  3.0242 -1.2164  0.2245
 1908SOL     OW17182   2.767   3.356   9.289  0.0313 -0.0055 -0.8599
 1908SOL    HW117183   2.798   3.306   9.365 -0.6465 -0.0162 -0.5867
 1908SOL    HW217184   2.752   3.446   9.319 -2.9672 -1.1665  1.0948
 1909SOL     OW17185   3.314   3.273   4.048 -0.0307  0.2064  0.3446
 1909SOL    HW117186   3.325   3.229   4.132 -2.9807  1.8435  1.6106
 1909SOL    HW217187   3.340   3.364   4.062 -1.3638  0.4954  0.9143
 1910SOL     OW17188   2.874   1.485   3.781  0.3002 -0.4596 -0.4746
 1910SOL    HW117189   2.848   1.396   3.806 -0.4950 -0.6199 -1.8304
 1910SOL    HW217190   2.967   1.483   3.803  0.5195  3.5941 -1.0051
 1911SOL     OW17191   3.548   2.160  16.067  0.2842 -0.1416  0.0718
 1911SOL    HW117192   3.618   2.213  16.029 -1.7843  1.1507 -1.9359
 1911SOL    HW217193   3.594   2.121  16.141 -0.0216 -1.2623 -0.3263
 1912SOL     OW17194   2.259   3.457   6.316  0.1560  0.2598 -0.1163
 1912SOL    HW117195   2.233   3.531   6.370 -0.2174  0.6248 -0.7959
 1912SOL    HW217196   2.267   3.380   6.373  1.3197  0.3662 -0.1257
 1913SOL     OW17197   2.496   2.310  15.248 -0.4265  0.4608 -0.2895
 1913SOL    HW117198   2.482   2.266  15.164 -2.0229  0.1748  0.1272
 1913SOL    HW217199   2.418   2.280  15.294 -1.6767  3.3184 -0.5732
 1914SOL     OW17200   2.796   3.561   3.710 -0.1892 -0.0922  0.0820
 1914SOL    HW117201   2.716   3.513   3.689  0.3452 -1.6651  1.6087
 1914SOL    HW217202   2.778   3.594   3.798 -1.5021 -2.5906  0.7499
 1915SOL     OW17203   1.507   1.130   4.937  0.8606 -0.5592 -0.0835
 1915SOL    HW117204   1.563   1.053   4.930  1.5656 -0.1956  1.5008
 1915SOL    HW217205   1.568   1.204   4.946 -0.8119  0.7960  0.0598
 1916SOL     OW17206   2.001   3.064   7.417 -0.2544  0.4446  0.3530
 1916SOL    HW117207   1.939   3.084   7.487  0.0460 -1.5998  1.1798
 1916SOL    HW217208   1.940   3.059   7.343 -0.2992  0.1371  0.4138
 1917SOL     OW17209   0.958   4.685   9.494  0.6008 -0.1982  0.1079
 1917SOL    HW117210   0.986   4.680   9.585 -0.9677  0.9645  0.6451
 1917SOL    HW217211   1.004   0.036   9.458  0.9618 -1.0280 -1.2023
 1918SOL     OW17212   2.126   4.180  13.341  0.0788  0.2929 -0.2746
 1918SOL    HW117213   2.137   4.136  13.256  0.0513 -0.4162  0.0836
 1918SOL    HW217214   2.036   4.209  13.325 -0.5229 -0.1512  2.3488
 1919SOL     OW17215   4.438   2.582   8.866  0.2789 -0.5561  0.4406
 1919SOL    HW117216   4.520   2.535   8.852  1.9372  2.7964 -1.0391
 1919SOL    HW217217   4.391   2.566   8.785 -3.6505  1.1489  2.3898
 1920SOL     OW17218   4.084   2.160   9.909 -0.3551  0.1390 -0.7274
 1920SOL    HW117219   4.004   2.210   9.893 -0.7323  0.4787  2.2534
 1920SOL    HW217220   4.131   2.156   9.826 -0.5531 -0.0936 -0.8313
 1921SOL     OW17221   2.626   2.375   6.428  0.3324  0.0824  0.4977
 1921SOL    HW117222   2.610   2.284   6.404  0.0475  0.2379  0.0939
 1921SOL    HW217223   2.711   2.382   6.385  0.6505 -2.5243  0.7016
 1922SOL     OW17224   2.376   1.713  14.893  0.0702 -0.1701  0.2351
 1922SOL    HW117225   2.314   1.665  14.948 -0.6409  0.4510 -0.0311
 1922SOL    HW217226   2.322   1.788  14.870  0.7671  1.2818  3.2134
 1923SOL     OW17227   2.170   3.626   4.339 -0.2801  0.6172  0.0732
 1923SOL    HW117228   2.116   3.671   4.403  0.2237  0.2183  0.7845
 1923SOL    HW217229   2.097   3.585   4.293  2.8054 -1.6144 -2.8323
 1924SOL     OW17230   3.975   0.220   7.772 -0.2247 -0.0449  0.1084
 1924SOL    HW117231   3.901   0.172   7.808 -0.2610  0.7520  1.0825
 1924SOL    HW217232   3.996   0.265   7.853 -1.0388  0.2414  0.1615
 1925SOL     OW17233   4.165   0.817  10.928 -0.2494 -0.0357  0.2049
 1925SOL    HW117234   4.106   0.815  11.003 -0.8682 -0.4981 -0.2928
 1925SOL    HW217235   4.118   0.869  10.862  0.6318 -1.1984 -1.3317
 1926SOL     OW17236   1.204   1.227   7.768 -0.0134  0.3885  0.5897
 1926SOL    HW117237   1.223   1.296   7.705  0.0946 -0.2259 -0.0447
 1926SOL    HW217238   1.231   1.165   7.700  2.1869  2.0963 -0.1150
 1927SOL     OW17239   2.489   3.528   8.785  0.2724 -0.7363  0.1212
 1927SOL    HW117240   2.500   3.473   8.864 -1.4886 -3.4385 -1.5149
 1927SOL    HW217241   2.576   3.565   8.774  0.1953 -0.9512 -1.1665
 1928SOL     OW17242   1.462   3.517   5.828  0.5742 -0.4502 -0.1134
 1928SOL    HW117243   1.423   3.588   5.776 -0.2509  1.1407  2.6362
 1928SOL    HW217244   1.386   3.459   5.819  0.7084 -0.5276 -0.6966
 1929SOL     OW17245   4.034   3.695  14.424 -0.6751 -0.2451  0.2138
 1929SOL    HW117246   4.040   3.629  14.355  1.6541 -1.9204  1.9928
 1929SOL    HW217247   4.106   3.666  14.480 -2.0793  0.0143  2.1428
 1930SOL     OW17248   3.708   4.398   9.930 -0.4011  0.4209 -0.1073
 1930SOL    HW117249   3.745   4.347  10.001  3.9290  0.8993 -2.0602
 1930SOL    HW217250   3.720   4.488   9.963 -0.7036 -0.3031  2.0143
 1931SOL     OW17251   2.605   3.676   1.941  0.5183 -0.1573 -0.5980
 1931SOL    HW117252   2.682   3.678   1.997  0.9140  0.7665 -1.1821
 1931SOL    HW217253   2.550   3.752   1.962 -2.7270 -2.0328 -2.2494
 1932SOL     OW17254   0.228   3.287   6.277 -0.2307 -0.3020  0.2959
 1932SOL    HW117255   0.290   3.217   6.258 -1.0641 -0.9023 -0.1994
 1932SOL    HW217256   0.256   3.308   6.366 -2.2044  0.4581  0.7287
 1933SOL     OW17257   1.527   3.943   6.596 -0.8083  0.2766 -0.2012
 1933SOL    HW117258   1.522   3.987   6.511  0.6230  0.0384 -0.4184
 1933SOL    HW217259   1.619   3.919   6.586 -0.3406  1.4315  1.3385
 1934SOL     OW17260   3.083   4.165   3.171 -0.6705 -0.1447 -0.3225
 1934SOL    HW117261   3.176   4.148   3.182 -0.4894  1.9956  1.4521
 1934SOL    HW217262   3.050   4.084   3.209 -0.7166  0.4163  0.8516
 1935SOL     OW17263   0.880   0.328   6.111 -0.1399  0.2036 -0.5600
 1935SOL    HW117264   0.846   0.256   6.163 -1.5998 -0.1735 -2.0149
 1935SOL    HW217265   0.804   0.387   6.109  0.0793  0.4818 -0.7549
 1936SOL     OW17266   4.023   2.235   1.483  0.7137 -0.4374 -0.2771
 1936SOL    HW117267   3.930   2.233   1.459  0.8990  0.7112 -1.0358
 1936SOL    HW217268   4.047   2.319   1.445 -2.3814 -0.4315 -2.2523
 1937SOL     OW17269   0.596   3.939   8.068  0.2918 -0.7879 -0.1561
 1937SOL    HW117270   0.632   4.026   8.087  0.5042 -0.9210  0.0455
 1937SOL    HW217271   0.515   3.960   8.021  0.2474  0.3530  0.4274
 1938SOL     OW17272   2.918   4.610   5.959 -0.1275 -0.5804  0.0880
 1938SOL    HW117273   2.886   4.696   5.933  0.4019 -0.0182  1.3046
 1938SOL    HW217274   2.906   4.611   6.054  2.9437  1.5226  0.4458
 1939SOL     OW17275   0.755   2.387   4.099  0.2687  0.2137  0.3165
 1939SOL    HW117276   0.751   2.386   4.194  0.4229  0.5190  0.3252
 1939SOL    HW217277   0.730   2.296   4.082  1.3366 -0.3338  1.7241
 1940SOL     OW17278   0.090   0.961  16.836 -0.0468 -0.3918 -0.4776
 1940SOL    HW117279   0.065   0.890  16.895 -1.1956  1.9661  1.8856
 1940SOL    HW217280   0.084   1.039  16.891 -2.2372 -0.3613 -0.7551
 1941SOL     OW17281   3.115   1.483   3.537  0.0647 -0.6690 -0.3718
 1941SOL    HW117282   3.103   1.578   3.534 -0.4127 -0.7107  0.3675
 1941SOL    HW217283   3.161   1.471   3.620 -0.9358  1.0431  0.4412
 1942SOL     OW17284   4.416   0.069   6.601  0.3060 -0.5212 -0.3000
 1942SOL    HW117285   4.456   0.149   6.565 -1.1305 -0.3047 -1.4399
 1942SOL    HW217286   4.473   0.005   6.558 -0.5615 -1.8510  0.5481
 1943SOL     OW17287   1.122   4.261   6.717  0.6796  0.5455 -0.4297
 1943SOL    HW117288   1.153   4.332   6.662  1.0349 -0.0285 -0.9660
 1943SOL    HW217289   1.126   4.186   6.658 -0.2290 -0.5497  0.8906
 1944SOL     OW17290   0.495   4.487  11.804 -0.1303  0.6635 -0.1121
 1944SOL    HW117291   0.500   4.579  11.776  0.7123  0.4676 -0.6032
 1944SOL    HW217292   0.569   4.451  11.756 -1.8119  0.5753 -2.6192
 1945SOL     OW17293   4.529   2.348   2.369 -0.0230  0.2281 -0.4065
 1945SOL    HW117294   4.619   2.323   2.349  0.4607  2.4339 -0.9193
 1945SOL    HW217295   4.528   2.402   2.447 -1.1571  0.2186 -0.4135
 1946SOL     OW17296   0.420   0.227   2.081 -0.3935  0.1727 -0.1557
 1946SOL    HW117297   0.380   0.147   2.114  0.8093 -1.7256 -3.2408
 1946SOL    HW217298   0.462   0.197   2.000  0.6493  0.3682  0.3059
 1947SOL     OW17299   1.753   3.434  16.337  0.3843 -0.3117 -0.1081
 1947SOL    HW117300   1.784   3.485  16.262  0.2280 -2.3506 -1.5502
 1947SOL    HW217301   1.662   3.407  16.327  0.4422 -1.4183  2.3097
 1948SOL     OW17302   1.151   0.137   2.918 -0.0372  0.2213 -0.3314
 1948SOL    HW117303   1.139   0.232   2.913 -0.0384  0.1523 -1.7261
 1948SOL    HW217304   1.062   0.118   2.889  0.3307 -0.8916 -0.7340
 1949SOL     OW17305   1.002   0.529   9.409  0.3302 -0.1662 -0.5372
 1949SOL    HW117306   0.926   0.479   9.381  0.5732  1.0861 -3.3899
 1949SOL    HW217307   1.004   0.522   9.505  0.2683 -2.5368 -0.7069
 1950SOL     OW17308   2.862   0.933   6.012 -0.2414 -0.0530 -0.0317
 1950SOL    HW117309   2.903   0.949   5.927 -1.2781 -0.6402 -0.6349
 1950SOL    HW217310   2.939   0.917   6.067 -1.2462  0.4864  1.5089
 1951SOL     OW17311   2.211   0.841   8.545 -0.0834  0.7932  0.5264
 1951SOL    HW117312   2.205   0.765   8.602  1.0783  0.3098  0.0100
 1951SOL    HW217313   2.259   0.796   8.475  1.0710  0.9625  1.2076
 1952SOL     OW17314   0.598   4.174   1.546 -0.5495 -0.3614  0.1535
 1952SOL    HW117315   0.587   4.102   1.607  0.7637  0.5170  1.4347
 1952SOL    HW217316   0.693   4.189   1.551 -0.2629 -1.8098 -0.9530
 1953SOL     OW17317   4.687   3.653  14.440 -0.6519 -0.0320  0.5589
 1953SOL    HW117318   0.048   3.687  14.420  0.3423 -3.9674 -1.8419
 1953SOL    HW217319   4.663   3.722  14.502  0.5645 -0.0669  1.0584
 1954SOL     OW17320   0.969   1.597   1.485 -0.2442 -0.1055  0.4263
 1954SOL    HW117321   0.896   1.604   1.424  0.5588 -0.3848 -0.5781
 1954SOL    HW217322   0.927   1.588   1.570 -2.4572  1.4240 -0.5116
 1955SOL     OW17323   0.546   2.922  13.067 -0.7145  0.2785 -0.2399
 1955SOL    HW117324   0.599   2.980  13.121 -1.6417 -0.2022  1.1734
 1955SOL    HW217325   0.582   2.959  12.986  1.7869  1.7539  1.5761
 1956SOL     OW17326   1.269   4.643   7.259  0.9398 -0.1076  0.0375
 1956SOL    HW117327   1.343   4.644   7.198  1.1398 -0.6067  0.2740
 1956SOL    HW217328   1.221   4.563   7.237  1.7376  0.2537 -3.0154
 1957SOL     OW17329   0.052   3.748   1.472  0.0847  0.4286  0.2648
 1957SOL    HW117330   0.090   3.835   1.457 -1.4219  0.7956 -1.4336
 1957SOL    HW217331   0.126   3.687   1.468  0.4765  0.9447 -0.4414
 1958SOL     OW17332   3.977   1.070   9.172  0.1836 -0.3683 -0.4442
 1958SOL    HW117333   4.036   1.022   9.115 -0.8360 -1.1788 -0.8063
 1958SOL    HW217334   3.897   1.062   9.120 -0.8519 -0.7138  1.1712
 1959SOL     OW17335   1.445   3.450  10.507 -0.6858  0.2497 -0.2415
 1959SOL    HW117336   1.350   3.465  10.508 -0.1999  3.2430  2.1462
 1959SOL    HW217337   1.450   3.393  10.583  1.3033 -0.0552 -0.6244
 1960SOL     OW17338   1.371   1.604   7.030  0.2115 -0.1332  0.0344
 1960SOL    HW117339   1.447   1.588   7.085 -0.0730 -0.0483  0.4498
 1960SOL    HW217340   1.334   1.671   7.088 -1.1850 -0.1315 -0.8451
 1961SOL     OW17341   2.252   2.513   9.456 -0.2704  0.0181  0.5726
 1961SOL    HW117342   2.229   2.599   9.490 -0.4179 -0.3139  1.3337
 1961SOL    HW217343   2.233   2.526   9.363  1.8341  4.3643  0.7755
 1962SOL     OW17344   1.674   0.051   2.730  0.4860 -0.4726 -0.9368
 1962SOL    HW117345   1.593   0.073   2.777  2.5328  0.6144  2.0682
 1962SOL    HW217346   1.702   4.693   2.766 -1.3109 -0.6304  0.0966
 1963SOL     OW17347   4.072   4.450  12.310  0.1513  0.3216 -0.2218
 1963SOL    HW117348   4.029   4.371  12.342  2.7409 -1.2582 -0.6358
 1963SOL    HW217349   4.164   4.426  12.314 -0.1564 -0.9049 -0.5444
 1964SOL     OW17350   4.722   0.124   9.871  0.3921 -0.5940 -0.1823
 1964SOL    HW117351   4.632   0.134   9.838  0.1366  1.2725  1.0937
 1964SOL    HW217352   0.029   0.213   9.878 -1.5660  0.1139 -0.0128
 1965SOL     OW17353   3.429   2.312   3.149 -0.8777  0.6037  0.1885
 1965SOL    HW117354   3.403   2.374   3.081 -0.1978 -0.6453 -1.2073
 1965SOL    HW217355   3.383   2.349   3.225  0.0952  0.3784  0.8819
 1966SOL     OW17356   4.271   3.116   7.736  0.0521 -0.0414 -0.7463
 1966SOL    HW117357   4.236   3.203   7.720 -0.2845 -0.2680 -1.2522
 1966SOL    HW217358   4.215   3.077   7.669 -0.3651 -2.4910  1.0278
 1967SOL     OW17359   3.244   4.238   5.336 -0.1291  0.1134  0.3474
 1967SOL    HW117360   3.322   4.188   5.314  0.6895  1.2650  0.6498
 1967SOL    HW217361   3.205   4.244   5.249  1.8965  0.9684 -0.5025
 1968SOL     OW17362   1.131   3.426  12.874  0.4141 -0.0050  1.2661
 1968SOL    HW117363   1.087   3.345  12.847 -0.3040  0.9451 -0.3751
 1968SOL    HW217364   1.222   3.396  12.872  0.6153  0.6451  0.6570
 1969SOL     OW17365   4.503   0.833   4.698 -0.3103 -0.8982 -0.4688
 1969SOL    HW117366   4.569   0.902   4.710 -0.7846 -0.5824  0.3651
 1969SOL    HW217367   4.453   0.860   4.775 -0.5032  0.5028 -1.0879
 1970SOL     OW17368   3.386   3.846   6.075  0.0559  0.0664 -0.6307
 1970SOL    HW117369   3.310   3.859   6.130  1.0713  1.2927  0.4683
 1970SOL    HW217370   3.408   3.753   6.087 -1.9507 -0.2038  0.8984
 1971SOL     OW17371   2.235   2.235   0.216  0.2243  0.0730  0.5520
 1971SOL    HW117372   2.234   2.328   0.240 -0.6830 -0.3517  2.2151
 1971SOL    HW217373   2.326   2.229   0.188  1.4808  0.8812  4.4528
 1972SOL     OW17374   4.657   2.038  17.655 -0.8557 -0.0566 -0.9472
 1972SOL    HW117375   0.009   1.990  17.686  0.0160 -0.3769 -3.6493
 1972SOL    HW217376   4.588   1.998   0.006 -1.0257 -0.3762 -1.3948
 1973SOL     OW17377   4.118   2.938   9.076 -0.0420 -0.7219  0.5751
 1973SOL    HW117378   4.092   2.846   9.069 -1.6142 -0.2804  0.5150
 1973SOL    HW217379   4.199   2.947   9.026 -0.7254  0.1410 -0.3759
 1974SOL     OW17380   0.990   3.255  13.293  0.5490 -0.6636  0.2818
 1974SOL    HW117381   0.966   3.285  13.205  0.9714  4.4681  1.9432
 1974SOL    HW217382   1.085   3.265  13.299  0.3650  1.3682 -0.2075
 1975SOL     OW17383   2.839   2.160   3.006  0.7319 -0.5096  0.4137
 1975SOL    HW117384   2.810   2.247   3.035  0.6316 -0.5551  0.4472
 1975SOL    HW217385   2.882   2.181   2.923 -2.0824  2.9668 -0.1805
 1976SOL     OW17386   2.694   2.622  17.117 -0.5071 -0.1599 -0.4474
 1976SOL    HW117387   2.759   2.689  17.095 -1.2812  0.0509 -2.0998
 1976SOL    HW217388   2.725   2.569  17.190  0.5612 -1.3733 -1.7884
 1977SOL     OW17389   2.760   4.629   5.059 -0.3635  0.1670 -0.3950
 1977SOL    HW117390   2.736   4.720   5.040 -1.4286 -0.3346 -1.4527
 1977SOL    HW217391   2.778   4.628   5.153 -2.3434  1.2965  0.0034
 1978SOL     OW17392   4.516   4.228   0.068 -0.4726  0.3694  0.4195
 1978SOL    HW117393   4.497   4.310   0.113 -0.0368 -0.7300  2.5997
 1978SOL    HW217394   4.432   4.198   0.032 -0.3735  0.3557  0.2020
 1979SOL     OW17395   1.265   3.650   0.501 -0.4385  1.1330 -0.1083
 1979SOL    HW117396   1.214   3.634   0.580  1.7960  0.1141  1.1168
 1979SOL    HW217397   1.242   3.742   0.486 -0.8762  1.1136  0.4484
 1980SOL     OW17398   2.031   0.547  16.536  0.3699  0.2041  0.1117
 1980SOL    HW117399   2.001   0.468  16.580  0.8807  0.9273  1.7573
 1980SOL    HW217400   2.031   0.613  16.605 -1.9578  0.5506 -0.1917
 1981SOL     OW17401   0.140   2.205   2.857  0.0723  0.2702  0.2031
 1981SOL    HW117402   0.096   2.236   2.777  0.4392  0.4547  0.0694
 1981SOL    HW217403   0.217   2.169   2.812 -0.3461  1.1195 -1.2093
 1982SOL     OW17404   2.432   2.686   4.025  0.0796 -0.2523  0.2581
 1982SOL    HW117405   2.336   2.688   4.021  0.1432 -0.8904 -1.2781
 1982SOL    HW217406   2.452   2.665   3.934  0.9136  1.8035 -0.0400
 1983SOL     OW17407   1.422   0.267   2.396 -0.1398 -0.4956  0.4460
 1983SOL    HW117408   1.461   0.237   2.314 -0.5976  0.0588  0.0230
 1983SOL    HW217409   1.501   0.262   2.450  1.1106  2.3400 -1.1336
 1984SOL     OW17410   2.962   2.931   2.501  0.4975  0.3023  0.1082
 1984SOL    HW117411   2.960   2.915   2.595  2.8568 -2.3809 -0.2662
 1984SOL    HW217412   3.048   2.894   2.478  0.7511  0.7978  0.2631
 1985SOL     OW17413   0.153   0.448   6.478 -0.0308 -0.0483 -0.1319
 1985SOL    HW117414   0.087   0.409   6.421  0.6195 -0.6874 -0.4460
 1985SOL    HW217415   0.118   0.536   6.494 -2.2759 -1.0995  0.7503
 1986SOL     OW17416   0.158   2.456  14.022 -0.7357 -0.1990  0.4060
 1986SOL    HW117417   0.091   2.515  14.058 -1.1446 -1.8903  2.4396
 1986SOL    HW217418   0.162   2.498  13.936  0.3141  0.6834  0.8759
 1987SOL     OW17419   4.704   1.401  16.536 -0.7682  0.1309  0.8540
 1987SOL    HW117420   0.039   1.328  16.546 -0.5495  0.1145 -0.5582
 1987SOL    HW217421   0.022   1.469  16.588  0.3218 -1.0066  1.4378
 1988SOL     OW17422   3.065   1.263   9.038 -0.1640  0.8149 -0.4029
 1988SOL    HW117423   3.113   1.345   9.030 -0.2644  0.9532  0.4316
 1988SOL    HW217424   3.054   1.238   8.946  0.0428 -0.7002 -0.0259
 1989SOL     OW17425   0.557   3.211   4.066  0.9943  0.0270  0.0355
 1989SOL    HW117426   0.527   3.128   4.029 -1.5446  0.7264  0.4756
 1989SOL    HW217427   0.603   3.185   4.146  1.2941 -0.1221 -0.1904
 1990SOL     OW17428   2.756   4.127  10.639 -0.0388 -0.4829 -0.0193
 1990SOL    HW117429   2.851   4.144  10.639 -0.2931  0.9853  1.2132
 1990SOL    HW217430   2.737   4.127  10.545  1.1229 -0.1982 -0.2590
 1991SOL     OW17431   3.763   1.131   4.343 -1.0477  0.0851  0.0808
 1991SOL    HW117432   3.678   1.112   4.305 -1.3608 -0.1993  0.9233
 1991SOL    HW217433   3.765   1.083   4.426  2.6985 -0.1112 -0.1247
 1992SOL     OW17434   0.735   2.049   6.284  0.3032 -0.3095  1.3033
 1992SOL    HW117435   0.717   2.031   6.376  0.0833  0.1850  1.3565
 1992SOL    HW217436   0.763   2.139   6.298  2.8130 -0.7743 -0.5331
 1993SOL     OW17437   4.167   0.189   2.351 -0.0531  0.1649  0.1469
 1993SOL    HW117438   4.101   0.183   2.420  0.8371 -1.0891  0.8764
 1993SOL    HW217439   4.123   0.243   2.285  1.1767  1.8915  0.7527
 1994SOL     OW17440   1.053   0.445  11.856 -0.5524 -0.7871  0.0190
 1994SOL    HW117441   0.964   0.446  11.892 -0.1566  1.1591  0.9391
 1994SOL    HW217442   1.095   0.370  11.899 -1.0550  1.7795  4.9982
 1995SOL     OW17443   3.919   2.128   3.061 -0.5674 -0.4499  0.2856
 1995SOL    HW117444   3.844   2.186   3.072  0.1899  0.7374 -0.9086
 1995SOL    HW217445   3.941   2.142   2.969  0.6238  0.5709  0.7228
 1996SOL     OW17446   3.794   3.125   2.942  0.5554 -0.4370 -0.3718
 1996SOL    HW117447   3.747   3.060   2.889 -0.4692 -1.5092  1.8603
 1996SOL    HW217448   3.815   3.191   2.876  0.3787  1.5463  1.5712
 1997SOL     OW17449   1.798   1.159   2.563  0.7740  0.1307  0.0783
 1997SOL    HW117450   1.771   1.231   2.507 -2.1893  0.2433  1.6102
 1997SOL    HW217451   1.816   1.218   2.636  0.7427  0.5961 -0.2911
 1998SOL     OW17452   0.307   3.804   1.199 -0.0398  0.6059  0.0250
 1998SOL    HW117453   0.368   3.731   1.186  0.8496  1.2877  0.4051
 1998SOL    HW217454   0.332   3.829   1.288 -0.1365  0.2909  0.1417
 1999SOL     OW17455   4.722   3.206  11.236  0.2512  0.6363 -0.3818
 1999SOL    HW117456   0.028   3.126  11.194 -1.4266 -1.1883  1.7869
 1999SOL    HW217457   0.055   3.207  11.313  0.9239  1.1434 -0.9080
 2000SOL     OW17458   3.298   0.357   9.871 -0.5269 -0.1550 -0.3689
 2000SOL    HW117459   3.217   0.334   9.826  1.3479 -1.7581 -2.9092
 2000SOL    HW217460   3.285   0.442   9.913 -1.8049 -0.5260 -0.0281
 2001SOL     OW17461   0.836   3.112   3.320  0.8892  0.7916 -0.0699
 2001SOL    HW117462   0.885   3.062   3.255  2.2945  1.0095  0.8018
 2001SOL    HW217463   0.745   3.096   3.297  0.9299  0.4273  0.0237
 2002SOL     OW17464   4.470   1.592  17.159 -0.4130 -0.3099 -0.3494
 2002SOL    HW117465   4.504   1.636  17.237  0.0550 -0.2648 -0.5781
 2002SOL    HW217466   4.485   1.654  17.088  1.6502 -0.7484 -0.3031
 2003SOL     OW17467   1.367   0.024   6.945 -0.3967 -0.2733 -0.8186
 2003SOL    HW117468   1.433   0.062   6.887  0.8643  0.5641  1.1689
 2003SOL    HW217469   1.391   0.076   7.022  0.3168  0.3215 -1.4420
 2004SOL     OW17470   1.601   4.257   9.125  0.5772  0.2844 -0.2617
 2004SOL    HW117471   1.683   4.222   9.090  0.3246  1.1139 -1.6909
 2004SOL    HW217472   1.563   4.284   9.042 -2.6143  1.1480  1.4837
 2005SOL     OW17473   0.294   4.020  15.419 -0.5554 -0.0672  0.2947
 2005SOL    HW117474   0.316   4.060  15.503  0.4049 -0.8202  0.3992
 2005SOL    HW217475   0.266   4.100  15.374 -0.8287  1.2425  2.8397
 2006SOL     OW17476   3.526   2.569   8.559 -0.1070 -0.2493  0.2079
 2006SOL    HW117477   3.582   2.504   8.601 -1.7023 -1.8541 -0.1788
 2006SOL    HW217478   3.513   2.517   8.480 -0.6124 -0.3040  0.3291
 2007SOL     OW17479   0.198   4.591   5.850  0.2119 -0.2485  0.2961
 2007SOL    HW117480   0.165   4.581   5.939  0.1147  2.4858  0.5871
 2007SOL    HW217481   0.175   4.512   5.801  0.4534  0.8526 -1.5889
 2008SOL     OW17482   3.850   3.231  11.838  0.1379 -0.0343  0.0877
 2008SOL    HW117483   3.837   3.146  11.797  1.1081  0.0731 -0.4348
 2008SOL    HW217484   3.836   3.295  11.769  0.6643 -0.5483 -0.4870
 2009SOL     OW17485   2.927   0.077   2.619  0.1191 -0.7666 -0.7636
 2009SOL    HW117486   3.014   0.070   2.659 -0.7300  0.8352  1.3419
 2009SOL    HW217487   2.909   0.161   2.660 -2.9716 -2.5128  1.4777
 2010SOL     OW17488   1.454   4.302   8.602 -0.2447  0.3318 -0.2997
 2010SOL    HW117489   1.468   4.396   8.617 -1.3873  0.5552 -0.5900
 2010SOL    HW217490   1.389   4.274   8.667  0.8709 -4.2296 -1.1497
 2011SOL     OW17491   1.659   4.322  16.954  0.1545  0.5194  0.3529
 2011SOL    HW117492   1.606   4.286  16.883 -2.4565 -0.0552  2.5955
 2011SOL    HW217493   1.600   4.389  16.988  1.1248  1.2491  0.6074
 2012SOL     OW17494   4.327   1.383   7.734 -0.0518 -0.2850 -0.4154
 2012SOL    HW117495   4.304   1.366   7.643 -1.4897  0.2169 -0.1385
 2012SOL    HW217496   4.417   1.417   7.729  0.9283 -2.4767  2.4044
 2013SOL     OW17497   2.210   0.269   9.730 -0.1594 -0.6156 -0.9016
 2013SOL    HW117498   2.240   0.190   9.686 -1.9398 -1.9575  0.2820
 2013SOL    HW217499   2.258   0.332   9.676 -1.6878  0.9910 -0.3713
 2014SOL     OW17500   0.862   3.448   0.329 -0.2187  0.0240 -0.0441
 2014SOL    HW117501   0.825   3.506   0.395 -0.4324  1.5588 -1.5286
 2014SOL    HW217502   0.883   3.515   0.264 -1.0562 -0.4162 -0.7629
 2015SOL     OW17503   3.185   3.078   2.628 -0.0033  0.3615  0.1721
 2015SOL    HW117504   3.161   3.161   2.589 -0.9528  0.0012 -0.0121
 2015SOL    HW217505   3.227   3.024   2.560  1.4284  1.4830  0.1665
 2016SOL     OW17506   2.488   2.242  12.698  0.5175 -0.0036 -0.1892
 2016SOL    HW117507   2.521   2.275  12.781  1.5993  1.3240 -1.1521
 2016SOL    HW217508   2.564   2.228  12.642  0.8786 -2.7556  0.9658
 2017SOL     OW17509   2.295   0.938   5.079 -0.1629 -0.1083 -0.7260
 2017SOL    HW117510   2.286   0.990   4.999  1.0752 -0.1185 -0.8816
 2017SOL    HW217511   2.218   0.959   5.131  1.1063  3.1291 -0.2037
 2018SOL     OW17512   4.535   4.372   3.370 -0.0686  0.0469  0.3178
 2018SOL    HW117513   4.582   4.424   3.305 -1.0189  0.4077 -0.0925
 2018SOL    HW217514   4.449   4.373   3.327  0.3430  0.2926 -0.4845
 2019SOL     OW17515   2.255   1.722   3.242 -0.8656  0.4735 -0.2863
 2019SOL    HW117516   2.291   1.724   3.153 -0.0842  1.0698  0.0536
 2019SOL    HW217517   2.303   1.789   3.289  0.5428 -1.5950  1.2167
 2020SOL     OW17518   3.984   4.271   3.455  0.5491  0.1916 -0.3453
 2020SOL    HW117519   4.015   4.315   3.534  0.3634  0.1145 -0.2290
 2020SOL    HW217520   3.982   4.340   3.390 -0.2158 -1.5654 -2.1885
 2021SOL     OW17521   2.367   3.673   4.165 -0.3862 -0.5002  0.0070
 2021SOL    HW117522   2.398   3.583   4.155  0.2448 -0.5102  2.1956
 2021SOL    HW217523   2.293   3.669   4.226 -1.7366 -0.1494 -1.5817
 2022SOL     OW17524   2.970   0.021   7.367  0.1134 -0.4911  0.2495
 2022SOL    HW117525   2.939   4.658   7.345  2.5245 -1.0460 -0.8875
 2022SOL    HW217526   3.047   4.721   7.418  2.5613  3.1216 -1.6254
 2023SOL     OW17527   3.640   3.207   7.088  0.4279  0.5964  0.0418
 2023SOL    HW117528   3.640   3.255   7.171  0.9424  1.7475 -0.6171
 2023SOL    HW217529   3.734   3.202   7.070  0.3172  0.7308 -0.5814
 2024SOL     OW17530   3.580   4.313  11.988 -0.1715 -0.1794 -0.3918
 2024SOL    HW117531   3.675   4.317  11.975 -0.0440  0.1432  0.6515
 2024SOL    HW217532   3.537   4.318  11.902 -1.4528 -0.5547  0.2336
 2025SOL     OW17533   0.049   0.949   3.777 -0.4649  0.0108 -0.6266
 2025SOL    HW117534   4.714   0.925   3.847  0.0294  1.6906  0.3865
 2025SOL    HW217535   0.027   1.041   3.764  1.5724  0.5524 -0.2450
 2026SOL     OW17536   2.437   2.137   1.492 -0.8477  1.4357 -0.0074
 2026SOL    HW117537   2.438   2.093   1.577  1.4599 -1.0361 -1.2670
 2026SOL    HW217538   2.486   2.218   1.500 -0.2541  1.1950 -1.1379
 2027SOL     OW17539   0.411   1.577   6.070  0.4137 -0.1448  0.4097
 2027SOL    HW117540   0.393   1.621   6.153 -0.6898  0.7718 -0.3178
 2027SOL    HW217541   0.443   1.653   6.021  0.6084 -0.5342 -0.0621
 2028SOL     OW17542   3.985   4.572   2.987 -0.3073 -0.2110 -0.4762
 2028SOL    HW117543   4.051   4.636   3.014  0.2161 -1.2362  0.6773
 2028SOL    HW217544   3.907   4.628   2.994  0.5881  0.6837  2.5907
 2029SOL     OW17545   2.090   1.392   3.355 -0.7133 -0.0660 -0.0645
 2029SOL    HW117546   2.032   1.435   3.293  0.9745  0.4947 -1.2290
 2029SOL    HW217547   2.104   1.302   3.325  0.0619  0.7017 -2.0172
 2030SOL     OW17548   3.541   0.544  17.025  0.0845 -0.5744 -0.0452
 2030SOL    HW117549   3.535   0.633  17.059  0.7948 -1.1570  1.6465
 2030SOL    HW217550   3.636   0.537  17.017  0.2977  0.4768  1.5715
 2031SOL     OW17551   1.227   4.228   8.757 -0.1384  0.1586 -0.3122
 2031SOL    HW117552   1.172   4.200   8.830  0.6366 -0.1790  0.1369
 2031SOL    HW217553   1.165   4.230   8.683 -0.6342  3.4175  0.1824
 2032SOL     OW17554   1.957   1.645   7.520  0.0834  0.1270  0.1891
 2032SOL    HW117555   1.935   1.720   7.575 -1.7113  1.3225 -2.1937
 2032SOL    HW217556   1.884   1.586   7.540 -0.4791 -0.7148 -4.3228
 2033SOL     OW17557   3.478   4.424   6.436 -0.1294 -0.3647  0.7509
 2033SOL    HW117558   3.506   4.414   6.527 -0.6623  1.1600  1.0809
 2033SOL    HW217559   3.512   4.513   6.428  2.1524 -1.5356 -2.4849
 2034SOL     OW17560   3.362   1.827   4.222 -0.3862  0.2600  0.1491
 2034SOL    HW117561   3.450   1.795   4.202 -0.1640  0.1077  1.3541
 2034SOL    HW217562   3.382   1.918   4.243  0.2558 -0.1728  1.4066
 2035SOL     OW17563   2.594   2.509   6.129  0.0722  0.9370 -0.2745
 2035SOL    HW117564   2.567   2.570   6.060 -0.6336 -0.2061 -1.0096
 2035SOL    HW217565   2.616   2.578   6.191  1.0954 -1.5565  2.1241
 2036SOL     OW17566   2.746   4.470   3.463  0.6516 -0.1025  0.3028
 2036SOL    HW117567   2.785   4.383   3.452 -0.4695 -0.5152 -0.4483
 2036SOL    HW217568   2.789   4.501   3.542 -1.1603 -0.5594  1.4738
 2037SOL     OW17569   1.272   2.157   7.943 -0.2173 -0.1845  0.8378
 2037SOL    HW117570   1.360   2.145   7.979 -0.0703 -0.0160  0.5298
 2037SOL    HW217571   1.264   2.251   7.957 -1.1405 -0.0795 -0.4477
 2038SOL     OW17572   4.007   0.369   6.856 -0.4082 -0.2640  0.0562
 2038SOL    HW117573   4.029   0.454   6.893  0.5205 -0.8262  0.7611
 2038SOL    HW217574   4.092   0.340   6.825  0.3511  1.5077  0.4558
 2039SOL     OW17575   1.513   4.636   7.496  0.2219  0.0303 -0.4679
 2039SOL    HW117576   1.538   4.629   7.404 -1.1983 -3.5721 -0.5594
 2039SOL    HW217577   1.571   4.698   7.541  1.7046 -2.0607  0.4657
 2040SOL     OW17578   4.117   2.432   9.012  0.0912  0.7542  0.1403
 2040SOL    HW117579   4.145   2.380   8.937 -1.2381 -0.0947  0.2381
 2040SOL    HW217580   4.196   2.457   9.061  1.2410 -1.8472 -0.3552
 2041SOL     OW17581   0.014   3.157   7.960 -0.1800  0.4784  0.6901
 2041SOL    HW117582   4.651   3.128   7.937  0.4305  0.0478 -1.1456
 2041SOL    HW217583   0.023   3.236   7.907 -0.8319  0.7136  0.9431
 2042SOL     OW17584   3.504   1.574   9.388 -0.2095  0.1787 -0.5513
 2042SOL    HW117585   3.432   1.522   9.351  0.1940  0.4471 -1.7345
 2042SOL    HW217586   3.533   1.613   9.305 -0.2894 -1.1329 -1.2059
 2043SOL     OW17587   0.635   4.001   6.656 -0.3699  0.0433  0.3788
 2043SOL    HW117588   0.717   4.042   6.629 -1.5014  2.5598  0.7780
 2043SOL    HW217589   0.602   4.069   6.714 -1.9155 -1.1214  0.8625
 2044SOL     OW17590   1.487   0.625   3.062  0.4323  0.4099 -0.2096
 2044SOL    HW117591   1.425   0.671   3.005 -1.0407  0.9208  1.8474
 2044SOL    HW217592   1.429   0.559   3.098  0.1215  0.4344 -0.6590
 2045SOL     OW17593   1.073   0.174   2.280 -0.0954 -0.6824 -0.4629
 2045SOL    HW117594   1.149   0.180   2.223  1.0461 -1.4968  0.9608
 2045SOL    HW217595   1.008   0.186   2.212 -1.5900  2.4489  1.5320
 2046SOL     OW17596   2.107   2.967   8.694 -0.1175  0.4195 -0.0928
 2046SOL    HW117597   2.174   2.925   8.748  1.3468  2.0624 -0.6447
 2046SOL    HW217598   2.077   3.023   8.766  2.1609 -1.4316  2.3177
 2047SOL     OW17599   3.560   4.358   7.451  0.5594  0.0411  0.4073
 2047SOL    HW117600   3.632   4.420   7.456  0.2172  0.2536  3.1849
 2047SOL    HW217601   3.580   4.313   7.533 -0.3918 -0.9156  0.1138
 2048SOL     OW17602   2.818   1.592   1.900 -0.0249 -0.1144  0.6029
 2048SOL    HW117603   2.865   1.656   1.847  1.2621 -1.0703  0.6155
 2048SOL    HW217604   2.769   1.640   1.967  0.1137  0.6773  0.1283
 2049SOL     OW17605   4.631   3.532  16.165 -0.0338  0.0140  0.3947
 2049SOL    HW117606   4.662   3.511  16.076  0.9947  0.2030  0.7027
 2049SOL    HW217607   4.593   3.448  16.189  0.7788 -0.2817  0.6333
 2050SOL     OW17608   2.641   1.007   0.022 -0.2661  0.7307  0.3883
 2050SOL    HW117609   2.730   1.012  17.689  0.1265 -2.8921  0.8133
 2050SOL    HW217610   2.667   1.023   0.113  1.3962  1.6024 -0.2217
 2051SOL     OW17611   0.433   2.269   4.236  0.5890 -0.3737  0.1314
 2051SOL    HW117612   0.462   2.313   4.316 -0.2205 -0.0635  0.2588
 2051SOL    HW217613   0.517   2.256   4.193 -0.2207 -1.4283 -1.1118
 2052SOL     OW17614   0.495   1.334   5.977  0.1906  0.1423 -0.5241
 2052SOL    HW117615   0.477   1.418   6.018 -0.8049  0.2384 -1.1805
 2052SOL    HW217616   0.407   1.300   5.961 -0.5083 -0.1236  3.8612
 2053SOL     OW17617   4.158   0.162   2.844  0.3167 -0.0409  0.7244
 2053SOL    HW117618   4.073   0.123   2.822  0.6867 -0.5549  0.2095
 2053SOL    HW217619   4.136   0.202   2.928 -1.6018  2.7694 -1.0719
 2054SOL     OW17620   0.816   4.667   9.242 -0.2235 -0.0922 -0.1049
 2054SOL    HW117621   0.887   4.664   9.306  0.6290 -1.2290 -1.0936
 2054SOL    HW217622   0.751   4.711   9.296  0.3022  0.6560 -0.0769
 2055SOL     OW17623   1.112   3.117   6.403 -0.0334 -0.1019  0.0847
 2055SOL    HW117624   1.203   3.091   6.392  0.3988  2.2480 -1.8489
 2055SOL    HW217625   1.079   3.086   6.318  0.3182  0.5278 -0.2786
 2056SOL     OW17626   4.487   3.973  16.631 -0.3491  0.6000 -0.5992
 2056SOL    HW117627   4.498   3.879  16.617  0.5096  0.4723  0.8888
 2056SOL    HW217628   4.432   3.997  16.557 -1.2918  1.7418  0.4804
 2057SOL     OW17629   3.817   0.320   6.421  0.2340  0.1563 -0.0162
 2057SOL    HW117630   3.742   0.375   6.399 -1.1835 -1.1306  1.6758
 2057SOL    HW217631   3.854   0.298   6.335 -0.0913  1.6919 -0.5497
 2058SOL     OW17632   0.379   1.660   5.535  0.3862  0.6669  0.5153
 2058SOL    HW117633   0.337   1.606   5.602 -0.1143  1.7905  1.0898
 2058SOL    HW217634   0.467   1.626   5.523  0.3445  0.0747  1.8794
 2059SOL     OW17635   0.164   1.965   4.816  0.0586  0.2074  0.1050
 2059SOL    HW117636   0.077   1.994   4.844 -0.3756  0.1121 -1.1264
 2059SOL    HW217637   0.200   2.045   4.777 -1.0748  0.1691 -1.0171
 2060SOL     OW17638   0.170   1.227  12.009  0.3835  0.3017  0.3669
 2060SOL    HW117639   0.146   1.136  11.993 -0.4012  1.1102 -2.9899
 2060SOL    HW217640   0.105   1.272  11.954 -1.5135 -2.9521 -0.0684
 2061SOL     OW17641   1.961   0.121   9.183  0.5890  0.1322  0.1499
 2061SOL    HW117642   1.995   0.133   9.272 -1.6841 -0.8652  1.1720
 2061SOL    HW217643   2.035   0.069   9.153  0.0274 -0.7444  0.2695
 2062SOL     OW17644   4.186   3.596   7.305 -0.5036  0.5953 -0.5953
 2062SOL    HW117645   4.273   3.603   7.345 -1.1809  1.8141  0.6559
 2062SOL    HW217646   4.190   3.657   7.232 -0.3957 -2.1096 -2.8671
 2063SOL     OW17647   1.355   1.835  11.864 -0.0207 -0.8065  0.5049
 2063SOL    HW117648   1.326   1.759  11.814 -0.9661 -1.1232  1.5478
 2063SOL    HW217649   1.414   1.786  11.921  0.8710 -0.9955 -0.5780
 2064SOL     OW17650   2.229   0.056  14.251  0.3101 -0.3160 -0.1932
 2064SOL    HW117651   2.162   0.091  14.311  0.7572  0.9252 -0.4243
 2064SOL    HW217652   2.272   0.132  14.212  2.2675 -0.3280  1.8932
 2065SOL     OW17653   2.182   0.067   1.649 -0.0182 -0.8098 -0.0199
 2065SOL    HW117654   2.257   0.125   1.652  0.8418 -1.9586  0.8007
 2065SOL    HW217655   2.188   0.036   1.558  0.4491 -1.2406  0.1611
 2066SOL     OW17656   1.756   3.861   5.819  0.4168 -0.2189  0.3664
 2066SOL    HW117657   1.763   3.955   5.832 -1.0003 -0.0578 -0.1363
 2066SOL    HW217658   1.687   3.840   5.756  0.7363  1.4700 -0.5490
 2067SOL     OW17659   2.770   4.675   5.734  0.2203 -0.3245  0.1055
 2067SOL    HW117660   2.847   4.668   5.677 -0.5792 -1.7800 -0.8019
 2067SOL    HW217661   2.798   4.621   5.808  1.3501  0.8182  0.5127
 2068SOL     OW17662   2.272   2.026   6.452 -0.7565  0.6725 -0.5970
 2068SOL    HW117663   2.281   2.053   6.543  1.1334 -1.2021 -0.2384
 2068SOL    HW217664   2.295   2.106   6.405  1.8175 -0.0378 -0.5400
 2069SOL     OW17665   2.142   1.440   8.237  0.3567  0.6552  0.3434
 2069SOL    HW117666   2.160   1.426   8.330 -0.5017  3.1848  0.8701
 2069SOL    HW217667   2.181   1.527   8.238 -1.6165  1.5171 -0.0015
 2070SOL     OW17668   2.149   2.794   3.385  0.2037  0.4336  0.3628
 2070SOL    HW117669   2.055   2.779   3.370  0.2145 -1.1596  1.9604
 2070SOL    HW217670   2.176   2.827   3.299  0.5824 -0.4824  0.1294
 2071SOL     OW17671   2.566   4.514   1.584  0.1064 -0.3321 -0.3971
 2071SOL    HW117672   2.546   4.603   1.556 -4.5460 -0.5610  2.2596
 2071SOL    HW217673   2.479   4.481   1.605 -0.3924 -0.9428 -3.4512
 2072SOL     OW17674   2.147   2.234  10.390  0.5917  0.6694 -0.5832
 2072SOL    HW117675   2.150   2.294  10.465 -0.2148  1.3721 -1.1218
 2072SOL    HW217676   2.061   2.249  10.353  0.7518  0.2888 -1.1035
 2073SOL     OW17677   1.030   3.213   0.377  0.9718  0.4637  0.2358
 2073SOL    HW117678   0.958   3.266   0.340  0.9497  0.3723  0.1485
 2073SOL    HW217679   0.976   3.134   0.384  0.0452  0.9657 -1.1405
 2074SOL     OW17680   2.766   0.676  14.955  0.5788  0.3161 -0.2924
 2074SOL    HW117681   2.724   0.737  15.015  0.4384 -0.5039  0.4521
 2074SOL    HW217682   2.722   0.592  14.967 -1.3001  1.2597 -0.5850
 2075SOL     OW17683   3.859   1.862   4.836  0.3518 -0.1388 -0.1107
 2075SOL    HW117684   3.863   1.823   4.749  1.7370  0.0155 -0.1049
 2075SOL    HW217685   3.794   1.930   4.821 -0.7445 -1.2424 -0.4131
 2076SOL     OW17686   3.113   4.331   5.128  0.3139 -0.3820 -0.5970
 2076SOL    HW117687   3.101   4.421   5.097 -2.7361 -1.2090 -1.8111
 2076SOL    HW217688   3.036   4.279   5.106 -0.5303  0.3723  0.5656
 2077SOL     OW17689   2.751   2.725   6.273 -0.8755  0.0197 -0.4840
 2077SOL    HW117690   2.711   2.810   6.256 -2.6157  0.1310  4.2953
 2077SOL    HW217691   2.839   2.742   6.240 -1.5953  0.0126 -2.4444
 2078SOL     OW17692   1.095   3.851   2.079  0.1523 -0.1814  0.0904
 2078SOL    HW117693   1.049   3.934   2.094 -1.2298 -0.6897 -1.2331
 2078SOL    HW217694   1.145   3.838   2.159 -0.8572  0.3633  0.8123
 2079SOL     OW17695   0.592   0.076  10.938 -0.2856  0.1152  0.3847
 2079SOL    HW117696   0.624   0.055  11.026  2.0065  4.9183  0.7234
 2079SOL    HW217697   0.647   0.026  10.878 -1.3245 -0.7287  0.1504
 2080SOL     OW17698   0.020   0.459   2.466  0.1026 -0.1283  0.4263
 2080SOL    HW117699   0.062   0.379   2.433  2.4658  0.2216  2.5389
 2080SOL    HW217700   4.689   0.486   2.394  0.7124  0.8398  0.3180
 2081SOL     OW17701   3.985   4.719   4.051 -0.0288  0.0033  0.3187
 2081SOL    HW117702   4.061   4.688   4.100 -1.0910 -2.1846  0.5720
 2081SOL    HW217703   4.011   0.067   3.996 -0.4411 -0.8136 -0.9604
 2082SOL     OW17704   1.490   4.394   6.899  0.0183  0.0113 -0.3532
 2082SOL    HW117705   1.571   4.439   6.924 -0.4234 -0.6665  2.2469
 2082SOL    HW217706   1.476   4.435   6.814  1.1817  1.2309  0.0491
 2083SOL     OW17707   3.568   3.351   3.077 -0.2036 -0.3089 -0.4924
 2083SOL    HW117708   3.500   3.383   3.017  0.2403  0.7542 -0.4110
 2083SOL    HW217709   3.642   3.402   3.046  1.0232 -1.5115  0.4429
 2084SOL     OW17710   0.355   2.105   2.715 -0.5473 -0.1016 -0.0351
 2084SOL    HW117711   0.405   2.162   2.657  0.6333 -1.3841 -0.2686
 2084SOL    HW217712   0.431   2.081   2.766 -0.8397  0.2881  0.5871
 2085SOL     OW17713   2.683   0.459   5.436 -0.5416 -0.2520  0.2889
 2085SOL    HW117714   2.736   0.387   5.403 -0.3878  0.4437 -0.9858
 2085SOL    HW217715   2.726   0.533   5.393 -0.9033 -1.1953 -1.6889
 2086SOL     OW17716   2.418   2.160   8.904  0.5870  0.1923 -0.1167
 2086SOL    HW117717   2.392   2.250   8.881 -2.1370 -0.3255  0.9799
 2086SOL    HW217718   2.453   2.138   8.818 -0.4095  2.3268 -1.0588
 2087SOL     OW17719   3.610   0.722   9.246 -0.1064  0.3773  0.0056
 2087SOL    HW117720   3.705   0.710   9.249 -0.0085  0.5421 -2.0205
 2087SOL    HW217721   3.586   0.711   9.338 -0.6812 -0.8790 -0.2898
 2088SOL     OW17722   0.096   1.515   3.826 -0.4469  0.0297  0.2290
 2088SOL    HW117723   0.173   1.538   3.773 -0.8933  0.8654 -0.0530
 2088SOL    HW217724   0.028   1.501   3.761  0.3702  1.3643 -0.9104
 2089SOL     OW17725   4.409   2.057   6.736  0.0563  0.6974  0.0387
 2089SOL    HW117726   4.473   2.021   6.675 -2.1495 -2.5497 -0.3896
 2089SOL    HW217727   4.349   2.096   6.673  1.3985 -0.5233 -1.9934
 2090SOL     OW17728   4.497   1.070   6.928  0.1768  0.1783  0.0422
 2090SOL    HW117729   4.506   0.977   6.907 -2.0368  0.0968 -0.6068
 2090SOL    HW217730   4.456   1.073   7.015  0.9789  0.8079  0.3859
 2091SOL     OW17731   1.115   3.437   9.601 -0.3459  0.0080 -0.2074
 2091SOL    HW117732   1.186   3.437   9.665 -2.7433  1.6717  2.4160
 2091SOL    HW217733   1.065   3.368   9.644 -0.9968  0.2874 -0.5160
 2092SOL     OW17734   3.109   2.761  15.655 -0.3507 -0.6413  0.2351
 2092SOL    HW117735   3.086   2.854  15.659 -0.9593 -0.7461 -0.7747
 2092SOL    HW217736   3.119   2.742  15.562  2.4612  1.0983  0.1815
 2093SOL     OW17737   0.622   3.937   1.733 -0.2984  0.2882  0.7773
 2093SOL    HW117738   0.709   3.943   1.693 -0.7380 -2.4444 -0.5325
 2093SOL    HW217739   0.642   3.920   1.825 -1.5286  0.7637  1.1294
 2094SOL     OW17740   1.881   1.473   3.574  0.0945 -0.2002  0.5106
 2094SOL    HW117741   1.906   1.553   3.528  1.0344  0.1353  1.6108
 2094SOL    HW217742   1.929   1.398   3.539  0.5799 -0.0768  0.9229
 2095SOL     OW17743   0.723   3.984  10.488 -0.0388 -0.2027  0.7412
 2095SOL    HW117744   0.683   4.071  10.495  0.3217 -0.1530  2.1669
 2095SOL    HW217745   0.786   4.004  10.419 -0.0894 -1.8554  0.2217
 2096SOL     OW17746   3.760   1.528  16.604 -0.1417 -0.1198 -0.4030
 2096SOL    HW117747   3.728   1.438  16.610  2.9179 -0.9341  3.1892
 2096SOL    HW217748   3.781   1.528  16.510  0.9369 -2.1252 -0.1666
 2097SOL     OW17749   1.932   2.638   3.405 -0.0507  0.5340 -0.0176
 2097SOL    HW117750   1.918   2.565   3.345  0.4139  0.7836 -0.4318
 2097SOL    HW217751   1.913   2.592   3.487 -1.8638 -0.0772 -0.7896
 2098SOL     OW17752   2.729   1.315   7.803 -0.1398 -0.7822  0.3760
 2098SOL    HW117753   2.650   1.368   7.807  0.3548  0.0837 -1.2469
 2098SOL    HW217754   2.720   1.256   7.877 -2.6473 -1.5334 -0.5504
 2099SOL     OW17755   1.186   2.222   2.476 -0.2176 -0.2401 -0.2777
 2099SOL    HW117756   1.138   2.192   2.399  2.3941  1.3852 -2.5642
 2099SOL    HW217757   1.277   2.210   2.449  0.2589 -0.7569  1.5451
 2100SOL     OW17758   3.806   0.353  15.503  0.3972  0.2848  0.4144
 2100SOL    HW117759   3.770   0.440  15.487 -1.3182 -0.1063  2.1420
 2100SOL    HW217760   3.819   0.323  15.413 -0.3641  3.1107 -0.6545
 2101SOL     OW17761   1.665   1.092  10.276  0.2366  0.4836  0.5392
 2101SOL    HW117762   1.569   1.084  10.276  0.2728  0.0038 -1.8613
 2101SOL    HW217763   1.687   1.040  10.353  1.1700 -1.3573 -0.9578
 2102SOL     OW17764   0.420   0.556   4.240  0.1886 -0.3036  0.1770
 2102SOL    HW117765   0.472   0.527   4.165  1.5030  1.3699  0.4354
 2102SOL    HW217766   0.463   0.641   4.254  0.1569 -0.1746 -0.5061
 2103SOL     OW17767   0.647   3.682  10.133  0.1464  0.3084  0.0556
 2103SOL    HW117768   0.555   3.697  10.156 -0.6349 -1.0434 -2.1436
 2103SOL    HW217769   0.686   3.750  10.188  0.4522 -0.0501  0.2778
 2104SOL     OW17770   1.880   2.158   7.332 -0.1189  0.1690 -0.1976
 2104SOL    HW117771   1.923   2.129   7.251  0.4277 -1.3776  0.6456
 2104SOL    HW217772   1.930   2.108   7.397  0.3428  1.1894  0.2374
 2105SOL     OW17773   2.040   0.434  16.261 -0.1900  0.3266  0.1146
 2105SOL    HW117774   2.134   0.412  16.264 -1.0400 -3.1406  1.1117
 2105SOL    HW217775   2.019   0.479  16.343  1.5422  0.8706  0.2654
 2106SOL     OW17776   0.817   2.301   6.331  0.0363  0.0340 -0.0905
 2106SOL    HW117777   0.867   2.299   6.413 -0.1175  3.5744  0.0979
 2106SOL    HW217778   0.745   2.357   6.359 -0.7223 -2.3711  2.7285
 2107SOL     OW17779   3.370   3.029   3.359 -0.5291  0.2879  0.2584
 2107SOL    HW117780   3.455   2.989   3.376  0.5884  2.2661 -0.7219
 2107SOL    HW217781   3.366   3.039   3.264 -1.5827 -0.8210  0.1858
 2108SOL     OW17782   1.819   3.043  15.522 -0.9598  0.6724 -0.3264
 2108SOL    HW117783   1.898   3.066  15.474 -0.5660  0.6871  0.3342
 2108SOL    HW217784   1.852   3.024  15.610 -0.3000  0.1293 -0.6971
 2109SOL     OW17785   1.450   1.153   1.498  0.1188  0.1477 -0.0396
 2109SOL    HW117786   1.519   1.106   1.451  1.2127  2.9040 -1.2011
 2109SOL    HW217787   1.488   1.237   1.524  0.9169 -0.0840 -0.4289
 2110SOL     OW17788   3.384   2.036  14.886  0.1990 -0.3813 -0.7054
 2110SOL    HW117789   3.352   1.947  14.869  1.0359 -0.7504 -0.3132
 2110SOL    HW217790   3.319   2.088  14.839 -0.3224  0.4723  0.9762
 2111SOL     OW17791   1.842   3.151  16.676  0.4641  0.7877  0.0999
 2111SOL    HW117792   1.820   3.113  16.761 -1.0350 -0.1904 -0.7266
 2111SOL    HW217793   1.761   3.198  16.655  0.4151  1.5095  1.8544
 2112SOL     OW17794   3.857   2.362   9.298  0.3573  0.7995 -0.5978
 2112SOL    HW117795   3.950   2.352   9.276  0.2931  1.3439 -1.0898
 2112SOL    HW217796   3.834   2.449   9.266  0.6052  1.3304  0.6497
 2113SOL     OW17797   1.577   4.614  11.997  0.3517  0.0338  0.0076
 2113SOL    HW117798   1.668   4.638  11.977  0.5242 -0.3351  0.3515
 2113SOL    HW217799   1.585   4.544  12.062 -1.1290  0.2941  0.4640
 2114SOL     OW17800   1.392   3.872   9.230 -0.0400  0.2455 -0.0543
 2114SOL    HW117801   1.404   3.780   9.206 -0.0688  0.5531 -1.2441
 2114SOL    HW217802   1.471   3.918   9.200 -0.1971  0.1880 -0.5477
 2115SOL     OW17803   3.153   0.894   0.003  0.2142 -0.8314 -0.1679
 2115SOL    HW117804   3.214   0.952  17.660  0.3603 -1.2024 -0.4364
 2115SOL    HW217805   3.203   0.869   0.080 -0.0229  2.3985  1.0500
 2116SOL     OW17806   0.680   1.082   2.667  0.1539  0.3263  0.2019
 2116SOL    HW117807   0.702   1.058   2.578  1.9241 -2.9181  1.5517
 2116SOL    HW217808   0.600   1.031   2.681  0.1587 -0.8777 -4.2299
 2117SOL     OW17809   3.603   3.996  14.936 -0.7625 -0.1448  0.2774
 2117SOL    HW117810   3.681   3.942  14.945 -0.3882  0.3419 -0.0061
 2117SOL    HW217811   3.628   4.072  14.989 -1.3587  0.1551  0.1302
 2118SOL     OW17812   3.312   3.794  13.784  0.1826 -0.6839  0.1343
 2118SOL    HW117813   3.272   3.811  13.869  1.7072 -0.1542  0.7415
 2118SOL    HW217814   3.310   3.879  13.740  0.3290 -0.2505  0.9606
 2119SOL     OW17815   4.281   2.144   6.504  0.3637  0.5923  0.1983
 2119SOL    HW117816   4.294   2.065   6.452 -2.5010  1.3824 -1.7564
 2119SOL    HW217817   4.348   2.200   6.465  2.5438 -2.2254 -0.0687
 2120SOL     OW17818   3.400   1.153   6.977 -0.4980 -0.3125 -0.2227
 2120SOL    HW117819   3.337   1.117   6.915  0.3729 -1.9539 -0.1447
 2120SOL    HW217820   3.345   1.149   7.055  0.3827 -2.3601  0.2829
 2121SOL     OW17821   1.354   2.212   0.326  0.0155 -0.2631  0.7109
 2121SOL    HW117822   1.317   2.172   0.247 -0.7070  1.9720 -0.0832
 2121SOL    HW217823   1.426   2.149   0.336  0.9752  0.7011 -0.0657
 2122SOL     OW17824   1.865   0.304   5.643 -0.3674 -0.1162  0.1615
 2122SOL    HW117825   1.948   0.326   5.686 -0.1904  2.0394 -1.2585
 2122SOL    HW217826   1.799   0.354   5.692 -1.4344 -0.8910 -0.4952
 2123SOL     OW17827   0.833   1.932  14.641 -0.4365  0.3073  1.0730
 2123SOL    HW117828   0.766   2.001  14.645 -0.0494  0.7894 -0.6203
 2123SOL    HW217829   0.896   1.979  14.586  0.8842 -0.2851  2.0835
 2124SOL     OW17830   2.972   1.888   9.120  0.2561  0.0545 -0.2522
 2124SOL    HW117831   2.899   1.940   9.150 -0.0821 -0.1510 -0.7143
 2124SOL    HW217832   3.043   1.951   9.134  0.9827 -0.6466 -0.7650
 2125SOL     OW17833   0.720   0.428  12.647 -0.1854 -0.1138 -0.1692
 2125SOL    HW117834   0.632   0.396  12.627 -0.3337  0.3866 -0.2970
 2125SOL    HW217835   0.734   0.490  12.576 -1.1490 -1.4109 -1.5061
 2126SOL     OW17836   1.768   3.840   7.307  0.4967 -0.1604 -0.0758
 2126SOL    HW117837   1.759   3.757   7.259 -1.2978  0.2033 -0.3685
 2126SOL    HW217838   1.794   3.897   7.234  1.8928 -0.3131  0.2913
 2127SOL     OW17839   1.779   3.643   6.255 -0.2290  0.5756 -0.2876
 2127SOL    HW117840   1.700   3.661   6.204  0.4414 -1.4282 -1.9980
 2127SOL    HW217841   1.822   3.574   6.204 -2.8600  0.0294 -1.7574
 2128SOL     OW17842   2.816   3.421   1.307  0.0377  0.0707  0.2089
 2128SOL    HW117843   2.892   3.463   1.347 -0.3262 -0.5511  1.5562
 2128SOL    HW217844   2.795   3.367   1.384 -0.1710 -0.6573 -0.3630
 2129SOL     OW17845   3.902   1.690   0.456 -0.5861 -0.1637 -0.0844
 2129SOL    HW117846   3.980   1.745   0.452 -1.0298  0.4935  0.2241
 2129SOL    HW217847   3.935   1.611   0.499 -0.2025  0.3755  0.6051
 2130SOL     OW17848   2.140   2.672   3.646  0.1131  0.4897  0.0783
 2130SOL    HW117849   2.145   2.696   3.553 -0.6339  2.2076  0.4697
 2130SOL    HW217850   2.071   2.605   3.644  0.9918 -0.4743  2.8018
 2131SOL     OW17851   1.718   1.908   1.239 -0.4361 -0.0191 -0.0534
 2131SOL    HW117852   1.702   1.978   1.176  1.4823  1.0432  0.6389
 2131SOL    HW217853   1.765   1.958   1.306 -0.0365 -0.4777  0.0099
 2132SOL     OW17854   3.749   3.750   3.649  0.2629  0.5031 -0.3992
 2132SOL    HW117855   3.834   3.713   3.675 -0.3066 -0.4717  0.0807
 2132SOL    HW217856   3.691   3.735   3.724 -0.6018 -0.2117 -1.2121
 2133SOL     OW17857   0.222   1.859   3.204  0.2526 -0.5499  0.7719
 2133SOL    HW117858   0.135   1.827   3.180  0.4805 -0.2797 -0.4281
 2133SOL    HW217859   0.223   1.943   3.157  0.0896  0.7800  3.1541
 2134SOL     OW17860   1.317   2.940  10.493  0.5348 -0.8901  0.7279
 2134SOL    HW117861   1.277   2.862  10.531  0.8478 -1.4320 -0.0387
 2134SOL    HW217862   1.282   3.011  10.545 -2.1720 -1.5803 -0.1456
 2135SOL     OW17863   0.174   2.207   9.260  0.1096  0.0191  0.0581
 2135SOL    HW117864   0.113   2.274   9.229  0.1451  0.4403  0.8960
 2135SOL    HW217865   0.193   2.170   9.174  0.2730  1.9836 -0.7609
 2136SOL     OW17866   1.209   2.573   5.883  0.1733  0.1344 -0.0863
 2136SOL    HW117867   1.154   2.554   5.806 -1.8419  0.9149  1.1543
 2136SOL    HW217868   1.212   2.489   5.927  0.2103  1.6872  2.8684
 2137SOL     OW17869   3.454   3.589   9.787 -0.8816 -0.0654  0.1533
 2137SOL    HW117870   3.411   3.515   9.744 -1.4460  1.6709 -2.2923
 2137SOL    HW217871   3.386   3.625   9.843 -1.8255 -0.4447 -0.7506
 2138SOL     OW17872   2.265   4.608   5.686  0.2509 -0.2515  0.1278
 2138SOL    HW117873   2.348   4.649   5.709 -0.2514  0.1890  1.1915
 2138SOL    HW217874   2.244   4.597   5.779 -1.6289 -1.4780 -0.4500
 2139SOL     OW17875   2.061   1.248   8.574  0.3073 -0.0330 -0.3650
 2139SOL    HW117876   2.115   1.256   8.653 -0.2314 -2.8463  0.2681
 2139SOL    HW217877   1.976   1.283   8.601  0.7025 -1.2199  2.4745
 2140SOL     OW17878   4.662   3.890   2.695  0.5516  0.6727 -0.1447
 2140SOL    HW117879   4.618   3.911   2.777 -0.6476 -0.0305 -0.6063
 2140SOL    HW217880   0.002   3.824   2.718  0.8948  0.4346 -1.8128
 2141SOL     OW17881   0.568   2.657   3.138  0.0666 -0.4385  0.0182
 2141SOL    HW117882   0.634   2.652   3.069 -0.2193  2.6417 -0.4632
 2141SOL    HW217883   0.564   2.563   3.160 -0.3332 -0.3455  0.3391
 2142SOL     OW17884   0.215   0.775  15.239 -0.4634  0.1553  0.3688
 2142SOL    HW117885   0.137   0.793  15.292 -1.6691  2.0791 -2.0792
 2142SOL    HW217886   0.234   0.863  15.205  2.8596 -0.4124  0.7442
 2143SOL     OW17887   1.953   2.455  10.810 -0.4899 -0.5467  0.0099
 2143SOL    HW117888   1.910   2.540  10.819  1.5810  0.5119  0.0198
 2143SOL    HW217889   1.889   2.390  10.839  0.8723 -1.5230  0.8425
 2144SOL     OW17890   2.152   1.858   8.999  0.0970  0.2188  0.1709
 2144SOL    HW117891   2.241   1.882   9.024 -0.3940  0.6627  1.5250
 2144SOL    HW217892   2.156   1.764   9.016 -0.2665  0.0155 -0.8872
 2145SOL     OW17893   1.493   2.079   1.474 -0.2477  0.2520 -0.1603
 2145SOL    HW117894   1.489   1.991   1.511 -2.1593  0.6664  0.6341
 2145SOL    HW217895   1.463   2.066   1.384 -2.2068  2.7670  0.1150
 2146SOL     OW17896   3.828   0.481   7.271  0.3357 -0.0609 -0.3172
 2146SOL    HW117897   3.922   0.474   7.291 -0.3390 -2.1274  2.1606
 2146SOL    HW217898   3.815   0.574   7.255  0.6875 -0.0287 -0.4128
 2147SOL     OW17899   2.201   2.930  10.553  0.4461 -0.2290  0.0411
 2147SOL    HW117900   2.234   2.864  10.493 -1.0149 -2.4861  1.7309
 2147SOL    HW217901   2.279   2.979  10.580  0.2344  0.3518 -0.3904
 2148SOL     OW17902   1.592   0.715   3.596  0.0065  0.9042 -0.2451
 2148SOL    HW117903   1.580   0.790   3.537  1.0721 -1.2799 -3.2476
 2148SOL    HW217904   1.687   0.712   3.596 -0.0216 -0.4363  2.2395
 2149SOL     OW17905   4.229   2.161   2.032  0.2436  0.0847 -1.1197
 2149SOL    HW117906   4.296   2.145   2.099  0.8418 -0.0226 -1.7357
 2149SOL    HW217907   4.272   2.103   1.969 -3.1464 -1.8289 -1.6333
 2150SOL     OW17908   0.549   3.231   9.989  0.6971  0.7052 -0.4258
 2150SOL    HW117909   0.601   3.302  10.025  0.3836  1.2290 -1.0025
 2150SOL    HW217910   0.581   3.148  10.024 -0.5649  0.0210 -0.8802
 2151SOL     OW17911   2.146   2.250   6.892 -0.0979 -0.4468 -0.3714
 2151SOL    HW117912   2.068   2.295   6.924 -0.6028 -1.6589  0.0920
 2151SOL    HW217913   2.168   2.189   6.962 -0.2281 -0.9046 -0.7271
 2152SOL     OW17914   2.606   3.218   1.713 -0.2494 -0.2173 -0.2922
 2152SOL    HW117915   2.672   3.222   1.645  0.3365 -3.5664  0.0533
 2152SOL    HW217916   2.532   3.252   1.663  0.1250  0.3535 -0.4543
 2153SOL     OW17917   2.638   1.842   4.172  0.1978  0.7066  0.2518
 2153SOL    HW117918   2.614   1.934   4.182 -0.2443  0.7105 -0.7748
 2153SOL    HW217919   2.727   1.829   4.140 -0.3010 -0.0794 -0.8151
 2154SOL     OW17920   4.152   3.360   5.568  0.0886 -0.1428 -0.3181
 2154SOL    HW117921   4.197   3.442   5.551 -1.7436  1.5803  3.2305
 2154SOL    HW217922   4.208   3.324   5.636  1.3238  1.0759 -0.7061
 2155SOL     OW17923   2.243   3.035   6.333 -0.2228  0.0778  0.1344
 2155SOL    HW117924   2.243   2.956   6.278 -0.1253  0.0782  0.1340
 2155SOL    HW217925   2.156   3.068   6.314 -0.0033  0.6805  0.1865
 2156SOL     OW17926   1.322   2.199   4.146  0.1167  0.0673 -0.1318
 2156SOL    HW117927   1.350   2.267   4.085 -0.1860  0.3987  0.0965
 2156SOL    HW217928   1.230   2.181   4.124 -0.6892  2.6838  1.1933
 2157SOL     OW17929   4.607   0.650   4.297  0.1851  0.2118  0.0040
 2157SOL    HW117930   4.583   0.742   4.289  2.1113  0.7378  0.3156
 2157SOL    HW217931   4.650   0.645   4.212  0.3168  3.1066 -0.1033
 2158SOL     OW17932   3.340   4.574  12.920 -0.2741 -0.3389  0.3627
 2158SOL    HW117933   3.305   4.547  12.835  0.8175  2.0348 -0.8565
 2158SOL    HW217934   3.425   4.608  12.891  0.0184 -1.1790  0.2512
 2159SOL     OW17935   4.307   0.698   4.551 -0.4740  0.1116 -0.4489
 2159SOL    HW117936   4.382   0.727   4.604 -0.3691 -1.2541  0.1278
 2159SOL    HW217937   4.253   0.776   4.564 -0.7388 -0.3449  1.0907
 2160SOL     OW17938   3.380   4.013   6.952  0.6000 -0.4139 -0.1460
 2160SOL    HW117939   3.402   3.929   6.913  4.0220 -0.2614  1.4800
 2160SOL    HW217940   3.449   4.071   6.921 -2.2208  1.9876 -1.9223
 2161SOL     OW17941   3.919   0.843   4.101  0.3363 -0.0713 -0.6069
 2161SOL    HW117942   3.993   0.797   4.140  0.5821  1.5843  0.8398
 2161SOL    HW217943   3.931   0.938   4.110 -0.1798 -0.1209  0.5163
 2162SOL     OW17944   1.659   1.789   3.213 -0.1387 -0.1622 -0.0684
 2162SOL    HW117945   1.564   1.794   3.203 -0.3555  0.5068  2.2724
 2162SOL    HW217946   1.671   1.860   3.276  1.8463 -0.8785  0.3509
 2163SOL     OW17947   2.679   4.141  13.648  0.1462  0.2263 -0.0169
 2163SOL    HW117948   2.629   4.117  13.726 -0.6476 -1.8805 -1.2036
 2163SOL    HW217949   2.657   4.233  13.630  0.2657  0.4989  1.2440
 2164SOL     OW17950   4.332   4.167  17.545 -0.1459 -0.8873 -0.3623
 2164SOL    HW117951   4.313   4.224  17.470 -0.6936  0.6323  0.9321
 2164SOL    HW217952   4.315   4.079  17.511 -0.2758 -1.2113  0.5471
 2165SOL     OW17953   1.899   0.076   4.626 -0.5237 -0.1644  0.0521
 2165SOL    HW117954   1.876   0.139   4.558  0.9903 -2.6045 -2.6900
 2165SOL    HW217955   1.993   0.092   4.635 -0.7290  1.4714 -0.7395
 2166SOL     OW17956   1.221   3.943  10.790  0.5070 -0.1510 -0.1996
 2166SOL    HW117957   1.140   3.957  10.840  1.4400 -0.1349  1.3214
 2166SOL    HW217958   1.215   3.848  10.795  0.6372 -0.1409  0.1924
 2167SOL     OW17959   1.164   1.234   9.230  0.2112 -0.6067  0.6914
 2167SOL    HW117960   1.073   1.236   9.199  0.5026  1.5777 -0.0362
 2167SOL    HW217961   1.187   1.326   9.218 -1.3525 -0.4398 -1.0002
 2168SOL     OW17962   0.245   2.457   4.189 -0.7822 -0.1153  0.5863
 2168SOL    HW117963   0.318   2.401   4.215  0.5734  0.9460 -0.8873
 2168SOL    HW217964   0.214   2.479   4.277 -1.9085  1.1546 -0.1289
 2169SOL     OW17965   1.150   1.687   4.103 -0.0636 -0.1185  0.0223
 2169SOL    HW117966   1.150   1.740   4.023  1.9767  1.9709  1.3916
 2169SOL    HW217967   1.140   1.755   4.170 -1.8561  0.1584 -0.5468
 2170SOL     OW17968   3.387   2.619   5.441  0.2486 -0.3389  0.4478
 2170SOL    HW117969   3.304   2.665   5.451  1.0608  1.3187 -0.5271
 2170SOL    HW217970   3.350   2.557   5.378 -2.4847  0.9819  0.7780
 2171SOL     OW17971   4.557   3.836   8.280  0.0584 -0.0476  0.3052
 2171SOL    HW117972   4.587   3.922   8.251  1.0485 -0.4381  0.1902
 2171SOL    HW217973   4.493   3.863   8.347  0.7498  0.1347  0.8845
 2172SOL     OW17974   4.676   2.543  11.161 -0.2497 -0.3149  0.4780
 2172SOL    HW117975   0.017   2.476  11.146 -1.9336 -2.2176  1.5044
 2172SOL    HW217976   4.647   2.532  11.252 -1.9672 -0.2423 -0.0590
 2173SOL     OW17977   0.878   4.009  10.253  0.4847 -0.1547 -0.2742
 2173SOL    HW117978   0.897   4.073  10.185 -2.1882  1.0541  0.1294
 2173SOL    HW217979   0.929   3.931  10.228  1.1770 -0.3027  1.5684
 2174SOL     OW17980   4.443   1.279   2.057  0.5154 -0.1881  0.5579
 2174SOL    HW117981   4.445   1.373   2.036 -0.6463 -0.0210  1.1879
 2174SOL    HW217982   4.419   1.276   2.149 -2.9120 -0.5101 -0.3767
 2175SOL     OW17983   2.321   3.976   9.057  0.0589 -0.7161 -0.0845
 2175SOL    HW117984   2.403   3.981   9.007  1.0847 -1.8288  1.4520
 2175SOL    HW217985   2.339   4.039   9.126  0.2334 -0.6992 -0.1428
 2176SOL     OW17986   4.451   0.581   7.321 -0.7627  0.1917  0.2779
 2176SOL    HW117987   4.437   0.498   7.366  0.3671 -0.0815  0.1303
 2176SOL    HW217988   4.437   0.640   7.396 -1.0094  1.2874 -0.6351
 2177SOL     OW17989   0.406   4.232   8.105 -0.3795  0.7852  0.2922
 2177SOL    HW117990   0.365   4.154   8.068 -0.7988  0.7400  0.8571
 2177SOL    HW217991   0.352   4.305   8.073 -0.7037  0.8509  0.9844
 2178SOL     OW17992   4.345   3.398   5.278 -0.1633 -0.6368  0.5863
 2178SOL    HW117993   4.380   3.467   5.222  3.0003 -2.7614 -0.0585
 2178SOL    HW217994   4.383   3.321   5.235  1.0799 -0.4281  1.3097
 2179SOL     OW17995   0.646   2.789   7.905  0.7713 -0.2731 -0.4839
 2179SOL    HW117996   0.712   2.858   7.901  1.8024 -1.2329 -0.2190
 2179SOL    HW217997   0.626   2.783   7.999 -2.1654  1.6809 -1.0290
 2180SOL     OW17998   4.672   4.037   6.183 -0.2634  0.4892  0.3034
 2180SOL    HW117999   4.712   3.960   6.223  0.9030  0.7564 -0.3522
 2180SOL    HW218000   4.674   4.025   6.088  0.5721 -0.7969  0.4855
 2181SOL     OW18001   4.097   4.164   6.558  0.2674 -0.4638  0.0468
 2181SOL    HW118002   4.080   4.073   6.583  2.5130 -0.4453  1.6584
 2181SOL    HW218003   4.151   4.148   6.481  0.3585  0.1512 -0.0185
 2182SOL     OW18004   3.902   3.251   5.565  0.0810 -0.2993  0.4630
 2182SOL    HW118005   3.995   3.272   5.566 -0.7217  3.4379 -1.6393
 2182SOL    HW218006   3.867   3.280   5.649 -0.4403 -0.6467  0.3662
 2183SOL     OW18007   1.151   3.934  10.000  0.3239 -0.0855 -0.4195
 2183SOL    HW118008   1.202   3.907  10.077 -1.2011  1.1414  1.0213
 2183SOL    HW218009   1.221   3.926   9.936  0.6028  0.1319 -0.1396
 2184SOL     OW18010   2.409   2.560  10.107  0.1270  0.7060 -0.3366
 2184SOL    HW118011   2.474   2.552  10.037  0.1695  2.0925 -0.4553
 2184SOL    HW218012   2.419   2.475  10.151  1.3151  1.5999  1.0977
 2185SOL     OW18013   2.679   1.667   9.025  0.2156 -0.0392  0.4251
 2185SOL    HW118014   2.718   1.640   9.108 -0.9224  0.5273  1.1408
 2185SOL    HW218015   2.755   1.676   8.967  0.3739 -2.4761  0.2761
 2186SOL     OW18016   3.242   4.681  11.495 -0.1083  0.3520 -0.2503
 2186SOL    HW118017   3.251   4.649  11.585 -2.7457  0.3534 -0.0030
 2186SOL    HW218018   3.238   4.597  11.450  0.7524  0.2419 -0.1228
 2187SOL     OW18019   4.426   0.773  10.337  0.1029  0.5879  0.3455
 2187SOL    HW118020   4.516   0.786  10.368  1.0773 -1.7337 -1.4479
 2187SOL    HW218021   4.415   0.836  10.266  3.1426  1.3136  0.5447
 2188SOL     OW18022   0.754   4.345  16.066  0.1218  0.3933 -0.0176
 2188SOL    HW118023   0.727   4.396  15.990  0.6244 -0.6481 -0.9012
 2188SOL    HW218024   0.680   4.361  16.124 -2.0593 -3.7653 -1.6470
 2189SOL     OW18025   1.191   3.626   4.954 -0.2103 -0.5058  0.2584
 2189SOL    HW118026   1.242   3.672   5.021 -0.2503  1.6807 -1.2166
 2189SOL    HW218027   1.099   3.623   4.981 -0.1177 -1.9349  0.4157
 2190SOL     OW18028   0.607   3.625   8.518 -0.3666 -0.0922  0.1664
 2190SOL    HW118029   0.566   3.693   8.571  0.9203  0.9484 -0.1806
 2190SOL    HW218030   0.550   3.552   8.543  0.6837 -0.2435  2.0895
 2191SOL     OW18031   0.049   1.287   9.371  0.6118  0.1716  0.1189
 2191SOL    HW118032   0.067   1.222   9.439 -1.5334 -1.7790 -1.1684
 2191SOL    HW218033   4.681   1.275   9.351  0.0243  1.7576  1.8228
 2192SOL     OW18034   3.969   0.367   9.279 -0.7501 -0.6497 -0.2422
 2192SOL    HW118035   3.953   0.362   9.185  1.9550 -1.1904 -0.6760
 2192SOL    HW218036   4.043   0.425   9.296 -2.1235  0.5092  1.8144
 2193SOL     OW18037   4.288   1.266   2.633  0.5782  0.0469 -0.0073
 2193SOL    HW118038   4.293   1.249   2.539  1.4208  0.6889 -0.0760
 2193SOL    HW218039   4.320   1.186   2.674 -0.0675  0.4235  1.2528
 2194SOL     OW18040   2.096   1.109   2.745  0.1349  0.3723 -0.4836
 2194SOL    HW118041   2.017   1.164   2.739  0.6519  1.1157 -0.5311
 2194SOL    HW218042   2.146   1.167   2.802  2.4598 -0.4665 -1.7038
 2195SOL     OW18043   0.290   0.769  12.457 -0.3864 -0.4488  0.3214
 2195SOL    HW118044   0.328   0.681  12.464  0.5625  0.0297  1.1435
 2195SOL    HW218045   0.286   0.767  12.361 -1.8004 -1.5394  0.4014
 2196SOL     OW18046   1.167   0.519   5.314 -0.1567  0.2734 -0.2010
 2196SOL    HW118047   1.126   0.604   5.330  0.0040  0.1079  1.0839
 2196SOL    HW218048   1.260   0.541   5.319  0.3172 -1.8254 -0.1046
 2197SOL     OW18049   1.026   2.957   6.958  0.2184  0.4502 -0.2480
 2197SOL    HW118050   1.095   2.892   6.963  0.5046  0.5962 -2.0648
 2197SOL    HW218051   0.954   2.901   6.986  1.6603 -2.4627 -2.3957
 2198SOL     OW18052   3.401   2.826   8.281  0.0019  0.2960  0.0465
 2198SOL    HW118053   3.346   2.763   8.234 -1.3986  0.9370  0.8461
 2198SOL    HW218054   3.489   2.794   8.260 -0.0427  0.3558 -0.2408
 2199SOL     OW18055   1.038   4.122   0.302  0.2800 -0.5723 -0.1523
 2199SOL    HW118056   0.994   4.134   0.386 -0.4248 -2.0971 -0.3019
 2199SOL    HW218057   1.031   4.207   0.259  1.1587 -0.5816 -0.3017
 2200SOL     OW18058   0.351   2.445  14.198 -0.2237  0.7152 -0.1651
 2200SOL    HW118059   0.361   2.536  14.169  0.4938  0.9676  0.8894
 2200SOL    HW218060   0.278   2.421  14.141 -1.1286  0.8802  0.9328
 2201SOL     OW18061   3.482   2.126   9.008  0.7155 -0.2096 -0.3637
 2201SOL    HW118062   3.561   2.076   9.029 -0.4000 -1.6507  0.3977
 2201SOL    HW218063   3.498   2.210   9.051  2.3687 -1.0091  0.5973
 2202SOL     OW18064   0.757   3.673   0.505  0.2574  0.4275  0.4591
 2202SOL    HW118065   0.676   3.724   0.504 -0.8021 -1.2624 -0.5047
 2202SOL    HW218066   0.814   3.717   0.568  3.0356 -0.7591 -1.1987
 2203SOL     OW18067   3.739   0.110   7.859  0.6206 -0.6508  0.5145
 2203SOL    HW118068   3.741   0.056   7.938 -1.3493  0.5449  1.3760
 2203SOL    HW218069   3.650   0.088   7.833  0.8448  1.0163 -1.6238
 2204SOL     OW18070   4.446   4.342   6.811  0.1594  0.0890 -0.2698
 2204SOL    HW118071   4.447   4.251   6.780 -1.8264  0.7777 -2.3541
 2204SOL    HW218072   4.456   4.390   6.729  1.8595 -0.0310 -0.1324
 2205SOL     OW18073   0.472   0.260  15.357 -0.1350 -0.2387  0.1416
 2205SOL    HW118074   0.493   0.179  15.404 -0.2301 -0.4976 -0.2653
 2205SOL    HW218075   0.555   0.308  15.361  0.2117 -0.6929 -1.4833
 2206SOL     OW18076   1.984   0.064   6.997 -0.1905  0.4090  0.1819
 2206SOL    HW118077   1.996   0.069   6.902  0.7479  3.7174  0.4918
 2206SOL    HW218078   2.028   0.144   7.022 -0.8039  0.9446 -0.4442
 2207SOL     OW18079   2.928   1.117   6.379 -0.6299  0.0103 -0.9241
 2207SOL    HW118080   2.980   1.196   6.389 -0.3391 -0.2699 -0.2005
 2207SOL    HW218081   2.993   1.049   6.396  0.5897  1.1025 -1.2427
 2208SOL     OW18082   4.171   4.421   5.151  0.4002  0.1918  0.6583
 2208SOL    HW118083   4.195   4.352   5.089 -0.3850 -2.3210  3.1477
 2208SOL    HW218084   4.223   4.499   5.130  1.1709 -1.1912 -2.5165
 2209SOL     OW18085   0.085   3.358   4.116 -0.4936 -0.0111 -0.2262
 2209SOL    HW118086   0.154   3.400   4.065 -1.6211  0.5551 -1.2686
 2209SOL    HW218087   0.146   3.313   4.176 -0.3470  0.1438 -0.2608
 2210SOL     OW18088   1.547   3.620   0.149  0.0497  0.8074 -0.1290
 2210SOL    HW118089   1.453   3.610   0.132  0.3318 -2.1794  0.0818
 2210SOL    HW218090   1.550   3.712   0.124 -0.7615  0.8731 -0.0003
 2211SOL     OW18091   3.413   2.035   5.353  0.0559 -0.1492 -0.5119
 2211SOL    HW118092   3.390   2.109   5.409 -0.6734 -0.8383  0.0966
 2211SOL    HW218093   3.366   2.071   5.278  0.6983 -0.7723 -1.2157
 2212SOL     OW18094   4.592   1.328   6.103 -0.2334  0.3132 -0.6030
 2212SOL    HW118095   4.545   1.257   6.146 -1.9062  2.3188  0.8680
 2212SOL    HW218096   4.648   1.353   6.177 -0.2671 -0.7840 -0.2133
 2213SOL     OW18097   0.119   1.598  14.515  0.2347  0.3054  0.1595
 2213SOL    HW118098   0.095   1.513  14.552  2.9993 -0.6791 -0.3086
 2213SOL    HW218099   0.032   1.639  14.515  0.5511  0.9832  2.1352
 2214SOL     OW18100   0.875   0.771   4.900 -0.1967 -0.3887  0.0733
 2214SOL    HW118101   0.788   0.731   4.892 -0.4669  0.0256  0.8778
 2214SOL    HW218102   0.919   0.730   4.826  0.4987  0.1391  0.1909
 2215SOL     OW18103   3.050   4.542   4.251 -0.1409 -0.2401  0.1049
 2215SOL    HW118104   3.100   4.624   4.248 -0.6324  0.1384  2.1268
 2215SOL    HW218105   2.992   4.545   4.174 -1.5703 -0.7047  1.1634
 2216SOL     OW18106   3.912   3.542  17.471  0.0100  0.0054  0.2295
 2216SOL    HW118107   3.945   3.465  17.425  1.6442 -0.3793  2.0863
 2216SOL    HW218108   3.923   3.513  17.561  0.4269 -1.5964 -0.3394
 2217SOL     OW18109   4.349   4.103   7.134 -0.2272  0.7225  0.1601
 2217SOL    HW118110   4.291   4.143   7.070 -1.2629  0.0864  0.6987
 2217SOL    HW218111   4.379   4.028   7.083 -3.2773 -1.5361  1.7049
 2218SOL     OW18112   1.904   3.045   8.529  0.3624  0.2171  0.2638
 2218SOL    HW118113   1.879   2.955   8.549  2.0587 -0.6019 -1.3040
 2218SOL    HW218114   1.980   3.039   8.587 -0.0778  2.8652  1.1077
 2219SOL     OW18115   4.047   0.317   1.804  0.1609  0.0821  0.1982
 2219SOL    HW118116   3.955   0.291   1.808 -0.4864  1.9581 -2.6684
 2219SOL    HW218117   4.049   0.357   1.718 -0.5311 -0.6352 -0.1561
 2220SOL     OW18118   2.060   1.492   6.907  0.3440  0.3977 -0.4572
 2220SOL    HW118119   2.122   1.473   6.977 -0.3005 -1.1503 -0.3145
 2220SOL    HW218120   2.118   1.489   6.832  1.1309 -0.3665  0.1904
 2221SOL     OW18121   2.480   0.311   7.504  0.1621  0.1381  0.1082
 2221SOL    HW118122   2.528   0.385   7.466  1.0860 -1.0978 -1.1342
 2221SOL    HW218123   2.429   0.274   7.432  0.5106  0.6529 -0.4105
 2222SOL     OW18124   1.132   2.877   1.639  0.3028  0.1619  0.2365
 2222SOL    HW118125   1.111   2.891   1.731  0.8064  2.1983  0.0302
 2222SOL    HW218126   1.206   2.817   1.634 -0.1860 -0.5370  1.2980
 2223SOL     OW18127   0.489   2.591  15.833  0.0218  0.3169 -0.3939
 2223SOL    HW118128   0.508   2.498  15.834  3.3542  1.0355  1.6022
 2223SOL    HW218129   0.421   2.607  15.899 -0.2551  2.6866 -1.2246
 2224SOL     OW18130   1.789   2.929   3.615 -0.1942 -0.9728  0.1685
 2224SOL    HW118131   1.819   3.020   3.619 -0.5131 -0.9188  1.3090
 2224SOL    HW218132   1.799   2.911   3.522  1.5903 -1.9868  0.5516
 2225SOL     OW18133   4.351   2.710   4.389 -0.3770 -0.1319  0.4479
 2225SOL    HW118134   4.355   2.666   4.474  0.3620 -0.7084  0.1125
 2225SOL    HW218135   4.296   2.661   4.327  0.6944  0.9726 -1.3912
 2226SOL     OW18136   4.320   0.835   8.818 -0.2679  0.4566  0.1739
 2226SOL    HW118137   4.407   0.876   8.809  1.0046 -2.0084  1.3448
 2226SOL    HW218138   4.332   0.758   8.763  1.8575  2.1242 -1.7040
 2227SOL     OW18139   0.103   3.208   5.680  0.7459  0.3252 -0.2359
 2227SOL    HW118140   0.054   3.263   5.618 -1.7986 -1.0938  0.5121
 2227SOL    HW218141   0.179   3.198   5.623 -0.6737 -2.1515 -1.7091
 2228SOL     OW18142   3.696   3.673  13.452 -0.4352 -0.3253 -1.1438
 2228SOL    HW118143   3.728   3.752  13.496  1.9887 -0.6193 -2.3962
 2228SOL    HW218144   3.619   3.651  13.504  0.3330  2.2782  1.0952
 2229SOL     OW18145   4.537   2.899  11.304  0.3575 -0.4211 -0.5823
 2229SOL    HW118146   4.552   2.838  11.231  1.4470 -1.8005  0.7937
 2229SOL    HW218147   4.452   2.935  11.282  0.2494  0.1440  0.8049
 2230SOL     OW18148   2.975   3.157  11.355 -0.3138  0.4927  0.8180
 2230SOL    HW118149   2.975   3.130  11.264  3.1284  0.1490  0.9146
 2230SOL    HW218150   2.915   3.230  11.344  0.1933  0.8206  0.2347
 2231SOL     OW18151   2.452   1.121   2.769  0.0890 -0.0679 -0.2703
 2231SOL    HW118152   2.533   1.141   2.723 -0.1055  1.3064 -0.0160
 2231SOL    HW218153   2.442   1.026   2.767  1.9505 -0.2795  0.2070
 2232SOL     OW18154   3.742   1.359  11.333 -0.6398 -0.0633  0.3605
 2232SOL    HW118155   3.758   1.400  11.248 -4.6501  0.6435 -0.0554
 2232SOL    HW218156   3.731   1.425  11.401 -0.3715  1.7431 -1.3358
 2233SOL     OW18157   1.438   3.089   6.562 -0.5139  0.0076 -0.0476
 2233SOL    HW118158   1.450   3.181   6.584 -1.9911  0.3438 -0.6132
 2233SOL    HW218159   1.472   3.098   6.473 -3.0227 -2.6830 -1.2730
 2234SOL     OW18160   4.302   4.260  17.297 -0.0105  0.0102  0.7010
 2234SOL    HW118161   4.371   4.323  17.272  0.5005 -0.4977  0.8503
 2234SOL    HW218162   4.236   4.304  17.243 -0.7821 -2.1992 -0.1622
 2235SOL     OW18163   0.342   1.290  12.214 -0.4442  0.9528 -0.0759
 2235SOL    HW118164   0.311   1.205  12.245 -0.9335  1.5637  1.0959
 2235SOL    HW218165   0.292   1.299  12.132  0.5113  0.5941 -0.6988
 2236SOL     OW18166   1.601   3.986   0.711  0.1317 -0.2766  0.2880
 2236SOL    HW118167   1.576   3.915   0.652 -0.9448 -0.2068  0.6481
 2236SOL    HW218168   1.521   4.038   0.713 -1.2332 -2.3126 -1.8737
 2237SOL     OW18169   2.360   3.402  17.132  0.9889  0.0000  0.2112
 2237SOL    HW118170   2.291   3.400  17.065  1.5228 -0.1683 -0.3321
 2237SOL    HW218171   2.356   3.495  17.156 -1.5478 -0.0466 -0.0684
 2238SOL     OW18172   1.259   3.373   5.516  0.0462 -0.4379  0.1212
 2238SOL    HW118173   1.184   3.409   5.469 -1.1026  0.2101  2.4585
 2238SOL    HW218174   1.231   3.288   5.548 -1.0854  0.1217  0.6045
 2239SOL     OW18175   4.498   0.923   0.908  0.3131  0.1346 -0.3581
 2239SOL    HW118176   4.556   0.980   0.857 -0.2361 -1.0102 -2.2458
 2239SOL    HW218177   4.430   0.893   0.848  1.7856  0.7590 -2.3427
 2240SOL     OW18178   2.591   2.090  12.935  0.2812  0.3353  0.2722
 2240SOL    HW118179   2.654   2.138  12.989  1.5380 -0.9331 -0.0674
 2240SOL    HW218180   2.610   2.004  12.972  1.4300 -0.6436 -2.5918
 2241SOL     OW18181   2.845   2.413   6.309 -0.5260 -0.1634 -0.4716
 2241SOL    HW118182   2.894   2.462   6.243 -2.2650  2.6032  0.3028
 2241SOL    HW218183   2.857   2.328   6.266  2.4513 -0.3623  0.7596
 2242SOL     OW18184   4.569   1.604  11.949 -0.4552  0.2344  0.1537
 2242SOL    HW118185   4.476   1.582  11.958  0.0308 -1.1827  1.6936
 2242SOL    HW218186   4.560   1.699  11.957 -2.2127  0.0736  0.2547
 2243SOL     OW18187   1.474   3.874   8.081  0.3310 -0.0995  0.3029
 2243SOL    HW118188   1.490   3.834   7.995 -0.3420  3.7917 -1.6124
 2243SOL    HW218189   1.444   3.804   8.139  0.6456  0.8282  1.5704
 2244SOL     OW18190   1.039   4.406   5.622  0.4784  0.1142 -0.2652
 2244SOL    HW118191   1.039   4.347   5.547  0.1133  1.0819 -1.0275
 2244SOL    HW218192   0.949   4.387   5.648  0.6481 -1.5490 -0.8816
 2245SOL     OW18193   0.728   2.688   3.357  0.0568 -0.2140 -0.2794
 2245SOL    HW118194   0.681   2.669   3.276 -1.1702  4.7027 -0.7323
 2245SOL    HW218195   0.689   2.640   3.430  1.0250 -0.0017  0.3823
 2246SOL     OW18196   2.045   2.490   3.947  0.2327  0.1354  0.1365
 2246SOL    HW118197   2.021   2.577   3.916 -1.0076  0.3169  1.6496
 2246SOL    HW218198   2.106   2.513   4.017  1.8541  0.4856 -1.3843
 2247SOL     OW18199   2.994   3.979   8.793 -0.8009 -0.3521  0.5651
 2247SOL    HW118200   2.901   3.976   8.770 -0.7960  0.6743  0.4335
 2247SOL    HW218201   3.016   4.068   8.818 -0.9948 -0.2799  0.4759
 2248SOL     OW18202   0.446   0.849   7.969 -0.7207 -0.2223  0.0304
 2248SOL    HW118203   0.460   0.878   7.879 -0.3573  0.4629  0.3135
 2248SOL    HW218204   0.533   0.867   8.005 -0.1146 -1.7244 -0.6558
 2249SOL     OW18205   0.429   1.948   9.520  0.1944  0.3694 -0.1013
 2249SOL    HW118206   0.493   2.002   9.566  0.9190 -0.4765 -0.1213
 2249SOL    HW218207   0.361   1.926   9.584 -1.4852 -1.5343 -2.5556
 2250SOL     OW18208   3.934   2.376   3.603 -0.3451 -0.0640 -0.2121
 2250SOL    HW118209   3.937   2.452   3.544 -3.0292  0.0929 -0.1307
 2250SOL    HW218210   4.012   2.329   3.571 -1.0564 -0.3987 -1.4577
 2251SOL     OW18211   2.714   0.155  17.420 -0.0473 -0.3413  0.0536
 2251SOL    HW118212   2.758   0.155  17.505  1.0068 -0.3085 -0.4912
 2251SOL    HW218213   2.771   0.218  17.378 -2.0993  0.5762 -1.3707
 2252SOL     OW18214   0.489   2.303   4.495  0.6395  0.5946  0.2623
 2252SOL    HW118215   0.466   2.220   4.537 -0.4151  0.1418 -1.2279
 2252SOL    HW218216   0.534   2.343   4.570  1.9543 -0.6191  0.1394
 2253SOL     OW18217   0.303   1.094   4.980 -0.2203 -0.0111 -0.3804
 2253SOL    HW118218   0.298   1.072   5.073 -1.1346  2.0343  0.0477
 2253SOL    HW218219   0.343   1.014   4.945 -0.0580 -0.3508  0.6037
 2254SOL     OW18220   1.438   4.291   3.502 -0.1264 -0.4704 -0.2053
 2254SOL    HW118221   1.498   4.254   3.567  0.8084  0.1667 -0.7011
 2254SOL    HW218222   1.360   4.244   3.530  0.1279 -1.9500 -2.0099
 2255SOL     OW18223   0.686   0.865   6.412  0.0566 -0.1089  0.0003
 2255SOL    HW118224   0.732   0.810   6.476 -0.0339 -0.6664 -0.4114
 2255SOL    HW218225   0.640   0.921   6.475 -0.8786 -0.4254 -0.3959
 2256SOL     OW18226   1.986   0.242  17.481 -0.1081  0.4711  0.5587
 2256SOL    HW118227   1.959   0.277  17.396  0.2784  1.0448  0.6663
 2256SOL    HW218228   2.051   0.175  17.459  0.5410  0.8927  1.1651
 2257SOL     OW18229   1.917   1.863  17.055 -0.4433 -0.0392  0.2081
 2257SOL    HW118230   1.982   1.794  17.068  0.7332  1.1811  0.7828
 2257SOL    HW218231   1.838   1.811  17.041 -1.2980  1.5924 -1.0281
 2258SOL     OW18232   2.943   3.869  12.059  0.4381  0.6533 -0.2953
 2258SOL    HW118233   3.017   3.825  12.017  0.4357 -1.0771  1.4679
 2258SOL    HW218234   2.990   3.949  12.081 -2.5807  1.7289  2.3528
 2259SOL     OW18235   0.118   4.439  15.626  0.3265  0.0170 -0.2594
 2259SOL    HW118236   0.047   4.383  15.594  0.3141  0.8857 -1.7481
 2259SOL    HW218237   0.096   4.518  15.577 -2.3700  0.9638  2.4675
 2260SOL     OW18238   1.717   3.344   9.924  0.5325 -0.2866 -0.0753
 2260SOL    HW118239   1.717   3.386  10.010  2.2436  2.8722 -1.5915
 2260SOL    HW218240   1.764   3.263   9.938 -3.4243 -2.9174 -1.9075
 2261SOL     OW18241   4.052   1.207   9.905  0.0825  0.0783  0.2689
 2261SOL    HW118242   4.097   1.291   9.902 -1.2418  0.8409  1.6419
 2261SOL    HW218243   4.092   1.163   9.981  1.7833 -1.2109 -1.3469
 2262SOL     OW18244   4.719   0.467   1.336 -0.3091  0.2279 -0.4863
 2262SOL    HW118245   4.725   0.388   1.282 -0.8736 -0.3306  0.2709
 2262SOL    HW218246   0.075   0.512   1.314  0.7393 -1.2780  0.3401
 2263SOL     OW18247   0.498   0.754   2.835 -0.5468 -0.3895  0.2485
 2263SOL    HW118248   0.486   0.786   2.746 -0.1541  1.8400  1.0012
 2263SOL    HW218249   0.412   0.779   2.869 -0.5481 -1.0342  0.7298
 2264SOL     OW18250   2.197   0.755   5.893  0.5403  0.4440  0.0775
 2264SOL    HW118251   2.140   0.829   5.874  0.1673 -0.4422 -2.2691
 2264SOL    HW218252   2.235   0.779   5.978  2.2683  0.8866 -0.8182
 2265SOL     OW18253   1.926   0.943   1.749  0.5219 -0.6402  0.1268
 2265SOL    HW118254   2.012   0.944   1.791  0.7255  0.2553 -0.3316
 2265SOL    HW218255   1.874   0.949   1.830 -1.1624  0.2656 -1.0136
 2266SOL     OW18256   3.351   0.891   3.381 -0.0586  0.2033 -0.3267
 2266SOL    HW118257   3.296   0.967   3.361  1.1777  1.1116 -0.2875
 2266SOL    HW218258   3.282   0.843   3.426  0.3016  0.2338  0.2606
 2267SOL     OW18259   3.337   4.188   4.813  0.0507 -0.1026  0.0634
 2267SOL    HW118260   3.269   4.144   4.864 -0.2700 -0.2322 -0.4756
 2267SOL    HW218261   3.303   4.276   4.797 -0.5159  0.0290  1.9046
 2268SOL     OW18262   0.512   2.224   3.804  0.6516 -0.3991  0.6242
 2268SOL    HW118263   0.428   2.196   3.768  1.3136 -0.1176 -1.1437
 2268SOL    HW218264   0.526   2.310   3.766  1.6930 -1.1110 -0.6472
 2269SOL     OW18265   0.981   4.503   4.203 -0.5137  0.3983 -0.6025
 2269SOL    HW118266   0.982   4.598   4.209  0.4602  0.2429  1.7859
 2269SOL    HW218267   0.908   4.482   4.261 -1.1822  2.4780 -0.7039
 2270SOL     OW18268   0.372   1.887   6.801  0.1332  0.1717  0.5639
 2270SOL    HW118269   0.370   1.835   6.881  0.7672  1.7773  1.6459
 2270SOL    HW218270   0.460   1.866   6.770 -0.3901 -0.4374 -0.5120
 2271SOL     OW18271   1.654   3.301  12.996  0.1535 -0.2523  0.4100
 2271SOL    HW118272   1.686   3.278  13.083  0.9817  1.4017  0.5517
 2271SOL    HW218273   1.728   3.260  12.952 -0.0887  0.6438 -0.8589
 2272SOL     OW18274   2.304   3.477   1.231  0.1349 -0.4903  0.2972
 2272SOL    HW118275   2.340   3.388   1.223 -0.4986 -0.6418 -1.0045
 2272SOL    HW218276   2.385   3.522   1.254 -0.3928  0.1792  0.8461
 2273SOL     OW18277   1.031   1.787   5.729 -0.2116  0.3578  0.5427
 2273SOL    HW118278   1.078   1.717   5.683  0.3108  1.4533 -0.6012
 2273SOL    HW218279   1.060   1.768   5.818  2.0473  1.0064 -0.0429
 2274SOL     OW18280   1.516   3.910  14.135  0.0475  0.0560  0.1451
 2274SOL    HW118281   1.549   3.874  14.218 -0.0940 -2.0148 -0.7144
 2274SOL    HW218282   1.434   3.862  14.127  0.0063  0.3614 -1.1857
 2275SOL     OW18283   0.944   0.329  16.072 -0.3776  0.4069  0.1137
 2275SOL    HW118284   1.000   0.386  16.020 -0.2024  0.0017 -0.1388
 2275SOL    HW218285   0.869   0.388  16.083  0.3287  1.0649  1.4422
 2276SOL     OW18286   3.274   3.974   0.141 -0.2737  0.1175  0.0901
 2276SOL    HW118287   3.254   3.891   0.098  0.3153  0.4359 -0.7919
 2276SOL    HW218288   3.313   3.950   0.225  1.4768  1.9807 -0.1793
 2277SOL     OW18289   1.338   3.493   2.331 -0.5402  0.4752 -0.2459
 2277SOL    HW118290   1.313   3.465   2.419  0.2699  0.0456 -0.1465
 2277SOL    HW218291   1.260   3.453   2.293  0.6753 -0.7381 -1.4672
 2278SOL     OW18292   3.308   3.231   6.224 -0.5134  0.3119  0.0956
 2278SOL    HW118293   3.395   3.259   6.252  0.0126  0.1605 -1.4181
 2278SOL    HW218294   3.332   3.190   6.141 -1.2675  1.0588 -0.4915
 2279SOL     OW18295   3.050   3.550   5.715  0.2074 -0.2849 -0.3469
 2279SOL    HW118296   3.006   3.621   5.762  0.2564  1.5245 -3.0879
 2279SOL    HW218297   3.053   3.486   5.787  0.2278  1.9747  1.6696
 2280SOL     OW18298   3.759   2.615  11.371 -0.6053 -0.0883  0.5512
 2280SOL    HW118299   3.800   2.600  11.286  1.6703  1.3483  1.3923
 2280SOL    HW218300   3.689   2.551  11.381 -2.3270  1.4806 -1.5574
 2281SOL     OW18301   2.016   0.679   6.290  0.1864 -0.2683 -0.4710
 2281SOL    HW118302   2.060   0.759   6.262 -1.6183  0.1562 -2.1711
 2281SOL    HW218303   1.922   0.701   6.289  0.0031 -1.0381  0.3607
 2282SOL     OW18304   3.641   2.005   3.330  0.2571  0.1837  0.0917
 2282SOL    HW118305   3.580   2.071   3.296  1.6444  1.5048  0.1478
 2282SOL    HW218306   3.693   2.042   3.401 -0.4829  0.6016  0.4183
 2283SOL     OW18307   1.954   3.371   6.474 -0.6575 -0.2634 -0.5670
 2283SOL    HW118308   1.983   3.280   6.482  1.8826  0.7870  2.0653
 2283SOL    HW218309   1.961   3.397   6.382 -1.8612  0.5194 -0.4299
 2284SOL     OW18310   1.781   4.008   7.941  0.6879 -0.2877 -0.2026
 2284SOL    HW118311   1.842   4.058   7.887 -1.5681  2.7474  0.0484
 2284SOL    HW218312   1.709   3.986   7.882 -0.4745 -0.4322  1.2465
 2285SOL     OW18313   1.954   3.691   9.826 -0.0894 -0.3426 -0.0700
 2285SOL    HW118314   1.878   3.687   9.883 -0.5100  2.2071 -0.4718
 2285SOL    HW218315   1.924   3.648   9.745  1.2396 -0.9603 -0.2483
 2286SOL     OW18316   2.976   4.339   5.949 -0.1006  0.2331 -0.2403
 2286SOL    HW118317   2.971   4.435   5.944 -0.6968  0.4352  4.2743
 2286SOL    HW218318   2.939   4.324   5.862 -0.2055  3.4292 -0.7515
 2287SOL     OW18319   3.922   0.261   4.853 -0.2016 -0.8379  0.9435
 2287SOL    HW118320   3.889   0.326   4.791  1.4731 -1.9750 -1.1370
 2287SOL    HW218321   3.973   0.314   4.915  0.8456 -0.6447 -0.0880
 2288SOL     OW18322   0.267   0.706  10.401 -0.3074 -0.1212 -0.0247
 2288SOL    HW118323   0.184   0.694  10.355  0.0092 -1.0694 -0.3607
 2288SOL    HW218324   0.319   0.744  10.331 -0.9050  0.5316 -0.1134
 2289SOL     OW18325   2.062   1.364   7.596 -0.5307  0.1157  0.1982
 2289SOL    HW118326   2.041   1.426   7.666 -0.5019  0.9088 -0.4912
 2289SOL    HW218327   1.977   1.339   7.563 -1.9951  1.1543  3.1334
 2290SOL     OW18328   0.306   4.687   7.437  0.3143  0.0159  0.4290
 2290SOL    HW118329   0.332   0.045   7.477 -3.0622  1.2176  0.0849
 2290SOL    HW218330   0.214   4.707   7.421  0.2752 -2.1553 -2.0453
 2291SOL     OW18331   4.554   3.858   5.893 -0.2472  0.0826 -0.2321
 2291SOL    HW118332   4.647   3.838   5.882 -1.0140 -1.6593 -3.3662
 2291SOL    HW218333   4.518   3.776   5.926  1.8575 -1.0185 -0.6143
 2292SOL     OW18334   2.058   4.352   5.332  0.4052 -0.8000  0.4792
 2292SOL    HW118335   2.058   4.442   5.300 -0.1589 -0.8097  0.4464
 2292SOL    HW218336   2.149   4.336   5.308  0.4752 -2.1101  1.6051
 2293SOL     OW18337   3.904   2.356   6.611 -0.3272 -0.9113 -0.0956
 2293SOL    HW118338   3.936   2.380   6.524  1.1503 -1.7616  0.2203
 2293SOL    HW218339   3.810   2.370   6.596 -0.0447 -0.3225 -1.3703
 2294SOL     OW18340   3.470   3.623   4.818 -0.6377  0.3201  0.0853
 2294SOL    HW118341   3.523   3.548   4.846  1.1869  1.2040 -1.0933
 2294SOL    HW218342   3.422   3.644   4.898 -2.4668  0.8876 -1.1734
 2295SOL     OW18343   0.006   1.896  17.143 -0.2727 -0.2115  0.5505
 2295SOL    HW118344   4.668   1.963  17.118  1.1387  1.1334  0.5737
 2295SOL    HW218345   0.056   1.930  17.217  0.8490 -0.2643 -0.1752
 2296SOL     OW18346   0.434   4.700   1.915  0.4346 -0.1288 -0.5837
 2296SOL    HW118347   0.512   4.684   1.968 -0.8703 -0.8469  1.1149
 2296SOL    HW218348   0.374   4.633   1.947  0.4865 -0.5791 -1.4409
 2297SOL     OW18349   4.476   4.483   0.179 -0.4169 -0.1425  0.0517
 2297SOL    HW118350   4.410   4.459   0.245 -0.1168 -1.9835 -0.3121
 2297SOL    HW218351   4.443   4.566   0.145  0.6137  0.0433 -0.4983
 2298SOL     OW18352   3.921   0.227  12.849  0.1760  0.4230  0.5393
 2298SOL    HW118353   3.975   0.198  12.775 -1.2855  0.9721 -0.7485
 2298SOL    HW218354   3.836   0.191  12.822 -0.0413  2.1303 -1.0300
 2299SOL     OW18355   4.715   3.484  11.166 -0.3498 -0.3895 -0.3464
 2299SOL    HW118356   4.710   3.466  11.072 -0.1824  1.8164 -0.7694
 2299SOL    HW218357   4.720   3.396  11.203 -2.6894 -0.5995 -0.5107
 2300SOL     OW18358   3.908   2.693  11.107 -0.6658  0.7027  0.0888
 2300SOL    HW118359   3.965   2.720  11.179 -1.8410  0.9849  0.9113
 2300SOL    HW218360   3.838   2.757  11.118  0.2476  1.4566  1.5971
 2301SOL     OW18361   3.742   1.864  13.883 -0.2877 -0.6233  0.1575
 2301SOL    HW118362   3.668   1.921  13.904  0.2247 -0.6026  1.8724
 2301SOL    HW218363   3.695   1.796  13.834 -0.9081  0.2660 -0.4838
 2302SOL     OW18364   1.663   2.322   6.466 -0.0640 -0.2116  0.1724
 2302SOL    HW118365   1.580   2.367   6.483  1.4923  1.2363  3.9885
 2302SOL    HW218366   1.643   2.290   6.378 -1.1847  1.1959 -0.0761
 2303SOL     OW18367   2.698   2.689   2.776 -0.6808 -0.4315  0.3840
 2303SOL    HW118368   2.640   2.648   2.840 -0.5107 -0.1190  0.7446
 2303SOL    HW218369   2.627   2.734   2.730 -0.8912 -1.0540  0.1077
 2304SOL     OW18370   1.895   1.809  11.121 -0.0219  0.0428  0.2101
 2304SOL    HW118371   1.861   1.720  11.133 -0.3969  0.3224  1.2451
 2304SOL    HW218372   1.972   1.792  11.067 -0.7313 -0.4116 -0.6490
 2305SOL     OW18373   1.837   4.440   4.695 -0.3413 -0.1783  0.2611
 2305SOL    HW118374   1.808   4.394   4.774 -2.3028  0.3934 -0.1204
 2305SOL    HW218375   1.774   4.510   4.711  0.4917  1.0050 -1.5455
 2306SOL     OW18376   2.685   1.194   2.656  0.3129  0.3599  0.1014
 2306SOL    HW118377   2.728   1.108   2.651  0.3476  0.1692  3.7607
 2306SOL    HW218378   2.755   1.257   2.639 -1.5703  2.0757 -1.2998
 2307SOL     OW18379   1.454   0.719   2.585 -0.5128 -0.8981  0.5128
 2307SOL    HW118380   1.482   0.671   2.662 -0.3887  0.2450  1.1828
 2307SOL    HW218381   1.507   0.798   2.598 -1.2001  0.0717 -2.5195
 2308SOL     OW18382   2.892   3.588   3.479  0.1060 -0.0470 -0.0549
 2308SOL    HW118383   2.872   3.561   3.569 -0.5069 -0.0286 -0.1835
 2308SOL    HW218384   2.930   3.504   3.452  1.3596  0.8642 -1.1478
 2309SOL     OW18385   1.909   3.973  13.324  0.0612 -0.3583 -0.3693
 2309SOL    HW118386   1.878   4.062  13.339 -0.6368 -0.4773 -1.0945
 2309SOL    HW218387   1.842   3.943  13.263  0.3284  0.3514 -1.0244
 2310SOL     OW18388   1.359   0.548   8.210 -0.1988 -0.6961  0.2526
 2310SOL    HW118389   1.368   0.638   8.179 -1.4965 -0.8550 -0.5887
 2310SOL    HW218390   1.286   0.563   8.271 -1.6408 -2.3205 -1.0625
 2311SOL     OW18391   1.059   0.529   2.258  0.0061 -0.6475  0.4283
 2311SOL    HW118392   0.973   0.507   2.294 -1.0729 -0.1311 -1.7975
 2311SOL    HW218393   1.124   0.491   2.318  2.7995 -0.1066 -2.2241
 2312SOL     OW18394   0.546   2.396   5.220  0.2686  0.3154 -0.1721
 2312SOL    HW118395   0.606   2.470   5.230 -0.4347  0.9575 -0.7113
 2312SOL    HW218396   0.600   2.318   5.203 -1.3899 -0.7896 -0.3369
 2313SOL     OW18397   0.729   3.791   7.742  0.2764  0.2009  0.3985
 2313SOL    HW118398   0.694   3.747   7.819  1.0602  0.2297  0.7690
 2313SOL    HW218399   0.790   3.731   7.700  0.3430  0.4137  0.1874
 2314SOL     OW18400   2.758   4.635  16.477  0.1220  0.5769  0.2894
 2314SOL    HW118401   2.830   4.599  16.425 -1.2614 -2.0559  0.1681
 2314SOL    HW218402   2.810   4.675  16.547 -0.2893  1.3439  0.1581
 2315SOL     OW18403   0.978   0.598  12.100 -0.0134 -0.6881  0.0359
 2315SOL    HW118404   1.032   0.677  12.102  1.3006 -1.5067 -2.8725
 2315SOL    HW218405   0.958   0.597  12.007 -3.4686 -0.6185  0.7538
 2316SOL     OW18406   2.299   0.807  17.097 -0.2134 -0.1403 -0.0941
 2316SOL    HW118407   2.211   0.771  17.110  0.3963 -0.7940  2.2414
 2316SOL    HW218408   2.300   0.851  17.012 -1.4337  0.5253  0.2276
 2317SOL     OW18409   3.937   1.928   2.811 -0.2439 -0.4619 -0.6077
 2317SOL    HW118410   3.898   1.974   2.737 -2.0788 -1.7469 -0.4498
 2317SOL    HW218411   3.994   1.996   2.847  0.8583 -1.9389  0.4698
 2318SOL     OW18412   3.660   2.077  10.363  0.0652 -0.0594 -0.0575
 2318SOL    HW118413   3.727   2.010  10.378  0.6906  0.6046  0.1064
 2318SOL    HW218414   3.600   2.068  10.437 -0.0254 -2.3184 -0.3852
 2319SOL     OW18415   2.440   0.488   3.295  0.1454  0.2834 -0.0322
 2319SOL    HW118416   2.436   0.541   3.216  2.6753  1.2497  0.4882
 2319SOL    HW218417   2.410   0.551   3.360  3.0917 -0.9518  2.5306
 2320SOL     OW18418   0.469   3.782  14.495  0.4608  0.4729 -0.2305
 2320SOL    HW118419   0.527   3.737  14.556 -0.3179  1.5032  1.2830
 2320SOL    HW218420   0.474   3.714  14.428 -0.3150  1.8406 -1.6775
 2321SOL     OW18421   4.345   0.559   7.074  0.1121 -0.2926  0.1373
 2321SOL    HW118422   4.398   0.590   7.148  1.2383  0.6123 -1.0483
 2321SOL    HW218423   4.310   0.484   7.121  1.3983 -0.6680  0.4980
 2322SOL     OW18424   0.578   4.725   4.099 -0.3525 -0.1561 -0.1264
 2322SOL    HW118425   0.578   0.095   4.096 -1.7229 -0.1867 -0.9772
 2322SOL    HW218426   0.525   4.704   4.023 -1.9436  2.3228  0.3148
 2323SOL     OW18427   0.563   4.355  14.497 -0.0366  0.2564 -0.1200
 2323SOL    HW118428   0.594   4.445  14.490 -0.7229  0.6530  2.0147
 2323SOL    HW218429   0.469   4.359  14.485 -0.3034 -0.0368  2.0145
 2324SOL     OW18430   1.302   1.569   6.399  0.0588 -0.0441 -0.0017
 2324SOL    HW118431   1.255   1.613   6.471  0.5339 -0.3704  0.5047
 2324SOL    HW218432   1.391   1.571   6.432  0.1011 -1.3500 -0.0544
 2325SOL     OW18433   1.418   0.608  17.149 -0.4848 -0.2573  0.2098
 2325SOL    HW118434   1.450   0.620  17.238 -1.3465 -1.1181  0.6372
 2325SOL    HW218435   1.399   0.697  17.122 -1.7856 -0.5223  0.2423
 2326SOL     OW18436   1.820   3.233   8.327  0.5059 -0.2663  0.1534
 2326SOL    HW118437   1.890   3.289   8.296  0.1761  0.4322  0.6737
 2326SOL    HW218438   1.860   3.178   8.395  0.6562  0.9129  1.0104
 2327SOL     OW18439   0.148   2.341   5.306  0.4101 -0.5187 -0.2835
 2327SOL    HW118440   0.158   2.301   5.220  1.1379  1.7201 -1.2474
 2327SOL    HW218441   0.130   2.260   5.354 -0.6459  0.8892  1.7263
 2328SOL     OW18442   4.503   2.269   4.973 -0.2918 -0.0047 -0.4515
 2328SOL    HW118443   4.421   2.286   4.925 -0.6976 -2.0621 -0.5017
 2328SOL    HW218444   4.519   2.347   5.025 -3.0291 -0.3228  0.8957
 2329SOL     OW18445   4.306   0.565   2.184  0.7685 -0.4145 -0.6364
 2329SOL    HW118446   4.279   0.538   2.096  0.0088  0.8864 -0.8135
 2329SOL    HW218447   4.299   0.661   2.191 -0.4282 -0.3618 -2.6369
 2330SOL     OW18448   2.386   1.287   5.006  1.0846  0.2207  0.0466
 2330SOL    HW118449   2.417   1.287   4.916 -1.1172 -2.2490 -0.6902
 2330SOL    HW218450   2.325   1.213   5.003  3.2665 -1.4838 -1.9745
 2331SOL     OW18451   4.311   3.267   5.781  0.1451 -0.1440  0.2972
 2331SOL    HW118452   4.275   3.282   5.869  3.4388  0.4062  1.5501
 2331SOL    HW218453   4.398   3.236   5.807  0.1993 -0.2694 -0.0377
 2332SOL     OW18454   4.682   2.743   7.369  0.1962 -0.4828  0.1040
 2332SOL    HW118455   4.675   2.838   7.361 -1.8113 -0.5709  0.9690
 2332SOL    HW218456   0.032   2.728   7.426  0.3199  0.9741  0.3031
 2333SOL     OW18457   0.477   1.621   1.481 -0.1540  0.1986  0.8878
 2333SOL    HW118458   0.407   1.651   1.423  0.5334 -0.0772 -0.0723
 2333SOL    HW218459   0.513   1.547   1.432  0.2083  0.0691  1.3506
 2334SOL     OW18460   2.638   0.190  14.915 -0.1145  0.1032  0.4658
 2334SOL    HW118461   2.651   0.109  14.864 -1.6580  1.5538 -2.2318
 2334SOL    HW218462   2.624   0.158  15.004 -1.0660 -1.7314 -0.3415
 2335SOL     OW18463   0.586   3.028  12.838 -0.3238  0.0309 -0.1352
 2335SOL    HW118464   0.645   3.070  12.775  0.6186  0.8178  1.2689
 2335SOL    HW218465   0.525   3.098  12.862 -0.8396 -0.3927 -0.2086
 2336SOL     OW18466   0.975   1.813   2.817 -0.5372  0.1554 -0.2341
 2336SOL    HW118467   0.949   1.741   2.759  0.0625 -0.4538  0.2554
 2336SOL    HW218468   0.952   1.892   2.768  1.1478 -0.7548 -2.4939
 2337SOL     OW18469   1.795   1.351  10.036 -0.3331 -0.4025 -0.0310
 2337SOL    HW118470   1.763   1.422  10.092  1.8028  1.0034 -0.5840
 2337SOL    HW218471   1.714   1.338   9.985 -0.6977  1.4923  0.0461
 2338SOL     OW18472   1.135   0.786   2.209  0.3452 -0.2139 -0.2140
 2338SOL    HW118473   1.227   0.798   2.233  0.6058  0.3198 -1.4657
 2338SOL    HW218474   1.125   0.692   2.219 -0.9386 -0.0703 -0.1413
 2339SOL     OW18475   3.817   4.194   8.691 -0.0755  0.0681  0.1464
 2339SOL    HW118476   3.822   4.241   8.774  1.7391 -1.1933  0.7606
 2339SOL    HW218477   3.737   4.142   8.696 -1.5211  2.3350  0.4049
 2340SOL     OW18478   3.456   2.809   8.645  0.8298 -0.4998  0.6916
 2340SOL    HW118479   3.514   2.871   8.600  0.2532  0.2007  0.9169
 2340SOL    HW218480   3.480   2.723   8.611  0.2209 -0.9816  1.5007
 2341SOL     OW18481   2.395   1.267   4.713 -0.3946 -0.4561 -0.1869
 2341SOL    HW118482   2.409   1.183   4.670 -0.1732 -0.2419 -0.5342
 2341SOL    HW218483   2.428   1.332   4.651  1.0700 -0.5538  0.4787
 2342SOL     OW18484   1.422   1.636  14.108 -0.0049  0.6058  0.1857
 2342SOL    HW118485   1.394   1.706  14.167  0.7729  1.7545 -0.7973
 2342SOL    HW218486   1.350   1.574  14.118  1.4702 -1.0976  0.4022
 2343SOL     OW18487   4.181   3.159   5.304  0.0547  0.7082  0.1538
 2343SOL    HW118488   4.102   3.206   5.278 -0.2694 -0.4226 -0.9151
 2343SOL    HW218489   4.241   3.229   5.328  0.8134 -0.5605  1.9402
 2344SOL     OW18490   1.333   2.286   3.051 -0.6501 -0.0499  0.5003
 2344SOL    HW118491   1.422   2.255   3.067  0.0204  1.2021 -0.7499
 2344SOL    HW218492   1.307   2.246   2.968  2.2683  0.6669 -0.7789
 2345SOL     OW18493   0.909   3.101   5.302 -0.9043 -0.2784 -0.1519
 2345SOL    HW118494   0.911   3.029   5.239  1.1505  1.6575 -2.2931
 2345SOL    HW218495   0.999   3.133   5.296 -0.8534 -0.5378 -0.7319
 2346SOL     OW18496   3.189   2.715   4.081 -0.0613  0.1056  0.4313
 2346SOL    HW118497   3.152   2.794   4.041  2.2772  0.4793 -1.0407
 2346SOL    HW218498   3.211   2.755   4.165 -2.2494 -3.3543  2.6189
 2347SOL     OW18499   1.531   1.271   2.740  0.2153 -0.7601 -0.3616
 2347SOL    HW118500   1.545   1.265   2.835  0.3927 -3.8707 -0.5890
 2347SOL    HW218501   1.577   1.349   2.710  0.0171 -0.1322  0.9929
 2348SOL     OW18502   3.946   0.621   2.016  0.0621 -0.6998 -0.5522
 2348SOL    HW118503   3.950   0.527   2.002  1.2746 -0.9527  1.4496
 2348SOL    HW218504   3.864   0.635   2.062  1.4158  0.1362  1.6077
 2349SOL     OW18505   3.856   2.892  11.954  0.1780 -0.6500 -0.1675
 2349SOL    HW118506   3.766   2.890  11.986 -0.1272 -2.2850 -1.0910
 2349SOL    HW218507   3.904   2.844  12.021  0.4477 -0.4814 -0.2415
 2350SOL     OW18508   1.332   1.044   8.640 -0.3124  0.4152  0.1537
 2350SOL    HW118509   1.330   0.958   8.682 -1.0690  0.3398 -0.0411
 2350SOL    HW218510   1.299   1.109   8.703  1.3433  0.2014  1.2473
 2351SOL     OW18511   1.738   1.455  13.597 -0.3116 -0.9145  0.5698
 2351SOL    HW118512   1.722   1.443  13.691  0.3139  1.1212  0.9281
 2351SOL    HW218513   1.772   1.544  13.598  1.5770 -1.6225 -0.3602
 2352SOL     OW18514   2.741   0.529   8.473  0.5898 -0.5971  0.4908
 2352SOL    HW118515   2.820   0.553   8.423  0.4964 -2.1494 -0.4334
 2352SOL    HW218516   2.724   0.436   8.459 -0.4178 -0.4506  0.7974
 2353SOL     OW18517   1.661   2.448   2.165 -0.2434 -0.2844  0.2292
 2353SOL    HW118518   1.650   2.509   2.092  0.3862 -0.3425  0.0918
 2353SOL    HW218519   1.691   2.366   2.126 -0.4871  0.0025 -0.5501
 2354SOL     OW18520   2.896   3.758   1.166 -0.2658  0.3568  0.0015
 2354SOL    HW118521   2.919   3.676   1.122 -1.9318 -0.4691  0.6936
 2354SOL    HW218522   2.939   3.814   1.101  1.1573  0.0574  0.6856
 2355SOL     OW18523   0.011   3.752   2.996  0.4605  0.2496 -0.1621
 2355SOL    HW118524   0.056   3.817   2.944 -0.4615  1.3584  0.4260
 2355SOL    HW218525   0.068   3.675   2.990 -0.2264 -0.2436 -0.4483
 2356SOL     OW18526   0.339   1.882  12.073 -0.0653  0.1254  0.4155
 2356SOL    HW118527   0.431   1.855  12.070 -0.3889 -0.7667 -2.0454
 2356SOL    HW218528   0.350   1.972  12.042  0.1773 -0.1057 -0.1665
 2357SOL     OW18529   1.095   2.632   9.471 -0.0232  0.2616 -0.3914
 2357SOL    HW118530   1.124   2.562   9.529  0.7908  0.4829 -0.5244
 2357SOL    HW218531   1.173   2.645   9.417  0.0827 -1.2247 -0.5910
 2358SOL     OW18532   2.133   1.028   7.542 -0.2674  0.2457  0.0324
 2358SOL    HW118533   2.171   1.116   7.540  1.2691 -0.3386  2.8029
 2358SOL    HW218534   2.152   1.003   7.633  0.4251 -2.7539 -0.9645
 2359SOL     OW18535   0.877   2.178  15.065  0.8143 -0.7257 -0.0232
 2359SOL    HW118536   0.808   2.126  15.025 -0.4566  2.3638 -1.8190
 2359SOL    HW218537   0.823   2.224  15.130 -1.0588 -1.0281 -1.3853
 2360SOL     OW18538   3.523   3.082   2.573 -1.0423  0.2529 -0.3417
 2360SOL    HW118539   3.507   3.176   2.564  0.0433  0.4226 -0.5753
 2360SOL    HW218540   3.522   3.049   2.483  1.5752 -0.8356  0.0180
 2361SOL     OW18541   3.894   4.047   6.216 -0.2023  0.5232  1.0189
 2361SOL    HW118542   3.895   4.135   6.254 -1.6858  0.6254  0.8304
 2361SOL    HW218543   3.981   4.019   6.242 -1.1081  0.1231  3.6270
 2362SOL     OW18544   3.245   1.690   5.956  0.0713  0.1020 -0.0611
 2362SOL    HW118545   3.332   1.711   5.992 -1.1126 -1.5874  3.6755
 2362SOL    HW218546   3.221   1.627   6.023 -0.3878  1.0163  0.6349
 2363SOL     OW18547   1.416   2.839   2.223 -0.0106 -0.0349 -0.0874
 2363SOL    HW118548   1.414   2.784   2.145 -0.6821 -0.0795 -0.0447
 2363SOL    HW218549   1.505   2.873   2.223 -0.2224  0.5246  0.5355
 2364SOL     OW18550   2.542   1.571   6.445 -0.4800 -0.5870  0.0421
 2364SOL    HW118551   2.516   1.660   6.425  0.6349  0.1480  1.7858
 2364SOL    HW218552   2.637   1.580   6.438 -0.4986  0.4388  1.1962
 2365SOL     OW18553   3.259   0.686   4.911  0.4343  0.4928  0.2542
 2365SOL    HW118554   3.233   0.715   4.998  1.4432  2.8216 -0.2252
 2365SOL    HW218555   3.179   0.702   4.861  0.9774  0.5079 -0.6092
 2366SOL     OW18556   0.527   0.276  13.423  0.5812 -0.3436  0.0241
 2366SOL    HW118557   0.450   0.270  13.366  0.6064 -0.6969  0.0286
 2366SOL    HW218558   0.479   0.296  13.503 -1.5424  1.4123 -1.6856
 2367SOL     OW18559   4.410   0.671   9.375 -0.1039  0.2029  0.0309
 2367SOL    HW118560   4.321   0.702   9.360  0.8404  3.1420  0.4560
 2367SOL    HW218561   4.450   0.757   9.388  1.0705 -0.0926 -1.5286
 2368SOL     OW18562   1.774   1.699   4.720 -0.0038 -0.0421 -0.0279
 2368SOL    HW118563   1.780   1.770   4.656  1.7184 -0.3491 -0.1982
 2368SOL    HW218564   1.838   1.728   4.785  1.6639 -5.2641  0.6576
 2369SOL     OW18565   4.109   4.064   4.556  0.2589 -0.8099 -0.2021
 2369SOL    HW118566   4.015   4.046   4.543  0.3801 -0.5785 -1.3426
 2369SOL    HW218567   4.140   3.987   4.603 -1.2499 -1.4256 -0.1950
 2370SOL     OW18568   3.626   3.289  13.802 -0.0056 -0.1051 -0.3747
 2370SOL    HW118569   3.717   3.319  13.806 -0.1857  0.7758 -2.5293
 2370SOL    HW218570   3.595   3.283  13.892 -1.4414 -0.8225 -0.9134
 2371SOL     OW18571   3.177   3.587   2.507  0.0651 -0.1237  0.5261
 2371SOL    HW118572   3.254   3.600   2.562  0.3288 -1.5197  0.4834
 2371SOL    HW218573   3.187   3.662   2.448 -2.5613 -0.7796 -0.7556
 2372SOL     OW18574   4.223   1.657  16.888 -0.3585 -0.2900  0.1119
 2372SOL    HW118575   4.160   1.657  16.817 -0.8256 -1.3672  0.5303
 2372SOL    HW218576   4.171   1.710  16.948  0.4638 -0.7877  1.2784
 2373SOL     OW18577   3.150   3.052   9.001  0.0117 -0.1572  0.4526
 2373SOL    HW118578   3.152   3.026   8.909 -3.8920  0.3114  0.2195
 2373SOL    HW218579   3.057   3.073   9.013  0.4732  0.9784  2.0383
 2374SOL     OW18580   4.361   0.490   8.300 -0.5183 -0.0620 -0.6163
 2374SOL    HW118581   4.436   0.546   8.280 -0.4715  0.4087  0.8521
 2374SOL    HW218582   4.343   0.544   8.377  1.7647 -0.8532  0.4788
 2375SOL     OW18583   1.773   0.951   9.035  0.5623 -0.2887  0.1374
 2375SOL    HW118584   1.726   1.029   9.003  2.0555  0.4572 -0.2367
 2375SOL    HW218585   1.814   0.968   9.120  1.8684  1.1182 -0.7744
 2376SOL     OW18586   0.675   3.624   4.959 -0.0573 -0.4799 -0.0483
 2376SOL    HW118587   0.726   3.553   4.920 -0.0104 -1.2042  1.3387
 2376SOL    HW218588   0.704   3.631   5.050  2.2325 -0.8624 -0.7365
 2377SOL     OW18589   1.131   4.291  17.459 -0.4176  0.2634  0.2480
 2377SOL    HW118590   1.060   4.229  17.441 -0.2199  0.0947  0.0339
 2377SOL    HW218591   1.095   4.361  17.513  1.4700  0.3905  1.3240
 2378SOL     OW18592   0.397   0.860   4.899 -0.1551 -0.0746  0.0530
 2378SOL    HW118593   0.421   0.773   4.931 -1.2088  0.8432  3.3755
 2378SOL    HW218594   0.394   0.845   4.805  0.3548  1.4487 -0.2044
 2379SOL     OW18595   3.409   2.872   6.673 -0.0957  0.8255  0.6506
 2379SOL    HW118596   3.329   2.821   6.683  0.1141 -0.0962 -2.3696
 2379SOL    HW218597   3.438   2.861   6.583  0.1394  0.6172  0.7515
 2380SOL     OW18598   2.831   3.777   2.196  0.4714  0.0055  0.3412
 2380SOL    HW118599   2.847   3.803   2.286 -2.6224 -0.5872  1.0770
 2380SOL    HW218600   2.834   3.681   2.197 -1.3710 -0.0629  0.6493
 2381SOL     OW18601   0.043   3.218   7.577 -0.0028 -0.0447 -0.0502
 2381SOL    HW118602   0.136   3.196   7.567  0.4322  0.5790  2.8563
 2381SOL    HW218603   0.043   3.271   7.656  2.9318 -1.1973  0.7463
 2382SOL     OW18604   3.325   2.370   4.388  0.4398 -0.4158  0.4733
 2382SOL    HW118605   3.334   2.354   4.294  0.4102 -0.9372  0.5572
 2382SOL    HW218606   3.387   2.442   4.399 -0.6780  0.3165  2.0225
 2383SOL     OW18607   1.155   0.555   6.947 -0.2525 -0.3159 -0.1493
 2383SOL    HW118608   1.084   0.600   6.993 -0.4792  0.1454 -0.9430
 2383SOL    HW218609   1.212   0.630   6.930  2.6604 -2.7696 -1.1254
 2384SOL     OW18610   1.812   4.608  13.990 -0.7032 -0.0085  0.1500
 2384SOL    HW118611   1.759   4.646  14.060  0.9953  0.4096  1.1948
 2384SOL    HW218612   1.867   4.681  13.962  0.9697 -1.1189  0.5493
 2385SOL     OW18613   1.220   4.281  13.331 -0.6643  0.2912  0.3578
 2385SOL    HW118614   1.303   4.272  13.377 -0.1331  0.6154 -0.5255
 2385SOL    HW218615   1.227   4.211  13.267  1.0139  0.6374  0.1602
 2386SOL     OW18616   2.985   1.751   2.088  0.2697  0.3303 -0.1071
 2386SOL    HW118617   2.992   1.756   1.993 -0.9194 -1.2310 -0.2715
 2386SOL    HW218618   3.058   1.690   2.106  0.3738  0.0041 -1.6350
 2387SOL     OW18619   2.332   4.114   7.170 -0.6880 -0.0570  0.4115
 2387SOL    HW118620   2.285   4.192   7.198 -1.0214  0.4543 -1.5767
 2387SOL    HW218621   2.382   4.105   7.251 -0.0892  0.8306  0.1398
 2388SOL     OW18622   0.691   1.046  12.271 -0.4795  0.1643 -0.0296
 2388SOL    HW118623   0.637   1.073  12.346 -1.7429  1.5828 -1.4480
 2388SOL    HW218624   0.660   1.116  12.213  1.6859 -2.0249 -3.7985
 2389SOL     OW18625   3.723   1.748   2.616 -0.1272 -0.7673 -0.3725
 2389SOL    HW118626   3.730   1.843   2.614  0.6531 -0.7777  1.2119
 2389SOL    HW218627   3.654   1.733   2.552 -0.3473 -2.2707  0.2117
 2390SOL     OW18628   0.240   0.491  16.349 -0.1290  0.1402 -0.1691
 2390SOL    HW118629   0.176   0.558  16.323  2.5315  2.5094 -0.6226
 2390SOL    HW218630   0.291   0.473  16.270  1.2235  0.0798  0.7276
 2391SOL     OW18631   4.301   1.803   7.811 -0.0095 -0.0335  0.1382
 2391SOL    HW118632   4.207   1.789   7.820 -0.3967  1.7952 -1.0476
 2391SOL    HW218633   4.326   1.861   7.883  2.0140 -1.1103  0.3169
 2392SOL     OW18634   0.868   2.858  10.127 -0.3191 -0.5061 -0.0913
 2392SOL    HW118635   0.912   2.872  10.044  1.1072  0.1099  0.7678
 2392SOL    HW218636   0.929   2.883  10.196 -0.9586 -3.1110  1.4129
 2393SOL     OW18637   0.676   3.087   5.458  0.1044  0.4395 -0.2846
 2393SOL    HW118638   0.608   3.066   5.394  0.3631  2.1806 -1.1156
 2393SOL    HW218639   0.752   3.108   5.404  0.2466  2.3483  0.6568
 2394SOL     OW18640   0.288   0.179  13.798 -0.3666  0.5162  0.2807
 2394SOL    HW118641   0.200   0.199  13.767  0.3658 -0.1556 -2.1802
 2394SOL    HW218642   0.332   0.219  13.723  1.0463 -1.9142 -0.1810
 2395SOL     OW18643   1.774   4.211  13.946  0.3551  0.9139  0.5828
 2395SOL    HW118644   1.748   4.293  13.905  0.3647  0.5843 -0.0781
 2395SOL    HW218645   1.698   4.159  13.975 -1.4589  2.3116 -1.7102
 2396SOL     OW18646   0.015   0.623   2.957 -0.5519  0.1592  0.1899
 2396SOL    HW118647   4.679   0.581   3.017  0.8319 -0.5628  1.1233
 2396SOL    HW218648   0.082   0.558   2.932 -0.1420  1.4368 -2.0733
 2397SOL     OW18649   0.933   3.899   3.071 -0.9347 -0.4879  0.2231
 2397SOL    HW118650   0.961   3.944   2.991 -1.5781 -0.0409  0.2436
 2397SOL    HW218651   0.994   3.826   3.077 -1.0754 -0.5512  0.8538
 2398SOL     OW18652   3.946   1.940   3.263  0.0307  0.0958 -0.4317
 2398SOL    HW118653   3.908   1.982   3.340 -0.6223 -0.3044 -0.5339
 2398SOL    HW218654   3.939   2.015   3.203 -1.2603 -1.1768 -1.8533
 2399SOL     OW18655   3.413   2.795   2.875 -0.0429  0.6478 -0.1501
 2399SOL    HW118656   3.391   2.888   2.873 -0.4383  0.5224 -1.8803
 2399SOL    HW218657   3.338   2.743   2.846 -0.9183  2.1050 -0.5003
 2400SOL     OW18658   2.905   1.023   0.009 -0.4830  0.3571  0.4584
 2400SOL    HW118659   2.971   0.955   0.018 -2.3242 -1.1429  2.8529
 2400SOL    HW218660   2.958   1.071  17.648 -0.6585  1.3775  1.0730
 2401SOL     OW18661   2.198   4.333   2.082  0.3233 -0.0995  0.3009
 2401SOL    HW118662   2.241   4.307   2.001  1.2164 -0.4206  0.8757
 2401SOL    HW218663   2.177   4.418   2.043  0.4278 -0.8607 -1.4059
 2402SOL     OW18664   3.966   2.867   5.790 -0.2155  0.1900 -0.0442
 2402SOL    HW118665   4.048   2.890   5.746  1.4503 -1.9785  1.9244
 2402SOL    HW218666   3.909   2.941   5.770 -0.0412  0.3337 -0.0056
 2403SOL     OW18667   3.509   3.415   7.630  1.0097  0.0674  0.8755
 2403SOL    HW118668   3.466   3.329   7.633  0.5200  0.3048  0.5526
 2403SOL    HW218669   3.537   3.424   7.721 -2.1104  0.0143  1.8310
 2404SOL     OW18670   4.541   4.094   4.897  0.0291  0.6599  0.0633
 2404SOL    HW118671   4.601   4.054   4.960 -1.8996  2.0306  2.7747
 2404SOL    HW218672   4.553   4.045   4.815  1.9378  2.6300 -0.8484
 2405SOL     OW18673   2.627   3.906   5.061 -0.1933 -0.2819  0.4947
 2405SOL    HW118674   2.679   3.884   4.984  1.2011  1.6365  0.8621
 2405SOL    HW218675   2.623   4.000   5.044 -2.6149 -0.8361 -2.0029
 2406SOL     OW18676   1.691   4.635  11.062 -0.0265  0.6395  0.4482
 2406SOL    HW118677   1.718   4.708  11.006 -3.6121  0.5259 -1.4895
 2406SOL    HW218678   1.668   4.674  11.146  1.2020  1.9214  0.1893
 2407SOL     OW18679   4.236   1.208   9.671  0.6228 -0.4277 -0.0288
 2407SOL    HW118680   4.177   1.178   9.739  0.4143  0.4972  0.1889
 2407SOL    HW218681   4.231   1.300   9.694  0.3914 -1.2500  3.2167
 2408SOL     OW18682   3.195   2.895   9.497  0.3369  0.5529 -0.1256
 2408SOL    HW118683   3.175   2.942   9.578 -0.4249  0.0093 -0.0035
 2408SOL    HW218684   3.168   2.962   9.433  0.0101 -1.2457 -1.8708
 2409SOL     OW18685   3.310   1.783   2.025 -0.7864 -0.3336 -0.0360
 2409SOL    HW118686   3.269   1.738   1.951 -0.3676  1.8168 -1.5548
 2409SOL    HW218687   3.280   1.725   2.095 -2.1072  0.6420  0.2021
 2410SOL     OW18688   3.965   4.434  15.833  0.1072 -0.3948  0.0262
 2410SOL    HW118689   4.038   4.404  15.779 -0.9159 -0.0469 -1.5469
 2410SOL    HW218690   4.014   4.498  15.885 -2.7679  2.0548 -0.3167
 2411SOL     OW18691   0.982   2.512   2.931  0.4241 -0.2891 -0.1218
 2411SOL    HW118692   0.993   2.502   2.836 -0.3020  0.8411 -0.3200
 2411SOL    HW218693   1.072   2.534   2.955  0.0343  1.6496 -0.4475
 2412SOL     OW18694   2.191   4.658   0.561  0.0204  0.2683 -0.7838
 2412SOL    HW118695   2.175   4.565   0.579  1.4004 -0.0535 -1.2030
 2412SOL    HW218696   2.104   4.683   0.531  0.1920  0.2914 -1.2618
 2413SOL     OW18697   0.698   2.674  11.040  0.1202  0.0891 -0.2225
 2413SOL    HW118698   0.686   2.677  10.945  1.3324 -0.6239 -0.3983
 2413SOL    HW218699   0.692   2.767  11.061  0.7076  0.1779 -0.4476
 2414SOL     OW18700   1.184   1.479   4.731 -0.0192  0.7341 -0.4679
 2414SOL    HW118701   1.121   1.468   4.660 -0.0356 -2.2369  0.0255
 2414SOL    HW218702   1.263   1.465   4.679 -0.2275 -0.8875 -0.3310
 2415SOL     OW18703   1.839   2.557   4.250  0.2267  0.3550 -0.5403
 2415SOL    HW118704   1.860   2.464   4.256  0.4153  0.2877 -2.0874
 2415SOL    HW218705   1.929   2.591   4.256 -0.0968  0.9781  0.6678
 2416SOL     OW18706   1.813   3.937   6.255 -0.2474  0.1155  0.0083
 2416SOL    HW118707   1.804   3.842   6.259  0.2990  0.1011  1.1318
 2416SOL    HW218708   1.903   3.947   6.225  0.4537  1.9465  2.7137
 2417SOL     OW18709   0.774   3.607   0.947 -0.6679 -0.5972 -0.0967
 2417SOL    HW118710   0.739   3.595   1.036  1.0356 -0.4993  0.5755
 2417SOL    HW218711   0.787   3.515   0.924 -1.1225 -0.6674 -0.0761
 2418SOL     OW18712   3.038   3.926   3.790 -0.0112 -0.1427 -0.3165
 2418SOL    HW118713   3.030   3.887   3.878 -2.1764  0.6536 -0.1571
 2418SOL    HW218714   3.038   4.020   3.810  0.5860 -0.3572  0.7110
 2419SOL     OW18715   2.309   2.628  10.634 -0.1538  0.1644  0.2318
 2419SOL    HW118716   2.303   2.663  10.545 -2.2646  0.1816  0.3892
 2419SOL    HW218717   2.258   2.690  10.686 -0.1289  1.1032 -0.8703
 2420SOL     OW18718   0.621   2.017  13.049  0.3222  0.3155 -0.3584
 2420SOL    HW118719   0.707   2.025  13.006 -0.2072 -0.8866 -1.6435
 2420SOL    HW218720   0.658   2.049  13.131  1.0174  0.6058 -0.7798
 2421SOL     OW18721   1.406   4.624   7.962 -0.2110 -0.0029  0.4589
 2421SOL    HW118722   1.398   4.529   7.953 -2.7638  0.2004  0.5961
 2421SOL    HW218723   1.405   4.615   8.057 -0.7418  0.4452  0.4945
 2422SOL     OW18724   0.142   2.141   8.982 -0.3417 -0.0134  0.6818
 2422SOL    HW118725   0.135   2.197   8.904  4.5532 -0.7170 -0.2908
 2422SOL    HW218726   0.064   2.086   8.982  0.5641 -1.3039 -1.4675
 2423SOL     OW18727   4.157   4.616   3.735 -0.0021  0.3441 -0.4448
 2423SOL    HW118728   4.194   4.533   3.766  1.2907  1.2986  0.5955
 2423SOL    HW218729   4.069   4.591   3.708  0.1107  1.0263 -1.4618
 2424SOL     OW18730   2.925   3.717   2.486 -0.2874  0.1602  0.6162
 2424SOL    HW118731   2.857   3.664   2.442  0.2409  0.1117 -0.1515
 2424SOL    HW218732   2.987   3.653   2.521 -0.7772 -1.3193 -1.1777
 2425SOL     OW18733   2.003   0.784   6.617 -0.1879  0.0042  0.1335
 2425SOL    HW118734   1.941   0.746   6.555 -0.7856 -0.7031  1.1682
 2425SOL    HW218735   2.083   0.774   6.565  0.1575 -1.1636  0.8804
 2426SOL     OW18736   0.718   3.620   5.235 -0.0424  0.1766 -0.3693
 2426SOL    HW118737   0.623   3.622   5.236 -0.0238  0.1413  1.1193
 2426SOL    HW218738   0.732   3.540   5.285 -0.8228 -0.4466 -1.1414
 2427SOL     OW18739   1.489   0.696  13.381 -0.0491  0.3009 -0.2929
 2427SOL    HW118740   1.561   0.759  13.369  0.0628  0.6940  2.2944
 2427SOL    HW218741   1.500   0.650  13.298  0.1849  0.2232 -0.2221
 2428SOL     OW18742   2.760   3.991   7.488  0.3410  0.3245  0.0991
 2428SOL    HW118743   2.852   4.016   7.485  0.4768 -0.1083  0.6046
 2428SOL    HW218744   2.766   3.927   7.416  1.5428  0.2799  0.2426
 2429SOL     OW18745   3.248   3.483   3.262  0.1423  0.1069 -0.2503
 2429SOL    HW118746   3.199   3.459   3.183 -1.0858  1.9025 -0.0313
 2429SOL    HW218747   3.314   3.542   3.227  0.8941 -0.5197  0.0979
 2430SOL     OW18748   1.459   2.346   1.561  0.1431  0.8488  0.1933
 2430SOL    HW118749   1.487   2.254   1.566  3.1510  1.7444 -0.2342
 2430SOL    HW218750   1.364   2.345   1.570  0.4315  0.0352  2.9621
 2431SOL     OW18751   2.464   3.082   8.727 -0.2938  0.1227 -0.0724
 2431SOL    HW118752   2.534   3.043   8.675  1.0654  1.0710  1.0448
 2431SOL    HW218753   2.423   3.141   8.663  1.5576  0.1292 -1.2464
 2432SOL     OW18754   2.811   2.534   6.927 -0.0485  0.0309  0.1712
 2432SOL    HW118755   2.887   2.488   6.963  0.4295  1.5652  1.1112
 2432SOL    HW218756   2.793   2.593   7.000 -3.4445 -0.1150 -0.5483
 2433SOL     OW18757   1.794   3.149  15.865 -0.4265 -0.1426  0.9186
 2433SOL    HW118758   1.703   3.130  15.842  0.0976 -0.8000 -0.6692
 2433SOL    HW218759   1.778   3.222  15.925  0.7466 -0.2388  1.3542
 2434SOL     OW18760   2.862   1.983   8.803  0.1678  0.5801  1.0198
 2434SOL    HW118761   2.823   1.975   8.716 -0.7835 -0.2795  1.5379
 2434SOL    HW218762   2.807   2.056   8.831 -0.0038  0.4149  1.1097
 2435SOL     OW18763   1.537   4.297   6.274  0.0448 -1.0234  0.1288
 2435SOL    HW118764   1.452   4.266   6.304  0.1096  0.3300  1.7360
 2435SOL    HW218765   1.598   4.297   6.348 -0.5736 -2.6356  0.6193
 2436SOL     OW18766   2.890   3.131   6.229 -0.0153  0.1304  0.0807
 2436SOL    HW118767   2.869   3.122   6.136 -2.1131  0.5781  0.5236
 2436SOL    HW218768   2.830   3.069   6.270  0.1076 -0.0364  0.0086
 2437SOL     OW18769   1.599   3.254   0.325 -0.8548 -0.1370 -0.4204
 2437SOL    HW118770   1.513   3.238   0.364 -0.0422  1.5982  2.1051
 2437SOL    HW218771   1.607   3.349   0.334  2.8135 -0.3500 -1.6847
 2438SOL     OW18772   0.870   2.866   5.568  0.2296  0.1891  0.0560
 2438SOL    HW118773   0.825   2.783   5.581  1.6922 -0.6892 -0.4790
 2438SOL    HW218774   0.794   2.923   5.558 -0.4130 -0.9328 -1.4470
 2439SOL     OW18775   0.087   0.080   7.981 -0.1849  0.3326  0.3928
 2439SOL    HW118776   0.043   0.034   8.052  1.5057 -1.5470  0.2258
 2439SOL    HW218777   0.175   0.068   8.017 -0.2622  0.2486  0.5526
 2440SOL     OW18778   0.521   2.487   6.980  0.1901  0.1076 -0.1068
 2440SOL    HW118779   0.545   2.550   7.047  3.0128 -1.7495  0.5865
 2440SOL    HW218780   0.596   2.481   6.921 -0.1516 -1.2779 -0.4113
 2441SOL     OW18781   3.087   4.026   5.956  0.2635 -0.3378 -0.3650
 2441SOL    HW118782   3.134   4.037   6.039 -0.7163  0.8318  0.0276
 2441SOL    HW218783   3.061   3.934   5.967 -0.5990  0.0443  0.9006
 2442SOL     OW18784   0.691   1.866   3.260 -0.0630 -0.0011  0.5843
 2442SOL    HW118785   0.685   1.910   3.345  1.7363  2.9809 -0.8258
 2442SOL    HW218786   0.655   1.781   3.287  1.3450 -0.1862  1.8648
 2443SOL     OW18787   2.048   0.395   4.755  0.7232  0.1748 -0.2060
 2443SOL    HW118788   2.079   0.436   4.674  1.2112  1.8484  0.8375
 2443SOL    HW218789   2.129   0.353   4.786  0.3461 -1.6107 -1.6103
 2444SOL     OW18790   4.491   3.039   7.890 -0.2820 -0.3786  0.0515
 2444SOL    HW118791   4.428   3.091   7.841  1.4384  0.3843 -1.3650
 2444SOL    HW218792   4.424   2.973   7.909  2.1511 -2.7406  0.5477
 2445SOL     OW18793   3.844   3.334   6.322  0.4070 -0.0896  0.4658
 2445SOL    HW118794   3.891   3.257   6.355  0.4407 -0.2052  0.1433
 2445SOL    HW218795   3.874   3.393   6.391 -1.6143  0.3036  1.0081
 2446SOL     OW18796   0.496   2.336  11.050 -0.1442  0.2585  0.6020
 2446SOL    HW118797   0.581   2.303  11.021 -0.2159  1.5301 -1.0591
 2446SOL    HW218798   0.447   2.327  10.968  0.1444  1.0259  0.3417
 2447SOL     OW18799   3.969   4.150  13.249 -0.3983 -0.2356  0.0608
 2447SOL    HW118800   3.874   4.161  13.249 -0.2953  0.4852  2.4286
 2447SOL    HW218801   3.979   4.233  13.202  0.9734 -0.7987 -0.6388
 2448SOL     OW18802   0.918   3.265   9.699  0.0197 -0.0542 -0.1449
 2448SOL    HW118803   0.921   3.245   9.793 -1.4474  0.1819 -0.0427
 2448SOL    HW218804   0.827   3.244   9.679  0.1436  2.8591 -3.7368
 2449SOL     OW18805   2.920   0.643   3.389 -0.0746 -0.3964  0.2656
 2449SOL    HW118806   2.941   0.735   3.402  1.3661 -0.6101 -0.4814
 2449SOL    HW218807   2.843   0.649   3.333  0.7976  0.9251 -0.7915
 2450SOL     OW18808   3.044   0.809   2.566 -0.0512  0.1554  0.0639
 2450SOL    HW118809   3.054   0.893   2.523 -1.7972 -0.2306 -1.0643
 2450SOL    HW218810   3.101   0.809   2.643  1.2337  1.1370 -0.9006
 2451SOL     OW18811   2.270   0.064   5.131 -0.0277  0.1747 -0.5735
 2451SOL    HW118812   2.211   0.075   5.206  1.9871  1.8822  0.7523
 2451SOL    HW218813   2.343   0.111   5.170  1.5846 -2.9131  0.1214
 2452SOL     OW18814   0.027   4.326  16.322 -0.2366  0.0976 -0.3294
 2452SOL    HW118815   0.006   4.418  16.337  0.4355 -0.1775  2.2269
 2452SOL    HW218816   0.056   4.296  16.408 -2.6487 -0.1070  0.3994
 2453SOL     OW18817   2.827   4.069   6.864  0.3380 -0.3807 -0.1667
 2453SOL    HW118818   2.751   4.012   6.873  1.2420 -1.6230 -0.4200
 2453SOL    HW218819   2.836   4.100   6.954  0.3720  2.5431 -1.1606
 2454SOL     OW18820   3.574   3.064  10.843  0.0007 -0.5009 -0.6717
 2454SOL    HW118821   3.529   2.998  10.896  0.4521  0.3293  0.7409
 2454SOL    HW218822   3.605   3.129  10.906 -1.5315 -0.6517  0.2481
 2455SOL     OW18823   0.066   3.505   5.413  0.1165  0.2129  0.0792
 2455SOL    HW118824   0.011   3.440   5.457 -0.2306  0.0289 -0.6299
 2455SOL    HW218825   0.042   3.501   5.320 -0.4630 -1.0017  0.2746
 2456SOL     OW18826   3.237   2.532   3.272  0.1847  0.4077  0.2307
 2456SOL    HW118827   3.187   2.605   3.236  1.1114  0.2846 -1.3066
 2456SOL    HW218828   3.302   2.570   3.332 -0.7168  2.1448  0.0934
 2457SOL     OW18829   1.568   0.756  12.567  0.1648  0.2770  0.3424
 2457SOL    HW118830   1.609   0.684  12.519  1.4695  2.3817 -1.7061
 2457SOL    HW218831   1.545   0.809  12.491  0.0651 -0.6015 -0.2320
 2458SOL     OW18832   0.535   1.850   2.532  0.1126 -0.8801  0.3352
 2458SOL    HW118833   0.552   1.943   2.514  1.3594 -0.9162  1.2919
 2458SOL    HW218834   0.546   1.809   2.447  0.5488 -0.0604 -0.0034
 2459SOL     OW18835   2.806   0.922   2.640  0.1466  0.3094 -0.4614
 2459SOL    HW118836   2.776   0.895   2.553 -0.6631  0.9187 -0.3695
 2459SOL    HW218837   2.894   0.884   2.629 -0.3669 -0.3938 -2.1093
 2460SOL     OW18838   3.927   3.186   8.266 -0.2400 -0.3026  0.3412
 2460SOL    HW118839   4.006   3.158   8.312 -1.3177 -1.9971  1.1837
 2460SOL    HW218840   3.957   3.276   8.254  3.1528 -1.3534  0.8072
 2461SOL     OW18841   3.149   3.009   3.079 -0.2746  0.1828 -0.6819
 2461SOL    HW118842   3.230   3.052   3.106 -1.0382  0.6204  0.9107
 2461SOL    HW218843   3.101   3.066   3.019 -0.6578 -1.2737 -1.7648
 2462SOL     OW18844   0.188   1.720   5.300  0.2411 -0.5024 -0.3213
 2462SOL    HW118845   0.242   1.708   5.378  0.7497  0.7275 -0.4931
 2462SOL    HW218846   0.211   1.808   5.272  2.2234 -0.7022  0.6865
 2463SOL     OW18847   2.791   1.060   5.465 -0.4340  0.3860  0.1361
 2463SOL    HW118848   2.724   0.992   5.463 -1.2870  1.2142  0.8148
 2463SOL    HW218849   2.759   1.130   5.522  0.8821  1.2288 -0.1410
 2464SOL     OW18850   0.491   4.012   7.312  0.3383  0.4736 -0.5065
 2464SOL    HW118851   0.512   3.937   7.368 -1.5551  1.1164  1.0853
 2464SOL    HW218852   0.558   4.074   7.341  0.5315 -0.7250  1.6211
 2465SOL     OW18853   1.975   1.614   8.794 -0.2815 -0.2350 -0.7006
 2465SOL    HW118854   2.059   1.581   8.827 -0.8147 -1.8608 -0.9913
 2465SOL    HW218855   1.979   1.575   8.707 -1.9211 -0.8814 -0.4782
 2466SOL     OW18856   0.894   3.147   7.815  0.2363  0.2928 -0.1346
 2466SOL    HW118857   0.939   3.231   7.827  1.1867 -0.4835  1.7353
 2466SOL    HW218858   0.821   3.176   7.761  0.5611  0.9240 -0.2344
 2467SOL     OW18859   3.061   2.412  13.043  0.0128 -0.5329 -0.4079
 2467SOL    HW118860   2.988   2.463  13.079 -0.8315 -0.3488 -2.3719
 2467SOL    HW218861   3.092   2.354  13.113  2.1384 -1.1720 -1.8788
 2468SOL     OW18862   2.517   4.140  11.362  0.8709  0.6071 -0.3466
 2468SOL    HW118863   2.585   4.185  11.311 -0.2177  1.9144 -0.6451
 2468SOL    HW218864   2.563   4.111  11.440 -0.8759  3.9073  1.8859
 2469SOL     OW18865   3.342   1.995   3.440  0.2947  0.1668  0.8651
 2469SOL    HW118866   3.279   2.034   3.380  0.4779  2.2038  2.0048
 2469SOL    HW218867   3.388   1.937   3.379 -2.4627 -1.2973  0.1909
 2470SOL     OW18868   2.352   2.972  14.339 -0.7346 -0.7171  0.0184
 2470SOL    HW118869   2.291   2.958  14.411  0.8735 -1.0453  1.3165
 2470SOL    HW218870   2.340   2.894  14.285  0.7957 -0.6557 -0.4232
 2471SOL     OW18871   3.699   4.196   5.306 -0.6333 -0.3884 -0.4180
 2471SOL    HW118872   3.653   4.248   5.372 -0.6758  0.1425 -0.8629
 2471SOL    HW218873   3.668   4.107   5.321 -1.3871  0.1740  1.4271
 2472SOL     OW18874   1.443   3.639   0.831  0.3221  0.0728  0.1103
 2472SOL    HW118875   1.452   3.564   0.771 -0.9204 -2.4811  3.1072
 2472SOL    HW218876   1.457   3.605   0.919 -1.0105  0.5102  0.4994
 2473SOL     OW18877   2.538   2.129   4.903  0.2530  0.0727  0.0462
 2473SOL    HW118878   2.539   2.035   4.885 -0.6236 -0.2313  1.5711
 2473SOL    HW218879   2.466   2.153   4.845  0.4731  0.1362 -0.1957
 2474SOL     OW18880   0.335   0.597   5.926  0.4024 -0.9849  0.0193
 2474SOL    HW118881   0.403   0.659   5.901 -0.3287  0.2971  1.2317
 2474SOL    HW218882   0.310   0.635   6.010 -0.3668 -0.9394 -0.2258
 2475SOL     OW18883   2.097   3.725   4.988 -0.1250  0.4563  0.2963
 2475SOL    HW118884   2.188   3.693   4.994 -0.2523 -0.1293 -0.7253
 2475SOL    HW218885   2.117   3.819   4.993  0.4959  0.4064 -0.9955
 2476SOL     OW18886   1.261   3.100   8.602  0.5246 -0.1628 -0.7188
 2476SOL    HW118887   1.197   3.141   8.659  1.7602 -2.4672  2.3663
 2476SOL    HW218888   1.285   3.181   8.558  0.5780  0.5815  0.7053
 2477SOL     OW18889   2.482   3.043   7.831 -0.2140 -0.0645  0.0054
 2477SOL    HW118890   2.438   2.984   7.892  0.0836  0.5703  0.8341
 2477SOL    HW218891   2.423   3.050   7.755  0.3725  1.1507 -0.3394
 2478SOL     OW18892   1.024   4.382   3.890  0.1942 -0.1499 -0.2917
 2478SOL    HW118893   0.998   4.417   3.976  0.6854 -0.4997  0.0036
 2478SOL    HW218894   1.022   4.464   3.841  2.0093 -0.6456 -1.1856
 2479SOL     OW18895   1.408   0.171   8.342 -0.5595 -0.2660  0.2647
 2479SOL    HW118896   1.442   0.247   8.295  1.8447 -0.6484  1.4407
 2479SOL    HW218897   1.488   0.136   8.381 -0.0774  0.9382  0.3289
 2480SOL     OW18898   0.490   0.775   3.969 -0.3685 -0.3332 -0.3446
 2480SOL    HW118899   0.431   0.832   4.019 -0.6872 -0.7036 -0.3030
 2480SOL    HW218900   0.448   0.764   3.884 -0.6702 -0.0698 -0.2308
 2481SOL     OW18901   0.724   3.484   8.835  0.5737 -0.1694  0.3415
 2481SOL    HW118902   0.660   3.443   8.893 -0.3765 -0.1577 -0.6973
 2481SOL    HW218903   0.690   3.573   8.832  0.0076 -0.3840  0.3264
 2482SOL     OW18904   2.055   4.585   5.191  0.6957 -0.4362  0.2255
 2482SOL    HW118905   2.122   4.588   5.122 -0.4982  4.0735 -0.7536
 2482SOL    HW218906   1.988   4.545   5.135 -0.4667  0.2402  1.1464
 2483SOL     OW18907   2.568   4.698   3.852  0.2736  0.2618  0.2922
 2483SOL    HW118908   2.625   4.621   3.848  0.8262  0.8171 -2.7953
 2483SOL    HW218909   2.589   0.017   3.769 -0.3712  0.4774  0.2461
 2484SOL     OW18910   2.640   2.987   8.548  0.0134  0.1250 -0.1994
 2484SOL    HW118911   2.642   2.904   8.500  0.3281  0.3178 -0.5151
 2484SOL    HW218912   2.677   3.046   8.483  0.4480 -0.0051 -0.0713
 2485SOL     OW18913   3.487   1.492   7.485  0.5221 -0.0345 -0.9072
 2485SOL    HW118914   3.555   1.553   7.457 -1.1554  1.1529 -2.4629
 2485SOL    HW218915   3.536   1.414   7.510 -1.6972 -0.4569  2.0491
 2486SOL     OW18916   1.996   1.476   5.983 -0.4660  0.0951  0.0429
 2486SOL    HW118917   1.994   1.571   5.983 -2.1189  0.0677 -0.7806
 2486SOL    HW218918   1.974   1.449   5.894 -1.7886  1.5237 -0.0633
 2487SOL     OW18919   2.491   3.445   3.982 -0.0751 -0.1600  0.9860
 2487SOL    HW118920   2.396   3.438   3.992  0.1141 -2.8383  1.0626
 2487SOL    HW218921   2.521   3.355   3.970 -0.4823  0.0105 -1.3366
 2488SOL     OW18922   3.603   1.311  16.470  0.0255  0.4479 -0.3391
 2488SOL    HW118923   3.679   1.266  16.434  0.0144  0.9955 -1.0558
 2488SOL    HW218924   3.569   1.356  16.392 -1.5304  1.2889  0.8278
 2489SOL     OW18925   4.286   0.840   2.192 -0.7211  0.1288 -0.5542
 2489SOL    HW118926   4.241   0.900   2.252 -2.4993 -2.3690  0.5651
 2489SOL    HW218927   4.251   0.877   2.111  0.6479 -0.3554 -1.3606
 2490SOL     OW18928   3.735   4.643   3.912  0.0048 -0.5548  0.0070
 2490SOL    HW118929   3.820   4.669   3.947 -0.0118 -0.4332 -0.0460
 2490SOL    HW218930   3.737   4.556   3.952 -1.5553 -0.1779  0.9025
 2491SOL     OW18931   0.623   0.581   2.042  0.0749 -0.7459  0.2268
 2491SOL    HW118932   0.715   0.558   2.042  0.4589  0.7819  0.5356
 2491SOL    HW218933   0.624   0.676   2.027  3.3668 -0.6186  1.2924
 2492SOL     OW18934   2.427   2.856   5.629  0.0695 -0.4498 -0.3478
 2492SOL    HW118935   2.456   2.937   5.671 -1.3261 -2.0772  3.7609
 2492SOL    HW218936   2.337   2.848   5.660 -0.6799  2.3219 -1.7661
 2493SOL     OW18937   4.680   4.386   4.515  0.4288  0.1775  0.1621
 2493SOL    HW118938   4.615   4.338   4.567  2.2152 -2.5901 -0.1504
 2493SOL    HW218939   4.675   4.342   4.430  1.1939 -2.2445  1.3763
 2494SOL     OW18940   4.073   4.360   0.332 -0.2998 -0.9386 -0.3992
 2494SOL    HW118941   4.120   4.322   0.257 -1.1204  0.3166 -1.5512
 2494SOL    HW218942   3.985   4.366   0.296  0.1229  1.5203 -1.0144
 2495SOL     OW18943   2.150   1.474   3.046 -0.3169  0.0694  0.3034
 2495SOL    HW118944   2.201   1.406   3.001 -1.5405  0.4064 -1.5985
 2495SOL    HW218945   2.222   1.537   3.048 -0.2453  0.0545 -1.2468
 2496SOL     OW18946   4.392   2.633   7.247 -0.1901  0.5268 -0.2829
 2496SOL    HW118947   4.347   2.718   7.247 -0.0070  0.6246  0.0784
 2496SOL    HW218948   4.322   2.568   7.246 -0.3692  0.7308 -2.0114
 2497SOL     OW18949   4.640   2.071   6.894  0.1835  0.6214  1.0658
 2497SOL    HW118950   4.687   2.006   6.842  0.7796  0.6642  1.5468
 2497SOL    HW218951   4.556   2.088   6.851  1.8085  1.4931 -1.7354
 2498SOL     OW18952   4.097   3.071   6.653 -0.3218  0.1181  0.1934
 2498SOL    HW118953   4.168   3.062   6.716  0.3875 -0.0763 -0.6275
 2498SOL    HW218954   4.038   3.100   6.722  0.9931 -2.0188  2.1812
 2499SOL     OW18955   0.663   2.373   7.473 -0.3095  0.2107  0.1254
 2499SOL    HW118956   0.671   2.442   7.539  0.5457  2.0659 -1.9200
 2499SOL    HW218957   0.713   2.425   7.410  0.6105  1.2598  1.7193
 2500SOL     OW18958   1.437   3.219  10.657  0.4131  0.3852  0.4830
 2500SOL    HW118959   1.343   3.211  10.643  0.4239  0.7436  0.1869
 2500SOL    HW218960   1.474   3.131  10.648  0.4532  0.6132 -1.7821
 2501SOL     OW18961   3.689   1.899   3.062 -0.1396 -0.4136  0.3263
 2501SOL    HW118962   3.715   1.944   3.142  1.8661  0.4189 -0.8044
 2501SOL    HW218963   3.755   1.830   3.055 -1.7676 -1.9698 -0.0392
 2502SOL     OW18964   1.679   0.051   6.776  0.4930 -0.4733 -0.1572
 2502SOL    HW118965   1.609   0.115   6.761  2.4908  0.9453 -3.3784
 2502SOL    HW218966   1.688   0.026   6.684  0.9943  0.0984 -0.2628
 2503SOL     OW18967   3.715   3.614   3.925 -0.2458 -0.1196  0.2176
 2503SOL    HW118968   3.620   3.624   3.930 -0.1590  0.9616 -0.3448
 2503SOL    HW218969   3.741   3.592   4.014 -0.4248 -0.7912  0.0984
 2504SOL     OW18970   2.825   3.750   2.737  0.7317 -0.1033  0.6313
 2504SOL    HW118971   2.854   3.781   2.652 -2.1267  0.1417 -0.2688
 2504SOL    HW218972   2.777   3.668   2.723  0.3791  0.3832 -1.0028
 2505SOL     OW18973   2.499   3.380  10.019 -0.1591 -0.2668 -0.4454
 2505SOL    HW118974   2.472   3.471  10.031 -2.1851 -1.0292  0.7763
 2505SOL    HW218975   2.441   3.340   9.955  0.5329 -0.4856 -0.9350
 2506SOL     OW18976   1.962   1.740   4.936 -0.8913  0.0098  0.1031
 2506SOL    HW118977   1.937   1.830   4.957 -0.9034 -0.0835  0.4871
 2506SOL    HW218978   2.056   1.751   4.949 -0.9378  0.4469  0.0700
 2507SOL     OW18979   2.866   3.086   9.036 -0.1660  0.1863  0.0377
 2507SOL    HW118980   2.816   3.082   9.118  0.7509  1.4577  0.6571
 2507SOL    HW218981   2.871   3.180   9.020  0.8223  0.1857  0.3654
 2508SOL     OW18982   3.223   2.950   7.816 -1.0566  0.4366  0.0735
 2508SOL    HW118983   3.196   2.867   7.855 -1.0606 -0.0359 -0.9312
 2508SOL    HW218984   3.298   2.918   7.765  0.2609  3.3541  0.1512
 2509SOL     OW18985   3.613   0.466  14.757 -0.0549  0.2336 -0.3310
 2509SOL    HW118986   3.531   0.445  14.801  1.9890 -2.5313  2.1515
 2509SOL    HW218987   3.619   0.385  14.706 -0.5478 -0.3028  0.4691
 2510SOL     OW18988   2.966   3.463   4.027 -0.0566 -0.2054  0.3901
 2510SOL    HW118989   2.994   3.373   4.045  2.4637  0.7825  1.2904
 2510SOL    HW218990   2.992   3.467   3.935  0.9834  0.6917  0.7207
 2511SOL     OW18991   3.616   1.741   3.373 -0.1406  0.0130  0.0883
 2511SOL    HW118992   3.631   1.749   3.467  1.5580 -1.9681 -0.0154
 2511SOL    HW218993   3.616   1.833   3.346 -0.6519 -0.3207 -1.0472
 2512SOL     OW18994   4.336   2.798   7.856 -0.1124  0.6157 -0.4957
 2512SOL    HW118995   4.376   2.724   7.902 -0.1533  1.3958  0.7642
 2512SOL    HW218996   4.241   2.799   7.864  0.0216 -1.0602  1.3756
 2513SOL     OW18997   2.364   0.438   5.255 -0.5366  0.3098  0.5713
 2513SOL    HW118998   2.315   0.514   5.224 -2.1240 -1.2056 -0.6606
 2513SOL    HW218999   2.328   0.421   5.342 -1.5362 -0.4075  0.0163
 2514SOL     OW19000   4.438   0.444   1.025 -0.1099  0.1020  0.2869
 2514SOL    HW119001   4.401   0.529   1.003  0.6139  0.6718  1.2765
 2514SOL    HW219002   4.419   0.450   1.119 -1.0148  1.0634  0.0373
 2515SOL     OW19003   3.453   4.438   8.490 -0.0388  0.0772 -0.4185
 2515SOL    HW119004   3.475   4.518   8.443  1.5458  0.9029  1.7196
 2515SOL    HW219005   3.367   4.412   8.458 -1.1565  2.1142  0.9688
 2516SOL     OW19006   0.416   2.144   3.139 -0.4139  0.0339 -0.3227
 2516SOL    HW119007   0.436   2.135   3.045  0.1953  1.9704 -0.3731
 2516SOL    HW219008   0.331   2.188   3.148  0.6354  2.4802 -2.2864
 2517SOL     OW19009   4.299   3.022   8.258  0.4156  0.2545 -0.3633
 2517SOL    HW119010   4.363   3.088   8.282 -0.1949  0.6475  0.1869
 2517SOL    HW219011   4.270   3.055   8.173 -0.0919  2.6708  0.7594
 2518SOL     OW19012   2.801   0.144   5.450  0.0757 -0.6910 -0.2520
 2518SOL    HW119013   2.869   0.203   5.419 -0.0697 -0.4597 -0.1340
 2518SOL    HW219014   2.821   0.058   5.413  4.3832  1.0533 -1.9289
 2519SOL     OW19015   2.046   0.633  11.801  0.4382  0.6509 -0.1165
 2519SOL    HW119016   2.119   0.671  11.753  0.8635 -0.8985 -0.6982
 2519SOL    HW219017   2.001   0.713  11.828 -1.8430 -0.4160 -0.8025
 2520SOL     OW19018   1.963   4.529   4.384 -0.5541  0.3249  0.6417
 2520SOL    HW119019   1.906   4.590   4.430  0.0711  1.4504 -0.0628
 2520SOL    HW219020   1.919   4.446   4.400  0.8582 -0.4215  0.5774
 2521SOL     OW19021   1.244   4.451   2.494 -0.7674  0.2979 -0.1053
 2521SOL    HW119022   1.274   4.541   2.506 -1.3913  0.7700 -2.1152
 2521SOL    HW219023   1.241   4.450   2.399 -0.9458  0.6841 -0.1043
 2522SOL     OW19024   1.906   4.499   2.029  0.1016  0.4481  0.4604
 2522SOL    HW119025   1.894   4.506   2.124  1.5488  4.0854  0.3596
 2522SOL    HW219026   1.892   4.592   2.011  2.0826  0.3339 -1.6260
 2523SOL     OW19027   1.372   3.828   4.166  0.1235 -0.1110 -0.2678
 2523SOL    HW119028   1.277   3.825   4.175  0.5303 -2.6064  2.8654
 2523SOL    HW219029   1.380   3.917   4.201 -0.5964  0.1249 -0.6917
 2524SOL     OW19030   2.036   2.167  12.172  0.5893  0.2055  0.7389
 2524SOL    HW119031   2.117   2.215  12.159 -0.5799  2.0808  0.3456
 2524SOL    HW219032   1.964   2.227  12.149  0.1149  0.0910  1.9259
 2525SOL     OW19033   0.775   3.927   5.559 -0.5373  0.0132  0.4164
 2525SOL    HW119034   0.779   4.005   5.614 -1.6828  0.6422 -0.3990
 2525SOL    HW219035   0.696   3.934   5.505 -0.7220  1.2177  0.8459
 2526SOL     OW19036   2.610   2.714   8.461 -0.7326  0.5465 -0.4169
 2526SOL    HW119037   2.530   2.697   8.411 -1.3436  0.4224  0.6024
 2526SOL    HW219038   2.623   2.629   8.504 -3.6026  1.4487  2.2054
 2527SOL     OW19039   2.573   3.639   9.683  0.3650  0.0652 -0.4029
 2527SOL    HW119040   2.598   3.559   9.728  1.2225  1.8840  2.3375
 2527SOL    HW219041   2.477   3.637   9.687  0.3802 -0.4330 -0.3599
 2528SOL     OW19042   0.361   3.176   5.962 -0.4914  0.0846 -0.4272
 2528SOL    HW119043   0.366   3.271   5.955  1.6569  0.0093 -0.0196
 2528SOL    HW219044   0.388   3.142   5.877 -0.4774  0.5698 -0.6120
 2529SOL     OW19045   2.031   4.257  14.424  0.1784 -0.0236 -0.0451
 2529SOL    HW119046   2.056   4.312  14.498 -1.5449  0.1320  0.4111
 2529SOL    HW219047   2.020   4.175  14.472 -0.9796 -1.3159 -2.5270
 2530SOL     OW19048   4.426   1.996   5.868 -0.3891 -0.1328  0.0805
 2530SOL    HW119049   4.454   2.085   5.847  1.0223 -0.6601 -0.2763
 2530SOL    HW219050   4.472   1.984   5.951 -0.7335 -0.9094  0.1599
 2531SOL     OW19051   1.202   0.930  15.828 -0.4495  0.3843 -0.6160
 2531SOL    HW119052   1.156   0.847  15.833  0.7664 -0.3347 -1.4032
 2531SOL    HW219053   1.146   0.983  15.772 -0.4464  0.8154 -0.2189
 2532SOL     OW19054   1.870   3.489   5.632 -0.4183 -0.2639  0.1899
 2532SOL    HW119055   1.910   3.531   5.708 -1.7842  0.4557  0.5087
 2532SOL    HW219056   1.906   3.543   5.562 -2.9499 -1.0388 -1.7316
 2533SOL     OW19057   2.120   3.407   3.080  0.1091  0.0998  0.3656
 2533SOL    HW119058   2.032   3.382   3.051 -0.4877  1.8709  0.6882
 2533SOL    HW219059   2.103   3.491   3.121  1.2785  0.6159 -0.2075
 2534SOL     OW19060   2.361   4.070  15.222 -0.2924  0.2504 -0.4791
 2534SOL    HW119061   2.322   4.089  15.137 -0.3634  0.1135 -0.4767
 2534SOL    HW219062   2.279   4.066  15.271  0.1509  0.7464  0.3029
 2535SOL     OW19063   0.839   0.611  13.107  0.5328 -0.0797  0.3144
 2535SOL    HW119064   0.781   0.576  13.175  0.0613  0.9525  0.4394
 2535SOL    HW219065   0.821   0.550  13.036 -0.5088  1.8051 -1.0357
 2536SOL     OW19066   1.306   1.254   5.118 -0.0216 -0.4458  0.0243
 2536SOL    HW119067   1.362   1.326   5.148  0.5176 -0.3423 -1.2092
 2536SOL    HW219068   1.360   1.229   5.042 -0.6583 -0.0986 -0.5426
 2537SOL     OW19069   2.698   4.402   4.369 -0.5290  0.6151 -0.1537
 2537SOL    HW119070   2.677   4.490   4.338 -0.0138  1.1136  0.9206
 2537SOL    HW219071   2.725   4.408   4.460  0.0880 -1.2387 -0.2173
 2538SOL     OW19072   2.747   4.077   1.187 -0.0394 -0.2493 -0.3646
 2538SOL    HW119073   2.825   4.130   1.201 -0.0476  0.4175 -2.7914
 2538SOL    HW219074   2.750   4.072   1.091 -2.6612  0.0009 -0.4597
 2539SOL     OW19075   4.191   4.696  14.109 -0.9316 -0.5687  0.0067
 2539SOL    HW119076   4.223   4.607  14.118  0.0968 -0.3542 -1.5160
 2539SOL    HW219077   4.098   4.689  14.085 -1.0308  0.4244  0.0721
 2540SOL     OW19078   3.149   4.319   3.561  0.1190  0.4269  0.3538
 2540SOL    HW119079   3.143   4.389   3.496  3.1379  0.1119 -0.2970
 2540SOL    HW219080   3.131   4.371   3.640 -1.9743 -0.6268  0.5563
 2541SOL     OW19081   1.732   1.193   1.643 -0.0880 -0.0737  0.0658
 2541SOL    HW119082   1.694   1.260   1.699  0.5920 -0.6543  1.2229
 2541SOL    HW219083   1.664   1.127   1.651 -1.9325  2.0429  1.8140
 2542SOL     OW19084   3.777   4.553   6.534 -0.2542  0.1060 -0.0751
 2542SOL    HW119085   3.707   4.592   6.481 -1.0958 -1.2341  0.0527
 2542SOL    HW219086   3.841   4.525   6.468 -1.0648  0.3357 -0.9709
 2543SOL     OW19087   3.545   3.247   2.182 -0.0433 -0.9936  0.4062
 2543SOL    HW119088   3.585   3.181   2.239 -1.5146 -2.3277 -0.0942
 2543SOL    HW219089   3.537   3.322   2.241 -1.1272  0.3874 -1.4939
 2544SOL     OW19090   0.281   2.637   9.777 -0.0430 -0.3549 -0.7769
 2544SOL    HW119091   0.200   2.592   9.801  0.7075 -1.3917 -0.1451
 2544SOL    HW219092   0.341   2.564   9.797 -0.7673 -0.4975  0.9330
 2545SOL     OW19093   2.006   1.757   5.951  0.1942  0.2055  0.3413
 2545SOL    HW119094   1.994   1.797   5.864  1.2595 -1.0474 -0.3921
 2545SOL    HW219095   1.923   1.783   5.990 -1.3386 -1.3996 -1.8291
 2546SOL     OW19096   0.645   2.477   7.895 -0.5850 -0.3131  0.2838
 2546SOL    HW119097   0.552   2.468   7.874 -0.1257 -4.1438  0.0040
 2546SOL    HW219098   0.649   2.528   7.977  3.1940 -1.5064  0.8387
 2547SOL     OW19099   3.800   2.610   6.961  0.7689  0.5312  0.2159
 2547SOL    HW119100   3.723   2.635   6.910 -0.7156 -0.8174  1.8010
 2547SOL    HW219101   3.864   2.580   6.897 -0.9903 -2.9264  0.1118
 2548SOL     OW19102   1.583   3.647   6.066  0.9127 -0.0632 -0.2719
 2548SOL    HW119103   1.579   3.580   5.997  1.7717 -1.4988  1.0792
 2548SOL    HW219104   1.493   3.643   6.097  0.4622 -0.7189 -1.6450
 2549SOL     OW19105   3.339   1.827   6.425 -0.2278  0.0675  0.3542
 2549SOL    HW119106   3.286   1.875   6.487  0.0619  1.5679 -0.5513
 2549SOL    HW219107   3.423   1.871   6.437 -0.8092  1.2988 -0.1384
 2550SOL     OW19108   3.483   0.306   3.392  0.0917  0.2707  0.7797
 2550SOL    HW119109   3.537   0.385   3.388  1.1881 -0.5176 -0.2544
 2550SOL    HW219110   3.440   0.322   3.476  0.2402  2.1811  0.5009
 2551SOL     OW19111   3.001   2.508   2.836  0.1138  0.1635 -0.0380
 2551SOL    HW119112   2.914   2.472   2.819 -0.0587 -0.3383  1.8617
 2551SOL    HW219113   3.038   2.452   2.905  0.0495 -0.1382 -0.2529
 2552SOL     OW19114   0.374   2.343  10.806  0.0763 -0.0728  0.0257
 2552SOL    HW119115   0.299   2.286  10.822 -0.2980  0.5196  0.3552
 2552SOL    HW219116   0.319   2.421  10.813 -1.2150 -1.0543  0.8715
 2553SOL     OW19117   2.061   3.350   4.656  0.1837  0.0634  0.4360
 2553SOL    HW119118   1.984   3.297   4.674 -0.7162  0.8776 -1.0115
 2553SOL    HW219119   2.039   3.432   4.702  0.0909 -0.0402  0.5747
 2554SOL     OW19120   1.953   0.102  16.393  0.1880  0.3010  0.6095
 2554SOL    HW119121   1.881   0.163  16.377 -0.1946 -1.1208 -3.0857
 2554SOL    HW219122   1.905   0.019  16.395 -0.7510  0.8094 -1.1214
 2555SOL     OW19123   4.508   0.165  11.425 -0.4741 -0.3068  0.3111
 2555SOL    HW119124   4.424   0.120  11.427  0.1633 -1.5631 -1.0079
 2555SOL    HW219125   4.566   0.111  11.371 -0.4948  0.6192 -0.6373
 2556SOL     OW19126   3.668   4.314   1.937  0.1237 -0.2221 -0.5291
 2556SOL    HW119127   3.647   4.334   2.029 -0.9417 -0.8031 -0.6459
 2556SOL    HW219128   3.762   4.303   1.951 -0.3704 -0.0497  2.8918
 2557SOL     OW19129   0.322   4.614   3.479  0.2846 -0.9155  0.2523
 2557SOL    HW119130   0.407   4.648   3.453 -0.1545  0.0584  0.0631
 2557SOL    HW219131   0.325   4.526   3.440  1.9105 -0.6806 -0.1254
 2558SOL     OW19132   3.491   1.839   6.883 -0.3442  0.3062 -0.2960
 2558SOL    HW119133   3.430   1.832   6.956  0.4723 -2.3331  0.1550
 2558SOL    HW219134   3.564   1.888   6.920 -0.5033  0.5784 -0.3460
 2559SOL     OW19135   3.908   1.835  10.833 -0.2668  0.1897 -0.1229
 2559SOL    HW119136   3.904   1.740  10.843 -1.2621  0.3862  1.2047
 2559SOL    HW219137   3.863   1.834  10.748  0.5645  2.3838 -0.5754
 2560SOL     OW19138   2.292   3.519   4.729 -0.2572 -0.1655 -0.6033
 2560SOL    HW119139   2.347   3.444   4.752  1.1026  1.1599  0.4131
 2560SOL    HW219140   2.225   3.501   4.795  0.4873 -0.6567  0.0212
 2561SOL     OW19141   2.660   3.666   0.104 -0.3097  0.2974  0.2602
 2561SOL    HW119142   2.675   3.615   0.184  1.0514 -1.3621 -1.0475
 2561SOL    HW219143   2.722   3.624   0.044  0.6565  2.1579 -0.0311
 2562SOL     OW19144   2.080   3.386   8.278 -0.1467  0.4890 -0.2584
 2562SOL    HW119145   2.100   3.446   8.205  1.8264  2.3691  1.8001
 2562SOL    HW219146   2.089   3.433   8.361  0.2699 -0.7836  0.4088
 2563SOL     OW19147   1.158   1.801  13.920 -0.5467 -0.4678  0.0086
 2563SOL    HW119148   1.189   1.713  13.900  0.1359 -0.0817 -0.6429
 2563SOL    HW219149   1.226   1.855  13.878 -1.5403  1.1590  0.4949
 2564SOL     OW19150   4.088   3.689  12.994  0.5567 -0.7499  0.0995
 2564SOL    HW119151   4.045   3.772  13.014  1.1828 -0.4745  0.3056
 2564SOL    HW219152   4.072   3.678  12.900 -0.1294  1.3718 -0.0259
 2565SOL     OW19153   0.805   0.790   6.698 -0.6556  0.0086 -0.1835
 2565SOL    HW119154   0.853   0.709   6.716 -0.4774  1.0329  4.0058
 2565SOL    HW219155   0.867   0.844   6.746 -1.5772  0.8643  0.0536
 2566SOL     OW19156   3.636   2.418   6.475  0.2475 -0.0963  0.4723
 2566SOL    HW119157   3.612   2.465   6.395  1.3897  0.1467  0.2702
 2566SOL    HW219158   3.586   2.338   6.460 -1.0797  0.5674  1.3382
 2567SOL     OW19159   2.440   2.896  15.680  0.1065  0.4524 -0.3160
 2567SOL    HW119160   2.507   2.836  15.714 -0.3179  0.2988  0.2437
 2567SOL    HW219161   2.393   2.914  15.761  2.9237  3.9012  0.5488
 2568SOL     OW19162   0.345   1.685   3.762 -0.6328  0.3866  0.5672
 2568SOL    HW119163   0.406   1.612   3.775  0.3137  0.6151 -2.6138
 2568SOL    HW219164   0.376   1.740   3.834 -0.5909 -2.3884  2.6730
 2569SOL     OW19165   1.755   4.167   0.541 -0.5991  0.6138 -0.2794
 2569SOL    HW119166   1.716   4.106   0.603 -1.0284  2.0463  0.8679
 2569SOL    HW219167   1.724   4.243   0.591  0.3682  1.1098 -0.4346
 2570SOL     OW19168   2.344   1.167   8.482  0.5120 -0.5832 -0.1389
 2570SOL    HW119169   2.303   1.133   8.562 -2.0520  0.8994 -0.8131
 2570SOL    HW219170   2.438   1.161   8.497  0.4735 -0.7466  0.0332
 2571SOL     OW19171   2.199   4.162   0.921 -0.1492  0.4982  0.1510
 2571SOL    HW119172   2.179   4.203   1.005 -0.8005 -0.4127  0.4361
 2571SOL    HW219173   2.292   4.146   0.934 -0.2403  0.1385  0.3629
 2572SOL     OW19174   4.278   0.192   1.865  0.3839  0.1110 -0.5924
 2572SOL    HW119175   4.328   0.237   1.797 -0.8590  0.5701 -1.2170
 2572SOL    HW219176   4.190   0.215   1.832  0.8090 -1.3011 -2.7163
 2573SOL     OW19177   0.898   1.121   3.986  0.8007 -0.6285 -0.0027
 2573SOL    HW119178   0.954   1.170   3.927 -1.4458  1.7856 -0.1287
 2573SOL    HW219179   0.833   1.088   3.925 -0.0241 -1.7134  1.4454
 2574SOL     OW19180   1.972   0.782  15.251 -0.0879  0.4274  0.0647
 2574SOL    HW119181   1.985   0.731  15.332  0.7779  1.2781  0.4647
 2574SOL    HW219182   1.962   0.716  15.183  4.5138  0.4108 -0.6062
 2575SOL     OW19183   1.839   1.655   2.531  0.2566 -0.0338 -0.4456
 2575SOL    HW119184   1.814   1.635   2.441 -0.7231  0.9669 -0.4133
 2575SOL    HW219185   1.785   1.734   2.545  0.3517 -0.0595  0.0783
 2576SOL     OW19186   2.955   2.905   8.710 -0.3418  0.0419  0.4141
 2576SOL    HW119187   2.883   2.927   8.651  0.5095  0.7127 -0.3890
 2576SOL    HW219188   3.012   2.981   8.695 -0.8452  0.2366 -0.5267
 2577SOL     OW19189   1.435   4.722  10.019 -0.0124  0.1110  0.1490
 2577SOL    HW119190   1.507   0.055  10.042 -0.4842  0.7591 -0.0369
 2577SOL    HW219191   1.357   0.048  10.037 -0.2114 -0.5472  1.1448
 2578SOL     OW19192   3.667   2.955   6.677 -0.3298 -0.1912 -0.2143
 2578SOL    HW119193   3.575   2.926   6.676 -0.2740 -0.3484 -1.1794
 2578SOL    HW219194   3.685   2.940   6.584 -1.5866  0.2913 -0.5408
 2579SOL     OW19195   3.430   0.394   5.153 -0.7798  0.0402 -0.6955
 2579SOL    HW119196   3.508   0.448   5.159 -0.1093 -0.9955 -0.1038
 2579SOL    HW219197   3.360   0.454   5.179 -1.1355 -0.7560  0.2147
 2580SOL     OW19198   2.999   4.438   1.570  0.0090 -0.3296 -0.6705
 2580SOL    HW119199   3.044   4.450   1.653  1.3639 -0.0576 -1.4450
 2580SOL    HW219200   2.910   4.443   1.605  1.3894 -1.2736  2.9606
 2581SOL     OW19201   0.663   3.797   5.789 -0.5193 -0.1010 -0.6408
 2581SOL    HW119202   0.690   3.797   5.698 -0.4351 -0.4878 -0.6161
 2581SOL    HW219203   0.749   3.784   5.830 -0.4107  0.8604 -0.5713
 2582SOL     OW19204   2.982   0.940   5.289 -0.2016  0.2179  0.4576
 2582SOL    HW119205   3.044   1.012   5.297  0.7061 -0.4154 -0.7430
 2582SOL    HW219206   2.912   0.969   5.348 -0.5818  0.6198 -0.1860
 2583SOL     OW19207   1.095   3.957   8.660  0.5101  0.5697  0.2089
 2583SOL    HW119208   1.174   4.008   8.644  0.9488 -0.3828 -0.7266
 2583SOL    HW219209   1.048   3.967   8.577  0.8987 -4.7027 -0.6488
 2584SOL     OW19210   0.282   0.408   1.023  0.4876 -0.4402  0.0527
 2584SOL    HW119211   0.346   0.409   1.095 -0.8024  0.3023  1.1827
 2584SOL    HW219212   0.254   0.317   1.026 -1.7643  0.2599  0.3195
 2585SOL     OW19213   1.271   4.625   4.358 -0.1010 -0.1042 -0.0284
 2585SOL    HW119214   1.203   4.678   4.317 -1.4597 -1.6643  0.1915
 2585SOL    HW219215   1.239   4.616   4.448  1.7312 -1.9789  0.4306
 2586SOL     OW19216   3.258   0.618   3.792  0.8319  0.0636  0.0043
 2586SOL    HW119217   3.249   0.552   3.861  3.3746 -0.3466 -0.0480
 2586SOL    HW219218   3.234   0.699   3.836  0.4491 -1.0561  1.8567
 2587SOL     OW19219   2.472   4.461   2.844  0.7738 -0.4636 -0.3835
 2587SOL    HW119220   2.567   4.466   2.831  1.1694  1.4380  3.2201
 2587SOL    HW219221   2.437   4.476   2.756  1.9885 -2.3807 -1.2001
 2588SOL     OW19222   2.357   1.762   0.382 -0.1521 -0.2329  0.2165
 2588SOL    HW119223   2.340   1.703   0.456 -0.1495  0.0532  0.4423
 2588SOL    HW219224   2.326   1.845   0.418  1.4868  0.9969 -1.2467
 2589SOL     OW19225   1.140   3.519   2.548  0.3585 -0.2273 -0.0463
 2589SOL    HW119226   1.109   3.573   2.476 -3.5729 -1.2678  0.8513
 2589SOL    HW219227   1.057   3.480   2.574 -0.7164  2.8170  1.0386
 2590SOL     OW19228   1.184   4.030   8.270 -0.0161 -0.2254 -0.0511
 2590SOL    HW119229   1.107   4.016   8.325  0.1958 -0.8971  0.0737
 2590SOL    HW219230   1.165   4.120   8.244  1.3737  0.0498 -0.0905
 2591SOL     OW19231   0.134   1.124   2.046  0.4161  0.1159 -0.1377
 2591SOL    HW119232   0.049   1.116   2.002  0.9127 -1.4588 -0.7805
 2591SOL    HW219233   0.188   1.157   1.974 -1.9919 -1.5815 -2.6833
 2592SOL     OW19234   1.563   1.205   7.909 -0.0570  0.4663 -0.6672
 2592SOL    HW119235   1.611   1.149   7.848  2.4220  0.5655  1.1897
 2592SOL    HW219236   1.549   1.131   7.967 -0.3407 -1.0725 -2.7137
 2593SOL     OW19237   0.991   3.584   8.082  0.2634 -0.0512  0.4844
 2593SOL    HW119238   0.925   3.647   8.055  0.9039  0.1294 -0.6818
 2593SOL    HW219239   1.074   3.626   8.056  0.4551  1.6711  3.9615
 2594SOL     OW19240   4.417   1.159   5.610 -0.3962  0.4036 -0.0037
 2594SOL    HW119241   4.336   1.206   5.588  0.4478 -0.1339 -4.2724
 2594SOL    HW219242   4.438   1.196   5.696  1.1102  1.1980 -0.7044
 2595SOL     OW19243   0.313   0.013   2.200 -0.2359  0.3740  0.2337
 2595SOL    HW119244   0.221   0.003   2.178  0.4165 -0.5750 -2.0771
 2595SOL    HW219245   0.342   4.648   2.212  2.6032  0.7308 -3.9418
 2596SOL     OW19246   0.822   0.376  11.278  0.3966 -0.0169 -0.1708
 2596SOL    HW119247   0.854   0.400  11.190  2.9030  1.6303  1.1962
 2596SOL    HW219248   0.800   0.464  11.310 -0.0859  0.7410 -2.4937
 2597SOL     OW19249   0.213   3.621   9.429 -0.1227 -0.1867 -0.2085
 2597SOL    HW119250   0.237   3.697   9.483 -0.3354  0.4259 -0.9739
 2597SOL    HW219251   0.204   3.550   9.492  0.4466 -0.6616 -0.6683
 2598SOL     OW19252   4.617   0.055   3.610  0.1612 -0.1192  0.5102
 2598SOL    HW119253   4.655   4.715   3.669 -1.5486  0.2281  1.9886
 2598SOL    HW219254   4.663   0.024   3.532  0.5263  0.3529  0.5391
 2599SOL     OW19255   3.172   2.621   8.315  0.1894  0.1631  0.4230
 2599SOL    HW119256   3.085   2.658   8.300  1.0246  1.4438 -1.3878
 2599SOL    HW219257   3.205   2.679   8.383  0.2277 -0.0913  0.6192
 2600SOL     OW19258   3.060   3.092   6.921  0.2358 -0.0916 -0.1724
 2600SOL    HW119259   3.144   3.103   6.965 -0.5238 -0.2685  1.3302
 2600SOL    HW219260   3.069   3.013   6.869  0.2970  0.9788 -1.7830
 2601SOL     OW19261   0.519   0.082  12.038 -0.4462  0.1938  0.7442
 2601SOL    HW119262   0.468   0.152  11.997 -0.2780  1.8570  3.3761
 2601SOL    HW219263   0.600   0.102  11.990 -1.0611 -0.4060 -0.5519
 2602SOL     OW19264   1.998   2.298   8.886  0.5606  0.3477  0.1598
 2602SOL    HW119265   1.918   2.268   8.929 -0.0120  2.2068  0.3719
 2602SOL    HW219266   1.965   2.368   8.829  0.2431  1.3409  1.5580
 2603SOL     OW19267   2.172   3.561   7.121  0.3278  0.5550 -0.2421
 2603SOL    HW119268   2.257   3.524   7.145 -0.4091  0.4120  2.1257
 2603SOL    HW219269   2.180   3.656   7.135 -2.1442  0.6014  0.9747
 2604SOL     OW19270   2.810   1.891   5.981 -0.0534 -0.0648 -0.0476
 2604SOL    HW119271   2.847   1.888   5.893 -0.9044 -0.8856 -0.3835
 2604SOL    HW219272   2.719   1.909   5.957 -0.4545 -0.0233  1.4552
 2605SOL     OW19273   0.048   2.842   8.121 -0.1822 -0.3033 -0.4168
 2605SOL    HW119274   0.097   2.849   8.202 -0.5321  0.1543 -0.2457
 2605SOL    HW219275   0.094   2.906   8.067  1.6810  0.3520  1.9589
 2606SOL     OW19276   4.496   0.139   9.763  0.8485  0.1734  0.0380
 2606SOL    HW119277   4.428   0.205   9.758  0.8205  0.1668  0.3389
 2606SOL    HW219278   4.512   0.109   9.673  1.4779 -1.2031  0.5921
 2607SOL     OW19279   0.935   4.052   9.841  0.5074 -0.1348  0.3612
 2607SOL    HW119280   0.936   4.116   9.912  0.8602 -0.9806  1.1116
 2607SOL    HW219281   1.000   3.998   9.886 -0.6638  0.2677  2.4980
 2608SOL     OW19282   3.853   3.181   8.552 -0.3764 -0.0794 -0.2271
 2608SOL    HW119283   3.841   3.118   8.624 -1.1713  1.7177  1.2028
 2608SOL    HW219284   3.911   3.129   8.497  0.4748  0.1404  0.4513
 2609SOL     OW19285   1.775   0.135   1.023 -0.2459 -0.4910 -0.1144
 2609SOL    HW119286   1.739   0.192   0.955  2.0656  0.3318 -0.6430
 2609SOL    HW219287   1.754   0.173   1.108  3.3877 -0.4785  0.7684
 2610SOL     OW19288   1.785   0.003   8.339  0.0255 -0.0966 -0.1330
 2610SOL    HW119289   1.726   0.040   8.405  0.0357  2.5601 -1.6511
 2610SOL    HW219290   1.870   4.711   8.380 -0.9765 -0.7960  1.6585
 2611SOL     OW19291   1.641   1.185   8.940  0.1014  0.1738 -0.2382
 2611SOL    HW119292   1.683   1.270   8.932  1.2736 -0.5633 -1.9211
 2611SOL    HW219293   1.552   1.209   8.969 -0.3517 -2.1259  0.3013
 2612SOL     OW19294   1.206   1.415   7.172  0.3629  0.1994  0.8739
 2612SOL    HW119295   1.242   1.477   7.108  0.2943  1.4679  2.0511
 2612SOL    HW219296   1.292   1.377   7.190  0.6553  0.9290  1.0124
 2613SOL     OW19297   1.659   4.393   4.186 -0.2869 -0.1581  0.0338
 2613SOL    HW119298   1.713   4.348   4.251  0.4796  2.7939  1.4583
 2613SOL    HW219299   1.582   4.408   4.241 -0.3717  0.6161 -0.2893
 2614SOL     OW19300   0.881   3.382  10.841  0.0690  0.4819  0.2301
 2614SOL    HW119301   0.876   3.449  10.773 -0.9216 -0.0467 -0.2308
 2614SOL    HW219302   0.957   3.333  10.810 -0.2821  0.4559 -0.6019
 2615SOL     OW19303   2.391   1.539  14.690  0.5940 -0.0018  0.2659
 2615SOL    HW119304   2.407   1.607  14.756 -0.0162  2.8761 -2.5558
 2615SOL    HW219305   2.397   1.467  14.752 -0.0789  0.3400  0.7313
 2616SOL     OW19306   4.339   1.152   7.913 -0.0480  0.2431  0.5395
 2616SOL    HW119307   4.350   1.228   7.857  0.1853 -0.6332 -0.6200
 2616SOL    HW219308   4.432   1.136   7.926  0.2859  0.3482 -1.6863
 2617SOL     OW19309   1.808   1.073   5.820 -0.4230 -0.2395  0.4399
 2617SOL    HW119310   1.807   1.142   5.753  0.3220  0.5126  1.2101
 2617SOL    HW219311   1.719   1.080   5.854 -1.0516  0.0435 -1.2650
 2618SOL     OW19312   0.993   2.794   3.822 -0.4899 -0.0653  0.6779
 2618SOL    HW119313   1.014   2.736   3.896  3.0005 -0.7002 -0.8137
 2618SOL    HW219314   0.908   2.821   3.857 -0.4208 -2.9901  3.1634
 2619SOL     OW19315   3.159   1.414  17.493  0.1268 -0.0597 -0.7719
 2619SOL    HW119316   3.141   1.347  17.427  0.7471 -1.8599  0.9017
 2619SOL    HW219317   3.069   1.448  17.488 -0.0106  0.0625  2.1673
 2620SOL     OW19318   2.622   1.452   7.541 -0.3004 -0.3356 -0.2296
 2620SOL    HW119319   2.575   1.412   7.614 -0.4428 -1.6913 -1.0627
 2620SOL    HW219320   2.574   1.533   7.525 -0.4272 -0.6623 -1.5168
 2621SOL     OW19321   4.435   1.167  10.646  0.0744  0.3893 -0.0655
 2621SOL    HW119322   4.374   1.132  10.710  0.7200  1.6661  1.2436
 2621SOL    HW219323   4.496   1.094  10.637  0.5173  1.0124 -2.0771
 2622SOL     OW19324   1.585   0.672   0.278 -0.1301 -0.4344 -0.2891
 2622SOL    HW119325   1.589   0.640   0.368 -0.4742 -0.0736 -0.1456
 2622SOL    HW219326   1.648   0.613   0.237 -0.4977 -2.9620  2.8524
 2623SOL     OW19327   3.494   1.142   3.101 -0.3026  0.2376  0.3327
 2623SOL    HW119328   3.417   1.090   3.124 -1.1589  1.6588  0.6576
 2623SOL    HW219329   3.455   1.229   3.105  1.8957  1.2060  0.6186
 2624SOL     OW19330   2.259   0.850   2.860 -0.3992 -0.0277 -0.6495
 2624SOL    HW119331   2.338   0.823   2.814  0.5365 -3.2230  2.8165
 2624SOL    HW219332   2.193   0.820   2.798 -0.8378 -2.3409  0.9107
 2625SOL     OW19333   0.240   0.678   6.211  0.0033 -0.5054  0.5263
 2625SOL    HW119334   0.188   0.756   6.230  0.7898  0.5447 -1.6238
 2625SOL    HW219335   0.311   0.694   6.273 -0.8291  0.0226  1.3539
 2626SOL     OW19336   2.167   1.230   0.608 -0.7599 -0.1651  0.3131
 2626SOL    HW119337   2.129   1.180   0.536 -1.4346 -1.6734  1.7438
 2626SOL    HW219338   2.230   1.283   0.558 -0.4453 -0.7532  0.0802
 2627SOL     OW19339   1.182   1.229   2.686 -0.6179  0.2606 -0.0843
 2627SOL    HW119340   1.151   1.190   2.767  2.4775 -0.4299  0.7614
 2627SOL    HW219341   1.245   1.169   2.645  0.2997  0.2398  1.3477
 2628SOL     OW19342   1.478   4.249  16.735 -1.1230  0.4458  0.1219
 2628SOL    HW119343   1.447   4.159  16.734 -1.7641  0.6730 -0.7333
 2628SOL    HW219344   1.538   4.249  16.661 -0.2232  1.0254  0.8562
 2629SOL     OW19345   2.122   4.074  16.911 -0.9191  0.1336 -0.5135
 2629SOL    HW119346   2.042   4.102  16.865 -1.0396  0.8520  0.1215
 2629SOL    HW219347   2.139   3.991  16.867  0.4383 -0.2253  0.6870
 2630SOL     OW19348   0.393   1.039  16.824 -0.4553  0.2156  0.0364
 2630SOL    HW119349   0.304   1.022  16.854  0.0452 -0.4699  1.1405
 2630SOL    HW219350   0.433   1.082  16.900  1.7658 -0.9002 -0.5133
 2631SOL     OW19351   3.724   1.850   1.436 -0.4742  0.5382 -0.5605
 2631SOL    HW119352   3.807   1.886   1.469 -1.2110  1.5608  0.1828
 2631SOL    HW219353   3.750   1.841   1.345 -1.6668  1.7560 -1.0221
 2632SOL     OW19354   2.429   3.167  10.653  0.0079 -0.0535 -0.4033
 2632SOL    HW119355   2.446   3.162  10.559 -1.9058  1.1249 -0.7970
 2632SOL    HW219356   2.470   3.248  10.682  0.8412 -0.4876 -0.3808
 2633SOL     OW19357   2.529   3.016   2.406  0.2184  0.0428 -0.4607
 2633SOL    HW119358   2.544   3.044   2.316  0.3301  0.2682 -0.3721
 2633SOL    HW219359   2.584   2.942   2.429  0.5493  0.3665 -0.2021
 2634SOL     OW19360   4.688   2.166   8.592  0.1377 -0.2514  0.2123
 2634SOL    HW119361   4.603   2.160   8.635  1.6606 -0.1047  3.2256
 2634SOL    HW219362   0.008   2.223   8.654 -0.0520  0.5801 -0.4092
 2635SOL     OW19363   1.639   3.402   9.043  0.7212  0.3856 -0.4748
 2635SOL    HW119364   1.703   3.398   9.114 -0.2236  0.2540  0.3708
 2635SOL    HW219365   1.561   3.356   9.075  0.2289  0.7219 -1.2015
 2636SOL     OW19366   3.448   3.805   4.618 -0.6789 -0.2930 -0.1361
 2636SOL    HW119367   3.532   3.839   4.650 -1.5936 -0.8744  2.9498
 2636SOL    HW219368   3.437   3.728   4.673  0.7885 -0.5557 -0.2225
 2637SOL     OW19369   2.860   4.312   0.069  0.6097 -0.1203 -0.1385
 2637SOL    HW119370   2.854   4.236   0.012  2.4977 -0.8641  0.6462
 2637SOL    HW219371   2.952   4.318   0.093 -0.2514 -1.0350  3.4683
 2638SOL     OW19372   3.915   1.672  12.369  0.2660 -0.0660 -0.4098
 2638SOL    HW119373   4.006   1.655  12.347  0.2103  1.0144 -1.4898
 2638SOL    HW219374   3.876   1.687  12.283  0.3663 -1.3044 -0.6691
 2639SOL     OW19375   3.691   0.254   9.080  0.5194 -0.1852  0.0074
 2639SOL    HW119376   3.697   0.240   9.174 -0.2364 -1.5447 -0.1432
 2639SOL    HW219377   3.636   0.332   9.071  0.6666 -0.4056 -2.8558
 2640SOL     OW19378   0.351   1.486   5.785  0.0247 -0.3747 -0.1180
 2640SOL    HW119379   0.361   1.397   5.751  4.0158  0.1624 -0.2409
 2640SOL    HW219380   0.356   1.480   5.881 -1.8580  0.9786  0.0783
 2641SOL     OW19381   2.090   3.991   6.189  0.8563  0.5742 -0.2479
 2641SOL    HW119382   2.169   3.962   6.234 -0.1197  0.5827  1.4577
 2641SOL    HW219383   2.130   4.027   6.110 -0.2632  0.7633 -0.7244
 2642SOL     OW19384   1.130   4.203   0.840  0.1769  1.1562 -0.1858
 2642SOL    HW119385   1.091   4.290   0.836  0.3682  1.2376 -0.2814
 2642SOL    HW219386   1.223   4.216   0.857  0.1920  1.2973 -0.3838
 2643SOL     OW19387   4.343   0.329   6.278 -0.2439  0.3483  0.3172
 2643SOL    HW119388   4.273   0.302   6.219 -1.3510 -3.8735  3.5210
 2643SOL    HW219389   4.421   0.287   6.242  0.9897  0.6030  2.6464
 2644SOL     OW19390   0.131   0.928   5.810 -0.1147  0.1117  0.1160
 2644SOL    HW119391   0.221   0.959   5.803  0.2906 -0.9572  0.6335
 2644SOL    HW219392   0.120   0.947   5.903  1.3195  1.1674  0.0685
 2645SOL     OW19393   4.045   1.246   8.128 -0.7014 -0.0756 -0.3248
 2645SOL    HW119394   4.073   1.163   8.167 -1.1884 -0.8387 -1.6005
 2645SOL    HW219395   4.052   1.232   8.033  0.5079 -0.4873 -0.1798
 2646SOL     OW19396   1.230   3.025  11.858 -0.2285 -0.1859 -0.2077
 2646SOL    HW119397   1.194   2.993  11.941 -3.3641 -1.4794 -2.0514
 2646SOL    HW219398   1.318   2.991  11.870 -1.6033 -4.3352 -1.8906
 2647SOL     OW19399   4.697   3.413  15.934 -0.0136  0.0854  0.0264
 2647SOL    HW119400   0.041   3.455  15.884  0.3836 -0.8562 -0.2065
 2647SOL    HW219401   4.710   3.325  15.898  2.8508  0.5416 -0.0982
 2648SOL     OW19402   0.667   3.351   6.213  0.2677 -0.6602 -0.0513
 2648SOL    HW119403   0.644   3.388   6.298  1.3768  0.8296 -0.4062
 2648SOL    HW219404   0.708   3.420   6.162  0.0620 -0.1125  0.5330
 2649SOL     OW19405   1.771   0.378  16.966 -0.3785  0.1448  0.4304
 2649SOL    HW119406   1.722   0.296  16.952 -0.5973  0.2592  0.5193
 2649SOL    HW219407   1.705   0.434  17.007 -0.8586 -0.7543  0.8822
 2650SOL     OW19408   0.170   4.618   5.467  0.1410  0.3791 -0.6431
 2650SOL    HW119409   0.123   4.621   5.383  3.1158  1.1999 -2.2866
 2650SOL    HW219410   0.262   4.634   5.446  0.2439  0.6516  0.0287
 2651SOL     OW19411   3.735   1.601  17.203 -0.2945 -0.4521 -0.1578
 2651SOL    HW119412   3.755   1.694  17.206 -0.1742 -0.5040  0.5648
 2651SOL    HW219413   3.791   1.566  17.272 -0.3589  0.6302  0.4331
 2652SOL     OW19414   0.547   4.679   7.261 -0.4630  0.0508 -0.1780
 2652SOL    HW119415   0.471   4.703   7.314 -1.1598 -2.1000 -0.2102
 2652SOL    HW219416   0.497   4.659   7.182 -1.3349 -0.9858  0.6357
 2653SOL     OW19417   3.961   0.992  10.824  0.4943 -0.0622 -0.4544
 2653SOL    HW119418   3.868   0.999  10.843  0.5841 -0.2902  0.0674
 2653SOL    HW219419   3.961   1.017  10.732 -1.2059 -0.9898 -0.6934
 2654SOL     OW19420   1.404   1.558   4.133 -0.7895  0.1278 -0.4208
 2654SOL    HW119421   1.394   1.504   4.211  0.3978  2.4507  1.3263
 2654SOL    HW219422   1.321   1.605   4.128 -2.4123 -2.6150  0.6538
 2655SOL     OW19423   4.002   3.873   5.953 -0.1105  0.4771 -0.6366
 2655SOL    HW119424   4.077   3.832   5.910  1.5972  1.2989  1.5575
 2655SOL    HW219425   4.044   3.912   6.030 -0.6340  1.5493 -0.8860
 2656SOL     OW19426   0.725   2.814  16.893 -0.3176  0.0489  0.7508
 2656SOL    HW119427   0.780   2.735  16.888  0.5092  0.7030 -0.2280
 2656SOL    HW219428   0.693   2.818  16.803  0.5202 -0.1485  0.4417
 2657SOL     OW19429   1.468   1.082   0.347 -0.0067 -0.3398 -0.2124
 2657SOL    HW119430   1.426   1.013   0.398 -0.1423 -1.2305 -1.5614
 2657SOL    HW219431   1.482   1.156   0.407  0.4159  0.1504 -0.9129
 2658SOL     OW19432   2.263   2.241  16.063 -0.6958  0.1117  0.4270
 2658SOL    HW119433   2.168   2.249  16.051 -0.5252  0.4785 -0.6338
 2658SOL    HW219434   2.291   2.152  16.042 -0.9507  0.0982  0.1453
 2659SOL     OW19435   3.717   2.157   1.409  0.0997 -0.0491 -0.2031
 2659SOL    HW119436   3.683   2.225   1.466 -0.6749 -1.9696  1.6028
 2659SOL    HW219437   3.677   2.074   1.434 -0.3006  0.1247 -0.2773
 2660SOL     OW19438   4.657   3.602   1.989 -0.1862  0.0695 -0.4258
 2660SOL    HW119439   4.682   3.648   1.910 -1.7526 -0.2595 -1.0982
 2660SOL    HW219440   0.026   3.599   2.008  0.0279 -1.3210 -1.7344
 2661SOL     OW19441   4.180   2.029   4.411 -0.2295 -0.0642  0.5684
 2661SOL    HW119442   4.094   2.040   4.370  0.1353 -3.0550 -1.0638
 2661SOL    HW219443   4.156   2.025   4.503 -0.2294 -1.5197  0.5064
 2662SOL     OW19444   0.662   0.460   1.672  0.0783  0.1908 -0.4266
 2662SOL    HW119445   0.694   0.477   1.761  1.1911  1.5482 -1.0870
 2662SOL    HW219446   0.568   0.460   1.690  0.6845 -1.2914  2.8519
 2663SOL     OW19447   4.028   1.326   4.909  0.2253  0.8483  0.4627
 2663SOL    HW119448   3.932   1.329   4.910  0.2046  0.7586 -1.1135
 2663SOL    HW219449   4.048   1.260   4.843 -0.7756  1.0195 -0.0099
 2664SOL     OW19450   3.357   0.423   6.198  0.0413  0.3866  0.3676
 2664SOL    HW119451   3.391   0.506   6.166  0.2032 -0.2822 -1.1781
 2664SOL    HW219452   3.271   0.422   6.156  1.2032  0.1412 -1.9973
 2665SOL     OW19453   2.445   3.448   2.099 -0.1968 -0.1349 -0.1147
 2665SOL    HW119454   2.495   3.516   2.053 -0.4254 -1.6254 -2.5596
 2665SOL    HW219455   2.397   3.407   2.027  2.7906  1.0432 -2.7661
 2666SOL     OW19456   4.121   3.757   5.694  0.2796  0.0881 -0.0355
 2666SOL    HW119457   4.042   3.715   5.659  0.2808 -0.3911  0.5491
 2666SOL    HW219458   4.188   3.730   5.631  0.2374 -1.4484  0.5792
 2667SOL     OW19459   0.590   3.560   7.883  0.3373 -0.1172  0.0538
 2667SOL    HW119460   0.669   3.516   7.850  0.1940 -1.1187  1.0512
 2667SOL    HW219461   0.595   3.548   7.978  0.8712  0.1241  0.0548
 2668SOL     OW19462   0.479   4.337   3.978 -0.1523  0.8460 -0.0140
 2668SOL    HW119463   0.426   4.263   3.948 -1.5074  2.4713 -1.6041
 2668SOL    HW219464   0.465   4.327   4.073  1.4145 -5.8654 -0.4360
 2669SOL     OW19465   0.036   3.724   4.000  0.5527 -0.1690  0.0749
 2669SOL    HW119466   0.126   3.704   4.026  0.5445 -1.5440 -0.9575
 2669SOL    HW219467   0.041   3.796   3.938 -1.8506  0.2778  0.3955
 2670SOL     OW19468   0.374   3.479   6.463  0.3368  0.0860 -0.3523
 2670SOL    HW119469   0.391   3.499   6.555  1.3993 -0.0913 -0.5133
 2670SOL    HW219470   0.291   3.526   6.468  0.0887 -0.4602  0.7871
 2671SOL     OW19471   0.051   3.903   3.809 -0.3989  0.5963 -0.0281
 2671SOL    HW119472   0.126   3.857   3.773 -0.0570  0.9549  0.2189
 2671SOL    HW219473   0.088   3.989   3.829 -0.3203  0.6547 -0.4329
 2672SOL     OW19474   4.194   1.901  14.373  0.0576 -0.5215  0.2454
 2672SOL    HW119475   4.233   1.988  14.366  0.3384 -0.4927  2.0011
 2672SOL    HW219476   4.132   1.900  14.301 -1.5663 -0.8183  1.6360
 2673SOL     OW19477   1.487   0.983  17.582  0.1678  0.1849 -0.7073
 2673SOL    HW119478   1.489   0.950  17.672 -2.8713 -0.3240 -0.8306
 2673SOL    HW219479   1.581   1.001  17.578 -0.1422  1.6033 -1.6932
 2674SOL     OW19480   1.982   0.421   9.207  0.4291  0.0949  0.4653
 2674SOL    HW119481   1.969   0.400   9.299 -0.4324  1.6961  0.7076
 2674SOL    HW219482   1.897   0.459   9.187  0.0330 -0.9896  0.1146
 2675SOL     OW19483   3.860   3.021  11.685  0.3454  0.6004 -0.4159
 2675SOL    HW119484   3.840   2.949  11.625  1.3297  0.2150 -0.2770
 2675SOL    HW219485   3.889   2.969  11.760  3.1460  0.2816 -1.7244
 2676SOL     OW19486   1.752   1.229   3.822 -0.1386 -0.3137  0.2979
 2676SOL    HW119487   1.776   1.313   3.784  0.0553 -1.1106 -1.3438
 2676SOL    HW219488   1.765   1.184   3.738  0.7399 -1.6734  1.1488
 2677SOL     OW19489   0.470   3.829   8.969  0.3911 -0.3280  0.1792
 2677SOL    HW119490   0.519   3.761   9.016  1.5716 -1.4939 -2.6871
 2677SOL    HW219491   0.425   3.872   9.041  1.2207  0.7829  0.0357
 2678SOL     OW19492   2.225   3.478  15.346 -0.4388  0.2227 -0.5058
 2678SOL    HW119493   2.206   3.419  15.419 -0.1651  1.4658  0.5728
 2678SOL    HW219494   2.312   3.505  15.375 -0.1841  1.4723 -2.3744
 2679SOL     OW19495   2.124   0.903   7.268 -0.1814  0.2278  0.0440
 2679SOL    HW119496   2.132   0.932   7.359 -0.8639 -1.6781  0.7207
 2679SOL    HW219497   2.069   0.974   7.235  0.7382  0.5676 -0.7628
 2680SOL     OW19498   4.245   0.292   9.816 -0.5339  0.0091 -0.3916
 2680SOL    HW119499   4.274   0.383   9.827  2.4870 -1.1264  1.0970
 2680SOL    HW219500   4.258   0.252   9.902 -1.2700  0.7268  0.0569
 2681SOL     OW19501   2.091   3.963   2.952 -0.6981 -0.2224  0.7421
 2681SOL    HW119502   2.154   3.983   3.022  2.5406 -1.5829 -1.7975
 2681SOL    HW219503   2.015   3.937   3.004 -1.2593 -1.8342 -0.9032
 2682SOL     OW19504   0.240   3.534  15.851  0.0181 -0.2995 -0.2414
 2682SOL    HW119505   0.295   3.484  15.911  0.6347  0.8186  0.1423
 2682SOL    HW219506   0.239   3.618  15.897  0.1605 -0.3763 -0.0992
 2683SOL     OW19507   0.785   0.645   8.307 -0.2655 -0.0985  0.1295
 2683SOL    HW119508   0.749   0.731   8.331 -0.1774 -0.9086  3.1323
 2683SOL    HW219509   0.858   0.671   8.250 -0.5511 -1.6494 -0.9234
 2684SOL     OW19510   1.793   3.158   8.879  0.0807 -0.4431  0.5792
 2684SOL    HW119511   1.767   3.188   8.792 -0.7222  0.3206  1.0725
 2684SOL    HW219512   1.862   3.219   8.905 -0.1006 -0.5802  1.3747
 2685SOL     OW19513   3.591   2.600   7.611  0.0360 -0.3455 -0.5067
 2685SOL    HW119514   3.634   2.515   7.612  2.0985  0.6817 -1.0115
 2685SOL    HW219515   3.522   2.596   7.545 -0.4377 -0.7946  0.0189
 2686SOL     OW19516   3.000   2.085   6.791  0.4239 -0.0470 -0.0345
 2686SOL    HW119517   3.028   2.176   6.775 -0.7377  0.4997  1.0536
 2686SOL    HW219518   3.073   2.054   6.844 -1.0739  0.7638  2.4951
 2687SOL     OW19519   3.632   0.773  10.582  0.0256 -0.2026  0.4773
 2687SOL    HW119520   3.583   0.793  10.662 -4.1322 -0.3823 -2.0022
 2687SOL    HW219521   3.636   0.678  10.572 -0.1217 -0.2359  0.7382
 2688SOL     OW19522   2.417   0.156   0.592 -0.3118 -0.2654  0.1276
 2688SOL    HW119523   2.406   0.251   0.585 -2.1904 -0.4482  0.7145
 2688SOL    HW219524   2.336   0.122   0.555  1.1491 -0.8678 -2.4995
 2689SOL     OW19525   0.905   2.961   6.566 -0.3402  0.1456 -0.3752
 2689SOL    HW119526   0.949   2.877   6.549  0.1958  0.2577  0.4842
 2689SOL    HW219527   0.971   3.019   6.529  0.2048 -0.8852 -1.0419
 2690SOL     OW19528   2.747   2.741  14.354  0.3794  0.4028  0.0970
 2690SOL    HW119529   2.710   2.652  14.348  0.0873  0.4623  1.1027
 2690SOL    HW219530   2.751   2.743  14.449  0.1457 -0.9364  0.1470
 2691SOL     OW19531   3.166   3.091  15.221 -0.1688  0.1665  0.1472
 2691SOL    HW119532   3.204   3.130  15.142  2.4507 -1.4671  0.5872
 2691SOL    HW219533   3.087   3.144  15.212 -2.0192 -2.4356  1.0679
 2692SOL     OW19534   0.800   3.770   7.013  0.0978 -0.8171  0.4006
 2692SOL    HW119535   0.760   3.729   6.937  2.1462 -1.8904 -0.1034
 2692SOL    HW219536   0.840   3.851   6.981  1.1437 -1.7413 -0.6406
 2693SOL     OW19537   3.077   4.199   7.828  0.3496 -0.0900  0.1953
 2693SOL    HW119538   3.149   4.207   7.765 -0.5728  0.2950 -0.7989
 2693SOL    HW219539   3.023   4.135   7.783 -0.0353  0.3930 -0.0295
 2694SOL     OW19540   2.494   4.628  14.122  0.0520  0.1512 -0.5816
 2694SOL    HW119541   2.539   4.583  14.051  1.4407 -0.4971  0.7035
 2694SOL    HW219542   2.524   4.719  14.127  1.7436 -0.5104  1.3981
 2695SOL     OW19543   2.785   0.181   8.058  0.0866  0.2705 -0.0213
 2695SOL    HW119544   2.770   0.127   8.136  1.4622 -0.8839 -0.5464
 2695SOL    HW219545   2.696   0.198   8.028  0.3127  1.5831  0.0338
 2696SOL     OW19546   4.030   4.679   8.621 -0.1695 -0.4841 -0.1391
 2696SOL    HW119547   4.065   0.040   8.645  0.5382 -1.5858  2.7402
 2696SOL    HW219548   4.067   4.614   8.680  1.0888  1.9978  1.8393
 2697SOL     OW19549   0.830   0.395  14.312 -0.1073  0.1181  0.3986
 2697SOL    HW119550   0.770   0.389  14.238 -3.2454  1.8697  2.8063
 2697SOL    HW219551   0.767   0.417  14.381 -2.4782  0.1920 -1.8053
 2698SOL     OW19552   3.295   3.519  13.874 -0.4679 -0.3118 -0.4820
 2698SOL    HW119553   3.223   3.519  13.811 -1.1971  0.2673  0.3489
 2698SOL    HW219554   3.309   3.614  13.879  0.2907 -0.3494 -2.0286
 2699SOL     OW19555   2.160   0.971   7.806  0.6897  0.2788 -0.2869
 2699SOL    HW119556   2.112   1.044   7.846  2.3734 -0.0890  2.3934
 2699SOL    HW219557   2.223   0.945   7.873  0.5001 -1.8535 -0.9655
 2700SOL     OW19558   1.784   2.080  11.204  0.3637 -0.3580 -0.1842
 2700SOL    HW119559   1.710   2.035  11.246 -0.9409 -1.0199 -3.2091
 2700SOL    HW219560   1.849   2.010  11.195  0.3709 -0.2600 -0.9315
 2701SOL     OW19561   2.581   3.032  11.649 -0.0618 -0.4805  0.0460
 2701SOL    HW119562   2.649   3.055  11.713 -1.1083  0.2241  0.9169
 2701SOL    HW219563   2.614   3.039  11.560 -0.9924  1.9964 -0.1062
 2702SOL     OW19564   2.122   0.880  17.549  0.1906 -0.3373  0.4152
 2702SOL    HW119565   2.205   0.900  17.592  1.2758  0.4268 -2.0928
 2702SOL    HW219566   2.085   0.966  17.533 -1.9913 -1.4096 -0.3092
 2703SOL     OW19567   3.121   3.920   2.481  0.0149 -0.7521 -0.0650
 2703SOL    HW119568   3.195   3.882   2.434 -0.9561 -0.5989 -1.6796
 2703SOL    HW219569   3.069   3.842   2.499 -0.0268 -1.3173 -2.6512
 2704SOL     OW19570   4.191   3.592   1.253 -0.3362  0.6817 -0.0638
 2704SOL    HW119571   4.121   3.528   1.267  0.3824 -0.0410  0.2357
 2704SOL    HW219572   4.261   3.527   1.256 -0.8042  0.2778  2.1299
 2705SOL     OW19573   2.189   3.314   7.939 -0.6501 -0.1301  0.3961
 2705SOL    HW119574   2.220   3.259   8.012 -0.3426 -3.5172 -2.2883
 2705SOL    HW219575   2.141   3.388   7.975 -0.8413  0.2568 -0.6875
 2706SOL     OW19576   3.074   2.577   6.505 -0.5660 -0.6293  0.4471
 2706SOL    HW119577   2.981   2.599   6.511  0.4484  3.7973  0.2327
 2706SOL    HW219578   3.083   2.519   6.580  1.4411 -0.8646  0.0339
 2707SOL     OW19579   1.088   3.343   0.857  0.4961 -0.0092 -0.1231
 2707SOL    HW119580   1.161   3.282   0.862 -0.1499 -0.8330 -0.6936
 2707SOL    HW219581   1.111   3.379   0.771 -1.1627 -0.7785 -0.9035
 2708SOL     OW19582   2.232   0.231   1.229 -0.2247 -0.0518 -0.4402
 2708SOL    HW119583   2.228   0.277   1.313  0.9127 -0.4116 -0.1813
 2708SOL    HW219584   2.149   0.185   1.238 -0.7367  0.7193 -1.2550
 2709SOL     OW19585   0.715   2.591   7.646  0.9529 -0.0636  0.0192
 2709SOL    HW119586   0.699   2.549   7.730  1.1182  0.1569  0.1611
 2709SOL    HW219587   0.717   2.680   7.681  1.5603 -0.9224  2.1615
 2710SOL     OW19588   0.675   1.008   4.968  0.2086  0.2032 -0.1714
 2710SOL    HW119589   0.712   1.012   5.056  0.7343 -0.2841 -0.3742
 2710SOL    HW219590   0.585   0.978   4.978  0.8916 -1.6908  0.2675
 2711SOL     OW19591   0.211   3.153   2.222  0.2340  0.7137  0.1208
 2711SOL    HW119592   0.184   3.238   2.185 -1.6434 -0.2825 -0.8029
 2711SOL    HW219593   0.147   3.096   2.180  3.1114 -0.8029 -2.2022
 2712SOL     OW19594   2.813   4.437   0.910 -0.1894 -0.0489 -0.3199
 2712SOL    HW119595   2.722   4.406   0.907 -0.3770  0.4899 -0.1088
 2712SOL    HW219596   2.803   4.523   0.949  2.6580 -0.4904  1.3818
 2713SOL     OW19597   0.751   2.827   4.518 -0.2061 -0.2352  0.2794
 2713SOL    HW119598   0.829   2.864   4.475 -0.3422 -1.4446 -1.0182
 2713SOL    HW219599   0.781   2.784   4.598  0.7495  2.6293  1.4548
 2714SOL     OW19600   3.507   4.394  16.837 -0.4778 -0.3391 -0.3608
 2714SOL    HW119601   3.484   4.427  16.924 -0.2645 -2.8281  0.6408
 2714SOL    HW219602   3.556   4.318  16.869  0.8361 -0.0638 -1.7412
 2715SOL     OW19603   3.295   0.952   5.529  0.1793  0.4243 -0.9762
 2715SOL    HW119604   3.242   0.873   5.516  1.6730 -0.3208 -2.5849
 2715SOL    HW219605   3.321   0.941   5.620  2.0068 -0.7724 -1.6366
 2716SOL     OW19606   4.688   2.916   6.089  0.2471  0.1137  0.0577
 2716SOL    HW119607   4.669   2.822   6.087 -0.2999  0.2421 -0.9611
 2716SOL    HW219608   0.017   2.917   6.011  0.7091  1.7750  0.4020
 2717SOL     OW19609   2.139   3.846   7.266  0.4542 -0.0728 -0.3667
 2717SOL    HW119610   2.204   3.868   7.333 -0.8205 -1.8417  1.4258
 2717SOL    HW219611   2.101   3.931   7.242  2.3481  0.5084 -1.3348
 2718SOL     OW19612   3.608   3.762   6.978 -0.4001  0.1741  1.0298
 2718SOL    HW119613   3.521   3.751   6.940  0.3794  0.0654 -0.7570
 2718SOL    HW219614   3.600   3.720   7.064 -1.6996 -1.1068  0.2910
 2719SOL     OW19615   0.172   2.411  11.065  0.5735  0.1301 -0.1067
 2719SOL    HW119616   0.162   2.462  10.985 -1.7552 -0.1123  0.0411
 2719SOL    HW219617   0.145   2.323  11.040  1.7795 -0.0711 -0.7130
 2720SOL     OW19618   3.453   2.420   7.108  0.1073  0.1812  0.5148
 2720SOL    HW119619   3.453   2.356   7.179 -0.8130  2.2287  2.3641
 2720SOL    HW219620   3.378   2.478   7.119  1.2881  2.0279 -1.1710
 2721SOL     OW19621   3.783   3.757  16.544 -0.4812  1.0560  0.2078
 2721SOL    HW119622   3.730   3.735  16.620 -0.7553 -1.3497 -0.6489
 2721SOL    HW219623   3.806   3.671  16.509  0.8856  2.2922 -1.9151
 2722SOL     OW19624   3.207   3.806  15.246 -0.1271 -0.1214 -0.5267
 2722SOL    HW119625   3.125   3.756  15.241 -0.1534  0.0169 -1.4950
 2722SOL    HW219626   3.226   3.822  15.154  0.3070 -0.0314 -0.4213
 2723SOL     OW19627   1.413   4.063   8.992  0.0610  0.1677 -0.3412
 2723SOL    HW119628   1.474   4.064   8.918  0.8711 -2.5589  0.2812
 2723SOL    HW219629   1.480   4.044   9.058  1.0811 -1.5591 -1.9105
 2724SOL     OW19630   4.076   3.071   7.484 -0.0199  0.1660 -0.4400
 2724SOL    HW119631   4.072   2.977   7.464  1.1424  0.2193 -0.9133
 2724SOL    HW219632   4.166   3.090   7.460  0.3507 -1.4853 -0.3894
 2725SOL     OW19633   4.666   1.633   2.716 -0.2020 -0.0873 -0.5057
 2725SOL    HW119634   0.015   1.632   2.657  0.7626 -0.4242  0.7069
 2725SOL    HW219635   4.623   1.551   2.692 -0.1255 -0.2118 -0.2214
 2726SOL     OW19636   0.921   3.391  13.050  0.1672  0.0788 -0.2088
 2726SOL    HW119637   0.831   3.385  13.019  0.4138  1.7111 -1.2298
 2726SOL    HW219638   0.961   3.330  12.989 -0.2438 -0.9924  0.5933
 2727SOL     OW19639   1.793   2.763   3.079 -0.6010 -0.1896  0.1941
 2727SOL    HW119640   1.742   2.693   3.039 -0.4982 -0.6821  0.9368
 2727SOL    HW219641   1.786   2.827   3.008  2.4041 -0.2009 -0.1350
 2728SOL     OW19642   0.662   3.585   6.535 -0.1095 -0.1807  0.4490
 2728SOL    HW119643   0.628   3.495   6.540  0.1555 -0.3756 -1.2721
 2728SOL    HW219644   0.660   3.603   6.441  1.9019 -1.5494  0.1483
 2729SOL     OW19645   2.944   4.348  15.732 -0.8774 -0.3977 -0.2127
 2729SOL    HW119646   2.866   4.327  15.682 -0.7079  4.1923 -2.3914
 2729SOL    HW219647   2.921   4.437  15.756 -2.1423 -0.7603 -0.0961
 2730SOL     OW19648   0.644   0.212   3.812  0.1352 -0.2335  0.0931
 2730SOL    HW119649   0.626   0.142   3.749 -3.3563  1.6180 -0.9475
 2730SOL    HW219650   0.738   0.227   3.800 -0.4024  1.1141 -2.3705
 2731SOL     OW19651   1.877   3.798   1.750  0.7029 -0.1340  0.0041
 2731SOL    HW119652   1.889   3.881   1.797 -2.2918 -0.5583  1.5722
 2731SOL    HW219653   1.901   3.829   1.663  1.2004  2.6721  1.1444
 2732SOL     OW19654   0.661   4.192   7.419 -0.1155  0.3461  0.3025
 2732SOL    HW119655   0.710   4.272   7.437  0.3799  0.3819 -1.2455
 2732SOL    HW219656   0.675   4.147   7.503 -2.4456 -0.7387  0.1091
 2733SOL     OW19657   0.623   1.120   6.554 -0.4202  0.5264  0.0841
 2733SOL    HW119658   0.716   1.140   6.548  0.3547 -2.4297  2.2912
 2733SOL    HW219659   0.591   1.177   6.624 -1.0158  0.2729  0.0208
 2734SOL     OW19660   0.394   0.219   7.542  0.4608 -0.0460  0.4756
 2734SOL    HW119661   0.447   0.259   7.610  1.6894  1.3993 -1.3679
 2734SOL    HW219662   0.428   0.267   7.467  0.2390 -0.5890  0.0261
 2735SOL     OW19663   1.932   4.197   6.822  0.4072 -1.2510 -0.1430
 2735SOL    HW119664   2.018   4.169   6.854  2.5950  2.7053 -2.4810
 2735SOL    HW219665   1.879   4.124   6.852 -0.5519  0.8480  3.2620
 2736SOL     OW19666   1.265   4.499   8.467 -0.1153  0.1467 -0.5054
 2736SOL    HW119667   1.256   4.414   8.510  1.6471  0.0446 -0.3333
 2736SOL    HW219668   1.206   4.556   8.516  1.7184 -0.1413  2.0174
 2737SOL     OW19669   3.928   2.219  14.587 -0.6253 -0.1568  0.3834
 2737SOL    HW119670   3.861   2.284  14.608 -0.0410  0.0665  1.5401
 2737SOL    HW219671   3.940   2.223  14.492 -0.0893  0.5795  0.4799
 2738SOL     OW19672   1.539   1.656   9.931 -0.1070 -0.3460 -0.4396
 2738SOL    HW119673   1.554   1.750   9.930 -0.4234 -0.2979 -0.6712
 2738SOL    HW219674   1.627   1.636   9.899 -0.1726 -1.4707  0.0882
 2739SOL     OW19675   1.418   4.254   9.292 -0.0750 -0.0630 -0.0213
 2739SOL    HW119676   1.489   4.273   9.231 -0.2302  0.8407  0.0860
 2739SOL    HW219677   1.353   4.223   9.230  1.7395 -0.4469 -1.7453
 2740SOL     OW19678   4.017   3.922   9.533  0.3919 -0.1902  0.2215
 2740SOL    HW119679   3.944   3.918   9.595  1.2550  0.9642  1.3193
 2740SOL    HW219680   4.036   4.015   9.520 -4.1019  0.8068  0.5490
 2741SOL     OW19681   1.093   2.007   6.717 -0.0714  0.5369  0.4442
 2741SOL    HW119682   1.181   1.974   6.732 -0.2221 -0.9715 -1.9238
 2741SOL    HW219683   1.109   2.101   6.718 -0.8549  0.6667  0.7644
 2742SOL     OW19684   0.825   1.672   6.706 -0.4811 -0.1867  0.3574
 2742SOL    HW119685   0.912   1.689   6.741 -1.1914 -2.4632  3.2342
 2742SOL    HW219686   0.846   1.617   6.630 -0.1088  2.8599 -1.7537
 2743SOL     OW19687   0.009   0.299   1.933  0.1700 -0.1481  0.3585
 2743SOL    HW119688   0.051   0.213   1.926 -0.0270 -0.3424  1.5724
 2743SOL    HW219689   4.651   0.267   1.967 -0.5528 -0.9449 -2.1538
 2744SOL     OW19690   4.431   1.685  16.701  0.2426 -0.0199 -0.1091
 2744SOL    HW119691   4.351   1.689  16.755  1.7410  0.9718  2.0200
 2744SOL    HW219692   4.413   1.596  16.672 -1.9350  0.5611 -0.5498
 2745SOL     OW19693   3.338   4.714  10.989  0.0108  0.1228 -0.0044
 2745SOL    HW119694   3.305   0.026  11.070  2.7524  3.4905 -0.4431
 2745SOL    HW219695   3.352   0.069  10.938  4.9504 -0.2468  0.7602
 2746SOL     OW19696   2.578   1.883   0.295 -0.0642  0.2417  0.3801
 2746SOL    HW119697   2.646   1.816   0.299  0.3852  0.6036 -1.1386
 2746SOL    HW219698   2.506   1.845   0.345 -0.7096 -0.5168 -1.1365
 2747SOL     OW19699   2.019   0.776   9.565 -0.5084 -0.2093 -0.0371
 2747SOL    HW119700   2.024   0.781   9.469  2.9678  0.9351  0.1801
 2747SOL    HW219701   2.029   0.683   9.584 -1.7305 -0.6246 -1.4245
 2748SOL     OW19702   3.126   4.277  16.212  0.1805  0.4322  0.2313
 2748SOL    HW119703   3.130   4.332  16.134 -1.7054  0.0364 -0.1438
 2748SOL    HW219704   3.216   4.279  16.244 -0.5239  1.3314  2.1431
 2749SOL     OW19705   1.903   1.668   2.912 -0.3643 -0.7538 -0.0260
 2749SOL    HW119706   1.923   1.594   2.969 -0.5524  1.2263  2.6037
 2749SOL    HW219707   1.895   1.743   2.971  1.9405 -1.0163  0.5997
 2750SOL     OW19708   3.925   4.279   5.438 -0.0454  0.0855  0.0733
 2750SOL    HW119709   3.881   4.202   5.473  1.3005 -0.0565  1.4107
 2750SOL    HW219710   3.864   4.297   5.366  1.7486  0.9343 -1.2556
 2751SOL     OW19711   2.069   1.405   5.027  0.0017  0.2608  0.3781
 2751SOL    HW119712   2.083   1.485   5.077 -0.8788  0.2897  0.5877
 2751SOL    HW219713   2.109   1.440   4.947 -0.6293 -0.8762 -0.4381
 2752SOL     OW19714   2.745   0.613   1.834  0.7153  0.0066 -0.1188
 2752SOL    HW119715   2.727   0.676   1.764 -0.9465 -0.3723 -0.0439
 2752SOL    HW219716   2.674   0.549   1.829  0.7561 -0.0139 -0.3992
 2753SOL     OW19717   0.031   3.891   6.526 -0.7398 -0.0101 -0.4458
 2753SOL    HW119718   4.723   3.940   6.601  0.5034  0.2158 -0.0470
 2753SOL    HW219719   0.098   3.835   6.566 -0.8346  1.1821  1.3747
 2754SOL     OW19720   2.715   4.376   5.833  0.5398  0.4765 -0.0282
 2754SOL    HW119721   2.701   4.346   5.923 -0.1571 -4.1433 -1.6984
 2754SOL    HW219722   2.635   4.352   5.787  1.5337 -1.7820 -0.5563
 2755SOL     OW19723   1.286   1.722   9.780  0.5418 -0.3903 -0.5181
 2755SOL    HW119724   1.325   1.635   9.775  1.2531 -0.2738  2.5157
 2755SOL    HW219725   1.352   1.761   9.838 -1.6960  0.5995  1.3541
 2756SOL     OW19726   2.542   0.824   2.750  0.0183 -0.2367 -0.2841
 2756SOL    HW119727   2.634   0.841   2.726  0.8909 -0.6836  2.7813
 2756SOL    HW219728   2.550   0.814   2.845  0.9532  0.1569 -0.3206
 2757SOL     OW19729   1.185   0.023  13.329  0.0368  0.2342  0.6470
 2757SOL    HW119730   1.234   0.105  13.319  0.5215 -0.1489 -0.0935
 2757SOL    HW219731   1.121   0.044  13.397 -1.1426 -0.6112 -0.1994
 2758SOL     OW19732   2.549   2.495   8.303 -0.1632 -0.1391  0.1028
 2758SOL    HW119733   2.528   2.465   8.391  0.4398  0.0012  0.2911
 2758SOL    HW219734   2.471   2.549   8.288 -0.1864  0.0342  0.8349
 2759SOL     OW19735   3.500   1.662  13.901 -0.2834 -0.0895  0.0495
 2759SOL    HW119736   3.458   1.730  13.953  1.9600  0.5148  1.0540
 2759SOL    HW219737   3.470   1.579  13.937  0.4849 -1.1572 -1.7505
 2760SOL     OW19738   2.743   4.102   8.390 -0.1745 -0.1039 -0.0669
 2760SOL    HW119739   2.833   4.108   8.421 -0.2512 -2.1772  0.5445
 2760SOL    HW219740   2.716   4.015   8.418 -1.5259  0.8161  1.5146
 2761SOL     OW19741   3.691   1.452   4.663 -0.0391  0.0042  0.3133
 2761SOL    HW119742   3.633   1.523   4.634 -0.3850 -0.4712 -0.1708
 2761SOL    HW219743   3.628   1.380   4.663  0.6455 -0.5939 -0.5757
 2762SOL     OW19744   1.901   1.419   5.442  0.3513 -0.3473 -0.3613
 2762SOL    HW119745   1.940   1.333   5.460  0.4948 -0.7329 -2.5124
 2762SOL    HW219746   1.861   1.404   5.356 -0.5916  0.6560 -0.0951
 2763SOL     OW19747   1.259   2.387   5.458 -0.4307  0.1237 -0.1901
 2763SOL    HW119748   1.228   2.364   5.370  1.8040 -0.9672 -0.6669
 2763SOL    HW219749   1.301   2.472   5.452  2.1862 -1.1685 -0.0883
 2764SOL     OW19750   0.455   0.164  12.835  0.4916 -0.4711  0.0003
 2764SOL    HW119751   0.514   0.090  12.822 -0.3655 -1.2539  0.6555
 2764SOL    HW219752   0.437   0.164  12.929  1.8602 -0.2456  0.2629
 2765SOL     OW19753   4.161   4.182   7.805  0.9913  0.0533 -0.0705
 2765SOL    HW119754   4.200   4.181   7.718 -4.0633  1.8807 -2.3105
 2765SOL    HW219755   4.091   4.119   7.789  0.5162  0.7334 -0.6253
 2766SOL     OW19756   2.762   2.361   4.161 -0.0510 -0.2955  0.5129
 2766SOL    HW119757   2.820   2.433   4.135  0.2562 -0.5095  0.6076
 2766SOL    HW219758   2.787   2.345   4.253 -0.0220 -0.5003  0.4694
 2767SOL     OW19759   1.955   1.723   3.470 -0.2349 -0.1237 -0.2386
 2767SOL    HW119760   2.010   1.796   3.439  1.1996 -0.6103  1.1318
 2767SOL    HW219761   1.902   1.762   3.539  0.2392  0.2843 -0.1014
 2768SOL     OW19762   0.555   3.831  10.351  0.4814  0.1324  0.5237
 2768SOL    HW119763   0.617   3.867  10.415  0.0185  1.8930 -0.0214
 2768SOL    HW219764   0.551   3.908  10.295 -0.2776 -0.1889  0.1277
 2769SOL     OW19765   4.594   2.161   1.502 -0.0902  0.7955  0.3298
 2769SOL    HW119766   4.616   2.253   1.519 -0.5958  1.0563 -0.4175
 2769SOL    HW219767   4.505   2.157   1.469 -0.3450  0.6001  1.0393
 2770SOL     OW19768   3.703   2.915   3.851 -0.2651  0.0966 -0.1837
 2770SOL    HW119769   3.792   2.884   3.865  0.2662  2.2203  1.0658
 2770SOL    HW219770   3.699   2.976   3.777 -0.6870 -0.6993 -0.8213
 2771SOL     OW19771   0.599   4.671   5.626  0.3994 -0.0770 -0.0518
 2771SOL    HW119772   0.509   4.662   5.658  1.1542  2.0269  2.6810
 2771SOL    HW219773   0.639   4.712   5.703 -2.4334  1.1398  0.7833
 2772SOL     OW19774   2.016   3.584  16.312  0.4158  0.7052 -0.3056
 2772SOL    HW119775   2.028   3.494  16.344 -0.4699  0.6474 -0.1437
 2772SOL    HW219776   1.994   3.582  16.219  0.8041 -0.3882 -0.3680
 2773SOL     OW19777   3.977   0.021   4.949 -0.2967 -0.3304 -0.2415
 2773SOL    HW119778   3.969   4.682   4.878 -0.2410 -0.5107 -0.0816
 2773SOL    HW219779   3.950   0.104   4.909  0.5225  0.3315  0.5748
 2774SOL     OW19780   3.687   4.542   4.470 -0.1275 -0.3712 -0.3278
 2774SOL    HW119781   3.702   4.629   4.435  1.4918 -0.4439  0.1688
 2774SOL    HW219782   3.592   4.537   4.461 -0.2335  3.1558 -1.0593
 2775SOL     OW19783   2.791   2.039   2.025 -0.2956  0.7449  0.5681
 2775SOL    HW119784   2.839   1.963   2.059  1.4846  0.6682 -2.1107
 2775SOL    HW219785   2.711   2.016   2.073 -0.1222 -1.2772 -0.1367
 2776SOL     OW19786   0.613   1.676   6.962  0.2459  0.1508  0.0931
 2776SOL    HW119787   0.636   1.762   6.998  0.4080  0.2058 -0.1395
 2776SOL    HW219788   0.612   1.692   6.868  0.5099 -1.4834 -0.1884
 2777SOL     OW19789   4.486   0.443   3.308 -0.1217  0.6523 -0.4470
 2777SOL    HW119790   4.486   0.451   3.213  1.6585 -0.0638 -0.5132
 2777SOL    HW219791   4.429   0.368   3.320  0.6053  0.2583  0.5420
 2778SOL     OW19792   3.759   1.504   6.474 -0.2209  0.1502  0.6873
 2778SOL    HW119793   3.770   1.431   6.534 -1.9373 -0.5428  0.1447
 2778SOL    HW219794   3.736   1.579   6.529 -0.8438  1.0473 -0.8067
 2779SOL     OW19795   2.333   1.008   6.745 -0.5031 -0.2454  0.3986
 2779SOL    HW119796   2.316   0.965   6.828 -0.0384  0.5320  0.8990
 2779SOL    HW219797   2.310   0.935   6.688 -0.9300  0.3011 -0.1377
 2780SOL     OW19798   2.385   3.140  14.974  0.1378  0.4935  0.3186
 2780SOL    HW119799   2.476   3.158  14.951  0.6380 -1.1776  0.9182
 2780SOL    HW219800   2.362   3.215  15.028  2.7273  1.3047  0.2688
 2781SOL     OW19801   1.121   4.436  13.134  0.0360 -0.5446  0.2435
 2781SOL    HW119802   1.047   4.447  13.194  1.4020  0.7811  1.6920
 2781SOL    HW219803   1.184   4.391  13.190 -0.4070 -0.5903  0.7062
 2782SOL     OW19804   0.918   0.096   5.983 -0.6041 -0.2309  0.2462
 2782SOL    HW119805   0.828   0.101   5.950 -0.4719 -1.7185 -0.3570
 2782SOL    HW219806   0.924   0.185   6.015 -1.3329 -0.1123  0.0445
 2783SOL     OW19807   0.486   0.197   4.624  0.1359 -0.2032 -0.3591
 2783SOL    HW119808   0.398   0.235   4.636 -0.4779 -2.1804  1.3773
 2783SOL    HW219809   0.541   0.242   4.688  0.2721 -0.3297 -0.3879
 2784SOL     OW19810   2.725   2.731  11.481  0.4521  0.2042  0.0187
 2784SOL    HW119811   2.788   2.677  11.528 -0.0381 -1.9567 -1.7723
 2784SOL    HW219812   2.678   2.656  11.442  0.7240 -0.8882  1.8187
 2785SOL     OW19813   0.315   1.461   2.624 -0.4471  0.1854 -0.5750
 2785SOL    HW119814   0.297   1.372   2.654  0.2769  0.2180 -0.0582
 2785SOL    HW219815   0.410   1.459   2.626 -0.4229 -1.7633 -3.3875
 2786SOL     OW19816   3.022   1.226   2.839  0.1979 -0.1577 -0.3667
 2786SOL    HW119817   3.014   1.309   2.885 -2.0765 -0.7939  0.4349
 2786SOL    HW219818   3.003   1.253   2.749 -2.3105  0.4678  0.3459
 2787SOL     OW19819   3.141   2.084   8.747 -0.3560 -0.3214 -0.2966
 2787SOL    HW119820   3.199   2.042   8.811  0.2911 -1.0406 -1.3379
 2787SOL    HW219821   3.062   2.036   8.769 -1.2880  0.9756 -0.7985
 2788SOL     OW19822   4.283   1.655   3.124 -0.2323  0.5406  0.1970
 2788SOL    HW119823   4.188   1.641   3.125 -0.1752  0.0288 -0.9738
 2788SOL    HW219824   4.295   1.611   3.039 -1.1052  1.3995 -0.3730
 2789SOL     OW19825   1.407   3.926   1.938  0.2887  0.1743  0.1543
 2789SOL    HW119826   1.331   3.983   1.927 -0.0837  0.1994  2.8505
 2789SOL    HW219827   1.363   3.846   1.969  2.1986 -0.9391 -0.0277
 2790SOL     OW19828   2.234   3.366  14.250  0.1409 -0.4074 -0.0549
 2790SOL    HW119829   2.273   3.309  14.317 -1.0758 -1.5064 -0.2711
 2790SOL    HW219830   2.224   3.448  14.299 -0.5363 -0.1634 -0.6101
 2791SOL     OW19831   4.667   2.192   2.627 -0.1553 -0.0323  0.1661
 2791SOL    HW119832   4.630   2.105   2.643  1.4201 -0.6765  0.2980
 2791SOL    HW219833   4.677   2.207   2.533  1.5292 -1.5324  0.1028
 2792SOL     OW19834   0.561   0.367   5.782  0.8033  0.1897 -0.2437
 2792SOL    HW119835   0.618   0.439   5.758  0.3117  0.0540 -1.8166
 2792SOL    HW219836   0.501   0.372   5.708  0.9847 -1.4791 -0.4966
 2793SOL     OW19837   3.290   3.735  17.690  0.5748 -0.2454 -0.0646
 2793SOL    HW119838   3.264   3.708  17.602 -1.3667 -0.6845  0.6540
 2793SOL    HW219839   3.259   3.664   0.043 -0.4890 -1.1213 -1.7658
 2794SOL     OW19840   0.183   2.621   5.898 -0.4155  0.2550  0.0978
 2794SOL    HW119841   0.276   2.603   5.913 -0.2790 -1.2480 -2.6406
 2794SOL    HW219842   0.179   2.609   5.803 -1.6499  0.4818  0.1164
 2795SOL     OW19843   2.745   2.322   4.705  0.1006 -0.3379 -0.3901
 2795SOL    HW119844   2.766   2.246   4.761 -0.3121  0.1501  0.4279
 2795SOL    HW219845   2.650   2.315   4.706 -0.1046  2.4521 -0.7808
 2796SOL     OW19846   3.317   2.258   3.782 -0.4749 -0.3730 -0.7965
 2796SOL    HW119847   3.235   2.247   3.733  0.3851  2.7832 -2.9731
 2796SOL    HW219848   3.354   2.173   3.759 -4.4236 -2.3121 -0.0015
 2797SOL     OW19849   2.680   1.554   4.908  0.4534  0.6412  0.0443
 2797SOL    HW119850   2.690   1.512   4.993  0.4879 -0.3109 -0.4323
 2797SOL    HW219851   2.769   1.538   4.877 -0.2211 -1.5528 -0.7468
 2798SOL     OW19852   2.884   3.215   2.667 -0.1814 -0.3979 -0.2297
 2798SOL    HW119853   2.842   3.273   2.604  0.4203 -2.6022 -2.6872
 2798SOL    HW219854   2.876   3.134   2.616 -0.1536  0.2156 -1.2236
 2799SOL     OW19855   3.445   1.755   6.113  0.0977  0.5012 -0.3032
 2799SOL    HW119856   3.531   1.762   6.155 -0.9061  2.4890  1.4322
 2799SOL    HW219857   3.400   1.838   6.131 -2.6601 -1.3936  1.5184
 2800SOL     OW19858   0.248   1.272   8.025  0.7374  0.0600 -0.2007
 2800SOL    HW119859   0.340   1.281   7.997  1.1532  1.4519  1.6784
 2800SOL    HW219860   0.267   1.260   8.118  0.8287  0.8251 -0.1233
 2801SOL     OW19861   3.921   4.570  16.392  0.5106 -0.2663 -0.2674
 2801SOL    HW119862   3.871   4.652  16.390  1.5461  0.3809  0.7452
 2801SOL    HW219863   3.982   4.592  16.462 -1.5223 -0.5473  1.6061
 2802SOL     OW19864   2.483   1.585  15.955  0.1098  0.0419  0.4245
 2802SOL    HW119865   2.527   1.541  15.882 -0.2138 -1.4511  1.1234
 2802SOL    HW219866   2.459   1.515  16.016 -1.3485  0.3265  0.1765
 2803SOL     OW19867   0.867   1.997   8.800  0.2316  0.1885 -0.3466
 2803SOL    HW119868   0.917   1.926   8.840 -2.3787 -0.2667  2.0977
 2803SOL    HW219869   0.817   1.953   8.731 -0.5651  0.3437  0.1349
 2804SOL     OW19870   2.343   3.716   7.918 -0.3893  0.0249  0.2987
 2804SOL    HW119871   2.269   3.724   7.979  0.4219 -1.1451  1.4156
 2804SOL    HW219872   2.390   3.647   7.964  0.6012  0.5574  0.0918
 2805SOL     OW19873   3.815   4.467   0.523  0.1540  0.0476  0.9172
 2805SOL    HW119874   3.813   4.374   0.548  0.9638  0.4973  2.6943
 2805SOL    HW219875   3.749   4.455   0.455 -0.8091 -0.7044  1.9810
 2806SOL     OW19876   1.772   2.165   2.448 -0.4500  0.4441 -0.2625
 2806SOL    HW119877   1.855   2.176   2.495 -1.1396  0.2436  0.9844
 2806SOL    HW219878   1.782   2.091   2.387  0.8790  0.2875  0.1340
 2807SOL     OW19879   2.986   4.248   1.012 -1.2344 -0.0982 -0.5459
 2807SOL    HW119880   2.979   4.187   0.939  1.2572  0.9805 -1.7103
 2807SOL    HW219881   2.930   4.321   0.985 -0.9613  1.1770  2.3449
 2808SOL     OW19882   3.217   0.304   4.441  0.0929  0.3340  0.1512
 2808SOL    HW119883   3.169   0.240   4.494  0.6711  1.5074  2.1052
 2808SOL    HW219884   3.247   0.366   4.508  1.8659  0.5374 -0.8384
 2809SOL     OW19885   0.846   4.635  15.168 -0.2704 -0.5514 -0.0278
 2809SOL    HW119886   0.897   4.713  15.186 -1.7628 -0.0792  2.0509
 2809SOL    HW219887   0.785   4.626  15.241  0.0885 -1.2530  0.1871
 2810SOL     OW19888   3.023   2.420   5.651  0.2360  0.1791  0.0587
 2810SOL    HW119889   2.940   2.430   5.604  0.7790  1.3547 -0.6428
 2810SOL    HW219890   3.055   2.332   5.633  0.0595  0.2649 -0.6487
 2811SOL     OW19891   2.375   0.232   5.883 -0.7859  0.3481  0.0295
 2811SOL    HW119892   2.449   0.194   5.836 -0.2257  1.7859 -0.2500
 2811SOL    HW219893   2.365   0.323   5.856 -0.2274  0.3875 -0.0364
 2812SOL     OW19894   2.324   0.472   7.983 -0.0081  0.3684 -0.5975
 2812SOL    HW119895   2.265   0.404   8.013  0.7088 -0.5866 -1.3451
 2812SOL    HW219896   2.258   0.538   7.965 -1.0498 -0.6369 -0.4286
 2813SOL     OW19897   4.684   3.699   7.370 -0.0268  0.1002 -0.0500
 2813SOL    HW119898   0.002   3.742   7.296 -0.1739 -0.2507 -0.3391
 2813SOL    HW219899   4.707   3.760   7.440 -3.3858  2.2394 -0.8188
 2814SOL     OW19900   2.139   2.828   9.521 -0.4075 -0.1986 -0.1461
 2814SOL    HW119901   2.138   2.853   9.613 -0.3952 -0.6560 -0.0217
 2814SOL    HW219902   2.076   2.756   9.519 -0.4754 -0.1570  0.6555
 2815SOL     OW19903   1.244   3.124  13.300  0.5282 -0.1961  0.0014
 2815SOL    HW119904   1.260   3.127  13.395  0.6601  1.9033 -0.0982
 2815SOL    HW219905   1.239   3.028  13.307  2.0308 -0.3374 -0.9869
 2816SOL     OW19906   1.440   2.848   9.881 -0.7127 -0.2109  0.4240
 2816SOL    HW119907   1.361   2.870   9.931 -0.2868  1.4099  0.3781
 2816SOL    HW219908   1.402   2.861   9.795  0.6492  2.3857  0.2176
 2817SOL     OW19909   1.963   3.836   5.301 -0.3928 -0.3647  0.1443
 2817SOL    HW119910   1.994   3.856   5.213  1.2189  1.4646  1.1177
 2817SOL    HW219911   1.871   3.838   5.276 -1.0742  0.5221  2.6446
 2818SOL     OW19912   1.167   1.607   8.820  0.6845  0.0356  0.0707
 2818SOL    HW119913   1.201   1.519   8.837  0.3936 -0.1133 -0.1327
 2818SOL    HW219914   1.182   1.624   8.727  1.3789  2.0978  0.5613
 2819SOL     OW19915   4.720   1.336   3.375 -0.5523 -0.0859  0.0121
 2819SOL    HW119916   4.704   1.343   3.469 -0.7275 -0.0163 -0.0232
 2819SOL    HW219917   4.637   1.364   3.336 -1.1595  2.3081  3.0372
 2820SOL     OW19918   2.495   3.930   7.821  0.5133  0.1783 -0.1626
 2820SOL    HW119919   2.429   3.866   7.849  2.2830 -1.3968  0.4855
 2820SOL    HW219920   2.529   3.883   7.745 -0.0724  0.1458 -0.3971
 2821SOL     OW19921   1.774   3.587  17.183 -0.3587  0.1924  0.1154
 2821SOL    HW119922   1.799   3.588  17.090  0.6763 -2.0750  0.3639
 2821SOL    HW219923   1.825   3.510  17.206 -0.2744  0.3265  0.3780
 2822SOL     OW19924   4.616   3.732  15.825 -0.4106 -0.2996 -0.1782
 2822SOL    HW119925   4.700   3.761  15.789 -0.5354  2.3790  1.6680
 2822SOL    HW219926   4.600   3.655  15.772 -0.4008  0.5808 -1.4686
 2823SOL     OW19927   2.239   3.236   4.483  0.8408  0.6342 -0.3141
 2823SOL    HW119928   2.184   3.236   4.404 -0.1594 -0.7645  0.3865
 2823SOL    HW219929   2.175   3.285   4.534 -1.2947 -0.6989 -1.6988
 2824SOL     OW19930   4.148   3.436   6.634 -0.3376  0.0339  0.4604
 2824SOL    HW119931   4.054   3.456   6.634 -0.2281  0.5580  0.7357
 2824SOL    HW219932   4.162   3.375   6.707  2.6780  0.1321 -0.0600
 2825SOL     OW19933   3.733   3.345   5.372  0.0203  0.2184 -0.0759
 2825SOL    HW119934   3.811   3.313   5.418  2.0008  2.6697 -1.7415
 2825SOL    HW219935   3.739   3.441   5.369 -0.2612  0.2176 -0.6184
 2826SOL     OW19936   4.699   0.360   6.278  0.0134 -0.1610 -0.4988
 2826SOL    HW119937   0.002   0.285   6.226 -1.7365 -1.6181  0.6313
 2826SOL    HW219938   4.700   0.419   6.203  2.9901 -1.1619 -1.2465
 2827SOL     OW19939   2.115   0.640   7.269  0.1224  0.2899 -0.0487
 2827SOL    HW119940   2.115   0.621   7.175  1.1832 -1.5573  0.3103
 2827SOL    HW219941   2.104   0.735   7.272  3.3416  0.7654 -2.5087
 2828SOL     OW19942   4.257   1.597  11.596 -0.1113  0.3486 -0.3080
 2828SOL    HW119943   4.250   1.629  11.686 -0.1843 -1.0607  0.1834
 2828SOL    HW219944   4.186   1.648  11.556 -0.4879  0.4503  0.4958
 2829SOL     OW19945   4.493   1.396  12.667  0.2762 -0.2667  0.2029
 2829SOL    HW119946   4.579   1.361  12.642 -0.8308 -1.5178 -1.9020
 2829SOL    HW219947   4.468   1.463  12.604  0.7294  0.6383  0.9776
 2830SOL     OW19948   2.299   2.696   6.403  0.1801 -0.4481 -0.2013
 2830SOL    HW119949   2.321   2.753   6.330  0.6039  1.0691  1.1152
 2830SOL    HW219950   2.387   2.663   6.420 -0.6226 -1.5337  1.8584
 2831SOL     OW19951   0.952   4.565  15.828  0.0144 -0.6308  0.3704
 2831SOL    HW119952   0.893   4.611  15.768  0.2764  0.6140  1.0789
 2831SOL    HW219953   0.915   4.478  15.843  1.5544 -1.1461  1.1626
 2832SOL     OW19954   0.716   0.280  17.423 -0.4653 -0.1917 -0.2129
 2832SOL    HW119955   0.673   0.307  17.504  1.4441 -1.8096  1.3165
 2832SOL    HW219956   0.779   0.351  17.411 -1.7394  1.3286  2.1325
 2833SOL     OW19957   3.389   0.197   2.254  0.1305  0.2996  0.7396
 2833SOL    HW119958   3.301   0.191   2.291  0.6442 -2.8589  1.4189
 2833SOL    HW219959   3.427   0.110   2.266  2.0624  1.1784  0.9936
 2834SOL     OW19960   1.904   2.464   6.475  0.7853 -0.0105 -0.0320
 2834SOL    HW119961   1.814   2.433   6.462  2.3280 -4.0169 -1.0971
 2834SOL    HW219962   1.948   2.379   6.482  1.2844  0.3058  0.6572
 2835SOL     OW19963   0.156   3.438   6.047 -0.3256 -0.3056 -0.1326
 2835SOL    HW119964   0.229   3.419   5.987  0.5335  0.9160  0.5196
 2835SOL    HW219965   0.187   3.382   6.119  2.7002  0.1743 -1.0772
 2836SOL     OW19966   4.157   3.661   7.861 -0.3001 -0.3315  0.4652
 2836SOL    HW119967   4.155   3.588   7.923 -1.8332 -1.3471 -0.7883
 2836SOL    HW219968   4.239   3.704   7.885  0.6296 -1.9092  0.0777
 2837SOL     OW19969   2.472   2.563  14.486  0.2850 -0.1864  0.5831
 2837SOL    HW119970   2.535   2.492  14.494 -0.1170 -0.6219 -0.1025
 2837SOL    HW219971   2.468   2.568  14.391 -0.5251 -0.8647  0.5756
 2838SOL     OW19972   4.549   2.567   5.136 -0.1631 -0.2383 -0.0420
 2838SOL    HW119973   4.593   2.593   5.055 -1.6236 -1.9891 -1.3956
 2838SOL    HW219974   4.627   2.558   5.191 -1.0754  1.1822  1.4585
 2839SOL     OW19975   1.419   2.062   3.389 -0.2580 -0.6407  0.1509
 2839SOL    HW119976   1.351   1.996   3.379  0.4256 -0.8698 -3.1227
 2839SOL    HW219977   1.459   2.024   3.468 -0.7869 -1.0727  0.2076
 2840SOL     OW19978   0.799   3.874   0.007  0.0588  0.1377  0.2960
 2840SOL    HW119979   0.761   3.898   0.091 -0.3443 -0.8867  0.3963
 2840SOL    HW219980   0.756   3.790  17.698 -2.2233  1.3334  0.0166
 2841SOL     OW19981   1.566   2.453   7.831  0.0990 -1.3276  0.3664
 2841SOL    HW119982   1.627   2.422   7.763 -0.2543  1.2356 -1.1027
 2841SOL    HW219983   1.588   2.392   7.902  1.2873  0.0362  1.1624
 2842SOL     OW19984   4.147   2.796  15.226 -0.4452  0.4409 -0.2599
 2842SOL    HW119985   4.124   2.874  15.175 -0.6422  0.1804 -0.5716
 2842SOL    HW219986   4.055   2.786  15.250  0.5351 -0.1117  3.2770
 2843SOL     OW19987   2.803   4.120  15.095 -0.3368  0.3514  0.0381
 2843SOL    HW119988   2.841   4.200  15.058  0.8942 -0.5854 -0.7288
 2843SOL    HW219989   2.872   4.053  15.098 -1.8691 -1.2078  0.6095
 2844SOL     OW19990   2.349   2.827   0.363  0.4476 -0.1350  0.2150
 2844SOL    HW119991   2.381   2.908   0.322  2.3285 -0.5032  0.9461
 2844SOL    HW219992   2.419   2.765   0.343  1.1990  1.1612 -1.1394
 2845SOL     OW19993   2.538   3.590   8.428  0.3218  1.0565 -0.1916
 2845SOL    HW119994   2.591   3.528   8.378  1.0183  0.4330  1.3123
 2845SOL    HW219995   2.450   3.554   8.435 -0.0595  1.9657 -0.3517
 2846SOL     OW19996   0.380   2.257   6.954 -0.2248 -0.2798  0.4062
 2846SOL    HW119997   0.413   2.347   6.959 -0.9807 -0.0153  0.6652
 2846SOL    HW219998   0.293   2.272   6.919 -0.0021 -0.0354 -0.0391
 2847SOL     OW19999   0.340   4.643   7.077  0.8038 -0.0925 -0.1712
 2847SOL    HW120000   0.356   4.580   7.006  1.3219  0.8279 -0.8738
 2847SOL    HW220001   0.249   4.623   7.100  0.9613 -0.2455  0.3204
 2848SOL     OW20002   4.222   2.139  12.565 -0.0305 -0.3127  0.3689
 2848SOL    HW120003   4.249   2.144  12.656  0.1064  0.3841  0.2871
 2848SOL    HW220004   4.263   2.218  12.531  2.9073 -2.6058 -1.4147
 2849SOL     OW20005   4.601   2.653  13.736  0.4690  0.5090 -0.0775
 2849SOL    HW120006   4.627   2.561  13.742 -1.8162 -0.1398 -0.3293
 2849SOL    HW220007   4.682   2.695  13.766 -0.4331  1.0461  1.6188
 2850SOL     OW20008   4.434   0.182   5.565 -0.2099 -0.6686  0.3708
 2850SOL    HW120009   4.383   0.101   5.574  0.0334 -0.6316  2.0864
 2850SOL    HW220010   4.426   0.210   5.656 -2.2515 -0.8167  0.2301
 2851SOL     OW20011   3.356   2.640   3.500  0.4546  0.6305  0.2518
 2851SOL    HW120012   3.419   2.710   3.482  0.8760 -0.3026 -1.8052
 2851SOL    HW220013   3.420   2.574   3.524  1.0989  2.0806  2.5829
 2852SOL     OW20014   0.799   3.099   4.744  0.0651 -0.2230 -0.1971
 2852SOL    HW120015   0.816   3.170   4.807 -1.8101 -0.3692  0.4825
 2852SOL    HW220016   0.817   3.144   4.662 -0.8219  0.1697 -0.1750
 2853SOL     OW20017   2.920   3.520   0.090 -0.8142 -0.6299 -0.1955
 2853SOL    HW120018   3.002   3.530   0.138 -0.5724  1.0153 -0.9716
 2853SOL    HW220019   2.936   3.432   0.055 -1.9605  0.2395 -2.9363
 2854SOL     OW20020   4.498   2.256  11.732  0.6759  0.1427 -0.0053
 2854SOL    HW120021   4.575   2.285  11.781 -0.0829  1.1781  0.5891
 2854SOL    HW220022   4.551   2.185  11.695  1.7414  1.7448 -1.5288
 2855SOL     OW20023   1.826   2.065   2.811 -0.1553  0.4962 -0.3665
 2855SOL    HW120024   1.890   2.022   2.755  0.3231  1.5120 -0.6140
 2855SOL    HW220025   1.837   2.023   2.896 -0.6333  0.6094 -0.2494
 2856SOL     OW20026   4.416   0.975   1.197  0.0981  0.1760 -0.1476
 2856SOL    HW120027   4.372   0.890   1.205 -2.6497  1.6538  0.6290
 2856SOL    HW220028   4.454   0.967   1.110 -1.5539 -1.9368 -0.6724
 2857SOL     OW20029   2.382   3.114  15.458  0.0869 -0.0279 -0.0017
 2857SOL    HW120030   2.398   3.062  15.536  3.1351  1.2197  0.1773
 2857SOL    HW220031   2.352   3.049  15.394 -0.5443 -0.0167  0.2865
 2858SOL     OW20032   1.234   3.884   6.347 -0.0071 -0.5728 -0.4824
 2858SOL    HW120033   1.285   3.915   6.273  0.6019 -0.4291 -0.0060
 2858SOL    HW220034   1.273   3.800   6.372 -0.6984 -0.8971 -0.4984
 2859SOL     OW20035   1.643   2.768   5.826  0.2707 -0.8092  0.0819
 2859SOL    HW120036   1.615   2.844   5.776 -0.9239 -1.6689 -0.5495
 2859SOL    HW220037   1.601   2.684   5.808 -2.0949  0.5871 -0.9630
 2860SOL     OW20038   2.435   0.307   7.002 -0.3671  0.0530 -0.0323
 2860SOL    HW120039   2.385   0.306   6.920 -2.9673  0.2328  1.5468
 2860SOL    HW220040   2.511   0.254   6.980 -1.2700 -1.2044 -0.1418
 2861SOL     OW20041   2.951   0.496   2.996 -0.1241  0.0988  0.5135
 2861SOL    HW120042   2.886   0.446   3.045 -1.9843  3.5913  1.5746
 2861SOL    HW220043   2.933   0.481   2.904  0.4289 -4.6812  1.1686
 2862SOL     OW20044   3.821   2.036   1.691 -0.3263  0.5208  0.1045
 2862SOL    HW120045   3.820   1.977   1.766 -1.6917  1.3977  0.7726
 2862SOL    HW220046   3.879   1.989   1.631  0.4616  1.7518 -0.0870
 2863SOL     OW20047   2.982   3.636   5.084  0.0226 -0.0290  0.4691
 2863SOL    HW120048   3.038   3.629   5.007 -0.0066  1.3222  0.3367
 2863SOL    HW220049   3.032   3.708   5.121 -1.1336  0.9319  0.1701
 2864SOL     OW20050   0.048   4.087   7.356  0.0975  0.0242  0.0330
 2864SOL    HW120051   4.686   4.121   7.335  1.0335  2.9281  0.8601
 2864SOL    HW220052   0.106   4.139   7.301 -0.0781 -0.1466 -0.3099
 2865SOL     OW20053   2.205   4.045   1.537 -0.2121 -0.2159  0.1769
 2865SOL    HW120054   2.245   4.130   1.557 -0.4414 -0.6285  2.4503
 2865SOL    HW220055   2.225   4.046   1.444 -1.0128  0.9552  0.0237
 2866SOL     OW20056   2.559   1.359   3.070 -0.3673 -0.0643 -0.3596
 2866SOL    HW120057   2.524   1.352   2.981 -0.0484 -0.6555 -0.4397
 2866SOL    HW220058   2.515   1.280   3.102 -0.5381 -0.2322 -0.9938
 2867SOL     OW20059   3.926   0.114  13.424  0.8037  0.0922 -0.3138
 2867SOL    HW120060   3.916   0.186  13.362  2.4251  2.1143  1.7528
 2867SOL    HW220061   3.971   0.157  13.497  0.7666 -1.5206  0.6701
 2868SOL     OW20062   2.476   1.661   1.815 -0.2541 -0.1281  0.0350
 2868SOL    HW120063   2.481   1.751   1.782  2.1742 -0.7151 -1.2646
 2868SOL    HW220064   2.559   1.630   1.777 -1.8433 -2.0178 -1.9243
 2869SOL     OW20065   3.599   2.458  15.686 -0.0716 -0.0054 -0.2498
 2869SOL    HW120066   3.631   2.506  15.762 -1.0960 -0.2352  0.3312
 2869SOL    HW220067   3.640   2.500  15.611  1.3393  2.1342  1.7314
 2870SOL     OW20068   1.784   1.399   5.200 -0.1894  0.7422 -0.3635
 2870SOL    HW120069   1.799   1.366   5.112 -0.8059  0.2934 -0.3017
 2870SOL    HW220070   1.776   1.494   5.194  0.6025  0.8621  0.4730
 2871SOL     OW20071   3.867   2.159   8.501 -0.0657  0.2148 -0.3764
 2871SOL    HW120072   3.950   2.141   8.457 -0.0347 -1.5757  0.4385
 2871SOL    HW220073   3.875   2.083   8.558  2.3170  0.5934 -0.2122
 2872SOL     OW20074   2.045   0.362  13.852 -0.4481  0.2263  0.1207
 2872SOL    HW120075   2.005   0.313  13.781  0.2344  0.1763 -0.2273
 2872SOL    HW220076   1.978   0.430  13.860 -1.7794 -1.1961  1.0501
 2873SOL     OW20077   0.893   1.991   3.991  0.0640  0.0971 -0.2463
 2873SOL    HW120078   0.903   1.939   3.911 -0.7486 -1.5175  0.7198
 2873SOL    HW220079   0.817   1.950   4.032 -0.3042 -2.1612 -3.1724
 2874SOL     OW20080   4.203   0.132  14.684  0.4371 -0.3718  0.0707
 2874SOL    HW120081   4.155   0.183  14.618  1.7029  2.0312  0.9963
 2874SOL    HW220082   4.258   0.199  14.725 -1.0219  1.4092 -0.8372
 2875SOL     OW20083   1.749   3.916   3.644 -0.2399 -0.0584 -0.6625
 2875SOL    HW120084   1.667   3.961   3.665 -1.4104 -2.7123  0.4873
 2875SOL    HW220085   1.808   3.991   3.649 -2.1603  1.5227 -1.3177
 2876SOL     OW20086   2.984   4.351   0.345  0.2416  0.6183  0.0554
 2876SOL    HW120087   3.045   4.290   0.303 -0.6008 -0.0519 -0.2012
 2876SOL    HW220088   2.943   4.284   0.400  1.7246 -0.5943 -0.3217
 2877SOL     OW20089   0.164   1.673   4.055 -0.8766  0.4357 -0.1906
 2877SOL    HW120090   0.158   1.611   3.982  0.0877 -0.0007  0.0949
 2877SOL    HW220091   0.236   1.730   4.030  0.1304 -1.0085 -0.5961
 2878SOL     OW20092   2.565   2.473   8.574 -0.1514 -0.3696 -0.0649
 2878SOL    HW120093   2.560   2.504   8.665 -1.9071  0.6358 -0.5004
 2878SOL    HW220094   2.638   2.411   8.579 -0.2407 -0.7311 -3.5630
 2879SOL     OW20095   4.347   1.407  16.906  0.4960  0.4287 -0.1119
 2879SOL    HW120096   4.390   1.403  16.820 -1.5159 -0.6133 -1.0693
 2879SOL    HW220097   4.309   1.494  16.898 -0.3065  0.2584  1.8342
 2880SOL     OW20098   2.737   2.710   3.494  0.5591 -0.0549 -0.2773
 2880SOL    HW120099   2.710   2.703   3.402  0.1147  0.5424 -0.1937
 2880SOL    HW220100   2.824   2.671   3.487  1.3751  1.7521 -0.2217
 2881SOL     OW20101   3.752   0.632   6.219  0.2255  0.3418 -0.0598
 2881SOL    HW120102   3.777   0.700   6.282 -0.8483  0.5486  0.1410
 2881SOL    HW220103   3.730   0.559   6.277  0.5939  0.7246  0.5636
 2882SOL     OW20104   3.777   2.854  10.836 -0.3119 -0.4450  0.1805
 2882SOL    HW120105   3.750   2.862  10.928  1.6213  0.2484  0.6714
 2882SOL    HW220106   3.735   2.930  10.797  0.2685 -0.2366 -0.0326
 2883SOL     OW20107   1.517   1.970   0.359  0.0296 -0.0645  0.4089
 2883SOL    HW120108   1.552   1.912   0.292 -0.5034  0.2864 -0.1724
 2883SOL    HW220109   1.443   1.922   0.397  0.8025 -1.3917  0.2197
 2884SOL     OW20110   2.238   0.130   6.093  0.2091  0.2654 -0.5254
 2884SOL    HW120111   2.256   0.048   6.049 -1.2564  0.5163 -1.5829
 2884SOL    HW220112   2.296   0.185   6.041 -1.0313  2.4696  0.4179
 2885SOL     OW20113   0.153   4.003   4.972  0.0923  0.3049  0.3241
 2885SOL    HW120114   0.221   4.007   5.040  2.0464 -2.0116 -1.4669
 2885SOL    HW220115   0.150   3.909   4.954 -2.4300  0.3941  0.3030
 2886SOL     OW20116   0.697   0.578   7.046  0.1065 -0.3401  0.2338
 2886SOL    HW120117   0.676   0.559   6.954  2.4817  2.4833 -0.8920
 2886SOL    HW220118   0.785   0.614   7.045  0.0522 -0.2150 -1.4306
 2887SOL     OW20119   0.997   0.598  11.133 -0.2894 -0.6304  0.2037
 2887SOL    HW120120   0.966   0.635  11.050 -1.9477  2.8002  2.3864
 2887SOL    HW220121   0.927   0.620  11.194  0.7455 -0.5750  1.3902
 2888SOL     OW20122   3.984   1.586   4.138  0.3399  0.2627 -0.2827
 2888SOL    HW120123   3.993   1.649   4.067 -0.0944 -1.0502 -1.4967
 2888SOL    HW220124   4.017   1.507   4.096 -1.4646 -1.3828  1.3216
 2889SOL     OW20125   2.222   4.415   9.205  0.0604 -0.2318  0.6241
 2889SOL    HW120126   2.190   4.352   9.139  0.1792  0.4661 -0.1027
 2889SOL    HW220127   2.245   4.357   9.277  0.1033  2.0582  2.4329
 2890SOL     OW20128   4.033   1.925   7.353 -0.1245 -0.1719 -0.3367
 2890SOL    HW120129   3.989   2.004   7.322  2.7289  0.6818 -2.2059
 2890SOL    HW220130   3.993   1.910   7.439  4.0092  0.5855  1.7645
 2891SOL     OW20131   3.132   3.599  16.663 -0.4563  0.2609  0.0914
 2891SOL    HW120132   3.163   3.579  16.574  4.7997 -0.0668  1.9788
 2891SOL    HW220133   3.120   3.693  16.645 -3.1829  0.0116  0.6972
 2892SOL     OW20134   3.936   1.212   1.685 -0.6652 -0.1977  0.4473
 2892SOL    HW120135   3.866   1.174   1.632 -0.4157 -0.1006  0.0494
 2892SOL    HW220136   4.011   1.162   1.653  0.5853  4.1270 -3.3429
 2893SOL     OW20137   3.727   3.566  14.210 -0.1484  0.0035  0.5364
 2893SOL    HW120138   3.686   3.504  14.271 -0.9587  1.9020  1.9147
 2893SOL    HW220139   3.679   3.557  14.129  2.1614  0.4003 -0.8862
 2894SOL     OW20140   4.324   3.003  10.934 -0.0542 -0.0033 -0.6509
 2894SOL    HW120141   4.410   3.021  10.896  1.1714 -0.7956  1.7407
 2894SOL    HW220142   4.286   3.090  10.948  1.1729 -0.0359  2.9739
 2895SOL     OW20143   1.669   3.830  13.928 -0.0393 -0.2179  0.3167
 2895SOL    HW120144   1.615   3.827  14.007 -1.5233 -0.9529 -0.7334
 2895SOL    HW220145   1.606   3.838  13.857 -1.4040  4.8988  2.1162
 2896SOL     OW20146   4.153   2.740  16.423  0.2809  0.2443 -0.5294
 2896SOL    HW120147   4.120   2.681  16.355 -0.1906 -0.0567 -0.0379
 2896SOL    HW220148   4.070   2.771  16.457  1.2737  2.3402 -0.0205
 2897SOL     OW20149   3.619   0.561   3.467  0.0541 -0.1343 -0.9208
 2897SOL    HW120150   3.612   0.657   3.473  0.0722 -0.2325  0.8585
 2897SOL    HW220151   3.549   0.536   3.528  0.6633 -1.7686 -0.9096
 2898SOL     OW20152   3.492   2.012   7.851 -0.0216 -0.4260  0.3561
 2898SOL    HW120153   3.551   2.068   7.901  1.5653 -1.7538 -0.0098
 2898SOL    HW220154   3.535   1.926   7.859  0.3166 -0.0930  2.3359
 2899SOL     OW20155   2.106   3.426   5.306 -0.1563 -0.3422 -0.7544
 2899SOL    HW120156   2.071   3.484   5.239  1.0407  0.3418 -0.7815
 2899SOL    HW220157   2.052   3.446   5.383  0.9912  1.0474 -0.3121
 2900SOL     OW20158   3.586   0.310   3.847 -0.3564  0.1795 -0.1271
 2900SOL    HW120159   3.647   0.282   3.780  0.6123  1.0551  0.3977
 2900SOL    HW220160   3.646   0.293   3.919 -2.0511  0.1775  1.3026
 2901SOL     OW20161   2.774   4.713   0.957  0.0530 -0.2084  0.0554
 2901SOL    HW120162   2.697   0.043   0.948 -1.1307 -1.6367  1.2939
 2901SOL    HW220163   2.837   0.023   0.894 -0.4243  0.4181 -0.0694
 2902SOL     OW20164   0.271   4.430   9.661  0.0954  0.5775 -0.4591
 2902SOL    HW120165   0.234   4.360   9.715 -1.9843  0.7986 -1.5791
 2902SOL    HW220166   0.297   4.383   9.581  0.2277 -0.5896  0.2687
 2903SOL     OW20167   0.286   4.146  10.041 -0.2555  0.1814 -0.6628
 2903SOL    HW120168   0.213   4.102  10.085  1.3896 -1.1257  0.7613
 2903SOL    HW220169   0.274   4.238  10.063  0.2767 -0.0940  0.7495
 2904SOL     OW20170   2.509   2.476  12.489 -0.7669  0.3777 -0.5123
 2904SOL    HW120171   2.565   2.475  12.412  1.8785  1.4609  1.4017
 2904SOL    HW220172   2.545   2.559  12.521  0.9654  0.3486 -2.4431
 2905SOL     OW20173   2.565   0.808   6.592 -0.3027  0.3413  0.1702
 2905SOL    HW120174   2.617   0.756   6.654  1.6261  1.1291 -0.7810
 2905SOL    HW220175   2.476   0.783   6.618  0.2034 -0.8792  0.7319
 2906SOL     OW20176   3.736   1.997   5.134  0.0275  0.4587  0.5716
 2906SOL    HW120177   3.701   1.909   5.147  1.5023 -0.0520  1.1168
 2906SOL    HW220178   3.664   2.043   5.091  0.1289 -1.9101 -2.1220
 2907SOL     OW20179   4.381   2.486  11.395  0.5570  0.5630  0.0294
 2907SOL    HW120180   4.466   2.512  11.432 -0.7963  3.0759  1.3709
 2907SOL    HW220181   4.322   2.542  11.445 -1.9826 -1.1199 -1.0893
 2908SOL     OW20182   2.364   3.420  12.306  0.6209  0.4383 -0.3084
 2908SOL    HW120183   2.379   3.337  12.260  0.7561 -0.0411  0.6132
 2908SOL    HW220184   2.444   3.441  12.354 -0.4213 -0.8820  1.9783
 2909SOL     OW20185   4.186   0.131  15.946 -0.1521 -0.7807  0.7702
 2909SOL    HW120186   4.262   0.167  15.900  2.1700 -4.3169  1.8124
 2909SOL    HW220187   4.116   0.136  15.881 -1.1351 -1.5402  1.7816
 2910SOL     OW20188   4.594   4.454  14.176  0.6371 -0.2783  0.2142
 2910SOL    HW120189   4.500   4.462  14.164  0.7126  0.8339  0.3418
 2910SOL    HW220190   4.623   4.524  14.117 -2.6308  0.6030 -0.3168
 2911SOL     OW20191   1.741   4.007   0.930  0.8098 -0.0921 -0.6436
 2911SOL    HW120192   1.689   3.998   0.850 -0.7366  1.6195  0.1576
 2911SOL    HW220193   1.804   4.070   0.896 -0.1604  0.3930 -1.5298
 2912SOL     OW20194   2.000   0.824   6.889 -0.0692 -1.0402 -0.1295
 2912SOL    HW120195   1.906   0.837   6.900  0.0013  1.5445 -2.4117
 2912SOL    HW220196   2.007   0.818   6.793  0.0800 -2.6199 -0.0294
 2913SOL     OW20197   4.551   2.227   5.801 -0.4836 -0.0624  0.6648
 2913SOL    HW120198   4.558   2.233   5.706 -0.8840 -0.6062  0.6033
 2913SOL    HW220199   4.612   2.295   5.831 -1.0692  1.1824 -0.9782
 2914SOL     OW20200   1.269   3.720   6.737 -0.2689  0.0452 -0.1240
 2914SOL    HW120201   1.338   3.768   6.782  1.8788 -0.8937 -2.4137
 2914SOL    HW220202   1.203   3.762   6.792 -0.5856 -1.5545  0.7400
 2915SOL     OW20203   3.714   1.993  12.047 -1.0049 -0.3955  0.2500
 2915SOL    HW120204   3.789   1.957  12.095 -1.5225 -0.2525  1.1798
 2915SOL    HW220205   3.668   2.031  12.123 -1.6221 -0.2582 -0.1958
 2916SOL     OW20206   0.413   2.764  11.628 -0.3004  0.0152  0.0719
 2916SOL    HW120207   0.508   2.778  11.625 -0.0701 -1.3654  0.4557
 2916SOL    HW220208   0.376   2.804  11.550 -0.2917 -2.0873 -1.0308
 2917SOL     OW20209   3.989   4.534   6.865 -0.0504 -0.1182 -0.3760
 2917SOL    HW120210   4.052   4.475   6.822  1.5549  0.7549  0.8260
 2917SOL    HW220211   4.023   4.616   6.829  2.1563 -1.0525 -0.3998
 2918SOL     OW20212   0.851   1.132   5.705 -0.7362 -0.1158  0.6879
 2918SOL    HW120213   0.854   1.084   5.788  1.7283  0.1431  0.7551
 2918SOL    HW220214   0.805   1.214   5.722  2.6438  1.3794  2.7964
 2919SOL     OW20215   1.454   4.246   7.662  0.1361  0.2153  0.3614
 2919SOL    HW120216   1.453   4.167   7.608 -0.9298 -0.3445  1.2014
 2919SOL    HW220217   1.410   4.302   7.598  0.8394  0.0560 -0.2715
 2920SOL     OW20218   0.516   2.241   6.707  0.2955 -0.6934 -0.0442
 2920SOL    HW120219   0.569   2.314   6.738 -1.0038  0.5907 -0.8688
 2920SOL    HW220220   0.472   2.224   6.790 -1.6658  0.9611 -0.7348
 2921SOL     OW20221   0.780   4.689  15.451  0.3419  0.0393 -0.6432
 2921SOL    HW120222   0.816   0.012  15.525  2.0144  0.4470 -1.7262
 2921SOL    HW220223   0.755   0.035  15.393 -3.0451  0.2950  1.1669
 2922SOL     OW20224   3.602   0.844   3.495 -0.5648  0.5247 -0.3875
 2922SOL    HW120225   3.507   0.855   3.497 -0.7003 -0.9824  0.6132
 2922SOL    HW220226   3.626   0.929   3.456 -0.7395  0.5619 -0.4151
 2923SOL     OW20227   2.502   4.619  13.539 -0.3161 -0.8922 -0.1845
 2923SOL    HW120228   2.418   4.630  13.495  0.7303 -0.3424 -2.0331
 2923SOL    HW220229   2.486   4.664  13.622 -3.6257  1.5525 -2.1899
 2924SOL     OW20230   2.880   3.305   6.871 -0.3478  0.3067 -0.0252
 2924SOL    HW120231   2.956   3.248   6.886  0.5021  1.0203 -1.6566
 2924SOL    HW220232   2.890   3.325   6.778  0.1647  1.6960  0.3269
 2925SOL     OW20233   1.431   2.626   7.505 -0.0251  0.2707 -0.2972
 2925SOL    HW120234   1.406   2.664   7.590  1.4135 -1.4177  0.8980
 2925SOL    HW220235   1.416   2.533   7.522  1.5596  0.1316  0.3685
 2926SOL     OW20236   1.874   2.361  12.035 -0.1399 -0.0083 -0.4734
 2926SOL    HW120237   1.831   2.356  11.950 -3.3791  2.1615  1.0344
 2926SOL    HW220238   1.847   2.443  12.076  0.1267 -1.0114  1.7381
 2927SOL     OW20239   3.258   4.588   7.759  0.4147 -0.0491 -0.2348
 2927SOL    HW120240   3.265   4.495   7.782 -0.9847 -0.2982 -0.7956
 2927SOL    HW220241   3.163   4.598   7.765  0.3686 -0.2290 -0.5925
 2928SOL     OW20242   1.126   3.177  10.081  0.0272 -0.4060  0.1822
 2928SOL    HW120243   1.212   3.141  10.062  0.3016  0.0921  0.4834
 2928SOL    HW220244   1.124   3.188  10.176 -0.1666 -0.7920  0.2233
 2929SOL     OW20245   3.523   4.174   1.453  0.5444  0.3413  0.0697
 2929SOL    HW120246   3.584   4.234   1.497 -1.0098  0.6472  1.8186
 2929SOL    HW220247   3.486   4.122   1.525 -0.1631 -0.3459 -0.8059
 2930SOL     OW20248   3.395   4.590  16.689 -0.2223  0.0489 -0.0364
 2930SOL    HW120249   3.450   4.534  16.745  0.5076  1.7251  0.9067
 2930SOL    HW220250   3.410   4.678  16.724  0.9558 -0.1223 -0.1190
 2931SOL     OW20251   0.707   2.616   6.166  0.0254  0.5319  0.7615
 2931SOL    HW120252   0.659   2.698   6.159 -2.2495 -0.8221  0.5717
 2931SOL    HW220253   0.676   2.569   6.244 -0.3261 -0.9994 -0.2880
 2932SOL     OW20254   3.550   1.047   2.808 -0.0666  0.6002  0.1326
 2932SOL    HW120255   3.539   0.965   2.759 -2.0170  1.8385 -1.5464
 2932SOL    HW220256   3.463   1.077   2.780 -0.1429 -0.8223 -1.2160
 2933SOL     OW20257   2.942   3.648   0.419  0.0245  0.1725  0.8194
 2933SOL    HW120258   2.867   3.591   0.406 -0.3030  0.5142  1.1972
 2933SOL    HW220259   3.003   3.596   0.367 -1.2844 -1.2113  0.6873
 2934SOL     OW20260   1.882   0.015  14.478 -0.1217 -0.3394 -0.2057
 2934SOL    HW120261   1.953   0.080  14.473  3.2379 -3.9316  0.5132
 2934SOL    HW220262   1.880   4.711  14.387  2.1939 -1.3857  0.0711
 2935SOL     OW20263   4.420   1.049   8.410 -0.1897 -0.3125  0.2788
 2935SOL    HW120264   4.386   1.139   8.402 -1.1057 -0.8189 -1.5784
 2935SOL    HW220265   4.361   1.014   8.477 -2.4631  0.9091 -1.0704
 2936SOL     OW20266   1.679   4.665   3.381 -0.2892  0.0855  0.6103
 2936SOL    HW120267   1.626   4.591   3.350 -0.6576 -0.5580  2.7858
 2936SOL    HW220268   1.701   4.705   3.296 -0.1031 -0.6043  0.3368
 2937SOL     OW20269   2.381   0.378   8.257 -0.6095  0.1621 -0.1904
 2937SOL    HW120270   2.287   0.361   8.257 -0.7621  1.0176 -1.4416
 2937SOL    HW220271   2.404   0.375   8.164 -0.5437 -0.3873 -0.1614
 2938SOL     OW20272   3.797   4.677   4.264 -0.0944 -0.3788  0.6477
 2938SOL    HW120273   3.718   0.004   4.252  0.8095  0.7389 -0.3528
 2938SOL    HW220274   3.849   4.687   4.185  1.3381 -0.2502  1.5991
 2939SOL     OW20275   2.922   4.298   9.073 -0.1652  0.0720  0.1449
 2939SOL    HW120276   2.953   4.263   8.990  0.1808 -1.6384  1.0005
 2939SOL    HW220277   2.828   4.302   9.057 -0.1143 -1.3281 -0.4652
 2940SOL     OW20278   4.368   1.348   4.676 -0.3192 -0.1255  0.0601
 2940SOL    HW120279   4.340   1.438   4.660  1.2325  0.2795 -0.3623
 2940SOL    HW220280   4.425   1.347   4.753  1.4734  0.8800 -1.2610
 2941SOL     OW20281   0.676   2.615   7.194 -0.3926  0.6854  0.0264
 2941SOL    HW120282   0.627   2.669   7.256  0.5004  0.3219  1.0558
 2941SOL    HW220283   0.748   2.584   7.249 -0.3658  1.1822  0.2666
 2942SOL     OW20284   3.383   0.446  13.483 -0.3041 -0.1434  0.6947
 2942SOL    HW120285   3.362   0.439  13.576  0.1278 -1.0268  0.7286
 2942SOL    HW220286   3.318   0.502  13.441  1.8531 -0.0205 -2.5021
 2943SOL     OW20287   2.595   3.997   6.102 -0.0443 -0.1818  0.3257
 2943SOL    HW120288   2.520   4.021   6.157  1.5128  0.6462  2.0532
 2943SOL    HW220289   2.620   3.915   6.143 -1.8094  0.0521  1.8508
 2944SOL     OW20290   2.033   0.737  16.766  0.1192 -0.1407 -0.5543
 2944SOL    HW120291   2.027   0.663  16.828 -0.7916  0.7816  0.4549
 2944SOL    HW220292   2.104   0.790  16.801 -1.2172  1.3069 -0.0267
 2945SOL     OW20293   1.433   1.934   0.671 -0.0190 -0.1459  0.3194
 2945SOL    HW120294   1.397   1.890   0.594 -0.6361  4.0729 -1.8167
 2945SOL    HW220295   1.412   2.021   0.637  0.7293 -0.8234 -1.9339
 2946SOL     OW20296   1.804   3.152   4.253  0.3883  0.0048 -0.3055
 2946SOL    HW120297   1.786   3.178   4.343  1.7112 -0.4802  0.0921
 2946SOL    HW220298   1.738   3.083   4.246  2.3821 -1.8986 -0.4087
 2947SOL     OW20299   3.163   0.775   2.809 -0.0375  0.5322  0.3539
 2947SOL    HW120300   3.207   0.833   2.871  0.7356 -0.0497  0.3392
 2947SOL    HW220301   3.232   0.709   2.810  0.1100  0.7036  1.3552
 2948SOL     OW20302   3.618   3.258   8.732 -0.0358 -0.5835 -0.2723
 2948SOL    HW120303   3.712   3.279   8.727  0.2242 -1.3883  1.5399
 2948SOL    HW220304   3.628   3.197   8.804  0.5929 -1.3374 -0.9949
 2949SOL     OW20305   3.335   3.754   2.812  0.4286  0.0341 -0.0587
 2949SOL    HW120306   3.295   3.736   2.897  0.3721  0.7209  0.0576
 2949SOL    HW220307   3.286   3.834   2.791 -0.5171 -0.2780  0.9398
 2950SOL     OW20308   0.349   0.516  10.584  0.2659  0.1839  0.2181
 2950SOL    HW120309   0.295   0.560  10.519  0.4500  1.0800  0.6792
 2950SOL    HW220310   0.363   0.424  10.561  3.5040  0.1839  2.1613
 2951SOL     OW20311   4.356   0.501  13.286 -0.2062 -0.2987  0.3093
 2951SOL    HW120312   4.379   0.410  13.269  1.6302  0.1557  0.2846
 2951SOL    HW220313   4.300   0.492  13.363  0.5805 -3.1712  0.5248
 2952SOL     OW20314   3.268   2.280   5.809  0.2540 -0.1552  0.1775
 2952SOL    HW120315   3.361   2.296   5.827  0.0021  3.0828 -1.3823
 2952SOL    HW220316   3.228   2.367   5.814 -2.0601 -1.1672 -1.0091
 2953SOL     OW20317   4.379   1.152   1.420 -0.1581 -0.7517  0.0793
 2953SOL    HW120318   4.438   1.217   1.384  0.7015 -2.0632 -0.8749
 2953SOL    HW220319   4.383   1.088   1.349 -1.7079  0.5201 -1.1389
 2954SOL     OW20320   4.081   2.656   8.113 -0.6111 -0.0317 -0.3294
 2954SOL    HW120321   4.084   2.713   8.036  2.7082  0.8574  0.4624
 2954SOL    HW220322   4.161   2.684   8.157  0.5071  0.0773 -2.4697
 2955SOL     OW20323   0.479   2.880   8.415  0.1100 -0.2730  0.4146
 2955SOL    HW120324   0.408   2.849   8.471 -1.6534  1.2334 -0.9861
 2955SOL    HW220325   0.526   2.940   8.473  0.9979 -0.0934 -0.4919
 2956SOL     OW20326   0.263   3.942  14.967 -0.0693 -0.4036 -0.0809
 2956SOL    HW120327   0.316   3.921  15.044 -0.0692 -1.0761 -0.2644
 2956SOL    HW220328   0.323   3.935  14.892  0.2389  0.3535  0.0962
 2957SOL     OW20329   1.005   4.001   0.732 -0.2542 -0.1068 -0.2986
 2957SOL    HW120330   1.064   4.073   0.753  1.0310 -1.3675  0.4150
 2957SOL    HW220331   1.069   3.937   0.700  0.4116 -1.6510  4.1923
 2958SOL     OW20332   2.488   2.776  17.020  0.1538  0.0267  0.0039
 2958SOL    HW120333   2.421   2.745  17.081 -0.5145  0.1577 -0.6679
 2958SOL    HW220334   2.548   2.702  17.026 -2.2740 -1.8336  1.7593
 2959SOL     OW20335   3.757   3.610  10.870  0.6494 -0.4298 -0.2240
 2959SOL    HW120336   3.698   3.591  10.943  0.1619  0.5006 -0.3878
 2959SOL    HW220337   3.741   3.533  10.815  1.3636  0.2941 -1.4501
 2960SOL     OW20338   1.975   1.052  15.314 -0.6323 -0.7381  0.3385
 2960SOL    HW120339   1.909   1.094  15.259  0.7067  2.8124  1.4348
 2960SOL    HW220340   1.952   0.961  15.297 -0.3584 -1.0131  1.4497
 2961SOL     OW20341   0.873   4.225   2.737 -0.3371  0.2244 -0.0593
 2961SOL    HW120342   0.863   4.305   2.787  2.1300  0.3392  0.2788
 2961SOL    HW220343   0.927   4.257   2.664  1.0538  0.8288  1.2426
 2962SOL     OW20344   4.076   0.445   8.228 -0.6257 -0.5880  0.2339
 2962SOL    HW120345   4.166   0.428   8.254 -1.1989 -3.4559  0.3975
 2962SOL    HW220346   4.088   0.533   8.191  0.2880 -1.4522 -1.5234
 2963SOL     OW20347   2.803   2.838   8.965  0.0760 -0.3290 -0.0729
 2963SOL    HW120348   2.845   2.924   8.961  0.6274 -0.3760  4.2456
 2963SOL    HW220349   2.846   2.797   8.890 -0.8403  0.5793 -1.0962
 2964SOL     OW20350   4.062   3.051  10.225  0.3891  0.0326 -0.2283
 2964SOL    HW120351   4.055   3.006  10.141  2.7900  0.7164 -0.8046
 2964SOL    HW220352   4.031   2.982  10.284  0.9681 -1.6282 -1.8514
 2965SOL     OW20353   1.841   3.580   6.822 -0.2681 -0.6683 -1.0451
 2965SOL    HW120354   1.877   3.492   6.832 -0.1683 -0.1498  3.3934
 2965SOL    HW220355   1.750   3.564   6.848 -0.1379  0.9543  0.4368
 2966SOL     OW20356   2.896   1.827  16.656  0.5783  0.2487  0.5477
 2966SOL    HW120357   2.906   1.916  16.621  0.2757  0.6204  1.4044
 2966SOL    HW220358   2.922   1.780  16.577 -0.3024  0.8546 -0.0981
 2967SOL     OW20359   0.296   3.975   5.532  0.5277 -0.1725  0.1083
 2967SOL    HW120360   0.254   3.976   5.618 -2.0427 -1.1464 -1.1292
 2967SOL    HW220361   0.233   4.020   5.476 -3.4884 -1.8374  3.3010
 2968SOL     OW20362   4.597   4.653   8.515  0.3062 -0.4605 -0.3148
 2968SOL    HW120363   4.685   4.668   8.550  0.5765  0.1412 -1.2335
 2968SOL    HW220364   4.607   4.581   8.453 -0.7256 -0.3918 -0.5604
 2969SOL     OW20365   3.083   4.381  14.654  0.4968 -0.2045 -0.1841
 2969SOL    HW120366   3.029   4.351  14.581  0.6223  0.0360 -0.3784
 2969SOL    HW220367   3.168   4.345  14.628  0.8757 -0.6109  1.6167
 2970SOL     OW20368   1.460   3.787   7.822  0.4259 -0.2186  0.5024
 2970SOL    HW120369   1.520   3.860   7.805 -0.5978  0.5208  0.0528
 2970SOL    HW220370   1.387   3.815   7.766  1.9071  1.3311 -0.6511
 2971SOL     OW20371   3.854   2.929   4.544  0.0895  0.1916  0.5110
 2971SOL    HW120372   3.884   3.015   4.575 -2.3521  0.6192  1.6608
 2971SOL    HW220373   3.791   2.921   4.615  2.0775 -1.1280  2.1296
 2972SOL     OW20374   2.910   3.319   3.154 -0.0030  0.1110 -0.2943
 2972SOL    HW120375   2.853   3.314   3.077  1.0932  2.3783 -1.2601
 2972SOL    HW220376   2.998   3.334   3.120  0.6265  0.8428  1.6879
 2973SOL     OW20377   2.403   3.859  10.467  0.2185 -0.0627  0.3905
 2973SOL    HW120378   2.343   3.910  10.521  2.0058 -1.7694  4.0018
 2973SOL    HW220379   2.394   3.907  10.385 -1.2848 -1.0296 -0.0093
 2974SOL     OW20380   1.941   0.361   6.108 -0.2010  0.3733  0.5061
 2974SOL    HW120381   2.003   0.422   6.068 -0.6487  0.4262 -0.1110
 2974SOL    HW220382   1.860   0.411   6.096 -1.0752 -1.5130 -1.4424
 2975SOL     OW20383   2.779   0.912   3.679  0.0854  0.0055  0.0245
 2975SOL    HW120384   2.827   0.916   3.762  0.2036  0.4638 -0.0639
 2975SOL    HW220385   2.712   0.979   3.691  1.1415  0.8334  1.3446
 2976SOL     OW20386   3.789   3.121  15.194  0.3921 -0.0523  0.4573
 2976SOL    HW120387   3.746   3.198  15.231 -0.3207  0.3891 -1.3070
 2976SOL    HW220388   3.720   3.106  15.129  0.8090  2.7999 -0.6247
 2977SOL     OW20389   3.640   0.314   7.446 -0.3697  0.1443 -0.1653
 2977SOL    HW120390   3.701   0.366   7.499 -0.6159 -2.1703  2.3917
 2977SOL    HW220391   3.674   0.350   7.364 -0.9285 -2.9836 -1.7689
 2978SOL     OW20392   0.531   1.807   5.931  0.3048  0.5808 -0.7121
 2978SOL    HW120393   0.531   1.876   5.997 -0.5210 -0.8987  0.8526
 2978SOL    HW220394   0.464   1.832   5.868 -0.8453 -2.2004 -0.5684
 2979SOL     OW20395   2.557   4.067   6.748  0.5366 -0.6058  0.2053
 2979SOL    HW120396   2.593   4.037   6.664 -3.8412 -0.5318 -1.7072
 2979SOL    HW220397   2.534   4.157   6.726  1.5873 -0.2723  0.4901
 2980SOL     OW20398   2.049   3.396   6.904  0.1390  0.0942  0.1082
 2980SOL    HW120399   2.119   3.347   6.861 -0.3112 -0.2010 -0.2811
 2980SOL    HW220400   2.104   3.412   6.981 -0.0654 -0.5863  0.4036
 2981SOL     OW20401   4.302   3.811  17.057  0.0438  0.4475 -0.4489
 2981SOL    HW120402   4.300   3.877  17.126 -0.4105  1.2242 -1.1957
 2981SOL    HW220403   4.296   3.734  17.112  0.2228  1.6873  1.3179
 2982SOL     OW20404   1.860   0.568  17.566  0.1687 -0.1584  0.0440
 2982SOL    HW120405   1.791   0.507  17.594  0.7995 -0.5355  0.7732
 2982SOL    HW220406   1.896   0.604  17.647  1.4075 -1.3729  0.0424
 2983SOL     OW20407   2.310   0.228   2.767 -0.2913  0.4551  0.1921
 2983SOL    HW120408   2.305   0.134   2.749 -0.7528  0.3507  0.8643
 2983SOL    HW220409   2.337   0.257   2.680  0.4277  1.0346  0.6075
 2984SOL     OW20410   1.761   1.327  11.733 -0.4832  0.2419  0.1215
 2984SOL    HW120411   1.762   1.399  11.670  2.1045 -1.2842 -1.5800
 2984SOL    HW220412   1.669   1.322  11.757 -0.0224 -0.2545  1.8190
 2985SOL     OW20413   2.667   4.153  16.672 -0.5259 -0.2476  0.3866
 2985SOL    HW120414   2.715   4.113  16.744  1.4470  0.1401 -0.7209
 2985SOL    HW220415   2.738   4.195  16.624  0.7320 -2.2486  0.5178
 2986SOL     OW20416   2.362   3.734   2.515  0.3202 -0.7672  0.1421
 2986SOL    HW120417   2.365   3.735   2.419  0.9827 -2.0070  0.1402
 2986SOL    HW220418   2.376   3.828   2.523 -1.1010 -0.4367 -1.4272
 2987SOL     OW20419   2.063   4.409   9.524 -0.3247  0.2782 -0.6976
 2987SOL    HW120420   2.082   4.344   9.591  0.6026  1.4762  0.1959
 2987SOL    HW220421   1.993   4.461   9.564 -0.1296 -1.0351  1.3560
 2988SOL     OW20422   0.455   4.662   5.376  0.2015  0.2418 -0.3615
 2988SOL    HW120423   0.528   4.680   5.435 -0.6680  1.7003  0.2737
 2988SOL    HW220424   0.504   4.627   5.301  2.9349  1.5497  0.8316
 2989SOL     OW20425   2.615   2.706   4.239 -0.1612  0.3891 -0.5403
 2989SOL    HW120426   2.603   2.647   4.313 -0.7087  1.7447  0.4550
 2989SOL    HW220427   2.535   2.695   4.188  0.1737 -2.1642 -0.5250
 2990SOL     OW20428   0.371   4.342   3.440  0.2824  0.1300 -0.0758
 2990SOL    HW120429   0.418   4.324   3.358  2.7071 -1.5850  1.6853
 2990SOL    HW220430   0.374   4.250   3.467  0.9086 -0.5711 -2.5909
 2991SOL     OW20431   3.082   2.388  10.213  0.1285  0.0099  0.5059
 2991SOL    HW120432   3.039   2.369  10.130 -0.9662  1.4705  0.7385
 2991SOL    HW220433   3.014   2.442  10.254 -0.2423  2.1502 -2.9560
 2992SOL     OW20434   4.199   0.284   4.600  0.5895  0.3422  0.4674
 2992SOL    HW120435   4.236   0.358   4.649  1.9465 -1.1982  1.7628
 2992SOL    HW220436   4.180   0.331   4.519 -1.5134 -0.6502  0.3941
 2993SOL     OW20437   2.758   3.829   6.392 -0.2422  0.0565 -0.0731
 2993SOL    HW120438   2.695   3.797   6.327  0.4938  1.0605 -1.2955
 2993SOL    HW220439   2.768   3.756   6.452 -2.5925 -0.9249 -0.8720
 2994SOL     OW20440   3.875   3.863   7.184  0.6019 -0.0978  0.2487
 2994SOL    HW120441   3.901   3.878   7.274  1.3607 -0.0723  0.0237
 2994SOL    HW220442   3.833   3.779   7.202  0.6661 -0.0632  0.5627
 2995SOL     OW20443   0.833   4.633   4.975  0.6852 -0.4196 -0.1960
 2995SOL    HW120444   0.821   4.590   5.060 -2.2574  0.4131 -0.1949
 2995SOL    HW220445   0.836   4.724   5.004 -0.7903 -0.0027 -1.3520
 2996SOL     OW20446   1.499   4.525   6.653 -0.7951 -0.2200 -0.6377
 2996SOL    HW120447   1.543   4.474   6.585  1.7171 -0.5548  1.2068
 2996SOL    HW220448   1.503   4.612   6.613  0.5663  0.0442  0.0719
 2997SOL     OW20449   4.541   2.774   5.699  0.8217  0.0021  0.2154
 2997SOL    HW120450   4.507   2.854   5.661  2.1417  0.0537 -0.8642
 2997SOL    HW220451   4.572   2.729   5.620  0.2181 -3.1009  1.7529
 2998SOL     OW20452   1.762   0.667   6.568 -0.9160 -0.3396 -0.1721
 2998SOL    HW120453   1.725   0.619   6.642 -0.9152  0.8471  0.6107
 2998SOL    HW220454   1.777   0.595   6.507  0.6681 -0.1901  0.0384
 2999SOL     OW20455   3.077   1.858   6.567  0.4785 -1.0990 -0.1430
 2999SOL    HW120456   3.113   1.836   6.653  4.2992  1.4269 -1.1071
 2999SOL    HW220457   3.105   1.780   6.520  1.8711  1.0800 -2.9890
 3000SOL     OW20458   0.804   2.657   9.849  0.0240 -0.3098  0.1582
 3000SOL    HW120459   0.846   2.734   9.886 -3.7854  1.3013  1.0974
 3000SOL    HW220460   0.722   2.648   9.899 -0.9824  0.6456 -1.3062
 3001SOL     OW20461   2.633   4.613  15.618 -0.2753  0.1019  0.1481
 3001SOL    HW120462   2.615   4.678  15.686 -0.4184  1.8775 -1.6089
 3001SOL    HW220463   2.719   4.650  15.600  0.6563 -2.1041 -0.0169
 3002SOL     OW20464   4.500   3.080  13.112 -0.1876 -0.5589 -0.2991
 3002SOL    HW120465   4.549   3.156  13.143 -0.6346 -0.0775 -0.7750
 3002SOL    HW220466   4.435   3.133  13.065 -2.3655 -3.9482 -1.1793
 3003SOL     OW20467   3.323   2.021   8.065  0.4325  0.6715 -0.3769
 3003SOL    HW120468   3.348   2.075   7.990  3.3882 -0.2806 -0.0574
 3003SOL    HW220469   3.297   1.939   8.025 -0.2455  1.1512 -0.9164
 3004SOL     OW20470   1.041   2.605   5.282  0.6234  0.0448  0.2067
 3004SOL    HW120471   1.049   2.666   5.208  0.0281  0.9679  0.8983
 3004SOL    HW220472   1.080   2.655   5.353  1.0214  1.8014 -1.2327
 3005SOL     OW20473   2.072   3.342   0.396  0.0973  0.1304 -0.0641
 3005SOL    HW120474   2.100   3.399   0.324  0.9623  0.7591  0.7763
 3005SOL    HW220475   2.151   3.295   0.420  1.2434  1.5322 -1.0989
 3006SOL     OW20476   0.453   0.254  14.031  0.0035 -0.0676 -0.0286
 3006SOL    HW120477   0.522   0.315  14.058  0.6677 -0.1732 -1.4567
 3006SOL    HW220478   0.419   0.288  13.948  0.4457 -0.0162 -0.1897
 3007SOL     OW20479   2.273   4.529   3.942 -0.1007 -0.4691  0.4301
 3007SOL    HW120480   2.353   4.491   3.976 -0.7083  0.3961  2.8653
 3007SOL    HW220481   2.290   4.522   3.848  4.1019  0.1637  1.1389
 3008SOL     OW20482   2.386   2.973   4.286 -0.0035  0.0591  0.2641
 3008SOL    HW120483   2.442   2.950   4.211 -0.4500 -0.9114  0.2368
 3008SOL    HW220484   2.441   3.032   4.338 -2.4865  3.3492 -0.8063
 3009SOL     OW20485   3.181   3.968   2.796  0.3632  0.0178 -0.4179
 3009SOL    HW120486   3.158   4.037   2.734 -0.5543  1.3504  1.4082
 3009SOL    HW220487   3.122   3.990   2.868  0.9874  2.1826 -0.5552
 3010SOL     OW20488   2.542   2.568  13.341 -0.6429 -0.3227 -0.1537
 3010SOL    HW120489   2.611   2.634  13.347 -0.4331 -0.7745  2.3528
 3010SOL    HW220490   2.498   2.574  13.256 -0.9973  0.2014  0.0622
 3011SOL     OW20491   4.066   2.334   3.182 -0.0165 -0.5605  0.2393
 3011SOL    HW120492   3.999   2.269   3.162  0.7936  0.3287 -5.2071
 3011SOL    HW220493   4.145   2.281   3.195 -0.9733 -2.0568 -0.0681
 3012SOL     OW20494   2.408   2.685   8.062  0.7260 -0.2697  0.3777
 3012SOL    HW120495   2.357   2.753   8.019  0.1632 -0.0737  1.3595
 3012SOL    HW220496   2.447   2.739   8.130  1.5823 -1.6773  1.0170
 3013SOL     OW20497   4.329   1.393  11.465  0.2900  0.9549 -0.6290
 3013SOL    HW120498   4.327   1.475  11.514 -0.9806 -0.7841  2.2239
 3013SOL    HW220499   4.240   1.363  11.481  0.3781  1.4150  0.7330
 3014SOL     OW20500   3.147   3.092   0.636 -0.2783  0.6921 -0.3141
 3014SOL    HW120501   3.147   3.186   0.616  2.2981  0.2674 -2.3098
 3014SOL    HW220502   3.232   3.068   0.599 -1.6658 -2.0990 -1.6569
 3015SOL     OW20503   2.151   3.802   8.346 -0.0006 -0.4761 -0.0497
 3015SOL    HW120504   2.219   3.857   8.384 -0.0027 -1.3197  1.1817
 3015SOL    HW220505   2.125   3.744   8.418  2.2151  0.7884  1.7600
 3016SOL     OW20506   0.657   2.496  15.438 -0.0111 -0.0267  0.2466
 3016SOL    HW120507   0.584   2.542  15.479  0.2302 -0.3963  1.0986
 3016SOL    HW220508   0.621   2.514  15.352  1.5863 -1.8902 -0.8095
 3017SOL     OW20509   2.989   2.367   9.669  0.1138 -0.0132  0.1478
 3017SOL    HW120510   2.907   2.404   9.637 -0.2577 -0.1952  0.8935
 3017SOL    HW220511   3.057   2.382   9.603  1.1014 -1.2877  0.8677
 3018SOL     OW20512   1.868   0.125  12.770 -0.4439 -0.2353 -0.2094
 3018SOL    HW120513   1.912   0.203  12.736  0.3837 -0.9843 -0.8529
 3018SOL    HW220514   1.943   0.088  12.816  0.8620  0.9164 -1.4100
 3019SOL     OW20515   2.780   0.908  10.299  0.8448  0.4509  0.4440
 3019SOL    HW120516   2.823   0.826  10.275  2.1154  1.1766  0.2509
 3019SOL    HW220517   2.712   0.869  10.354  0.2135 -0.8316 -1.2456
 3020SOL     OW20518   3.253   1.683   3.833  0.3795 -0.0193 -0.2162
 3020SOL    HW120519   3.343   1.716   3.822  0.7950 -0.8715  0.6684
 3020SOL    HW220520   3.215   1.719   3.754  0.7607  2.6086  0.7790
 3021SOL     OW20521   1.340   1.780  10.819  0.3059  0.2000  0.0500
 3021SOL    HW120522   1.272   1.847  10.812 -1.4289 -1.6071 -0.5109
 3021SOL    HW220523   1.328   1.743  10.907  0.8153 -0.1520 -0.0276
 3022SOL     OW20524   0.060   1.847  12.075 -0.1592  0.1990 -0.2846
 3022SOL    HW120525   0.151   1.819  12.076 -0.1379  0.1608 -3.4664
 3022SOL    HW220526   0.046   1.896  11.994  0.6654 -0.8455 -1.0524
 3023SOL     OW20527   0.011   3.416   8.350 -0.3756 -0.0617  0.1238
 3023SOL    HW120528   4.685   3.455   8.279  1.8984  1.9243 -0.4050
 3023SOL    HW220529   4.710   3.485   8.410 -0.3756 -1.0020  1.2017
 3024SOL     OW20530   3.966   4.214  12.522 -0.3439 -0.4628 -0.3209
 3024SOL    HW120531   4.019   4.259  12.587  0.5260 -1.5274 -0.3024
 3024SOL    HW220532   4.007   4.128  12.526 -2.3502 -1.4948 -1.7505
 3025SOL     OW20533   1.453   0.896   6.527  0.0132 -0.1307 -0.3657
 3025SOL    HW120534   1.526   0.939   6.572 -2.6219  2.3812  1.4858
 3025SOL    HW220535   1.481   0.806   6.542 -4.0239 -1.5060 -1.1719
 3026SOL     OW20536   0.627   4.410   9.914 -0.3936  0.0147 -0.4320
 3026SOL    HW120537   0.709   4.459   9.905  0.9749 -1.8908  1.9366
 3026SOL    HW220538   0.565   4.481   9.930  0.4533  0.5429  0.4812
 3027SOL     OW20539   4.524   2.623   4.638  0.0412  0.6735  0.3744
 3027SOL    HW120540   4.616   2.651   4.638  0.6758 -1.4426  0.1915
 3027SOL    HW220541   4.526   2.537   4.598  0.2679  1.1091 -0.5595
 3028SOL     OW20542   2.376   2.371   7.694 -1.0546 -0.1382  0.1721
 3028SOL    HW120543   2.382   2.465   7.711  2.0970 -0.4072  0.6564
 3028SOL    HW220544   2.394   2.389   7.602 -0.2280 -0.5654  0.2512
 3029SOL     OW20545   2.638   4.391   3.154  0.3778 -0.3241 -0.1005
 3029SOL    HW120546   2.664   4.300   3.167  2.5246  0.1766 -0.9815
 3029SOL    HW220547   2.583   4.398   3.233  0.2165 -0.5658 -0.1927
 3030SOL     OW20548   2.521   3.659   1.031 -0.0429  0.3611 -0.2031
 3030SOL    HW120549   2.569   3.577   1.040 -1.2604  0.0685  3.5256
 3030SOL    HW220550   2.555   3.718   1.098  1.3408 -1.7369  0.9676
 3031SOL     OW20551   4.052   4.415   5.646  0.3551  0.6292  0.0399
 3031SOL    HW120552   4.072   4.477   5.575 -0.8306 -1.5524 -2.2191
 3031SOL    HW220553   4.014   4.351   5.585 -1.9850  3.0152 -1.0288
 3032SOL     OW20554   4.310   4.463  14.215 -0.2528  0.8976 -0.0301
 3032SOL    HW120555   4.285   4.397  14.151  2.7785 -1.1560  0.9400
 3032SOL    HW220556   4.294   4.412  14.294 -0.9610 -0.5277 -1.1007
 3033SOL     OW20557   4.492   0.714   2.694  0.0644 -0.0594  0.1820
 3033SOL    HW120558   4.547   0.671   2.761 -0.1327 -1.1608 -0.3589
 3033SOL    HW220559   4.414   0.703   2.750 -0.3426  0.5940 -0.2697
 3034SOL     OW20560   1.091   1.967   9.946 -0.0813 -0.3361 -0.2970
 3034SOL    HW120561   1.037   2.011  10.011 -0.3017 -0.2021 -0.5718
 3034SOL    HW220562   1.178   2.001   9.967 -0.7244  1.1007  0.0185
 3035SOL     OW20563   2.358   4.616   7.244  0.0415 -0.0722  0.6560
 3035SOL    HW120564   2.450   4.642   7.244 -0.2585  1.0097  0.9003
 3035SOL    HW220565   2.326   4.667   7.318 -0.7952  0.8997 -0.3698
 3036SOL     OW20566   4.029   0.100   7.339 -0.7362  0.0530 -0.3831
 3036SOL    HW120567   3.956   0.057   7.383 -1.7154  1.7276 -0.3940
 3036SOL    HW220568   4.056   0.035   7.273 -0.0762 -1.0864  1.0155
 3037SOL     OW20569   2.706   1.951   8.581 -0.5130 -0.0738  0.5449
 3037SOL    HW120570   2.650   2.028   8.594  1.9759  1.5388  1.6455
 3037SOL    HW220571   2.731   1.968   8.490 -3.2470 -1.0088 -0.3831
 3038SOL     OW20572   4.123   1.616   0.703  0.4083 -0.6991 -0.3311
 3038SOL    HW120573   4.053   1.557   0.676  1.5885 -1.9309 -0.7556
 3038SOL    HW220574   4.088   1.704   0.711  0.3571 -0.5381 -2.1993
 3039SOL     OW20575   3.614   3.452  16.286 -0.3173 -0.0404  0.2738
 3039SOL    HW120576   3.698   3.462  16.332 -0.8429  2.7891  0.6199
 3039SOL    HW220577   3.578   3.539  16.300  0.4418  0.2418  0.4919
 3040SOL     OW20578   0.310   3.224   4.960 -0.3184 -0.4763  0.0109
 3040SOL    HW120579   0.324   3.313   4.994 -0.8679 -1.2298  2.2294
 3040SOL    HW220580   0.357   3.237   4.878  0.4820  0.2148  0.5750
 3041SOL     OW20581   0.606   1.813   6.698  0.5793  0.4901  0.3067
 3041SOL    HW120582   0.663   1.889   6.690  0.1492  0.6744 -1.0089
 3041SOL    HW220583   0.675   1.746   6.699 -0.1330 -0.2812 -1.1518
 3042SOL     OW20584   0.774   3.436  15.018  0.1215  0.6295 -0.1247
 3042SOL    HW120585   0.752   3.370  15.085  0.6868 -0.0295 -0.5872
 3042SOL    HW220586   0.866   3.411  15.012  0.2939  0.5851  2.6143
 3043SOL     OW20587   2.749   0.363  14.206 -0.4186 -0.0777 -0.4316
 3043SOL    HW120588   2.738   0.444  14.156 -0.0623  0.6758  0.7109
 3043SOL    HW220589   2.842   0.344  14.198  0.0349  1.1394  2.1027
 3044SOL     OW20590   4.576   0.000  16.168  0.1275 -0.3990  0.1078
 3044SOL    HW120591   4.486   0.029  16.185  0.4185  0.3744  0.3458
 3044SOL    HW220592   4.626   0.036  16.242 -0.4982  1.1285 -0.2132
 3045SOL     OW20593   1.555   4.659  12.697 -0.2111  0.1241 -0.2815
 3045SOL    HW120594   1.572   4.646  12.603 -2.1403 -2.4715 -0.2862
 3045SOL    HW220595   1.461   4.640  12.700 -0.2539  0.4507  0.2683
 3046SOL     OW20596   0.488   0.083  15.554 -0.7458 -0.0120  0.2520
 3046SOL    HW120597   0.541   0.065  15.632 -1.9435 -0.0476  1.0586
 3046SOL    HW220598   0.451   4.722  15.539  0.1903 -0.0664 -1.7239
 3047SOL     OW20599   3.367   4.484   4.969  0.4968 -0.2358  0.3654
 3047SOL    HW120600   3.282   4.468   4.927 -0.5819  2.8180  1.3806
 3047SOL    HW220601   3.375   4.579   4.980  3.6784 -0.3201 -1.5181
 3048SOL     OW20602   3.128   3.521  17.575  0.7632  0.2502  0.0322
 3048SOL    HW120603   3.129   3.470  17.494 -0.9214 -0.3968  0.4065
 3048SOL    HW220604   3.066   3.588  17.546 -0.1152 -1.1474 -1.2866
 3049SOL     OW20605   4.690   1.523   8.925 -0.2101 -0.8045 -0.3396
 3049SOL    HW120606   0.014   1.446   8.954  0.1563 -0.7426 -0.7923
 3049SOL    HW220607   4.703   1.527   8.830  1.2195 -1.1232 -0.1521
 3050SOL     OW20608   2.101   4.549   6.879 -0.5793 -0.2018  0.4280
 3050SOL    HW120609   2.084   4.636   6.917 -2.8963  0.7292 -2.7874
 3050SOL    HW220610   2.038   4.491   6.923 -0.3955 -1.5734 -1.1401
 3051SOL     OW20611   4.721   2.046   1.784 -0.1583 -0.4553 -0.2034
 3051SOL    HW120612   4.725   2.127   1.733  1.5670  0.3314  1.1780
 3051SOL    HW220613   0.072   2.003   1.748  0.6173  0.2273  0.6328
 3052SOL     OW20614   0.152   0.525   2.719 -0.6558 -0.6968 -0.4403
 3052SOL    HW120615   0.121   0.500   2.632 -1.0154  0.5266 -0.6640
 3052SOL    HW220616   0.122   0.615   2.708 -0.0831 -0.5987 -1.2356
 3053SOL     OW20617   1.186   0.650   6.468 -0.2804 -0.2562 -0.6721
 3053SOL    HW120618   1.093   0.654   6.446 -0.2827  0.4587 -0.5301
 3053SOL    HW220619   1.218   0.691   6.388  0.8147 -1.5760 -0.9172
 3054SOL     OW20620   3.156   0.179   3.127  0.4816 -0.7340  0.0836
 3054SOL    HW120621   3.184   0.271   3.123 -2.7056  0.1511 -1.3830
 3054SOL    HW220622   3.073   0.193   3.173 -0.3279 -1.2183 -1.2354
 3055SOL     OW20623   2.975   1.106   2.242  0.3755 -0.1780 -0.0224
 3055SOL    HW120624   3.031   1.064   2.307 -0.0749  1.3878  1.3673
 3055SOL    HW220625   3.031   1.178   2.213  1.3019 -0.7120  0.4483
 3056SOL     OW20626   1.955   2.969   4.570  0.1668 -0.1385 -0.2422
 3056SOL    HW120627   1.897   3.043   4.557  1.9879  1.3405 -0.0030
 3056SOL    HW220628   1.917   2.911   4.504  0.3444  1.3237 -1.6362
 3057SOL     OW20629   4.508   4.020  11.409 -0.3687 -0.1424 -0.2862
 3057SOL    HW120630   4.573   3.950  11.417 -0.1631 -0.2386 -2.7743
 3057SOL    HW220631   4.488   4.038  11.501 -1.5588  1.5152 -0.8696
 3058SOL     OW20632   2.382   2.208   3.920  0.3329  0.3965 -0.2302
 3058SOL    HW120633   2.459   2.254   3.952  1.1598 -0.4215 -1.0520
 3058SOL    HW220634   2.364   2.271   3.850  1.5884  0.5245 -0.4410
 3059SOL     OW20635   0.885   3.078   9.422  0.5335 -0.3131  0.7089
 3059SOL    HW120636   0.850   3.167   9.423  0.3921 -0.3590 -3.0237
 3059SOL    HW220637   0.809   3.020   9.424  0.4662 -0.1774  2.1453
 3060SOL     OW20638   0.185   4.582   5.174 -0.7144 -0.0658 -0.2789
 3060SOL    HW120639   0.100   4.551   5.143 -1.6827  1.8400  0.4371
 3060SOL    HW220640   0.243   4.516   5.137 -0.3056  1.1461 -1.8135
 3061SOL     OW20641   0.845   3.111   3.611 -0.0588 -0.2596  0.3455
 3061SOL    HW120642   0.750   3.108   3.626 -0.1551 -0.4155 -0.2819
 3061SOL    HW220643   0.834   3.086   3.519 -3.1338 -3.1496  1.4602
 3062SOL     OW20644   3.493   0.204   4.671 -0.5047  0.3593  0.3566
 3062SOL    HW120645   3.465   0.245   4.753  3.0608  2.4998  0.5025
 3062SOL    HW220646   3.558   0.141   4.701 -1.4227 -1.5643 -1.6764
 3063SOL     OW20647   1.804   3.886  17.160  0.5136  0.0853 -0.2251
 3063SOL    HW120648   1.799   3.792  17.178 -1.4054  0.1619 -0.4280
 3063SOL    HW220649   1.714   3.890  17.128  0.8817  2.7187 -0.9087
 3064SOL     OW20650   3.677   1.602   2.847 -0.6538  0.3856  0.2272
 3064SOL    HW120651   3.631   1.531   2.804 -1.0001  0.3567  0.6557
 3064SOL    HW220652   3.702   1.656   2.771 -2.9681 -1.1245 -1.5777
 3065SOL     OW20653   2.717   3.271   7.498 -0.9413 -0.3135 -0.0991
 3065SOL    HW120654   2.673   3.198   7.457 -1.2908  0.3201 -0.8449
 3065SOL    HW220655   2.759   3.315   7.424 -1.4064  0.4266  0.0736
 3066SOL     OW20656   4.005   1.745   7.125 -0.5096 -0.0752 -0.3778
 3066SOL    HW120657   4.062   1.785   7.058 -2.1585  1.0690 -1.0867
 3066SOL    HW220658   3.995   1.814   7.190 -0.1571  0.1483 -0.5603
 3067SOL     OW20659   1.099   0.966  17.230  0.5923  0.2197  0.2675
 3067SOL    HW120660   1.180   0.969  17.280  0.3587  4.2223  0.4265
 3067SOL    HW220661   1.070   1.058  17.234  1.3430  0.5993 -2.8798
 3068SOL     OW20662   3.745   3.408  14.921 -0.2037  0.8375 -0.2490
 3068SOL    HW120663   3.795   3.475  14.967 -0.4542 -0.0023  1.2396
 3068SOL    HW220664   3.771   3.418  14.829 -2.0880 -0.6167 -0.9529
 3069SOL     OW20665   1.781   3.516   2.482 -0.1610 -0.2588  0.2622
 3069SOL    HW120666   1.791   3.483   2.571 -0.2861 -0.1700  0.3082
 3069SOL    HW220667   1.723   3.591   2.495 -2.3115 -1.6756 -1.1549
 3070SOL     OW20668   2.605   0.039   7.162 -0.1638  0.3350  0.6162
 3070SOL    HW120669   2.636   0.126   7.187 -1.3291  1.1393 -0.7239
 3070SOL    HW220670   2.632   4.714   7.239  1.1746 -0.6032 -0.4520
 3071SOL     OW20671   0.776   3.585   2.126 -0.3841  0.0446  0.3424
 3071SOL    HW120672   0.754   3.502   2.085  1.8606 -0.2638 -0.2466
 3071SOL    HW220673   0.869   3.588   2.101 -0.9451 -0.6802 -1.8954
 3072SOL     OW20674   0.404   4.386   7.590  0.5725 -0.0821 -0.1681
 3072SOL    HW120675   0.405   4.426   7.503 -1.8433 -0.5523 -0.3880
 3072SOL    HW220676   0.457   4.452   7.635 -0.0502 -0.4154  1.0605
 3073SOL     OW20677   4.262   4.035   8.112  0.0643  0.7006 -0.7734
 3073SOL    HW120678   4.289   3.966   8.172  1.0883  2.0883  0.3750
 3073SOL    HW220679   4.183   4.066   8.155 -0.8258 -2.2429 -0.2941
 3074SOL     OW20680   0.878   2.553  10.232 -0.4118  0.1945  0.7188
 3074SOL    HW120681   0.925   2.523  10.309 -0.4347  1.8169  1.3794
 3074SOL    HW220682   0.796   2.519  10.267 -0.7759  1.6175  1.2660
 3075SOL     OW20683   2.227   2.812   6.942  0.6656  0.3361 -0.2414
 3075SOL    HW120684   2.287   2.878   6.977  1.6014 -0.8820  0.4116
 3075SOL    HW220685   2.252   2.793   6.851 -0.7120 -2.9899  0.0877
 3076SOL     OW20686   4.127   0.346   5.455  0.0190  0.3639 -0.2751
 3076SOL    HW120687   4.050   0.382   5.500 -1.7719 -0.8068 -2.4065
 3076SOL    HW220688   4.178   0.427   5.448  1.7045 -0.6925 -0.1236
 3077SOL     OW20689   0.696   2.890   6.052 -0.2527 -0.2269  0.2768
 3077SOL    HW120690   0.638   2.903   6.127 -2.0118  2.4370 -1.5253
 3077SOL    HW220691   0.715   2.983   6.039 -2.4837  0.4027  1.6505
 3078SOL     OW20692   2.408   3.492   6.704 -0.1044 -0.0701  0.5779
 3078SOL    HW120693   2.405   3.436   6.626 -1.7792  0.0775  0.5418
 3078SOL    HW220694   2.340   3.557   6.686  0.2709  0.2203  0.2031
 3079SOL     OW20695   1.765   0.199   3.612  0.3489  0.2535  0.3928
 3079SOL    HW120696   1.722   0.268   3.561  0.0084  0.7050  1.2981
 3079SOL    HW220697   1.846   0.187   3.562 -0.1698  2.7074 -1.0020
 3080SOL     OW20698   2.723   4.325  15.586  0.3758  0.8382  0.0993
 3080SOL    HW120699   2.721   4.292  15.497 -0.3755  0.7869  0.1305
 3080SOL    HW220700   2.689   4.414  15.572 -0.4939  0.1774 -1.8961
 3081SOL     OW20701   3.022   4.557   4.982 -0.3094  1.1225 -0.0430
 3081SOL    HW120702   2.929   4.544   5.002  0.3096 -1.0003  1.3961
 3081SOL    HW220703   3.021   4.584   4.890  3.8491 -1.8011 -0.9493
 3082SOL     OW20704   1.798   4.486  13.535 -0.2452  0.0101 -0.2501
 3082SOL    HW120705   1.707   4.473  13.507 -0.6238  2.2356 -0.1103
 3082SOL    HW220706   1.832   4.545  13.468  1.0743  0.1269  0.5213
 3083SOL     OW20707   0.083   4.280   6.067  0.0025  0.6737  0.2004
 3083SOL    HW120708   0.045   4.342   6.005  0.9163  0.4437 -0.5769
 3083SOL    HW220709   0.001   4.257   6.111  0.3860  1.3242  1.2655
 3084SOL     OW20710   4.528   2.125   7.484 -0.4199 -0.7384 -0.3801
 3084SOL    HW120711   4.456   2.063   7.495 -0.0875 -0.7381  1.8241
 3084SOL    HW220712   4.569   2.124   7.570  0.5599 -1.0023 -0.8571
 3085SOL     OW20713   2.600   3.727   6.166  0.0124 -0.3082  0.2205
 3085SOL    HW120714   2.637   3.641   6.149  1.2672  0.3419 -0.3757
 3085SOL    HW220715   2.510   3.711   6.140 -0.4071  2.1256  0.1276
 3086SOL     OW20716   3.103   3.428   3.762 -0.9145 -0.2971 -0.3005
 3086SOL    HW120717   3.129   3.357   3.820  0.9372 -1.1193 -2.1566
 3086SOL    HW220718   3.051   3.372   3.705 -3.3911  0.7147  0.9532
 3087SOL     OW20719   2.749   1.124   7.262  0.4097  0.8032 -0.0064
 3087SOL    HW120720   2.672   1.066   7.259  0.3855  0.9247 -2.0536
 3087SOL    HW220721   2.754   1.135   7.167 -0.0057  0.2715 -0.0900
 3088SOL     OW20722   2.997   4.620   7.737  0.3345 -0.0486 -0.0492
 3088SOL    HW120723   2.912   4.646   7.772  0.0179  0.1189 -0.9547
 3088SOL    HW220724   2.972   4.582   7.653  0.9058  1.7249 -1.0251
 3089SOL     OW20725   1.063   1.017   5.369  0.3469  0.3699  0.6668
 3089SOL    HW120726   1.042   1.068   5.291  0.6443  0.3828  0.5947
 3089SOL    HW220727   1.081   1.081   5.438  1.3439  0.6353  0.1579
 3090SOL     OW20728   3.991   2.575   6.776 -0.4048 -0.1574  0.0231
 3090SOL    HW120729   3.978   2.495   6.726  1.1632  0.4925 -1.4486
 3090SOL    HW220730   3.997   2.637   6.703 -2.0976 -0.4824 -0.3928
 3091SOL     OW20731   1.825   2.088  17.303 -0.0945  0.0957 -0.5101
 3091SOL    HW120732   1.768   2.155  17.341  0.0278 -0.7952  1.2745
 3091SOL    HW220733   1.797   2.012  17.355  0.8141 -1.2606 -1.9963
 3092SOL     OW20734   3.842   2.217   0.327  0.2183 -0.5372  0.5540
 3092SOL    HW120735   3.815   2.183   0.413  0.3792 -4.3568 -0.8842
 3092SOL    HW220736   3.835   2.312   0.334  1.1895 -0.6227  2.8941
 3093SOL     OW20737   3.121   4.031   4.306 -0.4104  0.0407 -0.0142
 3093SOL    HW120738   3.206   3.997   4.279 -0.7329 -0.0443 -0.9247
 3093SOL    HW220739   3.119   4.124   4.286  1.9222 -0.6251 -3.3221
 3094SOL     OW20740   1.826   2.579   6.191  0.0049 -0.2412 -0.0564
 3094SOL    HW120741   1.848   2.533   6.272  0.0788  0.5210  0.3552
 3094SOL    HW220742   1.834   2.669   6.223 -1.7895 -0.6175  1.4659
 3095SOL     OW20743   1.304   0.787   3.962  0.1581  0.0788  0.1691
 3095SOL    HW120744   1.244   0.853   3.998 -0.5520 -0.8852  0.7447
 3095SOL    HW220745   1.325   0.734   4.039 -1.1926 -1.9653 -0.8545
 3096SOL     OW20746   0.319   1.771   8.504 -0.2292  0.3050 -0.2867
 3096SOL    HW120747   0.391   1.812   8.457 -0.1622  0.2957 -0.1910
 3096SOL    HW220748   0.280   1.846   8.548 -0.2494  0.0490  0.1310
 3097SOL     OW20749   0.077   0.093   0.263 -0.4397 -0.3163  0.2880
 3097SOL    HW120750   0.169   0.089   0.292 -1.0256  1.7037  2.3809
 3097SOL    HW220751   0.056   0.002   0.281 -1.6127  0.3979  2.5647
 3098SOL     OW20752   0.089   1.931  11.838 -0.6358 -0.1223  0.1952
 3098SOL    HW120753   0.080   2.020  11.804 -1.0008 -0.2899 -0.1434
 3098SOL    HW220754   0.113   1.890  11.755  0.1602  0.0500  0.3424
 3099SOL     OW20755   0.906   0.092   6.469  0.1658 -0.3000  0.0514
 3099SOL    HW120756   0.859   0.074   6.388 -1.5931  1.9071  0.5718
 3099SOL    HW220757   0.853   0.054   6.540 -1.3780 -1.6498 -1.7975
 3100SOL     OW20758   2.079   0.067  11.865  0.4897 -0.0754 -0.0102
 3100SOL    HW120759   2.029   0.033  11.791 -1.6991  1.4894  0.7575
 3100SOL    HW220760   2.132   4.715  11.885  0.3104  0.1107  1.1749
 3101SOL     OW20761   3.403   1.356   3.431  0.0792 -0.0637  0.0350
 3101SOL    HW120762   3.471   1.387   3.491 -0.4722  0.9191  0.1488
 3101SOL    HW220763   3.372   1.443   3.406  0.6486  0.2974  0.5708
 3102SOL     OW20764   3.026   1.144   7.830 -0.3248 -0.3816 -0.2201
 3102SOL    HW120765   2.994   1.065   7.785 -0.1862 -0.0690 -0.8689
 3102SOL    HW220766   2.951   1.171   7.883  1.1084  3.0995  0.0139
 3103SOL     OW20767   1.892   0.008   5.667 -0.1782 -0.4475  0.3147
 3103SOL    HW120768   1.850   4.692   5.742  0.2509  0.5518  1.1202
 3103SOL    HW220769   1.881   0.101   5.688  0.7975 -0.7359  2.1280
 3104SOL     OW20770   3.342   1.397   0.009 -0.0915  0.2585  0.1916
 3104SOL    HW120771   3.250   1.407  17.686  0.9838  2.9319 -2.6669
 3104SOL    HW220772   3.388   1.364  17.635 -0.2824  2.0956 -0.7028
 3105SOL     OW20773   2.523   2.390   4.039 -0.6631 -0.6388 -0.4024
 3105SOL    HW120774   2.612   2.383   4.074 -0.3385  2.4266 -0.6330
 3105SOL    HW220775   2.476   2.415   4.119  0.7585 -1.6139  0.7325
 3106SOL     OW20776   3.790   4.394   7.617 -0.6139 -0.1883 -0.2230
 3106SOL    HW120777   3.852   4.329   7.587  0.7665  2.3015 -2.7842
 3106SOL    HW220778   3.841   4.469   7.586 -0.7217  0.0256  0.1154
 3107SOL     OW20779   4.113   4.259   5.849 -0.7712 -0.6316 -0.0876
 3107SOL    HW120780   4.092   4.336   5.796 -0.4983 -1.3209 -1.1884
 3107SOL    HW220781   4.124   4.187   5.787 -1.2126 -1.2616  0.5678
 3108SOL     OW20782   0.143   2.949  14.438 -0.1327 -0.1586 -0.2408
 3108SOL    HW120783   0.171   2.870  14.392 -0.4287 -0.0835 -0.5516
 3108SOL    HW220784   0.056   2.953  14.398  1.0296 -1.9842 -3.0123
 3109SOL     OW20785   4.010   0.155  13.109  0.5235 -0.3963  0.2896
 3109SOL    HW120786   3.985   0.174  13.018 -2.6575  0.0100  1.2258
 3109SOL    HW220787   3.969   0.231  13.149 -0.0900 -1.4225  1.6079
 3110SOL     OW20788   4.479   4.366   2.764  0.7501  0.1691  0.0475
 3110SOL    HW120789   4.391   4.328   2.769  1.4023 -1.0674  1.9286
 3110SOL    HW220790   4.526   4.304   2.820 -0.0259 -0.8832 -0.4483
 3111SOL     OW20791   3.109   2.686  17.142  0.0696 -0.5837  0.7828
 3111SOL    HW120792   3.033   2.685  17.085  0.2545 -1.5297  0.5557
 3111SOL    HW220793   3.073   2.680  17.230 -0.6822 -0.1629  0.5049
 3112SOL     OW20794   2.936   3.498  11.734 -0.3541 -0.1652 -0.2541
 3112SOL    HW120795   2.989   3.420  11.723 -0.1752 -0.6504  3.8845
 3112SOL    HW220796   2.848   3.463  11.750 -0.4444  1.0614  2.0530
 3113SOL     OW20797   0.051   1.333   7.818 -0.0135  0.1083  0.1472
 3113SOL    HW120798   0.100   1.322   7.737  1.4875  0.9895  0.9315
 3113SOL    HW220799   0.105   1.276   7.874  0.6450  0.1909 -0.4033
 3114SOL     OW20800   4.662   3.034   7.372  0.2134 -0.1829 -0.4720
 3114SOL    HW120801   4.720   3.045   7.296  0.5176  3.4761  0.2897
 3114SOL    HW220802   4.678   3.109   7.430 -1.9106  0.8439 -1.1909
 3115SOL     OW20803   2.029   4.211   4.874 -0.6879 -0.9177  0.0732
 3115SOL    HW120804   2.073   4.135   4.835  1.2410  0.4265 -0.4005
 3115SOL    HW220805   2.056   4.207   4.965  2.8956  1.9947 -0.8643
 3116SOL     OW20806   3.035   3.287  12.650 -0.7782  0.7133  0.0680
 3116SOL    HW120807   2.974   3.265  12.719 -0.9278  1.4183  0.1672
 3116SOL    HW220808   3.022   3.382  12.660 -0.3088  0.7718  0.1164
 3117SOL     OW20809   2.917   3.196  15.192 -0.7422 -0.0309 -0.2642
 3117SOL    HW120810   2.897   3.108  15.161  2.4073 -1.3033  1.2179
 3117SOL    HW220811   2.884   3.250  15.121 -0.0693  0.3677 -0.2745
 3118SOL     OW20812   2.417   0.295  13.584 -0.4116 -0.1564 -0.1853
 3118SOL    HW120813   2.500   0.293  13.633 -0.2958  2.6938 -0.2683
 3118SOL    HW220814   2.435   0.244  13.505  0.5734 -2.2280  1.3394
 3119SOL     OW20815   2.248   1.575   0.584  0.0745  0.0687  0.1410
 3119SOL    HW120816   2.157   1.606   0.585  0.0375 -0.0132 -0.6927
 3119SOL    HW220817   2.238   1.540   0.673  0.5269 -1.3810 -0.3708
 3120SOL     OW20818   3.310   0.684   3.176 -0.3687  0.5689 -0.3801
 3120SOL    HW120819   3.316   0.721   3.264  0.7482  2.4232 -1.2320
 3120SOL    HW220820   3.345   0.757   3.125  0.0083  0.3685 -0.3991
 3121SOL     OW20821   1.144   1.045   3.188 -0.0772 -0.0433 -0.2348
 3121SOL    HW120822   1.156   1.131   3.227  0.6849  0.1144 -0.8300
 3121SOL    HW220823   1.231   1.026   3.154  0.0405 -0.9251  0.5469
 3122SOL     OW20824   4.569   3.026  16.459 -0.4290 -0.1503 -0.5897
 3122SOL    HW120825   4.638   3.085  16.426 -1.2603  0.7213 -0.7590
 3122SOL    HW220826   4.597   3.026  16.550 -0.4845  0.5047 -0.5726
 3123SOL     OW20827   2.091   2.040   7.878 -0.4361 -0.0544  0.4707
 3123SOL    HW120828   2.144   2.108   7.835  1.7279 -1.9379  0.1232
 3123SOL    HW220829   2.036   2.097   7.931  1.2174  2.2185 -0.2482
 3124SOL     OW20830   4.638   3.730   1.047  0.0037  0.2284  0.3585
 3124SOL    HW120831   4.579   3.668   1.005  1.5100 -1.9683  1.5081
 3124SOL    HW220832   4.587   3.751   1.125 -1.3072 -2.9946  0.3400
 3125SOL     OW20833   2.766   1.099   4.479  0.3751 -0.1295 -0.0074
 3125SOL    HW120834   2.839   1.158   4.456  0.1159  0.4842  0.7458
 3125SOL    HW220835   2.740   1.155   4.552  0.7259  0.5854 -0.4310
 3126SOL     OW20836   4.557   4.474   8.312  0.2665 -0.2652 -0.1300
 3126SOL    HW120837   4.497   4.410   8.276  0.7247  0.6231 -2.4746
 3126SOL    HW220838   4.647   4.452   8.288 -0.6129 -0.0845 -3.5052
 3127SOL     OW20839   2.251   0.415  11.849  0.8697 -0.1620  0.6453
 3127SOL    HW120840   2.209   0.372  11.923  1.7626 -0.2088  1.1184
 3127SOL    HW220841   2.258   0.506  11.880  1.6669 -0.1510  0.4510
 3128SOL     OW20842   0.071   2.310   6.403  0.1839  0.1680  0.2906
 3128SOL    HW120843   0.149   2.270   6.443  0.5405  2.0089  1.4044
 3128SOL    HW220844   0.088   2.402   6.421  0.8162 -0.2342  1.8209
 3129SOL     OW20845   1.911   3.544   1.772  0.7689  0.3731 -0.5759
 3129SOL    HW120846   1.897   3.638   1.774  1.5704  0.4901 -0.5977
 3129SOL    HW220847   1.907   3.527   1.678 -1.4559  1.8665 -0.7474
 3130SOL     OW20848   2.212   3.133  14.635  0.4262 -0.0110  0.0995
 3130SOL    HW120849   2.147   3.095  14.575  0.5912 -1.5458  0.8781
 3130SOL    HW220850   2.155   3.196  14.679  1.0993  0.5590  0.1500
 3131SOL     OW20851   2.110   4.715   3.270 -0.5298  0.1457  0.2684
 3131SOL    HW120852   2.092   4.626   3.300 -1.5673  0.3900  0.3492
 3131SOL    HW220853   2.192   4.696   3.223 -1.7006  1.4639 -2.2702
 3132SOL     OW20854   1.680   3.070   6.162  0.0440 -0.8226 -0.6416
 3132SOL    HW120855   1.685   3.132   6.089 -1.3804 -1.1068 -0.9742
 3132SOL    HW220856   1.713   2.992   6.118  1.2023 -0.3649 -0.5918
 3133SOL     OW20857   2.354   1.991  13.436  0.4767 -0.0293 -0.3440
 3133SOL    HW120858   2.320   1.910  13.475 -0.9831 -0.2194 -2.0576
 3133SOL    HW220859   2.380   2.029  13.520 -0.0545  2.4254 -1.2873
 3134SOL     OW20860   0.690   1.897   4.146 -0.6350 -0.2082 -0.1152
 3134SOL    HW120861   0.644   1.915   4.228 -0.9386 -1.4374 -0.0176
 3134SOL    HW220862   0.737   1.816   4.164  0.8953  0.4568 -1.1502
 3135SOL     OW20863   2.845   0.557  16.279 -0.2171 -0.2260 -0.4953
 3135SOL    HW120864   2.831   0.650  16.264  0.7994 -0.0560 -0.3955
 3135SOL    HW220865   2.941   0.556  16.274 -0.2129 -1.8290 -0.1611
 3136SOL     OW20866   0.649   4.095   9.917  0.1224 -0.0573 -0.1336
 3136SOL    HW120867   0.622   4.186   9.917 -2.2464 -0.7623 -0.6741
 3136SOL    HW220868   0.733   4.091   9.871 -0.2712  1.3553 -0.9597
 3137SOL     OW20869   4.065   4.445   7.379 -0.3009  0.3682 -0.4664
 3137SOL    HW120870   4.103   4.508   7.441 -0.8904 -0.1633  0.4243
 3137SOL    HW220871   4.039   4.368   7.428 -0.3274 -0.0158 -1.0876
 3138SOL     OW20872   2.621   2.484   9.241 -0.6776  0.3505  0.1807
 3138SOL    HW120873   2.645   2.576   9.244 -0.9441  0.4489 -0.8013
 3138SOL    HW220874   2.566   2.481   9.163 -0.1381 -0.4782 -0.1666
 3139SOL     OW20875   1.995   3.587  10.782  0.4055 -0.7456 -0.0505
 3139SOL    HW120876   2.004   3.562  10.874  0.6602  0.5733  0.2720
 3139SOL    HW220877   1.962   3.502  10.752  3.3512 -0.6757 -3.5264
 3140SOL     OW20878   2.397   0.861  12.384 -0.2463 -0.4687 -0.0798
 3140SOL    HW120879   2.360   0.883  12.299  1.8575  2.0115 -0.3330
 3140SOL    HW220880   2.321   0.887  12.437  0.8232  2.9369 -0.2328
 3141SOL     OW20881   1.251   3.402   8.587  0.2728  0.2809 -0.1344
 3141SOL    HW120882   1.240   3.457   8.509 -2.7400 -1.1972 -0.7278
 3141SOL    HW220883   1.338   3.422   8.622 -0.9448 -0.4923  3.2931
 3142SOL     OW20884   4.660   1.151   9.608 -0.1826  0.4822  0.4379
 3142SOL    HW120885   4.656   1.241   9.640 -1.7200  0.9877 -1.1514
 3142SOL    HW220886   4.661   1.105   9.692 -0.1874  0.3038  0.3421
 3143SOL     OW20887   4.042   3.565   6.015 -0.6407  0.3158 -0.0665
 3143SOL    HW120888   3.969   3.587   5.957 -0.8467  1.2963  0.5660
 3143SOL    HW220889   4.015   3.476   6.040  1.6024 -1.2447 -3.1243
 3144SOL     OW20890   3.137   4.559   9.907  0.1802 -0.1198 -0.1329
 3144SOL    HW120891   3.228   4.540   9.927 -0.1189 -0.4862  0.8472
 3144SOL    HW220892   3.150   4.618   9.832  2.8184  1.5600  1.6772
 3145SOL     OW20893   2.522   0.591   2.536  0.2939  0.1287  0.2102
 3145SOL    HW120894   2.558   0.631   2.615  0.9408 -0.3749  0.1689
 3145SOL    HW220895   2.429   0.586   2.560 -0.4229  0.3237 -2.5181
 3146SOL     OW20896   1.164   4.034   4.456  0.0350  0.1789  0.2840
 3146SOL    HW120897   1.108   4.111   4.460 -0.0031  0.2608 -1.6192
 3146SOL    HW220898   1.226   4.046   4.527  1.8579 -1.5784 -0.9832
 3147SOL     OW20899   2.497   0.593  12.529  0.2858 -0.4890 -0.0533
 3147SOL    HW120900   2.518   0.614  12.620 -1.2753 -2.6562  0.8036
 3147SOL    HW220901   2.581   0.622  12.493 -0.0891  1.0185  0.2751
 3148SOL     OW20902   2.798   2.643   9.773 -0.1824  0.5328  0.5799
 3148SOL    HW120903   2.877   2.616   9.725  1.1511  2.5364  1.6356
 3148SOL    HW220904   2.837   2.656   9.860 -0.5038  1.1522  0.6334
 3149SOL     OW20905   2.696   0.190   6.211  0.3948 -0.8101 -0.0829
 3149SOL    HW120906   2.713   0.197   6.304 -0.6518  0.2368  0.0321
 3149SOL    HW220907   2.663   0.278   6.190  1.3245 -0.3278  0.5037
 3150SOL     OW20908   1.104   2.642   2.080 -0.1588  0.3315 -0.3801
 3150SOL    HW120909   1.056   2.657   2.161  1.4370  0.9622  0.4565
 3150SOL    HW220910   1.109   2.549   2.061 -1.7069  0.8826 -3.4114
 3151SOL     OW20911   0.336   3.530   4.699 -0.5458 -0.3756  0.3916
 3151SOL    HW120912   0.412   3.491   4.656 -2.7715 -1.1164 -2.8705
 3151SOL    HW220913   0.261   3.489   4.656 -0.6687 -0.1887  0.4286
 3152SOL     OW20914   4.513   0.763   1.472 -0.1965 -0.4119 -0.1288
 3152SOL    HW120915   4.430   0.786   1.514 -0.6754  1.4460 -2.1166
 3152SOL    HW220916   4.573   0.828   1.509 -0.7951 -0.6629  1.3024
 3153SOL     OW20917   3.343   3.037  12.410  0.3761 -0.0313  0.5457
 3153SOL    HW120918   3.275   3.092  12.450  1.0251  0.9490  0.2834
 3153SOL    HW220919   3.361   3.076  12.324 -0.0514  0.4164  0.6615
 3154SOL     OW20920   0.541   4.230   6.800 -0.1112 -0.0631  0.2142
 3154SOL    HW120921   0.526   4.281   6.720  2.5872  0.8467  0.3010
 3154SOL    HW220922   0.456   4.255   6.835 -0.0785 -1.0285  0.9977
 3155SOL     OW20923   1.858   2.901  11.679  0.3818 -0.5537 -0.1034
 3155SOL    HW120924   1.839   2.890  11.586  0.4383 -0.5773 -0.1124
 3155SOL    HW220925   1.944   2.943  11.674  0.4583 -0.6721  0.2053
 3156SOL     OW20926   4.670   2.624   3.235  0.4199  0.4639  0.2165
 3156SOL    HW120927   0.023   2.577   3.209  0.8126  0.3077  1.6970
 3156SOL    HW220928   4.693   2.656   3.322  0.2140 -0.8511  0.7648
 3157SOL     OW20929   2.837   1.751   3.768 -0.2305  0.4432 -0.1212
 3157SOL    HW120930   2.822   1.658   3.787 -1.9646  0.9514  0.9615
 3157SOL    HW220931   2.863   1.748   3.675  0.1643 -0.9142  0.0314
 3158SOL     OW20932   1.042   2.717   7.403  0.0395  0.5539  0.2611
 3158SOL    HW120933   1.069   2.754   7.487  1.9092 -0.2373  0.0065
 3158SOL    HW220934   1.112   2.739   7.342 -0.0412  1.3764  0.4715
 3159SOL     OW20935   3.497   2.077   3.643 -0.4682  0.1511 -0.4168
 3159SOL    HW120936   3.554   2.131   3.588 -1.7612  1.4160 -0.5321
 3159SOL    HW220937   3.430   2.052   3.579 -0.7281  0.0432 -0.1014
 3160SOL     OW20938   3.157   4.068   8.067  0.7771  0.1404  0.5566
 3160SOL    HW120939   3.237   4.120   8.077  1.5985 -1.2346  1.1267
 3160SOL    HW220940   3.130   4.092   7.978  0.0233  1.2649  1.0925
 3161SOL     OW20941   1.820   2.694   4.546  0.4854  0.3022  0.2707
 3161SOL    HW120942   1.820   2.673   4.453  0.9044  0.2028  0.2914
 3161SOL    HW220943   1.815   2.607   4.586 -0.3646 -0.4686 -1.5557
 3162SOL     OW20944   3.356   1.733  12.260  0.2135 -0.1095 -0.3755
 3162SOL    HW120945   3.412   1.762  12.332 -0.0218 -1.3996  0.3305
 3162SOL    HW220946   3.384   1.642  12.267 -2.1477 -0.9541 -1.8821
 3163SOL     OW20947   4.490   1.693   8.909 -0.1845  0.6188 -0.6902
 3163SOL    HW120948   4.491   1.691   8.813 -3.3559  2.7132 -0.7787
 3163SOL    HW220949   4.572   1.647   8.927  0.6069  2.0470 -0.6401
 3164SOL     OW20950   3.588   4.413   2.194 -0.0030  0.8246 -0.1269
 3164SOL    HW120951   3.564   4.482   2.256 -1.2327 -0.8233  1.2425
 3164SOL    HW220952   3.603   4.343   2.257  0.9870  0.6752 -0.5412
 3165SOL     OW20953   1.561   3.676   1.778  0.3575 -0.5363  0.2994
 3165SOL    HW120954   1.587   3.665   1.686 -0.3595 -1.5630  0.2210
 3165SOL    HW220955   1.624   3.735   1.818  2.1091 -1.4034 -1.1672
 3166SOL     OW20956   4.499   0.417  13.821  0.5095 -0.1240 -0.2568
 3166SOL    HW120957   4.455   0.491  13.862 -0.1716 -0.2159 -0.8391
 3166SOL    HW220958   4.515   0.452  13.734  0.0311  2.1093  0.5646
 3167SOL     OW20959   1.217   1.195   4.162  0.0122  0.0211 -0.5080
 3167SOL    HW120960   1.161   1.267   4.132 -0.2987  1.6827  4.0951
 3167SOL    HW220961   1.284   1.215   4.096  0.2151  0.1318 -0.2666
 3168SOL     OW20962   0.229   3.695   6.960 -0.4692  0.1971 -0.2613
 3168SOL    HW120963   0.210   3.713   6.868  0.0923 -0.9184 -0.6014
 3168SOL    HW220964   0.293   3.762   6.985 -1.1055  1.3819 -1.8942
 3169SOL     OW20965   1.750   0.855   7.644 -0.4730 -0.1301  0.2619
 3169SOL    HW120966   1.669   0.804   7.650 -1.1063  0.7887 -0.5232
 3169SOL    HW220967   1.812   0.782   7.654  1.1239  1.1114 -0.6459
 3170SOL     OW20968   0.132   1.782   5.819 -0.4016 -0.0178 -0.7468
 3170SOL    HW120969   0.133   1.712   5.884 -2.4904 -1.2452 -2.0535
 3170SOL    HW220970   0.143   1.862   5.871  1.8048 -1.8295  1.5835
 3171SOL     OW20971   0.986   3.643   7.560 -0.3714  0.2973  0.1172
 3171SOL    HW120972   0.935   3.598   7.627 -2.5717  1.2438 -0.9124
 3171SOL    HW220973   1.029   3.573   7.511 -0.3768 -0.2022  0.8379
 3172SOL     OW20974   4.118   1.811   8.343  0.1300 -0.0435  0.4004
 3172SOL    HW120975   4.142   1.763   8.264 -1.8838 -1.0831  0.4208
 3172SOL    HW220976   4.033   1.844   8.314 -0.9983 -1.2236  2.2710
 3173SOL     OW20977   4.438   4.179   4.516  0.0303 -0.0176  0.1478
 3173SOL    HW120978   4.351   4.147   4.541  0.1908 -1.3773 -1.0348
 3173SOL    HW220979   4.428   4.177   4.420 -1.1506 -0.0091  0.2650
 3174SOL     OW20980   0.048   2.186   1.144  0.2301 -0.9682 -0.0742
 3174SOL    HW120981   0.065   2.139   1.225 -1.7624  1.0945  1.5380
 3174SOL    HW220982   4.702   2.132   1.112 -1.6723  0.1963  2.2101
 3175SOL     OW20983   2.247   4.469   0.023 -0.2555  0.2663  0.1733
 3175SOL    HW120984   2.169   4.465  17.671  0.6085  0.7456 -1.0959
 3175SOL    HW220985   2.285   4.381   0.017 -0.6534  0.2470 -2.2747
 3176SOL     OW20986   3.689   4.622   6.099  0.1828  0.0985  0.3003
 3176SOL    HW120987   3.758   4.688   6.094 -0.5575  1.0350  2.7608
 3176SOL    HW220988   3.716   4.577   6.019 -1.3995 -2.0023  0.9416
 3177SOL     OW20989   3.110   2.564  14.258  0.0097 -0.1837  0.6326
 3177SOL    HW120990   3.126   2.649  14.299 -0.0393  0.3712 -0.4886
 3177SOL    HW220991   3.050   2.593  14.189 -2.6885 -1.0880  2.5824
 3178SOL     OW20992   1.395   2.886   8.647  0.0046 -0.5795  0.2917
 3178SOL    HW120993   1.346   2.968   8.641 -1.2689 -1.3200  0.6706
 3178SOL    HW220994   1.416   2.867   8.555 -0.3233 -0.6772  0.2380
 3179SOL     OW20995   0.160   3.211  14.127  0.5913 -0.0073  0.3044
 3179SOL    HW120996   0.087   3.239  14.183  0.4089  1.0671 -0.4778
 3179SOL    HW220997   0.120   3.142  14.074 -1.7976  1.1992  0.5089
 3180SOL     OW20998   2.849   2.665   3.962 -0.0423  0.0323 -0.4782
 3180SOL    HW120999   2.904   2.603   4.010 -1.8606  0.4062  2.1014
 3180SOL    HW221000   2.906   2.687   3.889  2.0427  1.0236  1.4409
 3181SOL     OW21001   4.257   1.921   6.359  0.4396 -1.0741 -0.5622
 3181SOL    HW121002   4.232   1.897   6.270 -2.6569 -1.8109  0.5396
 3181SOL    HW221003   4.269   1.835   6.399 -0.1450 -1.4570 -1.2167
 3182SOL     OW21004   4.368   2.155   4.718  0.0564  0.3524 -0.1117
 3182SOL    HW121005   4.390   2.209   4.642 -0.3516  0.0446 -0.4466
 3182SOL    HW221006   4.295   2.210   4.746 -1.0295 -1.3511  0.4194
 3183SOL     OW21007   0.199   3.694   5.088  0.0556 -0.2879 -0.4058
 3183SOL    HW121008   0.149   3.616   5.113 -0.2245 -1.1267 -3.5084
 3183SOL    HW221009   0.275   3.661   5.040  1.8853  0.3982  2.0153
 3184SOL     OW21010   3.794   2.916   2.348  0.1981 -0.0515 -0.0413
 3184SOL    HW121011   3.712   2.874   2.322 -0.3087  1.8822 -1.5118
 3184SOL    HW221012   3.788   3.001   2.305 -1.1084  0.6327  1.5144
 3185SOL     OW21013   4.211   3.016  11.737  0.0766 -0.5036  0.3472
 3185SOL    HW121014   4.153   3.040  11.665 -0.7827  1.6803  1.7579
 3185SOL    HW221015   4.157   3.060  11.802 -1.4936  1.9865 -2.6523
 3186SOL     OW21016   3.797   1.348   6.906 -0.7422  0.0248 -0.3796
 3186SOL    HW121017   3.809   1.262   6.946 -0.4265  0.1246 -0.2570
 3186SOL    HW221018   3.702   1.358   6.904 -0.8560 -0.8992  1.0470
 3187SOL     OW21019   4.575   0.837   7.197  0.1904 -0.4220 -0.6006
 3187SOL    HW121020   4.558   0.845   7.291  1.5081 -0.7480 -0.3385
 3187SOL    HW221021   4.491   0.814   7.157 -0.5952 -1.0230  1.3916
 3188SOL     OW21022   2.369   3.762  14.769  0.1045  0.0833  0.0394
 3188SOL    HW121023   2.360   3.677  14.812  1.0774 -0.5675 -1.0568
 3188SOL    HW221024   2.302   3.817  14.810  1.2863  1.8811 -0.4702
 3189SOL     OW21025   4.242   0.726   6.378  0.4792 -0.7850 -0.2532
 3189SOL    HW121026   4.206   0.798   6.431 -1.1147 -2.1193  0.4804
 3189SOL    HW221027   4.213   0.753   6.291 -1.0717  0.4308  0.6337
 3190SOL     OW21028   4.223   1.607   4.294 -0.5028 -0.3480  0.0967
 3190SOL    HW121029   4.144   1.612   4.239 -0.4900  1.5687  0.2681
 3190SOL    HW221030   4.283   1.654   4.237  0.2949 -2.5236 -0.8445
 3191SOL     OW21031   4.034   0.264   2.113  0.1030 -0.2281  0.4589
 3191SOL    HW121032   4.070   0.318   2.043 -0.5490 -1.2686 -0.6801
 3191SOL    HW221033   4.027   0.171   2.089  3.2597 -0.4394  0.3105
 3192SOL     OW21034   2.921   2.444   7.478  0.9531 -0.5246  0.2224
 3192SOL    HW121035   2.831   2.413   7.467  1.5917 -2.4770  0.6582
 3192SOL    HW221036   2.969   2.365   7.456  1.6539  0.4287 -1.6346
 3193SOL     OW21037   4.580   3.350   1.562 -0.7550 -0.2845  0.1933
 3193SOL    HW121038   4.561   3.381   1.474  1.8362  1.3364  0.2061
 3193SOL    HW221039   4.503   3.374   1.614  0.1190  0.3405  1.2132
 3194SOL     OW21040   2.268   0.890   3.495  0.7089 -0.1774 -0.0093
 3194SOL    HW121041   2.285   0.976   3.458 -0.3916 -0.4582 -1.1766
 3194SOL    HW221042   2.196   0.872   3.434  0.5204  0.4391  0.0388
 3195SOL     OW21043   0.750   2.347   4.380 -0.6395 -0.0245 -0.3705
 3195SOL    HW121044   0.728   2.294   4.457  3.9116 -1.5560 -0.0754
 3195SOL    HW221045   0.694   2.422   4.398  0.5659  0.6137  0.7756
 3196SOL     OW21046   1.248   4.171   2.109 -0.2497 -0.0037 -0.0655
 3196SOL    HW121047   1.189   4.241   2.136  0.3620 -0.4513  2.3683
 3196SOL    HW221048   1.217   4.149   2.021  0.2804 -0.1412 -0.2152
 3197SOL     OW21049   3.488   3.768  10.947 -0.1786 -0.0406  0.5889
 3197SOL    HW121050   3.516   3.764  11.038  1.7054 -0.4815  0.0003
 3197SOL    HW221051   3.442   3.684  10.938  2.5474 -1.6791  1.8700
 3198SOL     OW21052   3.479   3.292   4.686  0.9272  0.0074 -0.0374
 3198SOL    HW121053   3.448   3.201   4.682  1.1664 -0.1332  1.3353
 3198SOL    HW221054   3.396   3.328   4.719  1.0278 -0.3521  0.6108
 3199SOL     OW21055   2.142   3.144   2.578  0.3942  0.1959 -0.5527
 3199SOL    HW121056   2.090   3.181   2.649  0.9453  0.1238 -0.1039
 3199SOL    HW221057   2.209   3.211   2.565 -1.6648  2.7403  2.2686
 3200SOL     OW21058   1.284   1.544   8.230 -0.0656 -0.2166  0.0100
 3200SOL    HW121059   1.214   1.579   8.174 -0.6250 -2.3663 -0.6424
 3200SOL    HW221060   1.290   1.453   8.201 -0.5737 -0.2443 -0.0178
 3201SOL     OW21061   0.092   0.971   8.097 -0.0050  0.2972 -0.0161
 3201SOL    HW121062   0.095   0.908   8.168  1.4593 -0.7838 -1.0389
 3201SOL    HW221063   0.135   0.929   8.023  0.7897  1.3119 -0.1322
 3202SOL     OW21064   1.106   1.387   0.238 -1.0715  0.5091  0.2370
 3202SOL    HW121065   1.135   1.309   0.285 -0.3879  1.5681  1.6124
 3202SOL    HW221066   1.015   1.376   0.266 -0.6440  0.0107  1.4449
 3203SOL     OW21067   3.919   4.178   2.662  0.5224 -0.1320  0.3692
 3203SOL    HW121068   3.843   4.121   2.673  0.8492 -0.5710  0.3652
 3203SOL    HW221069   3.904   4.249   2.724  1.0039 -0.4936  0.8907
 3204SOL     OW21070   1.033   0.862   5.757  0.2053 -0.0138  0.1518
 3204SOL    HW121071   0.995   0.778   5.782 -2.4188  0.8999 -0.6869
 3204SOL    HW221072   0.994   0.918   5.824 -0.1160  0.2089 -0.2154
 3205SOL     OW21073   0.161   3.423   9.941  0.2990 -0.5965 -0.2369
 3205SOL    HW121074   0.201   3.341   9.912  0.2424 -0.6491 -0.1679
 3205SOL    HW221075   0.080   3.385   9.974 -2.2222  2.1601 -3.3355
 3206SOL     OW21076   0.850   3.743   2.707  0.1108 -0.0824 -0.0260
 3206SOL    HW121077   0.881   3.832   2.727  0.1027 -0.0564 -0.1292
 3206SOL    HW221078   0.866   3.708   2.795  1.7969  1.9359  0.4734
 3207SOL     OW21079   1.474   1.805  16.781  0.6937 -0.2004 -1.0694
 3207SOL    HW121080   1.558   1.782  16.741  1.4228  0.1757  0.2358
 3207SOL    HW221081   1.455   1.725  16.831  1.0616 -0.0361 -0.6716
 3208SOL     OW21082   1.595   1.885   6.935  0.3742  0.7278 -0.5394
 3208SOL    HW121083   1.542   1.928   7.002  0.1601 -0.7995  0.2720
 3208SOL    HW221084   1.651   1.823   6.982  1.7363  0.6310 -2.2965
 3209SOL     OW21085   0.727   3.833   3.762 -0.0706  0.0111  0.4430
 3209SOL    HW121086   0.796   3.823   3.696  2.2898  1.1093  2.7395
 3209SOL    HW221087   0.728   3.928   3.777  3.3064 -0.3846  2.9113
 3210SOL     OW21088   1.145   4.345  15.860  0.2221 -0.1073  0.0634
 3210SOL    HW121089   1.132   4.434  15.894 -0.6142  0.0033 -0.5526
 3210SOL    HW221090   1.205   4.311  15.927  1.4736  2.1407  0.0754
 3211SOL     OW21091   0.482   1.012   7.732  0.8972  0.2124  0.1059
 3211SOL    HW121092   0.534   1.004   7.651 -1.0905 -0.8638 -1.0523
 3211SOL    HW221093   0.445   1.098   7.711 -0.6309 -0.5082 -0.0821
 3212SOL     OW21094   0.830   4.122   9.411 -0.4090 -0.2045  0.1900
 3212SOL    HW121095   0.774   4.075   9.472  0.7741  0.2341  1.6101
 3212SOL    HW221096   0.879   4.174   9.475  0.4490  0.8897 -1.3251
 3213SOL     OW21097   0.260   4.428   7.319  0.4141 -0.8716 -0.2038
 3213SOL    HW121098   0.291   4.516   7.337  2.1856 -1.6119  0.3756
 3213SOL    HW221099   0.164   4.429   7.320  0.4464  1.5256  0.2443
 3214SOL     OW21100   4.414   3.227   5.090  0.1183  0.3265 -0.8714
 3214SOL    HW121101   4.370   3.145   5.070  2.2363 -1.4697  1.8102
 3214SOL    HW221102   4.416   3.277   5.008  1.8474 -0.0276 -1.0436
 3215SOL     OW21103   3.186   2.021  16.326  0.4442  0.1722  0.5477
 3215SOL    HW121104   3.132   2.020  16.405 -1.6304  0.9954 -0.8344
 3215SOL    HW221105   3.213   2.112  16.326 -2.1321  0.9517  0.6223
 3216SOL     OW21106   0.998   0.042   3.355  0.3566  0.4947 -0.0232
 3216SOL    HW121107   1.018   0.088   3.436 -1.7865  1.7342 -0.2055
 3216SOL    HW221108   0.960   0.112   3.303 -1.4289 -0.9543 -0.6812
 3217SOL     OW21109   3.113   2.732   5.497  0.2093  0.9708 -0.2404
 3217SOL    HW121110   3.117   2.822   5.467 -1.9506  1.2473  0.2744
 3217SOL    HW221111   3.021   2.710   5.487  0.5208  0.3629 -1.6593
 3218SOL     OW21112   3.119   2.709  16.207  0.0392  0.1404  0.0418
 3218SOL    HW121113   3.077   2.683  16.125 -2.2861  1.8163  0.7200
 3218SOL    HW221114   3.072   2.788  16.231  1.2908  0.3264  1.8474
 3219SOL     OW21115   3.522   4.007  12.327 -0.1740  0.3455 -0.2194
 3219SOL    HW121116   3.478   3.960  12.398  0.6269  2.1047  1.4584
 3219SOL    HW221117   3.598   4.038  12.377  0.0563 -0.7983  0.1429
 3220SOL     OW21118   4.362   2.939   5.591  0.1966  0.1923 -0.0624
 3220SOL    HW121119   4.279   2.916   5.549  2.1056 -2.7087 -2.2402
 3220SOL    HW221120   4.344   2.963   5.682 -1.2298 -0.5948 -0.1440
 3221SOL     OW21121   1.255   2.558  11.024  0.6016 -0.0172  0.0456
 3221SOL    HW121122   1.250   2.637  11.078 -0.8576 -0.0724 -0.0072
 3221SOL    HW221123   1.217   2.485  11.073  1.8092 -0.9169 -0.3317
 3222SOL     OW21124   2.743   2.477   5.669 -0.0429 -0.4456  0.3685
 3222SOL    HW121125   2.679   2.406   5.669  0.8434 -1.2593 -1.5915
 3222SOL    HW221126   2.779   2.462   5.756  0.6205 -0.1061  0.1570
 3223SOL     OW21127   3.714   2.450   5.008  0.3967  0.2869 -0.7215
 3223SOL    HW121128   3.624   2.422   4.992 -1.0037  3.1727  2.1024
 3223SOL    HW221129   3.761   2.403   4.939 -1.0484 -1.3917 -0.5733
 3224SOL     OW21130   3.840   4.509  12.188  0.1360  0.1861  0.1979
 3224SOL    HW121131   3.831   4.445  12.118 -0.9083  0.2931  0.2296
 3224SOL    HW221132   3.920   4.484  12.235 -0.1360 -0.3422  0.3788
 3225SOL     OW21133   3.677   2.831  11.126  0.4030  0.3103 -0.3051
 3225SOL    HW121134   3.666   2.911  11.178 -0.6075 -0.2997  0.4183
 3225SOL    HW221135   3.595   2.841  11.077 -0.0310 -0.5540  0.2565
 3226SOL     OW21136   0.782   0.986   4.323  0.3655 -0.0166 -0.4406
 3226SOL    HW121137   0.823   1.068   4.295  1.4196  0.7204  3.2869
 3226SOL    HW221138   0.827   0.966   4.405  0.1649 -2.6589 -0.9883
 3227SOL     OW21139   3.633   2.521   9.695 -0.1118 -0.3216 -0.1708
 3227SOL    HW121140   3.560   2.473   9.733  0.8010 -0.3758  1.5194
 3227SOL    HW221141   3.622   2.507   9.601 -1.5883  0.6955 -0.1496
 3228SOL     OW21142   1.674   2.276   8.697 -0.2418  0.3106 -0.0869
 3228SOL    HW121143   1.600   2.301   8.642  1.2259  2.6837 -1.0046
 3228SOL    HW221144   1.691   2.185   8.672  1.3108  0.8720 -1.0972
 3229SOL     OW21145   1.571   1.054   1.113  0.6153 -0.3147 -0.2368
 3229SOL    HW121146   1.551   1.148   1.107 -0.6198 -0.6676 -1.2522
 3229SOL    HW221147   1.541   1.043   1.204 -1.0265  0.3561 -0.7011
 3230SOL     OW21148   3.503   3.342   6.901  0.2784 -0.2541 -0.4374
 3230SOL    HW121149   3.544   3.298   6.975 -0.7781  1.0528  0.9147
 3230SOL    HW221150   3.470   3.258   6.869  1.5832  0.1493 -2.8683
 3231SOL     OW21151   2.735   0.601   9.551  0.3053  0.2262  0.1050
 3231SOL    HW121152   2.688   0.581   9.632 -1.9868  2.3766 -0.6667
 3231SOL    HW221153   2.751   0.517   9.508  0.1944  0.3156 -0.1156
 3232SOL     OW21154   1.838   4.503   6.586 -0.1919  0.1888 -0.0480
 3232SOL    HW121155   1.837   4.509   6.681 -1.9090  2.3396 -0.2093
 3232SOL    HW221156   1.913   4.558   6.563  0.2689 -0.9417 -1.2475
 3233SOL     OW21157   3.373   0.974   4.445 -0.6000  0.1907  0.0428
 3233SOL    HW121158   3.367   0.970   4.540  2.3565 -0.8739  0.1945
 3233SOL    HW221159   3.422   0.892   4.443 -0.1173  0.4950 -0.6193
 3234SOL     OW21160   2.561   3.097   5.640 -0.8815 -0.2757  0.2278
 3234SOL    HW121161   2.555   3.190   5.621  0.2708 -0.5505 -1.4868
 3234SOL    HW221162   2.524   3.062   5.559 -1.3803  0.4754  0.1386
 3235SOL     OW21163   1.507   4.191  14.106 -0.5260  0.8327  0.0590
 3235SOL    HW121164   1.517   4.200  14.201  2.1342  0.4222 -0.1834
 3235SOL    HW221165   1.522   4.098  14.093 -0.1891  0.9290 -0.2514
 3236SOL     OW21166   4.648   2.813   8.995  0.1284 -0.2692  0.5268
 3236SOL    HW121167   4.626   2.876   9.063  3.3377  0.9627  0.4051
 3236SOL    HW221168   4.563   2.789   8.957  1.5146 -1.6287 -1.6861
 3237SOL     OW21169   3.773   1.980  14.414  0.2027  0.1033  0.2072
 3237SOL    HW121170   3.839   2.046  14.432 -1.0643  2.1220 -2.5963
 3237SOL    HW221171   3.765   1.999  14.321 -0.7649  1.8467  0.6450
 3238SOL     OW21172   1.451   3.448   0.624 -0.3544 -0.1190  0.0514
 3238SOL    HW121173   1.514   3.451   0.552  1.1830  0.9027  1.4331
 3238SOL    HW221174   1.376   3.494   0.588  1.1230  0.4134 -2.3604
 3239SOL     OW21175   0.850   2.003   3.013  0.8889 -0.0553  0.0020
 3239SOL    HW121176   0.804   1.952   3.081  2.1272 -0.4029  0.5818
 3239SOL    HW221177   0.899   1.932   2.971 -0.7624 -1.9549  1.2425
 3240SOL     OW21178   1.761   1.287   8.170 -0.4349  0.3226  0.3407
 3240SOL    HW121179   1.750   1.193   8.188 -0.5281  0.1821 -0.4486
 3240SOL    HW221180   1.675   1.322   8.192 -0.3885 -0.3757  1.6346
 3241SOL     OW21181   4.690   1.736   1.042 -0.7334 -0.0238  0.2250
 3241SOL    HW121182   4.600   1.741   1.010 -0.3602  0.3323 -0.7688
 3241SOL    HW221183   4.700   1.641   1.051 -0.0778 -0.2838 -3.0501
 3242SOL     OW21184   2.969   1.499   4.149  0.4354 -0.1748  0.3886
 3242SOL    HW121185   3.037   1.565   4.158  0.9657 -0.8307  1.1943
 3242SOL    HW221186   2.892   1.553   4.136  1.0879  0.7017  0.2097
 3243SOL     OW21187   0.036   2.573   4.941  0.7331  0.3131  0.2369
 3243SOL    HW121188   0.122   2.594   4.977  0.8260 -0.9147  0.7342
 3243SOL    HW221189   0.038   2.607   4.852 -0.1734 -3.6036 -1.3085
 3244SOL     OW21190   2.273   2.429   3.711 -0.0791  0.4154  0.1394
 3244SOL    HW121191   2.317   2.513   3.697  0.4983  0.1514  0.3610
 3244SOL    HW221192   2.209   2.456   3.777 -0.0702  2.3611 -0.6477
 3245SOL     OW21193   2.043   1.407   2.622 -0.4652  0.1973  0.0849
 3245SOL    HW121194   2.006   1.381   2.706  0.3712  1.3479  0.8146
 3245SOL    HW221195   1.978   1.465   2.581 -0.5259  0.5868  0.7367
 3246SOL     OW21196   0.312   1.326   2.092  0.0006  0.3521  0.6492
 3246SOL    HW121197   0.261   1.247   2.113  0.6891 -0.5180 -0.9525
 3246SOL    HW221198   0.356   1.341   2.176  1.1601 -0.2715  0.1514
 3247SOL     OW21199   2.269   2.688   4.902 -0.0632 -0.2637 -0.5479
 3247SOL    HW121200   2.219   2.697   4.983  1.9052 -0.1508  0.6446
 3247SOL    HW221201   2.272   2.778   4.871 -1.4752 -0.5951 -1.6532
 3248SOL     OW21202   4.417   4.634  14.721  0.7678  0.3607  0.0849
 3248SOL    HW121203   4.385   4.709  14.669 -0.5291  0.4096  0.9629
 3248SOL    HW221204   4.365   4.643  14.801  3.7469 -0.3337  2.0984
 3249SOL     OW21205   0.718   4.169   8.403  0.2605  0.1894  0.0777
 3249SOL    HW121206   0.729   4.254   8.445 -1.0648 -0.6860  2.2291
 3249SOL    HW221207   0.623   4.167   8.407  0.1964  1.2083 -1.0056
 3250SOL     OW21208   1.956   4.102   7.298 -0.0723  0.1055 -0.2975
 3250SOL    HW121209   1.887   4.065   7.243  0.1782 -0.7834 -0.0083
 3250SOL    HW221210   1.919   4.188   7.318 -1.1597 -1.0004  2.5906
 3251SOL     OW21211   3.502   1.801   3.755  0.3288 -0.5228 -0.7314
 3251SOL    HW121212   3.570   1.808   3.822  0.4155 -0.9693 -0.7768
 3251SOL    HW221213   3.502   1.893   3.728 -1.0582  0.4599  2.7210
 3252SOL     OW21214   0.149   4.700   8.514 -0.2054 -0.2395  0.6058
 3252SOL    HW121215   0.225   4.642   8.506  0.5320  1.0179 -1.7038
 3252SOL    HW221216   0.193   0.059   8.519  1.4394 -0.8373 -3.3076
 3253SOL     OW21217   1.124   1.271   8.581  0.4202  0.3885  0.0509
 3253SOL    HW121218   1.120   1.185   8.539  0.1428  1.0665 -1.2754
 3253SOL    HW221219   1.159   1.246   8.667  1.4131  1.5595 -0.0148
 3254SOL     OW21220   1.669   3.998   1.968 -0.4831  0.2668  0.2231
 3254SOL    HW121221   1.578   3.972   1.953  0.1545 -2.2832  0.6307
 3254SOL    HW221222   1.694   3.914   2.007 -0.5923  0.5839  0.9758
 3255SOL     OW21223   4.215   4.325  14.434  0.0581  0.7438  0.2694
 3255SOL    HW121224   4.155   4.256  14.406  0.0772  1.1482 -0.7888
 3255SOL    HW221225   4.239   4.307  14.525 -1.8957  0.0405  0.6473
 3256SOL     OW21226   1.953   2.937   2.516  0.7657 -0.1000  0.1008
 3256SOL    HW121227   2.032   2.989   2.528  0.1053  1.2248 -1.2497
 3256SOL    HW221228   1.906   2.994   2.455 -1.1934  1.5144  3.1345
 3257SOL     OW21229   0.127   0.461   0.351  0.6762 -0.5205  0.4958
 3257SOL    HW121230   0.051   0.455   0.292 -1.3979  0.0766  3.1339
 3257SOL    HW221231   0.195   0.473   0.284 -1.6399  2.0054 -1.4466
 3258SOL     OW21232   3.383   4.350  16.277  0.1433  0.1064  0.7195
 3258SOL    HW121233   3.433   4.408  16.219 -0.8384  0.0785 -0.1612
 3258SOL    HW221234   3.431   4.269  16.259  1.5316  0.7941  1.3255
 3259SOL     OW21235   3.050   4.375  15.268  0.4701  0.3226 -0.3890
 3259SOL    HW121236   3.054   4.343  15.178  1.9230  1.6022 -0.7791
 3259SOL    HW221237   3.049   4.289  15.309  3.5408 -0.1715 -1.3737
 3260SOL     OW21238   0.873   0.339   3.986  0.3675 -0.2622  0.2172
 3260SOL    HW121239   0.921   0.348   4.068 -1.7291  3.2802  1.0698
 3260SOL    HW221240   0.950   0.339   3.929  0.9379 -0.3935  0.9852
 3261SOL     OW21241   3.537   2.944   2.234 -0.8138 -0.2553  0.2205
 3261SOL    HW121242   3.478   2.871   2.216  1.0240 -1.5312 -0.6522
 3261SOL    HW221243   3.530   2.977   2.144 -1.7970 -0.1997  0.3221
 3262SOL     OW21244   4.377   4.553   0.790  0.5584 -0.2979 -0.9313
 3262SOL    HW121245   4.416   4.620   0.734 -0.5542 -0.5681 -2.0174
 3262SOL    HW221246   4.453   4.495   0.789 -1.0145 -2.3620  0.3746
 3263SOL     OW21247   4.535   0.957   2.187  0.0620  0.3593 -0.6606
 3263SOL    HW121248   4.531   1.021   2.258 -0.3693  0.4591 -0.7796
 3263SOL    HW221249   4.447   0.920   2.179  0.2422 -0.3761  0.6514
 3264SOL     OW21250   0.547   3.445   2.983  0.1662 -0.5519  0.0310
 3264SOL    HW121251   0.483   3.383   3.018  0.4886  0.0817  1.7547
 3264SOL    HW221252   0.605   3.449   3.059 -2.2444  2.1376  1.7504
 3265SOL     OW21253   0.647   4.011   7.000  0.2360 -0.5904  0.2964
 3265SOL    HW121254   0.701   3.938   7.028  0.0057 -0.7344  0.3657
 3265SOL    HW221255   0.559   3.975   7.010 -0.2684  0.3995 -0.5205
 3266SOL     OW21256   0.191   0.950  16.424  0.3637 -0.1489  0.0781
 3266SOL    HW121257   0.190   0.912  16.336  0.7760  2.7801 -1.1827
 3266SOL    HW221258   0.132   0.896  16.477  0.9841 -2.5215 -1.6527
 3267SOL     OW21259   3.702   2.811   7.861 -0.1958  0.0681  0.2601
 3267SOL    HW121260   3.743   2.836   7.944  4.6380 -0.3707 -1.9997
 3267SOL    HW221261   3.689   2.717   7.871 -0.4107 -0.1076 -1.6220
 3268SOL     OW21262   1.965   2.750   1.462  0.1070 -0.2020  0.1911
 3268SOL    HW121263   2.040   2.715   1.414  0.3356  1.4481 -0.6272
 3268SOL    HW221264   1.994   2.840   1.476 -1.5402  0.5025 -0.9787
 3269SOL     OW21265   4.192   1.936   3.657  0.7704 -0.1473 -0.3118
 3269SOL    HW121266   4.190   1.967   3.566  0.1797  0.6345 -0.0340
 3269SOL    HW221267   4.255   2.003   3.684 -0.4954 -0.1399  2.6222
 3270SOL     OW21268   0.487   2.512  15.229 -0.0384 -0.0499 -0.5191
 3270SOL    HW121269   0.398   2.535  15.255 -0.5672 -0.3477 -2.0501
 3270SOL    HW221270   0.477   2.458  15.150 -2.0766  0.8001 -0.8415
 3271SOL     OW21271   4.020   2.756   2.457  0.3578  0.1214 -0.1357
 3271SOL    HW121272   3.977   2.820   2.401  0.4925  0.7789  0.5227
 3271SOL    HW221273   4.068   2.703   2.393  1.4530 -1.3557  1.9043
 3272SOL     OW21274   3.541   0.645   9.480  0.3785  0.1752  0.0274
 3272SOL    HW121275   3.601   0.580   9.519 -0.2260 -0.5399 -0.2305
 3272SOL    HW221276   3.458   0.603   9.503  2.1916 -2.9223  1.0375
 3273SOL     OW21277   1.884   4.295   8.432 -0.1869 -0.4891  0.1370
 3273SOL    HW121278   1.791   4.315   8.423  0.1185  1.1124  0.3881
 3273SOL    HW221279   1.898   4.257   8.346  1.4868  0.2481  0.0848
 3274SOL     OW21280   2.295   3.697   8.808  0.0020 -0.5878  0.6248
 3274SOL    HW121281   2.253   3.640   8.872  2.5428 -1.1163  1.8046
 3274SOL    HW221282   2.370   3.638   8.798  1.2523  1.3110 -1.3710
 3275SOL     OW21283   1.395   2.512   0.284  0.0024  0.2788  0.0696
 3275SOL    HW121284   1.482   2.530   0.321 -0.2620  1.2564  0.2238
 3275SOL    HW221285   1.382   2.425   0.320 -2.5611  0.2119 -1.0332
 3276SOL     OW21286   0.087   1.260   1.114  0.9626  0.0816 -0.1181
 3276SOL    HW121287   0.100   1.205   1.037  2.6052 -1.0292  0.9462
 3276SOL    HW221288   0.041   1.194   1.167  0.9252 -0.9202 -1.4132
 3277SOL     OW21289   2.349   2.968   3.025 -0.7782 -0.0060 -0.0191
 3277SOL    HW121290   2.401   2.941   3.100  0.1994  0.9331 -0.3473
 3277SOL    HW221291   2.321   2.880   2.999 -0.0007 -0.0447 -0.7328
 3278SOL     OW21292   2.834   3.423   4.906  0.1976  0.5655  0.9245
 3278SOL    HW121293   2.836   3.392   4.815  0.9241 -1.6998  1.6951
 3278SOL    HW221294   2.926   3.450   4.907  0.3494  0.0431  1.1379
 3279SOL     OW21295   2.192   0.047   4.654 -0.3645 -0.1902  0.5194
 3279SOL    HW121296   2.264   0.106   4.632  0.8888 -0.7681  3.1777
 3279SOL    HW221297   2.192   4.725   4.570 -1.2664  0.1354  0.3275
 3280SOL     OW21298   2.847   0.055  10.094  0.1056  0.5423  0.1770
 3280SOL    HW121299   2.757   0.087  10.088  0.1979  0.2528 -3.0246
 3280SOL    HW221300   2.879   0.100  10.172 -2.1665  0.5646  1.1075
 3281SOL     OW21301   0.246   1.205  15.235 -0.4360 -0.0987 -0.2316
 3281SOL    HW121302   0.331   1.249  15.235 -1.0534  1.0942 -0.3515
 3281SOL    HW221303   0.243   1.184  15.328  0.6848  1.1102  0.0801
 3282SOL     OW21304   2.532   4.215  13.170 -1.0784 -0.2386  0.0795
 3282SOL    HW121305   2.487   4.216  13.254 -0.8842 -0.6733  0.1920
 3282SOL    HW221306   2.604   4.275  13.192 -0.6008 -1.2006  1.1623
 3283SOL     OW21307   2.342   3.401   7.255 -0.5165  0.0399 -0.6823
 3283SOL    HW121308   2.302   3.341   7.318  0.6877 -0.1869 -0.1143
 3283SOL    HW221309   2.414   3.429   7.312 -2.5292  1.7915  1.0112
 3284SOL     OW21310   4.247   1.502   5.863 -0.1095 -0.3420  0.1627
 3284SOL    HW121311   4.281   1.590   5.847  3.4212 -1.7018  0.2309
 3284SOL    HW221312   4.171   1.502   5.805 -0.1336  0.8941  0.1861
 3285SOL     OW21313   4.046   0.050   6.767  0.4181 -0.3732 -0.6600
 3285SOL    HW121314   4.046   0.049   6.671 -2.3793  0.8950 -0.6959
 3285SOL    HW221315   4.093   0.132   6.778 -2.4989  1.1898  0.2857
 3286SOL     OW21316   1.748   0.661  16.763  0.6085  0.1480 -0.8676
 3286SOL    HW121317   1.702   0.709  16.832 -0.2427 -0.2441 -1.1714
 3286SOL    HW221318   1.839   0.680  16.785 -0.0157  1.0164  0.9460
 3287SOL     OW21319   4.085   2.649   9.898  0.4755 -0.1201 -0.0089
 3287SOL    HW121320   4.063   2.704   9.974  0.5099 -1.1918  0.7761
 3287SOL    HW221321   4.003   2.639   9.849  0.6414  3.8775 -1.0574
 3288SOL     OW21322   4.588   4.186   2.950 -0.3348  0.6059 -0.2152
 3288SOL    HW121323   4.545   4.262   2.989  1.7178  1.5706  0.1434
 3288SOL    HW221324   4.532   4.112   2.973  0.9140  0.3924  2.1738
 3289SOL     OW21325   1.697   0.360   0.895  0.6429  0.4383  0.0579
 3289SOL    HW121326   1.665   0.413   0.968  2.7136 -1.5885  2.4436
 3289SOL    HW221327   1.679   0.412   0.817  2.5472  1.1926  0.1092
 3290SOL     OW21328   3.954   1.309   8.978  0.4128 -0.0587 -0.0523
 3290SOL    HW121329   3.982   1.225   8.941  0.5979  1.0712 -2.4519
 3290SOL    HW221330   4.034   1.360   8.969  0.5907 -0.1785  0.8313
 3291SOL     OW21331   2.113   2.187   4.878  0.5437  0.1606  0.1380
 3291SOL    HW121332   2.037   2.130   4.871  2.0402 -2.0015  1.5478
 3291SOL    HW221333   2.073   2.274   4.870 -0.6565 -0.2955  1.3013
 3292SOL     OW21334   0.175   0.159  14.721  0.1844 -0.1827 -0.2391
 3292SOL    HW121335   0.095   0.106  14.719  0.3386 -0.4059 -0.4420
 3292SOL    HW221336   0.235   0.086  14.706 -0.2896 -0.4951 -0.6273
 3293SOL     OW21337   4.430   3.644   2.765 -0.5223  0.0505  0.4448
 3293SOL    HW121338   4.426   3.623   2.859  2.8994 -0.5794  0.4675
 3293SOL    HW221339   4.403   3.735   2.769 -0.4026  0.0816  0.5811
 3294SOL     OW21340   1.451   0.189   1.079 -0.3248 -0.4487 -0.3928
 3294SOL    HW121341   1.465   0.137   1.158  0.2167  0.9716  0.4463
 3294SOL    HW221342   1.511   0.262   1.095 -0.4758  0.2059 -2.8148
 3295SOL     OW21343   3.421   0.872   5.291  0.2723 -0.4425 -0.2156
 3295SOL    HW121344   3.512   0.903   5.297 -0.3654  1.3985  0.0458
 3295SOL    HW221345   3.387   0.888   5.379 -1.1056 -3.8035 -0.1372
 3296SOL     OW21346   3.759   2.519  15.881  0.0679  1.1688  0.0638
 3296SOL    HW121347   3.775   2.426  15.895  2.9081  1.6181 -0.2431
 3296SOL    HW221348   3.835   2.549  15.931  2.5160 -1.1686 -2.2983
 3297SOL     OW21349   2.315   4.395  12.065 -0.1645  0.1665  0.7628
 3297SOL    HW121350   2.239   4.438  12.104 -0.6807 -0.2790  0.2363
 3297SOL    HW221351   2.275   4.383  11.979  1.3101  1.1851 -0.0720
 3298SOL     OW21352   2.440   1.821   6.700 -0.7290  0.3322  0.3457
 3298SOL    HW121353   2.523   1.827   6.749 -0.3517 -1.5929 -0.0439
 3298SOL    HW221354   2.470   1.823   6.609 -0.2648  2.3708  0.5545
 3299SOL     OW21355   0.436   0.205  16.949  0.0826  0.0589 -0.4258
 3299SOL    HW121356   0.467   0.175  16.863  0.3157 -1.4630  0.1984
 3299SOL    HW221357   0.363   0.262  16.925 -0.1114 -0.8359 -2.0160
 3300SOL     OW21358   3.281   1.967   3.940 -0.1132 -0.1589 -0.0270
 3300SOL    HW121359   3.251   1.890   3.890  1.1188 -0.2131 -0.6885
 3300SOL    HW221360   3.319   1.937   4.022 -2.6164 -1.1892  0.7758
 3301SOL     OW21361   3.795   0.964   4.554  0.1972  0.2315 -0.2689
 3301SOL    HW121362   3.757   0.907   4.487 -0.8101 -3.2007  3.2328
 3301SOL    HW221363   3.723   0.959   4.617 -1.8834  0.3314 -2.6301
 3302SOL     OW21364   1.599   1.363   1.857  0.3640 -0.4068 -0.1160
 3302SOL    HW121365   1.552   1.420   1.797  1.1828 -0.6457 -0.9739
 3302SOL    HW221366   1.542   1.368   1.935  0.9923  0.3861  0.2945
 3303SOL     OW21367   2.433   1.542   8.677  0.5087 -0.2897 -0.1101
 3303SOL    HW121368   2.516   1.585   8.656 -1.0956  1.2682 -3.3766
 3303SOL    HW221369   2.456   1.517   8.766 -0.3188 -0.1703  0.1264
 3304SOL     OW21370   2.530   3.738   2.904  0.5681  0.4956 -0.7660
 3304SOL    HW121371   2.516   3.786   2.822  0.4327  0.8235 -0.5506
 3304SOL    HW221372   2.444   3.696   2.913  0.6860  0.2003 -1.0298
 3305SOL     OW21373   3.418   1.777   8.777  0.0601  0.1380 -0.1526
 3305SOL    HW121374   3.478   1.725   8.831  0.7653  1.3348  0.2021
 3305SOL    HW221375   3.367   1.821   8.844 -0.1481 -0.4211  0.0538
 3306SOL     OW21376   1.724   0.312   6.963 -0.3933 -0.4216  0.2166
 3306SOL    HW121377   1.655   0.312   7.030 -1.5588 -1.6980 -0.9877
 3306SOL    HW221378   1.726   0.225   6.925  3.0803  0.2129 -0.9844
 3307SOL     OW21379   2.238   3.931   2.131 -0.0891 -0.0103  0.4794
 3307SOL    HW121380   2.180   3.873   2.082 -1.4127  1.2685  0.5548
 3307SOL    HW221381   2.176   4.002   2.146 -0.7119 -1.0348  2.6919
 3308SOL     OW21382   1.193   4.661   6.662 -0.1698  0.1294 -0.2221
 3308SOL    HW121383   1.211   0.016   6.711 -1.7640  0.7078 -0.5846
 3308SOL    HW221384   1.136   4.619   6.725  0.3221  1.2865  0.9922
 3309SOL     OW21385   4.051   4.357   6.117  0.6254 -0.3923 -0.1752
 3309SOL    HW121386   4.096   4.312   6.045  1.3713  1.9636 -1.1658
 3309SOL    HW221387   3.961   4.356   6.086  0.4431  0.5834  0.3228
 3310SOL     OW21388   0.768   4.104   3.508 -0.5835  0.4912  0.7975
 3310SOL    HW121389   0.777   4.186   3.459  1.8427 -0.4786 -0.3659
 3310SOL    HW221390   0.839   4.052   3.471 -1.1334  0.0640  0.3537
 3311SOL     OW21391   1.067   3.590   6.949 -0.0677 -0.2271 -0.4611
 3311SOL    HW121392   0.977   3.601   6.917 -0.2015  1.0594  0.3410
 3311SOL    HW221393   1.115   3.673   6.943  2.3366 -1.4666  1.3890
 3312SOL     OW21394   0.559   2.125   0.079  0.5722 -0.1926  0.5775
 3312SOL    HW121395   0.633   2.099   0.134 -1.1420 -1.8511  2.1295
 3312SOL    HW221396   0.553   2.035   0.047  1.1830 -0.1865  0.4392
 3313SOL     OW21397   0.223   4.381   5.636 -0.4542 -0.7211  0.0881
 3313SOL    HW121398   0.140   4.347   5.601 -1.0183  0.7549 -0.0262
 3313SOL    HW221399   0.229   4.461   5.583 -1.6821 -1.1436 -0.7052
 3314SOL     OW21400   4.676   0.026  11.624  0.0188  0.2273  0.7632
 3314SOL    HW121401   4.694   0.115  11.655  1.1114 -0.0036  0.7742
 3314SOL    HW221402   4.699   0.034  11.531  1.1998 -1.2385  0.9399
 3315SOL     OW21403   0.121   0.979  11.954  0.2045 -0.2525 -0.4615
 3315SOL    HW121404   0.172   0.928  11.891 -0.0714 -1.0162 -0.0686
 3315SOL    HW221405   0.158   0.953  12.038  1.0207  1.0668 -0.4108
 3316SOL     OW21406   2.964   3.886   1.488  0.3806  0.4253  0.2142
 3316SOL    HW121407   2.888   3.908   1.434  0.9305  0.7923 -0.4191
 3316SOL    HW221408   2.932   3.911   1.574 -2.4644  1.4955 -1.1297
 3317SOL     OW21409   3.691   3.783   4.380  0.3137 -0.2085 -0.2936
 3317SOL    HW121410   3.759   3.739   4.431 -1.0733  0.9363  2.5244
 3317SOL    HW221411   3.626   3.805   4.447 -0.7246 -1.1254 -1.0037
 3318SOL     OW21412   3.191   3.007  11.813  0.9023 -0.1172  0.4505
 3318SOL    HW121413   3.259   3.065  11.778  0.3828 -0.5269 -1.2403
 3318SOL    HW221414   3.201   3.022  11.907  0.9369  1.1523  0.2497
 3319SOL     OW21415   2.012   3.503  11.057 -0.0309 -0.1307  0.1042
 3319SOL    HW121416   2.041   3.591  11.081 -0.3402 -0.8532  3.1929
 3319SOL    HW221417   1.937   3.493  11.115 -0.9024  0.1518 -0.9821
 3320SOL     OW21418   3.009   3.417  10.514  0.0180  0.5481  0.5439
 3320SOL    HW121419   2.978   3.467  10.438  3.1765 -0.3111 -1.3333
 3320SOL    HW221420   3.058   3.487  10.557  0.0601 -0.0062  1.4029
 3321SOL     OW21421   4.414   0.479   5.394 -0.1278 -0.0018  0.1118
 3321SOL    HW121422   4.367   0.410   5.347  1.7618 -1.0359 -0.2443
 3321SOL    HW221423   4.383   0.556   5.347  2.8128  0.1146 -1.6274
 3322SOL     OW21424   2.848   0.466   4.970 -0.3399  0.2607  0.2864
 3322SOL    HW121425   2.763   0.456   5.012 -0.2573  3.6887  1.2666
 3322SOL    HW221426   2.827   0.499   4.883 -0.4742 -1.8772 -0.4929
 3323SOL     OW21427   1.548   0.036   5.688 -0.2184 -0.2937 -0.1125
 3323SOL    HW121428   1.635   4.721   5.693  0.2611  0.4858 -2.4531
 3323SOL    HW221429   1.504   4.711   5.756 -1.1405 -0.2066 -0.6564
 3324SOL     OW21430   2.725   0.266   7.224 -0.2733  0.2076  0.4039
 3324SOL    HW121431   2.790   0.224   7.166 -0.5846  1.6764 -0.9950
 3324SOL    HW221432   2.745   0.359   7.213 -2.3416  0.6360  0.2304
 3325SOL     OW21433   0.598   2.598  11.374 -0.2989  0.5735  0.0117
 3325SOL    HW121434   0.652   2.524  11.347 -0.3737  0.6202 -0.2704
 3325SOL    HW221435   0.525   2.579  11.314  0.4672 -0.4863 -0.5884
 3326SOL     OW21436   2.212   2.059   2.232 -0.3102 -0.6951 -0.3455
 3326SOL    HW121437   2.196   2.022   2.319  1.1249  0.6421  0.4926
 3326SOL    HW221438   2.173   2.146   2.233  0.9309 -0.1599  0.9642
 3327SOL     OW21439   3.962   0.252   3.006 -0.0454  0.4283  0.1416
 3327SOL    HW121440   3.955   0.218   3.095 -0.6129 -1.2117 -0.5273
 3327SOL    HW221441   3.886   0.213   2.962  0.8359  0.1988 -1.1604
 3328SOL     OW21442   0.455   1.175   6.784 -0.1620 -0.1794  0.0069
 3328SOL    HW121443   0.441   1.090   6.827 -1.6184  0.3578  0.5879
 3328SOL    HW221444   0.452   1.235   6.859 -1.6098 -0.3915  0.1268
 3329SOL     OW21445   1.467   3.690   8.322  0.1901  0.6355  0.1333
 3329SOL    HW121446   1.544   3.636   8.341 -0.6609 -0.3206  0.8192
 3329SOL    HW221447   1.464   3.729   8.410 -2.9388 -1.6981  1.0156
 3330SOL     OW21448   2.665   4.288   9.009  0.0820  0.1169  0.4324
 3330SOL    HW121449   2.659   4.197   9.039 -0.5009  0.4864  1.4254
 3330SOL    HW221450   2.687   4.279   8.916 -0.6284  1.3519  0.1522
 3331SOL     OW21451   0.337   1.944   0.921 -0.1268  0.2959 -0.3787
 3331SOL    HW121452   0.363   2.034   0.939 -0.3127  0.2397  0.1720
 3331SOL    HW221453   0.243   1.957   0.935 -0.7601 -3.8452 -0.7679
 3332SOL     OW21454   1.301   3.164   9.432 -0.4627  0.0025  0.0432
 3332SOL    HW121455   1.226   3.217   9.405 -0.4835  0.7511  1.6281
 3332SOL    HW221456   1.334   3.208   9.509  0.5386 -1.6197  0.5411
 3333SOL     OW21457   3.689   1.094   9.152  0.2570  0.1161 -0.0359
 3333SOL    HW121458   3.740   1.167   9.188 -1.2120 -1.2060  4.8052
 3333SOL    HW221459   3.665   1.039   9.227 -0.1207 -1.9006 -1.6654
 3334SOL     OW21460   3.586   0.258   6.685 -0.3079  0.5246 -0.1087
 3334SOL    HW121461   3.675   0.283   6.710  0.6566 -1.2461 -1.7429
 3334SOL    HW221462   3.585   0.259   6.589  0.9200 -0.2571 -0.1423
 3335SOL     OW21463   1.321   0.968   4.820  0.0110 -0.0307  0.3812
 3335SOL    HW121464   1.309   0.890   4.874 -0.3061  1.0202  1.8396
 3335SOL    HW221465   1.374   1.022   4.878 -0.8881  0.7793  0.4592
 3336SOL     OW21466   2.202   4.235   8.294 -0.3988  0.1059 -0.3643
 3336SOL    HW121467   2.210   4.330   8.301 -0.7583 -0.0153  1.7685
 3336SOL    HW221468   2.143   4.204   8.364 -1.8471 -0.2176 -1.7257
 3337SOL     OW21469   1.375   2.724  10.189 -0.2331 -0.0515 -0.3292
 3337SOL    HW121470   1.350   2.632  10.201  1.0782 -0.5439 -1.3483
 3337SOL    HW221471   1.313   2.740  10.118  0.3341 -3.2000 -1.5492
 3338SOL     OW21472   0.388   3.212   2.917 -0.3919 -0.2836  0.2257
 3338SOL    HW121473   0.473   3.184   2.881 -0.6132 -1.5636  0.7230
 3338SOL    HW221474   0.331   3.157   2.863  1.0862 -1.5211 -0.0981
 3339SOL     OW21475   1.191   2.932  12.334  0.2266  0.3708  0.2938
 3339SOL    HW121476   1.186   3.016  12.380 -0.7169  0.3081  0.3061
 3339SOL    HW221477   1.223   2.953  12.246 -3.1546 -1.3041 -1.3034
 3340SOL     OW21478   2.927   4.626  15.681 -0.0017  0.3126  0.1552
 3340SOL    HW121479   2.984   4.653  15.753 -1.9762  3.0603  0.6912
 3340SOL    HW221480   2.981   4.604  15.606  1.7046 -2.3378  2.1316
 3341SOL     OW21481   0.008   1.002   4.186  0.7635 -0.7074 -0.2924
 3341SOL    HW121482   4.682   0.980   4.263  1.0506  0.0021  0.1030
 3341SOL    HW221483   4.665   1.013   4.121  1.0953 -2.2161 -0.9104
 3342SOL     OW21484   2.590   0.420   7.840 -0.1006  0.0761  0.4297
 3342SOL    HW121485   2.577   0.510   7.869 -0.4710  0.0591  0.3180
 3342SOL    HW221486   2.512   0.388   7.886 -0.3616 -0.4813 -0.4033
 3343SOL     OW21487   2.937   4.550   8.241  0.6281  0.3941  1.1899
 3343SOL    HW121488   2.945   4.461   8.277 -0.2849  1.1145  3.1246
 3343SOL    HW221489   2.979   4.538   8.156 -1.4925 -0.8548  0.2942
 3344SOL     OW21490   3.143   0.626   8.415 -0.2353 -0.4266 -0.2096
 3344SOL    HW121491   3.142   0.532   8.431  1.5056 -0.1791  1.2776
 3344SOL    HW221492   3.084   0.626   8.340  0.1241  3.8190 -0.4936
 3345SOL     OW21493   3.423   1.742   4.651 -0.1607 -0.4959  0.5094
 3345SOL    HW121494   3.371   1.681   4.599  0.9496 -1.5427  0.6399
 3345SOL    HW221495   3.498   1.755   4.592  0.8757  0.3219  1.9969
 3346SOL     OW21496   4.058   2.038  13.971 -0.4855 -0.2023  0.1234
 3346SOL    HW121497   4.084   2.128  13.991 -0.6518 -0.1872  0.2720
 3346SOL    HW221498   4.135   2.009  13.923 -0.1184  0.1987  0.4736
 3347SOL     OW21499   1.702   1.533   8.599 -0.8786  0.5520  0.0539
 3347SOL    HW121500   1.722   1.537   8.505 -1.2986 -1.0453 -0.1023
 3347SOL    HW221501   1.722   1.623   8.622 -2.0798  1.7869 -3.6777
 3348SOL     OW21502   0.300   1.919   6.468  1.0374  0.6470  0.1005
 3348SOL    HW121503   0.269   1.972   6.541 -1.4311 -0.6620  0.0140
 3348SOL    HW221504   0.299   1.989   6.402  0.4038  1.2841  0.7865
 3349SOL     OW21505   2.265   0.615   5.634 -0.2841 -0.0210 -0.1801
 3349SOL    HW121506   2.265   0.666   5.715 -1.0207 -1.3629  0.6686
 3349SOL    HW221507   2.257   0.524   5.664 -1.4310 -0.5731 -2.1328
 3350SOL     OW21508   2.039   2.389   8.059  0.2934 -0.1545 -0.8343
 3350SOL    HW121509   2.069   2.455   7.995 -1.9891  2.4228  0.7566
 3350SOL    HW221510   2.127   2.360   8.083  0.3850  0.6831 -0.1451
 3351SOL     OW21511   3.423   0.185  15.128 -0.3032 -0.2496 -0.3011
 3351SOL    HW121512   3.344   0.228  15.096  1.5575  2.8283 -0.6723
 3351SOL    HW221513   3.423   0.225  15.215  2.6024 -1.8790  0.4515
 3352SOL     OW21514   3.799   2.499   1.026 -0.2425 -0.1857  0.0839
 3352SOL    HW121515   3.818   2.482   0.934  0.3203 -1.8782  0.5082
 3352SOL    HW221516   3.711   2.537   1.031 -0.4869 -0.6741 -0.5402
 3353SOL     OW21517   0.711   3.570   1.257 -0.5222  0.1796  0.0109
 3353SOL    HW121518   0.767   3.498   1.228  0.4316  0.6959  0.5709
 3353SOL    HW221519   0.757   3.621   1.323 -0.3169 -0.5733  0.4452
 3354SOL     OW21520   1.220   2.598   8.560 -0.4503 -0.1455  0.5161
 3354SOL    HW121521   1.231   2.565   8.471 -1.8584  1.3546 -0.2151
 3354SOL    HW221522   1.127   2.595   8.580 -0.5185 -0.3250  0.1790
 3355SOL     OW21523   1.837   3.608   9.552 -0.2207 -0.3085 -0.9894
 3355SOL    HW121524   1.809   3.652   9.472  0.3338 -0.0452 -1.0364
 3355SOL    HW221525   1.795   3.522   9.553  1.2754 -1.0256  0.7963
 3356SOL     OW21526   4.630   1.947  13.668 -0.0832 -0.5190 -0.1705
 3356SOL    HW121527   4.643   1.868  13.721 -1.2393  0.5340  1.6909
 3356SOL    HW221528   4.629   2.009  13.740 -0.0582 -1.2128  0.4284
 3357SOL     OW21529   4.061   2.797   7.468  0.0838  0.0164 -0.0670
 3357SOL    HW121530   4.053   2.725   7.406  1.5236  1.1842 -1.6013
 3357SOL    HW221531   4.002   2.769   7.537  1.7228 -0.0026  1.3298
 3358SOL     OW21532   2.184   0.549   9.106  0.0912  0.6688  0.0677
 3358SOL    HW121533   2.116   0.493   9.143 -0.3720  1.6630  0.7278
 3358SOL    HW221534   2.244   0.484   9.070 -0.4447 -0.5634  1.3997
 3359SOL     OW21535   1.219   2.351  15.385  0.3900 -0.0089 -0.2102
 3359SOL    HW121536   1.194   2.313  15.301 -0.7779 -0.3817  0.3003
 3359SOL    HW221537   1.133   2.385  15.410  1.3639  1.0453  1.7107
 3360SOL     OW21538   4.555   2.728   3.827 -0.0549 -0.2442  0.4204
 3360SOL    HW121539   4.566   2.749   3.735 -0.3897  2.7368  1.0382
 3360SOL    HW221540   4.597   2.809   3.858 -0.2457  0.2326 -0.5839
 3361SOL     OW21541   3.656   0.024   0.233 -0.3719 -0.0972  0.2146
 3361SOL    HW121542   3.665   0.064   0.147  1.8042 -0.3472  0.3477
 3361SOL    HW221543   3.668   0.095   0.297  1.1602 -0.4189  0.2822
 3362SOL     OW21544   1.013   0.200   9.359  0.6150  0.2798  0.6391
 3362SOL    HW121545   1.033   0.182   9.267 -0.2824  2.7571 -0.0157
 3362SOL    HW221546   0.950   0.272   9.355  1.8870  1.3107 -0.5267
 3363SOL     OW21547   3.964   1.739   2.145  0.1041 -0.4463 -0.2555
 3363SOL    HW121548   3.989   1.831   2.138 -2.1818  0.0367 -2.2690
 3363SOL    HW221549   4.027   1.699   2.204 -1.1873  0.8604  1.9983
 3364SOL     OW21550   4.589   0.929   8.847 -1.0626 -0.2120  0.4454
 3364SOL    HW121551   4.613   0.987   8.774 -1.9706  1.5334  1.5511
 3364SOL    HW221552   4.623   0.846   8.812 -0.5519  0.7488 -1.3123
 3365SOL     OW21553   4.115   2.916   3.561  0.0099  0.5053 -0.1061
 3365SOL    HW121554   4.181   2.912   3.492  2.0706 -0.6355  1.9110
 3365SOL    HW221555   4.159   2.934   3.645  2.5656 -1.4932 -1.0283
 3366SOL     OW21556   3.326   4.027   8.751  0.5654  0.3503  0.1057
 3366SOL    HW121557   3.415   3.993   8.752  0.4955  0.1888  1.0870
 3366SOL    HW221558   3.271   3.953   8.726  2.4738 -1.5088  1.3634
 3367SOL     OW21559   2.077   2.788   5.329 -0.0104 -0.2447  0.1605
 3367SOL    HW121560   2.140   2.832   5.387 -1.5890 -0.0021  1.6818
 3367SOL    HW221561   2.078   2.703   5.372 -0.8677 -0.5678 -0.4595
 3368SOL     OW21562   4.629   0.500  15.295 -0.4277 -0.1780  0.3571
 3368SOL    HW121563   4.563   0.570  15.297 -0.8097 -0.4123 -4.0432
 3368SOL    HW221564   4.573   0.438  15.342 -2.9702  1.9831  0.2548
 3369SOL     OW21565   0.892   3.406   1.136 -0.4974  0.1963  0.0423
 3369SOL    HW121566   0.859   3.345   1.070 -2.9894  0.5043  1.0216
 3369SOL    HW221567   0.983   3.380   1.145 -0.5154 -0.4448 -1.4993
 3370SOL     OW21568   3.519   3.070   5.600  0.3299 -0.1891 -0.4391
 3370SOL    HW121569   3.469   3.122   5.537  1.6127  0.2835 -1.0592
 3370SOL    HW221570   3.449   3.066   5.665  1.6051  0.7993  0.9692
 3371SOL     OW21571   2.445   0.053   1.161  0.2587 -0.0412 -0.3532
 3371SOL    HW121572   2.369   0.109   1.174 -0.0124 -0.1357 -1.5533
 3371SOL    HW221573   2.482   0.088   1.081 -0.6552 -0.0759 -0.7906
 3372SOL     OW21574   2.667   3.289  10.206  0.2565  0.1663  0.2662
 3372SOL    HW121575   2.751   3.323  10.174  0.6586  0.8016  2.0041
 3372SOL    HW221576   2.603   3.325  10.145  0.0402 -1.5473 -0.5218
 3373SOL     OW21577   0.202   3.341   4.491 -0.4534  0.0424 -0.5627
 3373SOL    HW121578   0.191   3.276   4.421  1.6605 -0.9334 -0.0137
 3373SOL    HW221579   0.241   3.286   4.560 -0.9086  1.0673  0.4965
 3374SOL     OW21580   4.392   3.814   4.251 -0.0293 -0.6011  0.2344
 3374SOL    HW121581   4.315   3.869   4.235  0.5768  0.0001 -0.5560
 3374SOL    HW221582   4.365   3.739   4.305  2.1621 -1.8615 -0.4127
 3375SOL     OW21583   3.185   3.933   6.246 -0.2485 -0.0399 -0.5313
 3375SOL    HW121584   3.117   3.870   6.223  0.0411 -0.5809  0.0797
 3375SOL    HW221585   3.151   3.966   6.330  1.1283  1.4054 -0.5248
 3376SOL     OW21586   1.663   1.632   7.059  0.4010 -0.0451 -0.4317
 3376SOL    HW121587   1.733   1.671   7.112  0.5775  1.3381 -1.6961
 3376SOL    HW221588   1.676   1.538   7.073 -0.1113  0.1813  1.6860
 3377SOL     OW21589   3.234   4.526  16.475 -0.0746  0.2097 -0.4677
 3377SOL    HW121590   3.271   4.560  16.557 -2.7903 -1.4375  1.4483
 3377SOL    HW221591   3.310   4.540  16.419 -0.2190 -3.1078 -1.5413
 3378SOL     OW21592   2.541   1.598  17.119  0.1852 -0.4403  0.6817
 3378SOL    HW121593   2.578   1.515  17.150 -0.7277 -0.6150  1.3114
 3378SOL    HW221594   2.479   1.580  17.048  1.1297  0.3707 -0.3522
 3379SOL     OW21595   4.019   2.880   4.943 -0.2790  0.0865 -0.1951
 3379SOL    HW121596   3.950   2.815   4.954 -1.0559  1.0558  0.7344
 3379SOL    HW221597   4.091   2.820   4.961  0.0022  0.6899  0.7017
 3380SOL     OW21598   1.868   4.161  17.077  0.4463  0.1282 -0.0967
 3380SOL    HW121599   1.883   4.069  17.056 -0.4205 -0.3205  1.2224
 3380SOL    HW221600   1.829   4.176  16.990  0.6291 -2.6251 -0.6483
 3381SOL     OW21601   4.023   3.849   5.426 -0.7937  0.1855  0.7632
 3381SOL    HW121602   4.045   3.764   5.387 -0.3823  0.5704  0.1474
 3381SOL    HW221603   4.056   3.913   5.364 -2.0821  0.2303  0.1290
 3382SOL     OW21604   3.804   3.998   1.615  0.0083 -0.8464  0.4650
 3382SOL    HW121605   3.894   3.968   1.602  0.1769  0.1304 -0.6593
 3382SOL    HW221606   3.784   3.963   1.701  0.6351  1.3296  1.5062
 3383SOL     OW21607   1.426   3.647   9.553 -0.1219  0.4625 -0.7971
 3383SOL    HW121608   1.464   3.614   9.634 -1.1313  0.5959 -0.2743
 3383SOL    HW221609   1.335   3.666   9.573  0.7745  0.9280  2.8416
 3384SOL     OW21610   2.307   3.216  11.108 -0.0756  0.1581 -0.1063
 3384SOL    HW121611   2.242   3.284  11.123  2.3987  1.7707  3.2688
 3384SOL    HW221612   2.309   3.224  11.012  0.4739  1.2755 -0.0010
 3385SOL     OW21613   2.511   0.007   1.460  0.3585 -0.3202 -0.1088
 3385SOL    HW121614   2.530   0.035   1.371 -0.0977 -0.2648 -0.1897
 3385SOL    HW221615   2.468   0.088   1.489  0.8445 -0.9042  2.2836
 3386SOL     OW21616   2.639   3.837   1.218  0.7289 -0.0447 -0.3817
 3386SOL    HW121617   2.667   3.928   1.219  1.0206 -0.1362 -0.0117
 3386SOL    HW221618   2.724   3.794   1.223  1.2236  0.8943 -0.7042
 3387SOL     OW21619   4.463   1.457   2.660 -0.2649  0.1446 -0.5207
 3387SOL    HW121620   4.404   1.382   2.669  0.3515 -0.3216 -0.3734
 3387SOL    HW221621   4.406   1.528   2.631  1.6623  1.2840 -1.4834
 3388SOL     OW21622   3.546   2.603   0.979 -0.6009 -0.5802 -0.0979
 3388SOL    HW121623   3.570   2.693   1.004 -1.2256 -0.1977 -0.9014
 3388SOL    HW221624   3.479   2.609   0.911  0.2934 -0.9444 -1.0088
 3389SOL     OW21625   0.656   2.291   7.113 -0.0693  0.0170 -0.2621
 3389SOL    HW121626   0.605   2.245   7.046 -1.9638  0.9389  0.5271
 3389SOL    HW221627   0.585   2.337   7.159 -0.3668 -1.1978  0.5013
 3390SOL     OW21628   2.555   3.858   4.653 -0.1358  0.0558 -0.4158
 3390SOL    HW121629   2.462   3.866   4.671 -0.0956  0.9637 -0.6026
 3390SOL    HW221630   2.573   3.933   4.597 -0.9205 -0.9370 -1.9980
 3391SOL     OW21631   1.437   1.082   2.026 -0.4399  0.2584  0.3915
 3391SOL    HW121632   1.401   1.042   2.105 -1.2292 -0.3182 -0.2593
 3391SOL    HW221633   1.429   1.175   2.045  1.0885  0.2814  0.9090
 3392SOL     OW21634   0.644   4.444   3.102 -0.0447  0.1550 -0.4221
 3392SOL    HW121635   0.683   4.527   3.129 -0.8235  0.4328 -0.1528
 3392SOL    HW221636   0.708   4.426   3.033  0.8472  0.5604  0.3013
 3393SOL     OW21637   0.356   4.509   8.481 -0.5587  0.0780  0.2866
 3393SOL    HW121638   0.424   4.533   8.418 -0.8966  2.2558  0.7435
 3393SOL    HW221639   0.310   4.432   8.448 -3.4333  1.3525  1.3360
 3394SOL     OW21640   4.241   0.232   6.794 -0.4656  0.0517  0.6923
 3394SOL    HW121641   4.269   0.168   6.860 -0.0577 -0.2540  0.2164
 3394SOL    HW221642   4.295   0.194   6.725 -1.6145 -0.3184  0.0055
 3395SOL     OW21643   1.672   3.269   7.000 -0.4506 -0.0384 -0.5125
 3395SOL    HW121644   1.591   3.243   6.957  0.3892 -2.4391 -0.6600
 3395SOL    HW221645   1.708   3.296   6.915 -0.8714 -1.9895 -1.3162
 3396SOL     OW21646   4.348   3.155   9.907  0.7415  0.0758  0.6204
 3396SOL    HW121647   4.439   3.126   9.900  0.5711  0.1854 -1.9457
 3396SOL    HW221648   4.313   3.076   9.866 -1.1039  1.9162 -1.3239
 3397SOL     OW21649   0.758   4.316   4.262 -0.4582 -0.0078 -0.5362
 3397SOL    HW121650   0.664   4.324   4.278 -0.5212  1.0619 -1.4920
 3397SOL    HW221651   0.758   4.265   4.180  2.9150  1.2003 -1.2837
 3398SOL     OW21652   0.787   3.751   1.441  0.0007  0.2978 -0.4513
 3398SOL    HW121653   0.825   3.837   1.426 -0.8973  0.4597 -1.7564
 3398SOL    HW221654   0.868   3.704   1.462 -1.1390 -2.0406 -1.2788
 3399SOL     OW21655   1.966   3.772   2.319 -0.1117 -0.1041  0.1484
 3399SOL    HW121656   1.956   3.802   2.229  0.7178  0.1794  0.1458
 3399SOL    HW221657   1.973   3.846   2.380 -0.3959 -0.5613  0.7343
 3400SOL     OW21658   0.136   4.152   3.883 -0.0941 -0.4741 -0.5701
 3400SOL    HW121659   0.122   4.211   3.957 -0.9805 -0.6443 -0.6029
 3400SOL    HW221660   0.126   4.217   3.813 -3.4230 -1.6456 -1.1782
 3401SOL     OW21661   0.676   0.319   1.310 -0.1275  0.0977  0.3534
 3401SOL    HW121662   0.757   0.274   1.285  0.6632  2.2641 -1.0570
 3401SOL    HW221663   0.662   0.285   1.398 -0.6600  0.0106  0.2318
 3402SOL     OW21664   3.902   2.702   7.665 -0.1795  0.0048 -0.4204
 3402SOL    HW121665   3.829   2.640   7.661 -1.2358  1.2452 -0.4962
 3402SOL    HW221666   3.866   2.765   7.727  0.6241  0.0172  0.0285
 3403SOL     OW21667   3.368   3.161  13.859  0.2433  0.2861 -0.0969
 3403SOL    HW121668   3.443   3.126  13.812  1.0050 -0.8004  1.9288
 3403SOL    HW221669   3.339   3.237  13.808 -1.7501 -0.5993 -0.2746
 3404SOL     OW21670   3.560   3.095   4.197  0.1214 -0.2207  0.0882
 3404SOL    HW121671   3.525   3.035   4.131  0.8221  0.2913 -0.7431
 3404SOL    HW221672   3.486   3.104   4.258 -0.7274 -0.7993 -0.8583
 3405SOL     OW21673   0.454   0.730   7.161  0.3535  0.3935  0.2302
 3405SOL    HW121674   0.549   0.730   7.154  0.2125  0.4858 -1.5648
 3405SOL    HW221675   0.444   0.635   7.159 -1.1477  0.5842 -0.8062
 3406SOL     OW21676   2.968   2.355  13.555 -0.1132 -0.3786 -0.3254
 3406SOL    HW121677   2.973   2.410  13.477 -1.6121  0.4011  0.1365
 3406SOL    HW221678   2.909   2.408  13.609  0.1299  0.2783 -0.7058
 3407SOL     OW21679   2.505   0.041  14.412 -0.7304 -0.1882 -0.1368
 3407SOL    HW121680   2.575   0.101  14.437 -0.6273  0.3244 -1.6413
 3407SOL    HW221681   2.451   0.029  14.490 -2.6116 -2.3227 -1.7726
 3408SOL     OW21682   2.375   2.616  11.233 -0.1252 -0.5305  0.2852
 3408SOL    HW121683   2.385   2.552  11.304 -1.3112 -1.9295 -0.8384
 3408SOL    HW221684   2.448   2.582  11.181  1.4033 -0.9789  2.7223
 3409SOL     OW21685   4.654   3.504  17.599 -0.0928  0.5745 -0.2452
 3409SOL    HW121686   4.725   3.568  17.615  0.7075 -0.4841  0.4319
 3409SOL    HW221687   4.676   3.432  17.658  1.8510  0.5166 -1.0469
 3410SOL     OW21688   1.462   2.377   8.294  0.3459  0.6387  0.3776
 3410SOL    HW121689   1.510   2.456   8.270  1.4647 -0.2680 -0.3514
 3410SOL    HW221690   1.373   2.409   8.306 -0.2573 -1.3118  1.1540
 3411SOL     OW21691   4.206   1.332   4.283  0.3188 -0.3328  0.3271
 3411SOL    HW121692   4.301   1.321   4.286  0.5443  1.2713 -0.6475
 3411SOL    HW221693   4.187   1.420   4.317  0.5200 -1.1637  2.5755
 3412SOL     OW21694   3.320   0.366   6.736 -0.0142 -0.0631  0.3335
 3412SOL    HW121695   3.411   0.344   6.719  0.4606  1.6260  0.6211
 3412SOL    HW221696   3.318   0.386   6.830  2.4063 -0.3830  0.4292
 3413SOL     OW21697   0.483   1.133   5.266  0.2633  0.2834 -0.1429
 3413SOL    HW121698   0.559   1.079   5.244 -2.3135 -2.5552 -1.9692
 3413SOL    HW221699   0.410   1.073   5.250  0.7563 -0.1278 -0.8310
 3414SOL     OW21700   3.754   2.592   9.175  0.3425  0.0755 -0.0470
 3414SOL    HW121701   3.744   2.660   9.241  0.1086  0.8357 -0.8659
 3414SOL    HW221702   3.786   2.644   9.101 -1.3579  0.7509 -0.3198
 3415SOL     OW21703   2.928   0.284   3.278  0.4832  0.1467  0.3245
 3415SOL    HW121704   2.861   0.341   3.240 -0.2264  0.3208  1.8312
 3415SOL    HW221705   2.968   0.358   3.323  2.0474 -0.0779 -0.6822
 3416SOL     OW21706   0.979   2.289   7.418 -0.4472 -0.1994 -0.2206
 3416SOL    HW121707   0.946   2.209   7.460  1.7211 -1.8891 -1.7292
 3416SOL    HW221708   0.965   2.268   7.326 -1.1054  0.1443 -0.1981
 3417SOL     OW21709   0.162   2.017   6.693  0.5349 -0.5702  0.3201
 3417SOL    HW121710   0.172   2.104   6.731  3.7776 -0.4935 -0.7251
 3417SOL    HW221711   0.217   1.966   6.752  0.7752 -0.3306  0.3033
 3418SOL     OW21712   2.699   3.203   5.914 -0.5673 -0.0516  0.3364
 3418SOL    HW121713   2.720   3.246   5.831 -0.3692 -1.5047 -0.3871
 3418SOL    HW221714   2.742   3.120   5.890 -1.5388 -0.6404  0.6137
 3419SOL     OW21715   0.418   1.660   2.144 -0.3993  0.2254 -0.3125
 3419SOL    HW121716   0.396   1.601   2.216  1.1473 -0.9041 -0.7541
 3419SOL    HW221717   0.338   1.712   2.148 -0.2562  0.4525 -0.3725
 3420SOL     OW21718   0.563   1.113   8.289  0.0843  0.2645 -0.3777
 3420SOL    HW121719   0.623   1.127   8.216 -0.4123  1.2426 -0.6110
 3420SOL    HW221720   0.584   1.193   8.337  0.0542 -0.2594  0.5071
 3421SOL     OW21721   3.328   1.733  10.647 -0.4706 -0.3491  0.5482
 3421SOL    HW121722   3.302   1.823  10.630 -0.6635  0.0701  3.1074
 3421SOL    HW221723   3.261   1.708  10.710  0.2296 -0.8530  1.0842
 3422SOL     OW21724   1.053   4.667   3.824  0.5694  0.5927 -0.2764
 3422SOL    HW121725   0.965   4.667   3.862  1.2498  0.6308  1.3095
 3422SOL    HW221726   1.073   0.033   3.808  0.4147  0.6790  0.0238
 3423SOL     OW21727   1.144   0.430   6.246 -0.5880  0.1016  0.5557
 3423SOL    HW121728   1.058   0.462   6.220 -0.3076 -0.6020 -1.2675
 3423SOL    HW221729   1.179   0.383   6.170  2.7931  1.2946  1.3861
 3424SOL     OW21730   2.570   2.556   7.116  0.5713  0.1652 -0.4914
 3424SOL    HW121731   2.492   2.597   7.152 -0.4227 -1.8350 -0.3684
 3424SOL    HW221732   2.628   2.632   7.127  0.0316  0.3489  1.0929
 3425SOL     OW21733   1.953   3.698   4.540 -0.3561  0.4414 -0.1424
 3425SOL    HW121734   2.002   3.659   4.612 -0.6130 -0.6808 -0.5803
 3425SOL    HW221735   1.895   3.751   4.595  1.9544  1.6368  1.1214
 3426SOL     OW21736   3.495   2.913   7.708 -0.2208  0.3535 -0.0193
 3426SOL    HW121737   3.456   2.863   7.637  0.2792 -0.8499  0.5534
 3426SOL    HW221738   3.564   2.854   7.740 -0.5757 -0.2898 -0.4500
 3427SOL     OW21739   1.840   3.496   7.875  0.0544 -0.5565 -0.3589
 3427SOL    HW121740   1.852   3.567   7.812  0.3224  1.9622  2.4873
 3427SOL    HW221741   1.752   3.473   7.844 -1.8847  2.9620  2.4672
 3428SOL     OW21742   0.266   0.316   3.723  0.2211 -0.4705  0.0283
 3428SOL    HW121743   0.252   0.222   3.717  0.2562 -0.4630 -0.1915
 3428SOL    HW221744   0.196   0.341   3.663  0.2733  0.8058  0.4948
 3429SOL     OW21745   3.138   3.104   8.698 -0.3273  0.2349 -0.2632
 3429SOL    HW121746   3.187   3.022   8.707  0.8378  0.9138 -0.4300
 3429SOL    HW221747   3.217   3.156   8.685 -0.6081  0.6968 -0.1253
 3430SOL     OW21748   1.029   3.789   5.660  0.3589  0.2003 -0.4064
 3430SOL    HW121749   1.074   3.873   5.658 -0.6655  0.7644  0.4304
 3430SOL    HW221750   0.985   3.782   5.575 -2.8953 -0.8716  1.3635
 3431SOL     OW21751   3.549   1.737   7.921 -0.4817  0.1131 -0.3200
 3431SOL    HW121752   3.533   1.674   7.991  0.1210 -0.5363 -0.7702
 3431SOL    HW221753   3.639   1.761   7.943 -0.3297 -0.5935 -0.1842
 3432SOL     OW21754   3.543   3.773  11.213 -0.2317 -0.0901  0.6168
 3432SOL    HW121755   3.569   3.818  11.294  2.7614 -0.5245 -0.0935
 3432SOL    HW221756   3.454   3.748  11.238 -0.9986  0.3818 -1.6714
 3433SOL     OW21757   3.911   2.991   7.236 -0.0350  0.2469 -0.3070
 3433SOL    HW121758   3.865   2.908   7.223 -1.4001  0.8279  0.7542
 3433SOL    HW221759   3.907   2.987   7.331  1.2193 -0.6847 -0.3032
 3434SOL     OW21760   2.186   1.244   4.423 -0.2412  0.1934  0.4157
 3434SOL    HW121761   2.185   1.267   4.330 -1.4501  0.8074  0.5795
 3434SOL    HW221762   2.192   1.149   4.420  0.4125  0.1775  2.4886
 3435SOL     OW21763   2.731   3.670   8.757  0.0337  0.4044  0.4195
 3435SOL    HW121764   2.813   3.623   8.741 -0.1077 -0.2644  1.6180
 3435SOL    HW221765   2.755   3.759   8.730 -1.5669  0.4826 -0.7275
 3436SOL     OW21766   4.132   2.767   6.346  0.6598 -0.2161  0.6293
 3436SOL    HW121767   4.215   2.738   6.384  0.5442 -0.4337  0.7140
 3436SOL    HW221768   4.075   2.769   6.423 -0.0718 -0.2693  0.0878
 3437SOL     OW21769   4.410   0.065   4.640  0.1653 -0.5085  0.1161
 3437SOL    HW121770   4.427   0.058   4.734  0.6562  2.3847  0.2331
 3437SOL    HW221771   4.324   0.107   4.636 -0.0309 -0.7418  1.6536
 3438SOL     OW21772   0.360   1.041  17.298  0.3619 -0.1486  0.0252
 3438SOL    HW121773   0.351   0.961  17.246 -3.0899 -0.5898  1.3057
 3438SOL    HW221774   0.319   1.001  17.375  2.1031  0.7656  1.4302
 3439SOL     OW21775   1.354   2.578   4.787  0.1349  0.5998 -0.2081
 3439SOL    HW121776   1.358   2.603   4.695  2.7192  0.3481 -0.1609
 3439SOL    HW221777   1.377   2.485   4.781  2.0414  1.1270 -1.0621
 3440SOL     OW21778   1.356   2.969   5.365  0.2720 -0.2646  0.2699
 3440SOL    HW121779   1.394   3.013   5.441  0.2476  0.8053 -0.3357
 3440SOL    HW221780   1.437   2.939   5.323  0.3786 -0.1900  0.4207
 3441SOL     OW21781   4.154   2.815  10.811 -0.2925  0.3615 -0.1273
 3441SOL    HW121782   4.214   2.877  10.851  0.6874 -1.0082  0.5331
 3441SOL    HW221783   4.146   2.757  10.886 -1.1041  1.3198  0.5216
 3442SOL     OW21784   1.609   4.140   6.967  0.0308 -0.9092 -0.3774
 3442SOL    HW121785   1.585   4.218   6.916  0.9493 -0.6074 -0.3509
 3442SOL    HW221786   1.575   4.169   7.052  0.1299 -2.9343  0.3649
 3443SOL     OW21787   3.910   3.982   1.177  0.2327  0.6348 -0.3289
 3443SOL    HW121788   3.824   3.964   1.216  1.1184 -2.1611  0.2932
 3443SOL    HW221789   3.934   3.898   1.139  0.9541  1.1376 -0.9673
 3444SOL     OW21790   4.264   3.883   6.010 -0.2742  0.1298  0.0639
 3444SOL    HW121791   4.273   3.788   6.021 -1.2557 -0.0917 -1.1218
 3444SOL    HW221792   4.348   3.907   5.971 -0.4396  1.0717  0.2811
 3445SOL     OW21793   1.473   3.741   8.671  0.2557  0.5785  0.8037
 3445SOL    HW121794   1.553   3.690   8.663 -0.1689  0.3442 -1.8212
 3445SOL    HW221795   1.500   3.826   8.638 -0.0636  0.0474 -0.7939
 3446SOL     OW21796   3.124   2.438   8.046 -0.1516  1.2806 -0.5382
 3446SOL    HW121797   3.145   2.376   8.115 -0.2095  1.3175 -0.4882
 3446SOL    HW221798   3.175   2.519   8.057  0.7909  0.7913 -1.3319
 3447SOL     OW21799   0.217   3.022  15.862  0.0600  0.0202  0.0109
 3447SOL    HW121800   0.262   3.029  15.946 -1.3779  0.5280  0.7479
 3447SOL    HW221801   0.284   3.041  15.797  0.8562 -1.6441  0.3440
 3448SOL     OW21802   1.090   3.688  10.836 -0.1080  0.1636 -0.7877
 3448SOL    HW121803   1.028   3.650  10.899 -0.8365  0.1733 -1.4992
 3448SOL    HW221804   1.036   3.736  10.774 -0.8359  0.4839  0.0974
 3449SOL     OW21805   0.940   0.705   7.033 -0.4802 -0.1169 -0.3895
 3449SOL    HW121806   0.918   0.733   7.121  0.2801  0.7642 -0.4822
 3449SOL    HW221807   0.951   0.785   6.981 -0.2345  0.0160 -0.1349
 3450SOL     OW21808   2.404   0.171   7.777  0.1411  0.5909  0.6529
 3450SOL    HW121809   2.314   0.203   7.782  0.1450  0.9145 -1.6095
 3450SOL    HW221810   2.423   0.202   7.689  0.4836  0.6998  0.7666
 3451SOL     OW21811   4.510   0.923   3.095 -0.5181  0.0056  0.1712
 3451SOL    HW121812   4.539   0.905   3.185  0.6725  0.8341 -0.0480
 3451SOL    HW221813   4.441   0.857   3.086 -0.7400  0.6893 -3.0498
 3452SOL     OW21814   1.712   0.904  10.500  0.0393  0.2963 -0.2779
 3452SOL    HW121815   1.709   0.984  10.553 -0.0424  1.2224 -1.6699
 3452SOL    HW221816   1.724   0.842  10.571 -1.2621  1.2197  0.7568
 3453SOL     OW21817   0.790   4.432   8.473  0.8762 -0.0377  0.2169
 3453SOL    HW121818   0.786   4.525   8.493  2.7862  0.0046  0.3403
 3453SOL    HW221819   0.825   4.427   8.384  0.4977  1.8468 -0.0380
 3454SOL     OW21820   4.163   0.936   7.577 -0.2559  0.4921  0.0373
 3454SOL    HW121821   4.074   0.971   7.578 -0.4886 -0.1035  0.7299
 3454SOL    HW221822   4.187   0.938   7.670 -0.4937  0.2509  0.1053
 3455SOL     OW21823   1.245   4.656   1.593 -0.0868  0.2947  0.2512
 3455SOL    HW121824   1.198   0.011   1.570  1.6834  2.1696  3.2658
 3455SOL    HW221825   1.316   4.692   1.645  0.3457 -1.1498  0.6503
 3456SOL     OW21826   0.817   1.200   1.276 -0.0005  0.5700  0.0912
 3456SOL    HW121827   0.762   1.153   1.213  1.3477 -2.0219  0.8463
 3456SOL    HW221828   0.757   1.272   1.299  1.3912  2.2802 -1.6936
 3457SOL     OW21829   0.573   1.194   2.909  0.4032  0.1556  0.4579
 3457SOL    HW121830   0.484   1.161   2.917  0.4970 -0.1396  0.2578
 3457SOL    HW221831   0.607   1.160   2.826  1.3365 -0.4855  1.1067
 3458SOL     OW21832   2.927   3.349   8.693  0.0344  0.0957 -0.2455
 3458SOL    HW121833   2.975   3.431   8.707 -0.3469  0.2224  0.3383
 3458SOL    HW221834   2.982   3.294   8.749  0.1644 -0.6386 -1.0948
 3459SOL     OW21835   1.586   0.529  15.675 -0.3195  0.2291  0.7178
 3459SOL    HW121836   1.556   0.602  15.621 -1.6828 -2.4769 -2.1614
 3459SOL    HW221837   1.552   0.451  15.630 -1.1275  2.4356 -2.4917
 3460SOL     OW21838   3.423   0.313   4.889  0.7648 -0.4432 -0.0630
 3460SOL    HW121839   3.335   0.291   4.919  0.4845  0.0638 -0.5267
 3460SOL    HW221840   3.455   0.341   4.975  0.4867 -0.9034  0.1915
 3461SOL     OW21841   4.599   2.319   6.078 -0.0468  0.1024 -0.3457
 3461SOL    HW121842   4.569   2.408   6.092  0.9227  0.4572 -0.5796
 3461SOL    HW221843   4.536   2.265   6.125  1.3341  0.9801  2.4788
 3462SOL     OW21844   1.388   1.738   7.843 -0.2456 -0.5101  0.5029
 3462SOL    HW121845   1.354   1.649   7.855  0.6589 -1.0344 -0.8869
 3462SOL    HW221846   1.397   1.776   7.931  2.0793  2.2716 -0.9634
 3463SOL     OW21847   0.119   2.962   5.850  0.5308  0.3630  0.2882
 3463SOL    HW121848   0.078   3.033   5.799  3.9197  0.9354 -1.6436
 3463SOL    HW221849   0.138   2.899   5.781  0.1878 -0.4560  0.9449
 3464SOL     OW21850   0.482   2.890   7.198  0.0619 -0.1122  0.0296
 3464SOL    HW121851   0.513   2.845   7.277  1.0298 -0.4463 -0.5361
 3464SOL    HW221852   0.542   2.964   7.200  1.4673 -1.2028 -1.8830
 3465SOL     OW21853   1.689   4.205   1.783 -0.0812 -0.2161 -0.2620
 3465SOL    HW121854   1.769   4.209   1.836 -0.5130 -0.8231  0.4293
 3465SOL    HW221855   1.653   4.126   1.824  1.2728  0.4457  2.1715
 3466SOL     OW21856   1.919   1.110   7.975  0.1980  0.1550  0.4172
 3466SOL    HW121857   1.978   1.180   7.948  4.0948 -3.1914  0.1914
 3466SOL    HW221858   1.855   1.166   8.018 -0.1912  0.4800 -0.5731
 3467SOL     OW21859   0.501   4.429  11.325 -1.2528 -0.6421 -0.3936
 3467SOL    HW121860   0.586   4.404  11.362 -0.8663  3.2922  1.4217
 3467SOL    HW221861   0.476   4.500  11.384 -0.8998 -0.2584 -0.7083
 3468SOL     OW21862   1.642   4.647  14.229  0.3824  0.0931  0.1916
 3468SOL    HW121863   1.608   4.618  14.314  0.1286 -0.4665 -0.1054
 3468SOL    HW221864   1.579   4.613  14.166  1.2638  1.3004 -1.3354
 3469SOL     OW21865   1.109   2.158  10.883 -0.2719  0.4710 -0.5613
 3469SOL    HW121866   1.190   2.137  10.837 -0.3060  1.5937 -1.1265
 3469SOL    HW221867   1.044   2.141  10.815  0.7076 -3.0673 -0.6254
 3470SOL     OW21868   4.316   4.090   7.581  0.6017  0.1483  0.1844
 3470SOL    HW121869   4.277   4.089   7.493  1.4781  2.6330 -0.2269
 3470SOL    HW221870   4.311   3.998   7.605 -0.0237 -0.1645 -1.1324
 3471SOL     OW21871   1.342   3.747   7.200 -0.3483  0.5218 -0.5459
 3471SOL    HW121872   1.392   3.828   7.189 -0.7000  0.8586  0.3444
 3471SOL    HW221873   1.263   3.780   7.242 -0.6634 -1.0695  0.1186
 3472SOL     OW21874   3.937   0.312   8.985  0.2787  0.1128 -0.5621
 3472SOL    HW121875   3.967   0.222   8.968  2.3588  0.7201 -0.1612
 3472SOL    HW221876   3.848   0.305   9.020 -0.2868 -0.8202 -2.1988
 3473SOL     OW21877   2.123   2.300   5.789 -0.3667 -0.2887 -0.6564
 3473SOL    HW121878   2.218   2.297   5.799 -0.6839  0.1575  2.7032
 3473SOL    HW221879   2.105   2.241   5.863  0.9352  2.1697  1.6364
 3474SOL     OW21880   3.149   0.995   0.308 -0.5543  0.1596 -0.2446
 3474SOL    HW121881   3.218   1.061   0.302 -1.4333  1.1713  0.7920
 3474SOL    HW221882   3.196   0.912   0.310  0.0142  0.4597 -0.9975
 3475SOL     OW21883   3.255   4.264   5.893 -0.3440 -0.1479  0.3772
 3475SOL    HW121884   3.162   4.263   5.918 -0.9242 -0.2028 -1.7963
 3475SOL    HW221885   3.295   4.227   5.971  3.6280  0.4591 -1.3620
 3476SOL     OW21886   4.330   4.470   2.407  0.3560 -0.0480 -0.3557
 3476SOL    HW121887   4.350   4.562   2.391 -2.9802  0.6154 -0.7604
 3476SOL    HW221888   4.280   4.445   2.329  0.8734  0.3258 -0.8049
 3477SOL     OW21889   4.642   2.210   7.140  0.2943 -0.3985  0.3543
 3477SOL    HW121890   4.694   2.286   7.113  0.8885 -0.4339  1.3630
 3477SOL    HW221891   4.650   2.152   7.065  0.5619 -0.6415  0.5694
 3478SOL     OW21892   2.973   2.571  13.407  0.2441  0.0191 -0.6997
 3478SOL    HW121893   2.953   2.632  13.478  1.0306 -1.0752  0.4647
 3478SOL    HW221894   3.065   2.598  13.395  0.2770 -0.8062 -2.3170
 3479SOL     OW21895   2.925   0.323  14.853  0.4299  0.2207 -0.3304
 3479SOL    HW121896   2.841   0.359  14.880  1.3017 -0.1764  2.9278
 3479SOL    HW221897   2.939   0.249  14.912 -0.7372 -0.1516 -0.5181
 3480SOL     OW21898   2.764   1.268  10.291  0.3280  0.0606  0.3043
 3480SOL    HW121899   2.729   1.304  10.373  1.1806 -2.0838  1.5848
 3480SOL    HW221900   2.728   1.327  10.225 -0.0015 -1.7863 -1.1602
 3481SOL     OW21901   4.653   4.676   4.559  0.0553  0.1606  0.6009
 3481SOL    HW121902   4.631   4.598   4.508 -1.5340  2.4675 -2.1981
 3481SOL    HW221903   4.565   4.690   4.593  0.6299  0.9884  1.7605
 3482SOL     OW21904   2.400   0.202   1.624 -0.1031 -0.1855 -0.4019
 3482SOL    HW121905   2.392   0.297   1.630  1.1107  0.0114 -1.8582
 3482SOL    HW221906   2.444   0.172   1.703  2.7949  0.4602 -1.7701
 3483SOL     OW21907   3.060   1.981   7.643 -0.0460  0.0177  0.0994
 3483SOL    HW121908   3.124   1.995   7.573 -1.0921 -0.6737 -1.0139
 3483SOL    HW221909   3.108   2.034   7.706  0.4038 -0.3356  0.0536
 3484SOL     OW21910   4.191   4.607   8.396 -0.0486  0.4427 -0.5528
 3484SOL    HW121911   4.161   4.687   8.439  0.6949  0.3823  0.0861
 3484SOL    HW221912   4.256   4.584   8.462 -1.1790 -0.3506  0.2932
 3485SOL     OW21913   0.716   2.467  12.778  0.7146  0.4249 -0.4012
 3485SOL    HW121914   0.783   2.456  12.711  0.4327  0.6330 -0.7130
 3485SOL    HW221915   0.771   2.434  12.849 -1.0903  1.1028  1.3125
 3486SOL     OW21916   2.403   0.624   3.507  0.4690 -0.1624 -0.2766
 3486SOL    HW121917   2.338   0.694   3.513 -0.4438 -1.0081 -0.3861
 3486SOL    HW221918   2.414   0.596   3.598  0.7814  2.1891  0.4210
 3487SOL     OW21919   2.179   2.055  17.007 -0.3346 -0.0402  0.0684
 3487SOL    HW121920   2.273   2.051  16.992 -0.5854 -0.6265 -1.3982
 3487SOL    HW221921   2.158   1.963  16.992  3.1458 -0.6210 -1.2118
 3488SOL     OW21922   1.209   4.182   9.732  0.2299  0.2000 -0.0738
 3488SOL    HW121923   1.233   4.173   9.640  1.3842  0.1457  0.2350
 3488SOL    HW221924   1.244   4.100   9.768  1.9829  1.2808  0.7059
 3489SOL     OW21925   4.537   3.064   5.430 -0.3352 -0.1627  0.0437
 3489SOL    HW121926   4.469   3.066   5.362  0.3814 -0.8234 -0.6904
 3489SOL    HW221927   4.488   3.021   5.501 -3.0490  3.2102  0.1966
 3490SOL     OW21928   2.995   0.526  14.399 -0.4970 -0.3354  0.3099
 3490SOL    HW121929   3.025   0.461  14.335 -0.9980  0.1855 -0.4654
 3490SOL    HW221930   2.986   0.475  14.479 -0.0585 -3.5584 -1.6896
 3491SOL     OW21931   4.364   2.624   5.845 -0.0498  0.8512  0.5417
 3491SOL    HW121932   4.404   2.669   5.772  0.6079 -0.3388  0.1638
 3491SOL    HW221933   4.324   2.697   5.893  0.4683  1.8096 -0.4986
 3492SOL     OW21934   1.719   3.899   8.325  0.6688 -0.2895 -0.8386
 3492SOL    HW121935   1.719   3.810   8.360 -1.0991  0.1531  0.2734
 3492SOL    HW221936   1.761   3.881   8.241  1.1129  1.3995 -0.9976
 3493SOL     OW21937   0.511   0.046   8.638  1.0335 -0.0487  0.6413
 3493SOL    HW121938   0.442   0.025   8.700  1.2556  0.5297  1.0940
 3493SOL    HW221939   0.472   0.025   8.553 -0.7136  0.7118  1.2611
 3494SOL     OW21940   1.592   1.943  16.130 -0.2463  0.5794 -0.0384
 3494SOL    HW121941   1.509   1.903  16.105 -0.7526  0.6261  1.6064
 3494SOL    HW221942   1.602   1.921  16.223 -1.6216 -1.8280 -0.4554
 3495SOL     OW21943   0.738   0.096   7.710 -0.3594  0.3010 -0.3902
 3495SOL    HW121944   0.803   0.106   7.640  0.4326 -0.6263  0.2072
 3495SOL    HW221945   0.744   0.184   7.746 -2.5124  0.3936 -0.3057
 3496SOL     OW21946   3.563   1.302   6.066  0.4953  0.0166  0.6891
 3496SOL    HW121947   3.551   1.392   6.034 -0.0462  0.3493  1.8552
 3496SOL    HW221948   3.554   1.321   6.159 -0.9359  0.3269  0.4890
 3497SOL     OW21949   3.100   4.325  12.137  0.4252 -0.7480  0.2907
 3497SOL    HW121950   3.011   4.292  12.131  0.1873  0.1981 -1.4314
 3497SOL    HW221951   3.113   4.353  12.228  0.0180  0.5411 -0.0524
 3498SOL     OW21952   2.996   0.330  14.588 -0.3141  0.1300  0.1717
 3498SOL    HW121953   2.961   0.312  14.675 -2.3827 -0.7218 -0.8359
 3498SOL    HW221954   3.041   0.248  14.571  0.0497  0.1225  1.1826
 3499SOL     OW21955   1.006   1.359  11.434 -0.2467  0.5661  0.1218
 3499SOL    HW121956   1.090   1.363  11.387  0.4544 -2.4910  1.0790
 3499SOL    HW221957   0.941   1.343  11.365 -0.1188  0.0599  0.1138
 3500SOL     OW21958   2.563   2.205  10.142  0.4901  0.3040  0.3781
 3500SOL    HW121959   2.472   2.196  10.115  0.9315  1.1647 -1.3840
 3500SOL    HW221960   2.554   2.178  10.234 -2.5816 -2.2387 -0.6715
 3501SOL     OW21961   2.672   4.689  14.779  0.0725  0.5944 -0.2748
 3501SOL    HW121962   2.754   4.642  14.763 -1.4897 -1.8597 -1.0982
 3501SOL    HW221963   2.632   4.648  14.703 -0.3870  0.4936  0.0277
 3502SOL     OW21964   4.522   3.982   1.262  0.3801  0.0757 -0.4491
 3502SOL    HW121965   4.507   4.008   1.353  1.5845 -0.5936 -0.0591
 3502SOL    HW221966   4.447   4.021   1.217 -0.5924 -2.2393 -0.7899
 3503SOL     OW21967   4.497   0.167   8.477 -0.3899  0.3245  0.0134
 3503SOL    HW121968   4.542   0.193   8.397  0.1575  0.6328  0.4221
 3503SOL    HW221969   4.532   0.078   8.473 -0.5229  0.2801 -0.1461
 3504SOL     OW21970   0.508   3.273   5.179  0.9060 -0.2928  0.0145
 3504SOL    HW121971   0.533   3.250   5.089 -0.3851  0.3069 -0.4950
 3504SOL    HW221972   0.594   3.294   5.215  1.1557 -0.8568 -0.2491
 3505SOL     OW21973   1.513   3.803  14.409  0.1367  0.6439  0.1780
 3505SOL    HW121974   1.479   3.786  14.497 -1.2361 -1.8020 -0.8347
 3505SOL    HW221975   1.606   3.807  14.434 -0.1937  0.5497  1.4334
 3506SOL     OW21976   0.992   4.064   4.201 -0.1630 -0.3473  0.0679
 3506SOL    HW121977   0.940   4.025   4.131  0.1492 -0.2685 -0.2082
 3506SOL    HW221978   0.920   4.089   4.258 -1.3409 -0.4419 -1.3883
 3507SOL     OW21979   4.009   4.676   1.627  0.2338  0.0312  0.2497
 3507SOL    HW121980   3.944   4.619   1.667 -1.4943  1.1697 -0.9253
 3507SOL    HW221981   3.986   0.041   1.652 -0.6872 -0.5387  1.4721
 3508SOL     OW21982   1.118   4.239   9.201 -0.1333 -0.0397 -0.1777
 3508SOL    HW121983   1.049   4.268   9.261 -0.1855 -0.0551 -0.2299
 3508SOL    HW221984   1.158   4.320   9.169  2.4609 -0.8392  1.0168
 3509SOL     OW21985   1.496   3.237  15.990 -0.3159  0.3293  0.0733
 3509SOL    HW121986   1.457   3.323  16.002 -0.7377  0.1966 -0.3334
 3509SOL    HW221987   1.423   3.202  15.939  0.7753  1.0585 -1.9671
 3510SOL     OW21988   2.710   3.864  10.695 -0.6747  0.0619 -0.1130
 3510SOL    HW121989   2.634   3.862  10.637  0.8546  1.6711 -2.1782
 3510SOL    HW221990   2.719   3.960  10.689  1.3136 -0.2926 -2.7889
 3511SOL     OW21991   0.098   1.101   8.392 -0.3676 -0.3679  0.3398
 3511SOL    HW121992   0.057   1.015   8.384 -0.1869 -0.2260 -2.0639
 3511SOL    HW221993   0.175   1.086   8.446  0.6897  1.0914 -0.7897
 3512SOL     OW21994   3.038   3.123   7.686 -0.3660 -0.5225  0.1931
 3512SOL    HW121995   3.017   3.188   7.753  2.7405  1.2626 -0.5488
 3512SOL    HW221996   3.098   3.065   7.733  0.1816 -0.2170 -0.1187
 3513SOL     OW21997   0.335   2.219  12.506  0.1033 -0.1106 -0.2592
 3513SOL    HW121998   0.340   2.125  12.524  0.2855  0.2604  1.6535
 3513SOL    HW221999   0.338   2.243  12.599 -1.6536  2.7772 -0.9599
 3514SOL     OW22000   3.989   1.747   7.836 -0.4129  0.1938 -0.2557
 3514SOL    HW122001   4.005   1.746   7.742  0.0415  1.3193 -0.1964
 3514SOL    HW222002   4.026   1.663   7.862  1.5900  1.3074  0.4535
 3515SOL     OW22003   0.934   0.691   4.422 -0.4343  1.0092  0.1093
 3515SOL    HW122004   0.952   0.769   4.474  1.2469  0.0437  1.0005
 3515SOL    HW222005   0.945   0.622   4.488  2.4240  0.0236 -1.4197
 3516SOL     OW22006   4.141   2.853   9.323 -0.3586  0.3397  0.0251
 3516SOL    HW122007   4.110   2.932   9.367  1.7539  1.5538 -0.6555
 3516SOL    HW222008   4.108   2.878   9.237 -0.6772  2.1884  0.6875
 3517SOL     OW22009   1.190   3.120   6.807  0.9294 -0.9259  0.3277
 3517SOL    HW122010   1.245   3.054   6.765  0.6702 -0.2523 -1.0853
 3517SOL    HW222011   1.130   3.070   6.863  0.1909 -0.4975 -0.0755
 3518SOL     OW22012   2.541   0.288   3.472  0.9915 -0.6792 -0.6252
 3518SOL    HW122013   2.617   0.334   3.507  0.3238 -0.6963  0.8465
 3518SOL    HW222014   2.504   0.349   3.408 -0.1522 -0.1487  0.5411
 3519SOL     OW22015   1.764   2.398   7.383  0.0355 -0.5307  0.2410
 3519SOL    HW122016   1.830   2.343   7.341  2.2519  1.0447  1.6628
 3519SOL    HW222017   1.771   2.488   7.351  3.7336 -0.8207  0.3000
 3520SOL     OW22018   3.308   0.277  15.390 -0.1906  0.1296 -0.8734
 3520SOL    HW122019   3.312   0.232  15.474  1.1183  1.6949 -0.1112
 3520SOL    HW222020   3.337   0.367  15.405 -1.0550  0.5671 -1.8316
 3521SOL     OW22021   0.171   2.417  12.384  0.0690  0.5558 -0.7479
 3521SOL    HW122022   0.220   2.347  12.427  0.3508  1.5532  0.5378
 3521SOL    HW222023   0.238   2.485  12.381  1.9704 -1.3270 -0.9848
 3522SOL     OW22024   1.776   1.825   6.478  0.7066  0.2289  0.3851
 3522SOL    HW122025   1.797   1.759   6.544  0.5964 -0.9641 -0.7702
 3522SOL    HW222026   1.743   1.892   6.537 -0.5731  0.5625 -0.7256
 3523SOL     OW22027   0.691   2.839   0.275  0.1164 -0.1279 -0.5959
 3523SOL    HW122028   0.627   2.900   0.239  1.5107  2.7405  1.8250
 3523SOL    HW222029   0.637   2.799   0.344 -0.2242  1.6142  0.1352
 3524SOL     OW22030   0.159   3.721   1.964  0.3313  0.0679 -0.1743
 3524SOL    HW122031   0.225   3.734   2.032 -0.1279  1.0605  0.0821
 3524SOL    HW222032   0.213   3.746   1.889 -0.1807 -0.0917 -0.5990
 3525SOL     OW22033   3.453   0.300  13.851 -0.0551  0.1153 -0.2332
 3525SOL    HW122034   3.489   0.387  13.869 -3.2010  1.0779  1.4407
 3525SOL    HW222035   3.417   0.319  13.764 -0.4313  0.9898  0.1179
 3526SOL     OW22036   3.446   3.622   2.618 -0.1128  0.1698  0.6600
 3526SOL    HW122037   3.495   3.658   2.544  1.5675  1.1599  2.2415
 3526SOL    HW222038   3.429   3.703   2.667  1.7369  1.9938 -1.6862
 3527SOL     OW22039   4.090   3.166  11.919 -0.3191 -0.0579  0.4223
 3527SOL    HW122040   4.102   3.224  11.994  1.6015 -0.2331  0.2578
 3527SOL    HW222041   3.999   3.184  11.899  1.1139  1.7344 -4.3289
 3528SOL     OW22042   1.721   2.188   8.938 -0.4587 -0.9669 -0.9793
 3528SOL    HW122043   1.712   2.251   8.867  2.9097  1.1716  0.4632
 3528SOL    HW222044   1.670   2.226   9.010 -0.3326 -1.4085 -0.6488
 3529SOL     OW22045   3.947   3.182   1.140 -0.0489 -0.4285  0.4777
 3529SOL    HW122046   3.923   3.130   1.217 -1.0665 -1.7347 -0.7219
 3529SOL    HW222047   3.974   3.262   1.185 -2.8786 -0.4938  2.3008
 3530SOL     OW22048   2.120   1.569  16.685 -0.5214 -0.6576 -0.2776
 3530SOL    HW122049   2.142   1.515  16.609  2.9146 -0.0724  0.3055
 3530SOL    HW222050   2.153   1.655  16.660  0.8605 -0.9061  0.6790
 3531SOL     OW22051   0.057   3.694  10.121  0.4246  0.1344 -0.1493
 3531SOL    HW122052   4.707   3.638  10.100  0.8423 -0.7327  0.6202
 3531SOL    HW222053   0.044   3.711  10.214  0.9915 -1.7819  0.2967
 3532SOL     OW22054   2.173   1.523   4.782  0.2189 -0.0349  0.1952
 3532SOL    HW122055   2.251   1.510   4.728 -1.0748 -0.6574 -1.5438
 3532SOL    HW222056   2.102   1.495   4.724 -2.0675  0.4345  2.7606
 3533SOL     OW22057   2.663   2.101   3.545 -0.3781  0.2001 -0.5611
 3533SOL    HW122058   2.720   2.170   3.579 -1.2357  1.5702 -1.8909
 3533SOL    HW222059   2.645   2.058   3.628 -0.0238  0.9129 -0.1069
 3534SOL     OW22060   1.919   0.163   1.596 -0.0564  0.0187 -0.2831
 3534SOL    HW122061   1.939   0.252   1.625  1.5670 -0.0386 -1.2170
 3534SOL    HW222062   2.003   0.118   1.611  0.6642  0.7319 -2.2020
 3535SOL     OW22063   4.526   2.296   6.489  0.1619  0.1020 -0.0928
 3535SOL    HW122064   4.536   2.367   6.553 -1.1783 -0.0719  0.3259
 3535SOL    HW222065   4.602   2.310   6.434 -0.7453  1.1278 -1.0783
 3536SOL     OW22066   1.464   3.489  12.157  0.5039  0.4790 -0.2385
 3536SOL    HW122067   1.522   3.422  12.121 -0.0439  0.5717 -1.3167
 3536SOL    HW222068   1.473   3.486  12.252  1.3172 -1.0343 -0.3655
 3537SOL     OW22069   4.250   0.266   0.855  0.0328  0.4845 -0.1083
 3537SOL    HW122070   4.241   0.178   0.892 -3.9503  1.7937  2.1569
 3537SOL    HW222071   4.303   0.303   0.926 -1.5154 -0.2566  1.4400
 3538SOL     OW22072   3.093   1.142   8.511  0.2852  0.5615 -0.0924
 3538SOL    HW122073   3.181   1.107   8.519  0.9201  2.1364 -0.2591
 3538SOL    HW222074   3.037   1.068   8.488  0.6578  0.6395 -1.2484
 3539SOL     OW22075   0.629   0.328   2.235 -0.3386  0.0235 -0.5773
 3539SOL    HW122076   0.563   0.311   2.169  0.5286 -2.5867 -0.7818
 3539SOL    HW222077   0.681   0.247   2.233 -1.9483 -0.9949 -0.6477
 3540SOL     OW22078   0.972   4.607   6.835 -0.1736 -0.5418  0.6271
 3540SOL    HW122079   0.881   4.616   6.862  0.4613  0.6237  2.3388
 3540SOL    HW222080   0.969   4.525   6.784 -3.5289 -0.3904  0.5672
 3541SOL     OW22081   4.323   3.368   4.517  0.2509  0.3634  0.1182
 3541SOL    HW122082   4.325   3.325   4.432 -2.1319  0.7394 -0.1282
 3541SOL    HW222083   4.369   3.311   4.578 -0.1981  2.9588  2.8828
 3542SOL     OW22084   0.038   1.202   5.730  0.2709 -0.2107  0.1616
 3542SOL    HW122085   0.085   1.241   5.656  1.3958 -1.2346  0.3312
 3542SOL    HW222086   4.716   1.275   5.770 -0.6604 -1.4206  1.2732
 3543SOL     OW22087   0.357   3.774   2.589  0.1456  0.2689 -0.2201
 3543SOL    HW122088   0.390   3.864   2.594 -1.7627  0.9859 -0.3242
 3543SOL    HW222089   0.414   3.727   2.649 -0.6328 -0.2402  0.1136
 3544SOL     OW22090   1.657   0.193  17.207 -0.1965  0.1707  0.4808
 3544SOL    HW122091   1.677   0.134  17.134  0.0789 -0.1359  0.8034
 3544SOL    HW222092   1.568   0.217  17.183  0.1583  0.7310 -0.2693
 3545SOL     OW22093   2.343   3.485   5.429  0.1216  0.3582 -0.4490
 3545SOL    HW122094   2.338   3.577   5.400 -0.8234  1.3283  2.8058
 3545SOL    HW222095   2.277   3.446   5.373 -0.0606 -0.2826  0.2214
 3546SOL     OW22096   3.097   3.319   2.497 -0.1318  0.1823 -0.3151
 3546SOL    HW122097   3.039   3.324   2.573 -0.5093 -2.9843 -0.3999
 3546SOL    HW222098   3.130   3.409   2.495  0.3417 -0.0429 -2.3984
 3547SOL     OW22099   2.373   1.988   2.915 -0.0938 -0.2468 -0.0895
 3547SOL    HW122100   2.466   1.964   2.916 -0.3789 -1.3557 -0.6924
 3547SOL    HW222101   2.338   1.911   2.871  2.2585 -1.1701 -0.3508
 3548SOL     OW22102   2.646   2.393  11.382 -0.5904  0.1799 -0.1803
 3548SOL    HW122103   2.649   2.443  11.300  1.0525  1.0760  0.4152
 3548SOL    HW222104   2.553   2.392  11.403 -0.8468 -1.6241 -1.3886
 3549SOL     OW22105   0.580   1.387  17.232  0.3506  0.4730 -0.2111
 3549SOL    HW122106   0.560   1.309  17.284 -2.8936  0.7688 -1.0404
 3549SOL    HW222107   0.539   1.455  17.285 -0.9637 -1.1277  0.8187
 3550SOL     OW22108   0.463   0.934   2.633  0.2256 -0.5703 -0.3805
 3550SOL    HW122109   0.514   0.883   2.571  0.0490  1.3285 -2.1063
 3550SOL    HW222110   0.398   0.967   2.570 -0.0673 -3.3945 -1.5508
 3551SOL     OW22111   2.643   4.129   3.242  0.1378  0.2646  0.0481
 3551SOL    HW122112   2.654   4.044   3.284  1.8059  0.4488 -0.0282
 3551SOL    HW222113   2.650   4.181   3.322 -0.4485 -0.1398  0.3653
 3552SOL     OW22114   1.191   3.615  17.251 -0.6835  0.6486  0.2731
 3552SOL    HW122115   1.101   3.625  17.282  0.1207  2.9207  1.9028
 3552SOL    HW222116   1.239   3.644  17.329 -2.8051  1.6212  1.2249
 3553SOL     OW22117   1.027   4.397  15.578  0.4861  0.2104 -0.3453
 3553SOL    HW122118   0.934   4.414  15.564  0.8106  0.7730 -1.8078
 3553SOL    HW222119   1.027   4.363  15.667  3.3111 -0.8261 -0.7513
 3554SOL     OW22120   0.024   3.123   8.346 -0.3460  0.0987 -0.2485
 3554SOL    HW122121   0.006   3.217   8.345 -0.0534  0.1727  1.7365
 3554SOL    HW222122   4.675   3.090   8.397 -0.5404 -0.3644 -0.8258
 3555SOL     OW22123   0.879   0.559   2.000  0.5425 -0.2599 -0.2598
 3555SOL    HW122124   0.911   0.566   1.910 -0.4697  1.9535 -0.4408
 3555SOL    HW222125   0.954   0.595   2.048  0.9406 -1.5001  0.0578
 3556SOL     OW22126   1.379   3.260   8.342  0.3542  0.3093 -0.1229
 3556SOL    HW122127   1.445   3.329   8.346 -1.1458  1.7777 -1.3549
 3556SOL    HW222128   1.300   3.312   8.354  0.2545 -0.1819  1.4238
 3557SOL     OW22129   1.987   0.902   4.065  0.1567 -0.0641  0.5330
 3557SOL    HW122130   1.954   0.919   4.153  1.7971 -2.3196  1.5884
 3557SOL    HW222131   1.907   0.912   4.013  0.6105  2.1219  0.2796
 3558SOL     OW22132   3.075   3.351   7.199  0.0780 -0.0081 -0.0699
 3558SOL    HW122133   3.149   3.378   7.145 -1.2982  0.1346 -1.9242
 3558SOL    HW222134   3.115   3.326   7.282  0.0864 -3.0493 -0.9965
 3559SOL     OW22135   3.288   3.374   9.005  0.0347  0.7601 -0.7528
 3559SOL    HW122136   3.371   3.366   9.052 -1.2613 -2.6098  0.9351
 3559SOL    HW222137   3.275   3.280   9.012 -0.4880  0.8895  0.0379
 3560SOL     OW22138   0.059   0.727  16.989 -0.0855 -0.2714  0.5769
 3560SOL    HW122139   0.122   0.665  16.953 -0.8526 -0.2512 -0.7763
 3560SOL    HW222140   4.715   0.670  17.022 -0.1254  0.5444  1.8868
 3561SOL     OW22141   3.516   0.897   7.000  0.2457 -0.0486  0.5935
 3561SOL    HW122142   3.478   0.859   6.921  0.2696  1.0963  0.0296
 3561SOL    HW222143   3.476   0.983   6.987  0.4728  0.1259  1.0188
 3562SOL     OW22144   4.477   0.007   6.214  0.0153 -0.2559  0.0216
 3562SOL    HW122145   4.422   4.702   6.286  0.4218 -0.7732  0.1111
 3562SOL    HW222146   4.429   4.695   6.140  0.7552  1.7631 -1.4701
 3563SOL     OW22147   4.285   2.545   4.081 -0.2071 -0.5389  0.0548
 3563SOL    HW122148   4.361   2.486   4.084 -0.3188 -0.6642  0.4191
 3563SOL    HW222149   4.237   2.533   4.164  0.7473  1.1424  0.8489
 3564SOL     OW22150   0.656   1.963   4.670 -0.2393 -0.0360 -0.1210
 3564SOL    HW122151   0.667   1.868   4.679  0.6961  0.0919  0.1341
 3564SOL    HW222152   0.670   1.987   4.762 -0.3531  2.8778 -0.8573
 3565SOL     OW22153   3.862   0.064   1.366 -0.0586  0.2832  0.4771
 3565SOL    HW122154   3.886   0.061   1.274  0.4307  0.9148  0.5852
 3565SOL    HW222155   3.861   4.694   1.379  1.3342  0.3719  1.2257
 3566SOL     OW22156   2.904   0.661   5.252 -0.0899  0.0078 -0.1333
 3566SOL    HW122157   2.925   0.736   5.308  2.1324 -1.4999  1.0528
 3566SOL    HW222158   2.878   0.694   5.166 -2.9689  1.2597  1.2188
 3567SOL     OW22159   0.890   3.686  15.543  0.0092 -0.2553 -0.3538
 3567SOL    HW122160   0.905   3.694  15.449  0.6646  2.6816 -0.0080
 3567SOL    HW222161   0.883   3.776  15.575  1.2276 -0.3323  0.1175
 3568SOL     OW22162   1.599   1.401   3.503  0.4466  0.0543  0.0075
 3568SOL    HW122163   1.645   1.327   3.462 -2.2462 -1.8766  0.5349
 3568SOL    HW222164   1.669   1.452   3.545  0.3059 -0.8237  1.3043
 3569SOL     OW22165   1.859   3.707  16.518  0.0970 -0.5291  0.0090
 3569SOL    HW122166   1.930   3.679  16.460 -0.1640  0.4591 -0.7886
 3569SOL    HW222167   1.838   3.619  16.551 -0.9478 -0.9970 -1.8719
 3570SOL     OW22168   1.687   4.450  12.192  0.3141 -0.2822 -0.6395
 3570SOL    HW122169   1.721   4.498  12.268  0.9994 -0.4693 -0.8258
 3570SOL    HW222170   1.715   4.364  12.222 -0.1959 -0.2130  0.0319
 3571SOL     OW22171   1.741   1.388   7.139  0.0693  0.2620  0.7194
 3571SOL    HW122172   1.813   1.380   7.201  0.4450 -1.8233  0.0253
 3571SOL    HW222173   1.785   1.347   7.065  1.0158  0.5539  1.1298
 3572SOL     OW22174   0.591   1.864   1.556  0.0142 -0.4266  0.0967
 3572SOL    HW122175   0.544   1.783   1.537 -0.9147  0.2081 -0.3040
 3572SOL    HW222176   0.537   1.920   1.501  1.0229 -1.7292 -2.2215
 3573SOL     OW22177   1.317   1.566  10.659 -0.3987 -0.4335  0.1289
 3573SOL    HW122178   1.325   1.639  10.719 -1.0733 -1.0893  1.0202
 3573SOL    HW222179   1.361   1.610  10.586  0.4150 -1.5391 -0.0532
 3574SOL     OW22180   0.965   2.164   8.173  0.7025  0.7963 -0.2078
 3574SOL    HW122181   1.039   2.103   8.175  1.5196  1.8891  1.9745
 3574SOL    HW222182   0.909   2.128   8.242  2.2414 -0.5183  0.3615
 3575SOL     OW22183   4.565   0.931   4.405 -0.0953  0.6814 -0.4114
 3575SOL    HW122184   4.554   1.025   4.417  0.7297  0.4942  1.7925
 3575SOL    HW222185   4.554   0.900   4.494 -2.5707  1.2282 -0.5309
 3576SOL     OW22186   2.476   0.289   2.291 -0.0066  0.1843  0.2376
 3576SOL    HW122187   2.510   0.212   2.336  0.0337  0.7795  1.2181
 3576SOL    HW222188   2.400   0.317   2.342 -0.8535 -1.7831  0.0586
 3577SOL     OW22189   4.585   3.110  10.968 -0.1880  0.1504 -0.0144
 3577SOL    HW122190   4.630   3.026  10.977 -2.0364 -0.8073  0.3151
 3577SOL    HW222191   4.562   3.126  11.060  0.5013 -1.1582  0.3880
 3578SOL     OW22192   0.581   3.088   3.192 -0.4064 -0.1693  0.2113
 3578SOL    HW122193   0.547   3.054   3.110 -1.7263  1.0112  0.2637
 3578SOL    HW222194   0.507   3.143   3.219 -0.7585 -0.2135 -0.6833
 3579SOL     OW22195   0.002   2.228  11.264  0.1298  0.6269 -0.1368
 3579SOL    HW122196   4.651   2.284  11.278 -1.1257 -0.6222 -2.0427
 3579SOL    HW222197   4.694   2.190  11.183  0.6399 -1.9756  0.8685
 3580SOL     OW22198   3.783   2.554  13.570 -0.3213  0.4924  0.1902
 3580SOL    HW122199   3.856   2.518  13.519 -0.6794 -1.3729  1.0005
 3580SOL    HW222200   3.762   2.488  13.636  1.5707 -1.0750 -0.7773
 3581SOL     OW22201   0.251   2.147  13.668  0.8724  0.2311  0.4531
 3581SOL    HW122202   0.332   2.105  13.640  1.2108  1.0723  0.1967
 3581SOL    HW222203   0.221   2.078  13.727  0.2384  0.7645  0.7496
 3582SOL     OW22204   2.559   0.277  16.956  0.0222 -0.6840 -0.3254
 3582SOL    HW122205   2.504   0.314  16.887  0.7139  0.1459 -0.4382
 3582SOL    HW222206   2.494   0.264  17.025  0.1822  1.7731  0.2929
 3583SOL     OW22207   1.357   0.257   3.354  0.4701 -0.3659  0.3463
 3583SOL    HW122208   1.434   0.274   3.409  0.7434 -1.5686  0.3488
 3583SOL    HW222209   1.282   0.268   3.412 -1.3023 -1.1734 -1.7906
 3584SOL     OW22210   4.171   0.789   0.963  0.7840 -0.1635  0.0887
 3584SOL    HW122211   4.205   0.725   0.901 -1.0906 -1.7248  0.6550
 3584SOL    HW222212   4.134   0.847   0.896 -0.4645  0.7343  1.5513
 3585SOL     OW22213   4.200   0.955   6.548 -0.3386  0.4547  0.0334
 3585SOL    HW122214   4.176   1.046   6.537  1.7144  0.6078 -3.0338
 3585SOL    HW222215   4.220   0.954   6.642  1.1607 -2.8404 -0.3026
 3586SOL     OW22216   4.351   3.917   2.852 -0.2044  0.3365  0.4758
 3586SOL    HW122217   4.353   3.906   2.947  0.7016  1.7286  0.6224
 3586SOL    HW222218   4.311   4.000   2.829  0.4112  0.4252 -0.2639
 3587SOL     OW22219   1.685   2.467  10.198  0.1857  0.1159  0.0951
 3587SOL    HW122220   1.701   2.560  10.217  2.3118 -0.1500 -0.3474
 3587SOL    HW222221   1.670   2.434  10.287  0.5682 -0.6230 -0.1119
 3588SOL     OW22222   2.384   4.477   2.594 -0.1803 -0.0446  0.3523
 3588SOL    HW122223   2.336   4.396   2.577  0.6878 -0.2442 -1.2277
 3588SOL    HW222224   2.454   4.457   2.531  0.3052 -0.9413  1.1923
 3589SOL     OW22225   2.436   2.271   1.084  0.3596 -0.5607  0.3945
 3589SOL    HW122226   2.515   2.307   1.041  0.2438 -1.4364 -0.5583
 3589SOL    HW222227   2.480   2.194   1.120 -1.0925 -1.3320  0.4927
 3590SOL     OW22228   1.367   0.299  12.194  0.6087 -0.1140 -0.0871
 3590SOL    HW122229   1.446   0.291  12.141 -0.6964 -0.5585 -1.9752
 3590SOL    HW222230   1.389   0.383  12.236  1.1891 -0.3706  0.1268
 3591SOL     OW22231   2.853   4.120   4.741  0.3925  0.4956 -1.0395
 3591SOL    HW122232   2.895   4.084   4.663 -2.0073 -4.4977  0.0115
 3591SOL    HW222233   2.761   4.099   4.727 -0.1312  0.8591  1.9003
 3592SOL     OW22234   2.208   1.495   3.723  0.3528  0.5340  0.4685
 3592SOL    HW122235   2.244   1.511   3.636  0.7905 -0.4293  0.4724
 3592SOL    HW222236   2.168   1.580   3.742 -0.5714  0.4258 -0.9875
 3593SOL     OW22237   4.259   4.344   7.999  0.7055  0.0201  0.1591
 3593SOL    HW122238   4.326   4.371   7.937  2.3356 -2.8281  0.6827
 3593SOL    HW222239   4.205   4.292   7.939  0.0608 -0.7400  1.3852
 3594SOL     OW22240   2.839   0.589   4.357  0.5563 -0.1003  0.3187
 3594SOL    HW122241   2.757   0.577   4.405 -0.6555  2.5368 -1.1606
 3594SOL    HW222242   2.851   0.684   4.353  2.4669 -0.3469  0.0614
 3595SOL     OW22243   0.602   1.085  16.626  1.2915 -0.7859  0.2708
 3595SOL    HW122244   0.523   1.060  16.674  0.4386 -0.5998 -1.0157
 3595SOL    HW222245   0.640   0.998  16.637 -0.0929 -1.3145  0.9120
 3596SOL     OW22246   2.619   3.959   0.097  0.2053  0.1475 -0.0365
 3596SOL    HW122247   2.598   3.974   0.005  0.1965 -1.6281 -0.3176
 3596SOL    HW222248   2.647   3.868   0.090  0.7850  0.0525  3.1956
 3597SOL     OW22249   0.901   0.126  11.687 -0.7793  0.0859  0.1472
 3597SOL    HW122250   0.924   0.205  11.638  1.1493 -0.8445 -0.4443
 3597SOL    HW222251   0.984   0.106  11.729 -0.3621 -0.7956 -1.0844
 3598SOL     OW22252   1.150   3.356   0.564 -0.1327  0.5244 -0.1358
 3598SOL    HW122253   1.122   3.431   0.511  1.2112  1.0154 -0.1468
 3598SOL    HW222254   1.116   3.289   0.504 -1.2487  1.9237 -1.0726
 3599SOL     OW22255   1.803   0.241   9.890 -0.2192  0.5193  0.2768
 3599SOL    HW122256   1.738   0.259   9.958  0.4021 -1.3768  1.3618
 3599SOL    HW222257   1.798   0.146   9.885  0.7703  0.5152 -0.5048
 3600SOL     OW22258   0.441   2.431   9.313  0.4274  0.3004 -0.2999
 3600SOL    HW122259   0.399   2.371   9.374  1.4662  2.1760  2.2499
 3600SOL    HW222260   0.525   2.387   9.299 -0.5399 -1.3132 -1.1660
 3601SOL     OW22261   4.641   3.428   3.367  0.3720 -0.3126  0.1286
 3601SOL    HW122262   4.630   3.512   3.323 -2.7912 -0.0354  1.4988
 3601SOL    HW222263   4.592   3.369   3.310 -2.1082  0.6290  1.3317
 3602SOL     OW22264   0.266   0.119   5.272  0.2422 -0.1961  0.0737
 3602SOL    HW122265   0.230   0.043   5.226  0.4026 -1.3593  1.8707
 3602SOL    HW222266   0.349   0.083   5.302  0.5343 -1.1469 -1.8344
 3603SOL     OW22267   0.008   4.076   4.138 -0.0072 -0.2081  0.5573
 3603SOL    HW122268   0.089   4.030   4.161  0.6660 -0.6838 -2.7366
 3603SOL    HW222269   4.720   4.040   4.050  1.8519  0.2055  0.0989
 3604SOL     OW22270   4.330   2.087   1.384  0.2990 -0.0014  0.2471
 3604SOL    HW122271   4.282   2.168   1.368  3.7675  2.4795  2.3597
 3604SOL    HW222272   4.279   2.058   1.460  0.4727 -1.0305 -0.0216
 3605SOL     OW22273   2.248   3.171   2.304  0.0560  0.3196  0.5066
 3605SOL    HW122274   2.229   3.127   2.221 -0.9037  2.0313 -0.1681
 3605SOL    HW222275   2.307   3.112   2.351  1.0325  0.5426 -0.4358
 3606SOL     OW22276   3.736   3.367   0.350 -0.0624  0.7820 -0.0223
 3606SOL    HW122277   3.752   3.290   0.295  0.8265 -0.0765  1.4620
 3606SOL    HW222278   3.825   3.391   0.375 -0.1430  2.3603 -1.2078
 3607SOL     OW22279   4.225   0.773   1.233 -0.1630  0.0327 -0.1692
 3607SOL    HW122280   4.194   0.805   1.148  0.1337  0.0314 -0.2767
 3607SOL    HW222281   4.166   0.809   1.300  0.3139 -1.0265  0.8097
 3608SOL     OW22282   3.048   0.842  11.254 -0.1474  0.5341  0.9737
 3608SOL    HW122283   3.091   0.862  11.338  1.7418 -3.5670  0.9712
 3608SOL    HW222284   3.093   0.762  11.227  1.2030  1.3780  0.6813
 3609SOL     OW22285   1.663   4.613   7.269 -0.1343 -0.3330 -0.0734
 3609SOL    HW122286   1.756   4.589   7.265  0.1986  0.8137  0.7213
 3609SOL    HW222287   1.656   4.639   7.177 -0.5480  0.3009  0.1353
 3610SOL     OW22288   4.056   3.945  15.997 -0.0096  0.0440 -0.0273
 3610SOL    HW122289   4.013   3.978  15.919 -0.5647  1.2241  0.7820
 3610SOL    HW222290   4.044   3.850  15.988  0.6229  0.1090 -1.4922
 3611SOL     OW22291   1.782   3.246   3.719 -0.0488  0.2639  0.2039
 3611SOL    HW122292   1.775   3.318   3.656  2.1254  0.5143  0.2481
 3611SOL    HW222293   1.701   3.203   3.692  1.3547 -0.9946 -2.0466
 3612SOL     OW22294   2.976   3.707   9.488  0.2623  0.0032 -0.3145
 3612SOL    HW122295   2.936   3.667   9.565 -0.3069 -0.1381 -0.6808
 3612SOL    HW222296   2.956   3.800   9.500 -1.6275 -0.5354  0.6827
 3613SOL     OW22297   1.338   4.617   1.035  0.5082 -0.4721 -0.2426
 3613SOL    HW122298   1.432   4.626   1.023  0.4619  0.0579 -0.2125
 3613SOL    HW222299   1.327   4.589   1.126 -2.6190 -1.7954 -1.0068
 3614SOL     OW22300   2.797   1.152   8.025 -0.0285  0.2947  0.1062
 3614SOL    HW122301   2.747   1.185   8.100 -0.6240 -3.4384  1.3391
 3614SOL    HW222302   2.879   1.136   8.071 -0.8163  1.2912  1.8393
 3615SOL     OW22303   2.550   4.422   0.858 -0.1504 -0.0283 -0.6115
 3615SOL    HW122304   2.529   4.497   0.803 -2.9320  0.5849  1.3075
 3615SOL    HW222305   2.478   4.418   0.921 -1.4369 -0.2394 -2.0953
 3616SOL     OW22306   2.243   1.936   2.502 -0.6037  0.0828  0.3267
 3616SOL    HW122307   2.225   1.851   2.462 -0.9474  0.0718  0.5036
 3616SOL    HW222308   2.166   1.951   2.557 -1.5423 -1.2043 -0.6223
 3617SOL     OW22309   3.085   3.118   4.738 -0.0734 -0.1251 -0.3917
 3617SOL    HW122310   2.999   3.098   4.775  0.2397 -1.0269 -0.1493
 3617SOL    HW222311   3.099   3.209   4.767  3.0796 -0.7554  0.0934
 3618SOL     OW22312   4.313   0.771   8.215  0.2556 -0.2754  0.2252
 3618SOL    HW122313   4.302   0.747   8.307 -0.5551 -1.3592 -0.1627
 3618SOL    HW222314   4.399   0.813   8.214  0.4066 -0.6111 -1.1275
 3619SOL     OW22315   3.826   1.558   1.899  0.0585 -0.0608 -0.7306
 3619SOL    HW122316   3.744   1.539   1.854  0.8826 -0.4899 -2.0366
 3619SOL    HW222317   3.807   1.650   1.920  0.0569  0.1439 -1.6194
 3620SOL     OW22318   1.505   3.761   0.587  0.1958  0.6133  0.1045
 3620SOL    HW122319   1.475   3.719   0.668 -0.4386  1.2108  0.1883
 3620SOL    HW222320   1.486   3.697   0.518  1.7449 -0.4105  0.6456
 3621SOL     OW22321   2.582   4.130  14.950 -0.0833 -0.1971  0.5012
 3621SOL    HW122322   2.506   4.115  15.006 -0.0109 -1.3030  0.2961
 3621SOL    HW222323   2.654   4.109  15.010  0.7126  1.4822  0.1471
 3622SOL     OW22324   3.227   4.045  17.464  0.2311 -0.2416  0.0175
 3622SOL    HW122325   3.291   4.083  17.402 -0.5462  0.6166 -0.2519
 3622SOL    HW222326   3.276   4.038  17.546 -1.4005  1.9487  1.1708
 3623SOL     OW22327   0.417   2.410   7.749 -0.3034  0.4077 -0.0593
 3623SOL    HW122328   0.387   2.418   7.658  2.9883 -2.0370 -1.3744
 3623SOL    HW222329   0.332   2.416   7.792  0.1235  2.5062  0.4690
 3624SOL     OW22330   1.151   1.097   4.635  0.2120  0.1572 -0.1995
 3624SOL    HW122331   1.202   1.099   4.554 -2.0999 -2.8573 -1.7239
 3624SOL    HW222332   1.213   1.079   4.706 -0.9027  0.0890  0.7595
 3625SOL     OW22333   0.819   2.021   2.119  0.3419 -0.4456  0.2173
 3625SOL    HW122334   0.831   2.101   2.067  0.6736 -0.3777  0.4001
 3625SOL    HW222335   0.734   2.036   2.159  1.1305  2.5219  0.8047
 3626SOL     OW22336   4.324   3.869  11.303  0.7207 -0.1880 -0.4254
 3626SOL    HW122337   4.366   3.822  11.232  2.2978  1.0959 -0.3405
 3626SOL    HW222338   4.402   3.908  11.343 -0.1866  1.6766 -0.4469
 3627SOL     OW22339   0.769   3.850   0.293 -0.8435 -0.1361  0.6996
 3627SOL    HW122340   0.766   3.905   0.371  2.2711  3.0056 -1.3793
 3627SOL    HW222341   0.795   3.770   0.337 -2.6351 -1.2746 -0.3321
 3628SOL     OW22342   0.310   3.213   9.856  1.2013  0.4436  0.4699
 3628SOL    HW122343   0.302   3.123   9.888 -2.9533  0.9184  0.7434
 3628SOL    HW222344   0.397   3.241   9.885  1.1096 -0.7252  1.8644
 3629SOL     OW22345   4.456   4.080   6.754 -0.0275 -0.0514  0.0657
 3629SOL    HW122346   4.384   4.060   6.815  0.2525 -1.8239 -0.1704
 3629SOL    HW222347   4.432   4.038   6.671 -0.7524  0.8061 -0.1561
 3630SOL     OW22348   3.079   3.041   0.888 -0.0379 -0.2892  0.1841
 3630SOL    HW122349   3.138   2.967   0.903 -0.6170 -1.2353 -2.2499
 3630SOL    HW222350   3.100   3.055   0.796 -2.8985 -0.4839 -0.4826
 3631SOL     OW22351   4.094   2.813   1.567  0.5103 -0.3192 -0.4290
 3631SOL    HW122352   4.183   2.777   1.570  0.3080 -0.7960 -0.0506
 3631SOL    HW222353   4.061   2.748   1.504  0.4861 -0.8363  0.1186
 3632SOL     OW22354   3.565   4.478   3.150  0.1095  0.6244  0.1963
 3632SOL    HW122355   3.484   4.528   3.139 -0.3061  0.1028  0.8332
 3632SOL    HW222356   3.585   4.493   3.242  2.0941  0.0418 -0.1431
 3633SOL     OW22357   2.852   3.195   3.691 -0.3943  0.1539  0.1764
 3633SOL    HW122358   2.907   3.151   3.756 -0.6475  1.1310  1.0404
 3633SOL    HW222359   2.836   3.125   3.627  2.2057 -0.7175  0.4649
 3634SOL     OW22360   1.418   2.617   5.528 -0.2551  0.6452  0.3891
 3634SOL    HW122361   1.442   2.589   5.616  0.4046 -0.4639 -0.1425
 3634SOL    HW222362   1.502   2.593   5.489  0.2905  1.4020  1.1086
 3635SOL     OW22363   0.841   3.427   9.410 -0.3754  0.0720  0.2796
 3635SOL    HW122364   0.805   3.437   9.498 -0.9387 -0.4583  0.1050
 3635SOL    HW222365   0.771   3.458   9.352 -0.6376  2.7673  2.0316
 3636SOL     OW22366   1.292   0.028   0.002 -0.0620  0.1103 -0.5301
 3636SOL    HW122367   1.337   0.065  17.629  1.2235  0.5931  0.4564
 3636SOL    HW222368   1.308   0.099   0.063 -0.9584 -2.0061  2.1563
 3637SOL     OW22369   2.219   1.767   4.177  0.3626  0.1616  0.0095
 3637SOL    HW122370   2.241   1.825   4.103 -4.0065 -0.2922 -1.6100
 3637SOL    HW222371   2.134   1.805   4.197  0.3257  0.0774  0.0086
 3638SOL     OW22372   4.504   3.776  16.064 -0.1436 -0.8446 -0.0778
 3638SOL    HW122373   4.536   3.704  16.120 -0.7719 -0.3936  0.8569
 3638SOL    HW222374   4.546   3.767  15.979 -0.3436  1.0309 -0.3674
 3639SOL     OW22375   3.110   3.599   4.826  0.4886 -0.1409  0.0704
 3639SOL    HW122376   3.107   3.674   4.766  1.5490  0.5119  0.8437
 3639SOL    HW222377   3.114   3.546   4.747  0.3734  0.3681 -0.2826
 3640SOL     OW22378   3.219   2.932   4.913 -0.2334  0.1385 -0.4795
 3640SOL    HW122379   3.231   3.023   4.885  1.4202  0.3895  1.0386
 3640SOL    HW222380   3.299   2.908   4.959 -1.1465 -0.1022  1.0166
 3641SOL     OW22381   3.581   1.671  10.521 -0.3024 -0.0384  0.0651
 3641SOL    HW122382   3.592   1.584  10.561 -0.8802 -0.4037 -0.5749
 3641SOL    HW222383   3.505   1.696  10.574  1.0801 -0.2353  2.1519
 3642SOL     OW22384   1.007   4.183   6.114 -0.4727 -0.0192  0.4601
 3642SOL    HW122385   1.001   4.092   6.144  0.2150 -0.5821 -1.1054
 3642SOL    HW222386   1.100   4.204   6.112 -0.3634 -0.5706 -0.2793
 3643SOL     OW22387   3.775   1.063  11.033  0.4136 -0.2071 -0.0133
 3643SOL    HW122388   3.786   1.126  11.104  0.8823  1.3240 -1.4244
 3643SOL    HW222389   3.801   0.984  11.080  2.9393 -0.5229 -1.8973
 3644SOL     OW22390   3.979   4.005   3.695  0.8262  0.6090 -0.5610
 3644SOL    HW122391   3.985   3.979   3.603  0.1087 -1.5606  0.0104
 3644SOL    HW222392   4.051   3.953   3.731  0.4634 -0.0041 -0.7155
 3645SOL     OW22393   3.852   3.184   2.319  0.4911 -0.3260 -1.3511
 3645SOL    HW122394   3.871   3.166   2.411 -0.2875  0.5692 -1.0144
 3645SOL    HW222395   3.938   3.214   2.289  0.8534  0.6597  0.6780
 3646SOL     OW22396   4.351   2.476   9.175  0.6984  0.0252 -0.2637
 3646SOL    HW122397   4.408   2.452   9.102  3.1784 -0.6590  1.8426
 3646SOL    HW222398   4.384   2.564   9.197 -0.1487  0.2825 -0.0158
 3647SOL     OW22399   3.650   2.295   7.661  0.4986  0.2995  0.2563
 3647SOL    HW122400   3.718   2.299   7.728  1.2161 -0.5638 -0.4228
 3647SOL    HW222401   3.635   2.202   7.642 -1.5389  0.5716  0.5722
 3648SOL     OW22402   3.885   3.804  14.636  0.1923 -0.6142 -0.0359
 3648SOL    HW122403   3.948   3.752  14.586 -0.2512 -1.6434  0.4824
 3648SOL    HW222404   3.914   3.891  14.609 -0.8795 -0.6419 -1.3090
 3649SOL     OW22405   3.475   2.436   2.119 -0.0012 -0.7045 -0.1414
 3649SOL    HW122406   3.542   2.443   2.051 -0.8177  1.0179 -0.7757
 3649SOL    HW222407   3.433   2.357   2.086  1.9691 -1.5478 -0.6413
 3650SOL     OW22408   2.645   3.187   2.176 -0.2321  0.3645  0.1762
 3650SOL    HW122409   2.641   3.260   2.115  0.0735 -1.2347 -1.7370
 3650SOL    HW222410   2.687   3.119   2.123 -1.6009 -1.0506  0.9227
 3651SOL     OW22411   1.095   1.204   0.459 -0.2005  0.1603  0.2820
 3651SOL    HW122412   1.024   1.237   0.514 -2.4284 -0.4905 -2.2188
 3651SOL    HW222413   1.120   1.130   0.513 -2.5688 -0.2995  0.7246
 3652SOL     OW22414   1.953   4.594   6.181  0.2744 -0.3805  0.1688
 3652SOL    HW122415   1.933   4.655   6.110  0.3527  0.7708  1.1350
 3652SOL    HW222416   2.019   4.544   6.134 -0.6656 -0.8170 -0.6997
 3653SOL     OW22417   1.507   3.416   8.707 -0.3724  0.2002 -0.8983
 3653SOL    HW122418   1.544   3.478   8.769 -1.6613 -0.2215  0.2890
 3653SOL    HW222419   1.582   3.365   8.677  0.0156  0.5882 -0.5799
 3654SOL     OW22420   0.318   3.559   4.360 -0.8807  0.6709  0.0139
 3654SOL    HW122421   0.294   3.485   4.416  0.3458  1.3360  1.4182
 3654SOL    HW222422   0.413   3.551   4.349 -0.6465 -0.3130  2.8773
 3655SOL     OW22423   4.661   2.059   4.955  0.0571 -0.1322 -0.1998
 3655SOL    HW122424   4.597   2.004   5.001 -1.8116  0.1251 -2.4742
 3655SOL    HW222425   4.602   2.132   4.937  0.6195 -0.0343 -1.6157
 3656SOL     OW22426   0.005   0.692   5.706  0.1775  0.2902 -0.1567
 3656SOL    HW122427   0.049   0.776   5.691  0.9906 -0.3458 -1.3951
 3656SOL    HW222428   0.082   0.635   5.703  1.7330  2.2494  1.9274
 3657SOL     OW22429   0.426   3.440  13.175 -0.8241 -0.0732 -0.1229
 3657SOL    HW122430   0.449   3.482  13.092  1.5389 -0.1868  0.4635
 3657SOL    HW222431   0.331   3.454  13.181 -0.3422  1.9597  2.9173
 3658SOL     OW22432   4.672   1.638   8.665 -0.2943 -0.4671  0.3891
 3658SOL    HW122433   4.603   1.662   8.603  0.1359 -0.3568 -0.0390
 3658SOL    HW222434   0.010   1.599   8.605 -0.1272 -0.5688  0.6332
 3659SOL     OW22435   2.693   1.369   1.124 -0.2051 -0.2315  0.3821
 3659SOL    HW122436   2.634   1.363   1.048 -0.0185  0.4773  0.1792
 3659SOL    HW222437   2.774   1.411   1.094  0.0243  1.2048  2.9948
 3660SOL     OW22438   0.971   1.490   7.005  0.3500  0.2103  0.3278
 3660SOL    HW122439   1.029   1.456   7.074 -2.2583 -1.1691  1.8302
 3660SOL    HW222440   1.007   1.577   6.988  2.8222 -0.7537  0.6286
 3661SOL     OW22441   4.027   0.059   8.952 -0.3637 -0.0182  0.3944
 3661SOL    HW122442   3.945   0.017   8.976 -2.2528  3.9334  0.7361
 3661SOL    HW222443   4.074   4.713   8.909 -2.2711  1.2154 -3.7936
 3662SOL     OW22444   4.171   4.568   2.183  0.3695 -0.6212 -0.3148
 3662SOL    HW122445   4.236   4.630   2.150  1.8060 -1.1050  1.6137
 3662SOL    HW222446   4.140   4.534   2.099 -1.9483 -0.6129  0.5508
 3663SOL     OW22447   1.103   0.665  13.722  0.4637 -0.5271  0.7443
 3663SOL    HW122448   1.077   0.756  13.734  1.4675 -0.0763 -0.4280
 3663SOL    HW222449   1.155   0.676  13.642  1.1895  1.4200  1.4829
 3664SOL     OW22450   2.143   3.881   3.502  0.0254 -0.0522 -0.1773
 3664SOL    HW122451   2.091   3.802   3.519  0.7680 -0.1699  1.5905
 3664SOL    HW222452   2.208   3.848   3.440 -1.9846 -0.2081 -2.1685
 3665SOL     OW22453   2.566   1.101   9.858  0.1548  0.0673 -0.1429
 3665SOL    HW122454   2.534   1.085   9.769  1.2672 -0.1490 -0.5086
 3665SOL    HW222455   2.638   1.164   9.849 -1.6012  2.4658  2.7494
 3666SOL     OW22456   2.745   0.261   4.772  0.4859 -0.2349 -0.0733
 3666SOL    HW122457   2.824   0.226   4.813  0.0293  0.5783  1.5111
 3666SOL    HW222458   2.788   0.321   4.712  0.4082 -0.1234 -0.0178
 3667SOL     OW22459   2.775   4.309  14.089  0.6608  0.2081  0.3739
 3667SOL    HW122460   2.701   4.354  14.048  2.6795 -0.4713 -4.0274
 3667SOL    HW222461   2.796   4.369  14.161 -1.2949 -1.2717  2.1647
 3668SOL     OW22462   4.288   1.314   8.791 -0.1962  0.3942 -0.1582
 3668SOL    HW122463   4.262   1.404   8.770 -1.6967  0.5765  2.3618
 3668SOL    HW222464   4.383   1.310   8.796 -0.1165  1.3805 -0.9131
 3669SOL     OW22465   4.612   1.155   7.973 -0.8104 -0.1111 -0.7257
 3669SOL    HW122466   4.658   1.202   7.904  0.7451  0.4693  0.7070
 3669SOL    HW222467   4.680   1.094   8.002 -2.3562 -1.0825  0.8891
 3670SOL     OW22468   2.484   1.552   7.144  0.1970 -0.2898  0.0418
 3670SOL    HW122469   2.546   1.480   7.141  1.2286  0.6508 -1.1427
 3670SOL    HW222470   2.446   1.561   7.056 -0.2337 -2.9612 -0.0254
 3671SOL     OW22471   4.488   0.085   3.957 -0.2635 -0.0589  0.0906
 3671SOL    HW122472   4.554   0.043   4.011  1.0574 -0.8042 -2.0949
 3671SOL    HW222473   4.404   0.042   3.970 -0.0129 -0.8747 -0.9425
 3672SOL     OW22474   1.207   4.062   2.877  0.5701  0.1641 -0.0229
 3672SOL    HW122475   1.255   4.100   2.803 -2.2437  0.4656 -1.7184
 3672SOL    HW222476   1.268   3.998   2.915  0.5570  1.5705  2.3138
 3673SOL     OW22477   1.147   2.552   4.561 -0.4086 -0.3400  0.7156
 3673SOL    HW122478   1.164   2.523   4.471 -1.6860  1.1533 -0.0188
 3673SOL    HW222479   1.219   2.615   4.557  0.9051 -1.9392 -1.2042
 3674SOL     OW22480   4.582   4.458   2.544  0.3887 -0.5244  0.0308
 3674SOL    HW122481   4.555   4.430   2.631 -0.1326 -0.4456 -0.1040
 3674SOL    HW222482   4.501   4.447   2.494 -0.7087  1.1636  1.4677
 3675SOL     OW22483   3.174   0.603  16.259  0.3391 -0.2008 -0.2570
 3675SOL    HW122484   3.186   0.563  16.345  0.6987  0.9582  0.2255
 3675SOL    HW222485   3.256   0.651  16.247  0.7768 -0.7878  0.3782
 3676SOL     OW22486   4.610   3.432   1.269 -0.5619  0.5905  0.1669
 3676SOL    HW122487   4.593   3.525   1.282  2.4278  1.2984 -1.0064
 3676SOL    HW222488   4.526   3.410   1.229 -1.1826  1.7554  0.8498
 3677SOL     OW22489   1.385   0.975   3.530  0.0747  0.2747  0.0111
 3677SOL    HW122490   1.336   0.898   3.502 -0.3156  0.0969  1.1825
 3677SOL    HW222491   1.324   1.028   3.581 -2.1437 -1.2934 -1.0270
 3678SOL     OW22492   2.972   2.395   9.964  0.1965  0.4933 -0.4794
 3678SOL    HW122493   2.896   2.340   9.983 -0.0526  0.8774 -0.3707
 3678SOL    HW222494   2.969   2.396   9.868  0.8279 -1.9596 -0.5413
 3679SOL     OW22495   1.877   0.690  10.001  0.1288  0.0618  0.2322
 3679SOL    HW122496   1.964   0.729  10.016  1.1662 -2.1812  0.0209
 3679SOL    HW222497   1.812   0.759  10.016 -2.1187 -1.5758 -2.0175
 3680SOL     OW22498   0.325   1.080   2.454 -0.0978  0.6160 -0.8067
 3680SOL    HW122499   0.282   1.135   2.518  0.4774 -0.1805  0.2636
 3680SOL    HW222500   0.248   1.037   2.417  0.5657 -1.0923 -0.2184
 3681SOL     OW22501   2.866   4.716  16.712 -0.5864  0.4316 -0.5561
 3681SOL    HW122502   2.824   4.717  16.798 -0.1099  0.8583 -0.3279
 3681SOL    HW222503   2.956   0.022  16.726 -0.7789  0.6041  0.2519
 3682SOL     OW22504   0.318   0.829   3.729 -0.6144 -0.7647  0.2510
 3682SOL    HW122505   0.254   0.899   3.742  0.4196  0.0932  0.7302
 3682SOL    HW222506   0.263   0.759   3.694 -0.5357 -2.0677  2.7067
 3683SOL     OW22507   4.160   0.539   9.119 -0.1944 -0.0012 -0.3359
 3683SOL    HW122508   4.209   0.495   9.188 -1.4988  0.0292  0.6286
 3683SOL    HW222509   4.229   0.543   9.053  0.4960 -0.6755  0.3537
 3684SOL     OW22510   3.158   2.445   6.739 -0.3531  0.3658  0.0961
 3684SOL    HW122511   3.128   2.435   6.829 -1.9965  0.9970 -0.3883
 3684SOL    HW222512   3.251   2.467   6.749 -0.9761  1.2250  3.8290
 3685SOL     OW22513   3.970   0.124   4.531  0.3359  0.1227  0.5573
 3685SOL    HW122514   3.965   0.206   4.482  1.9999  1.0247  1.9112
 3685SOL    HW222515   4.040   0.152   4.590  0.0643  1.6379  0.1689
 3686SOL     OW22516   1.269   2.148   9.473 -0.4013 -0.4349 -0.1873
 3686SOL    HW122517   1.219   2.102   9.404  0.5609 -0.7622 -0.6634
 3686SOL    HW222518   1.242   2.091   9.545 -0.0603 -4.1801 -2.9762
 3687SOL     OW22519   0.446   2.502   2.184  0.5920 -0.0025  0.1434
 3687SOL    HW122520   0.485   2.414   2.183 -0.0509 -0.2891  0.5727
 3687SOL    HW222521   0.358   2.492   2.219  0.4947 -0.9111 -0.3425
 3688SOL     OW22522   3.685   2.081   8.768 -0.0045 -0.3783 -0.1303
 3688SOL    HW122523   3.777   2.069   8.743 -0.2205  0.9324 -1.5076
 3688SOL    HW222524   3.701   2.125   8.852  0.7441  0.3737 -0.6615
 3689SOL     OW22525   4.379   2.217   9.839  0.3358  0.0623 -0.1857
 3689SOL    HW122526   4.321   2.293   9.847  0.2490 -0.2548  2.1425
 3689SOL    HW222527   4.347   2.168   9.763  1.3662  1.8921 -1.7983
 3690SOL     OW22528   3.657   1.461   1.275 -0.0230 -0.5213 -0.1558
 3690SOL    HW122529   3.749   1.468   1.300  0.2538 -0.8270 -1.1035
 3690SOL    HW222530   3.636   1.372   1.304 -0.6852 -0.1967  0.3832
 3691SOL     OW22531   2.958   1.615   3.025  0.2187  0.1519 -0.4444
 3691SOL    HW122532   2.937   1.538   3.078 -0.6242 -0.4135 -1.5987
 3691SOL    HW222533   3.036   1.647   3.071 -0.4973  0.1105  0.7757
 3692SOL     OW22534   2.356   0.296  14.461 -0.0916  0.5995 -0.2732
 3692SOL    HW122535   2.410   0.221  14.434  0.0402  0.4891  0.2981
 3692SOL    HW222536   2.340   0.332  14.374  4.9271  0.5301 -1.2338
 3693SOL     OW22537   1.389   3.394   4.352 -0.3784 -0.4013  0.2896
 3693SOL    HW122538   1.408   3.449   4.276  1.3374 -2.0601 -0.4499
 3693SOL    HW222539   1.356   3.458   4.415  1.8858  0.4393  0.6271
 3694SOL     OW22540   2.843   2.494  13.180  0.8306 -0.6321  0.0315
 3694SOL    HW122541   2.813   2.582  13.161 -3.1937 -1.8566  0.6860
 3694SOL    HW222542   2.885   2.510  13.265 -1.3203 -0.4767  1.0476
 3695SOL     OW22543   1.496   1.353  10.543 -0.0368  0.8456  0.3193
 3695SOL    HW122544   1.420   1.409  10.559  0.4884  2.3101 -2.3710
 3695SOL    HW222545   1.452   1.271  10.567  2.4678 -0.9317 -1.2630
 3696SOL     OW22546   0.936   2.280   6.568  0.2084 -0.2279 -0.2248
 3696SOL    HW122547   0.971   2.362   6.605  2.5837  0.9062 -4.9655
 3696SOL    HW222548   1.013   2.227   6.548  1.4778  1.0633  1.2295
 3697SOL     OW22549   0.961   2.368   6.120  0.6628 -0.2129  0.4495
 3697SOL    HW122550   0.904   2.326   6.184 -0.3928  1.0441  0.3393
 3697SOL    HW222551   0.914   2.344   6.040 -0.7725 -1.3170  1.6212
 3698SOL     OW22552   1.599   3.364   3.287 -0.6561 -0.0517 -0.2996
 3698SOL    HW122553   1.580   3.348   3.195 -1.1725 -3.0376  0.3252
 3698SOL    HW222554   1.627   3.455   3.277 -0.8044 -0.0733 -0.8788
 3699SOL     OW22555   0.533   1.929   8.416 -0.0946 -0.0447  0.1719
 3699SOL    HW122556   0.604   1.950   8.477 -0.0479 -0.3712  0.2300
 3699SOL    HW222557   0.585   1.960   8.341  0.4876 -1.3479  0.0286
 3700SOL     OW22558   1.780   1.964   2.238 -0.2516 -0.2419 -0.5385
 3700SOL    HW122559   1.707   1.902   2.234 -2.4211  2.3546 -1.0040
 3700SOL    HW222560   1.808   1.968   2.146 -0.6925  0.8550 -0.6201
 3701SOL     OW22561   0.932   0.925   0.276  0.0463  0.2883 -0.4797
 3701SOL    HW122562   0.870   0.981   0.322 -1.5406 -0.0459 -2.2471
 3701SOL    HW222563   1.001   0.984   0.244  0.2704 -0.2289 -0.9538
 3702SOL     OW22564   0.893   2.265  14.426 -0.0146  0.1267 -0.1214
 3702SOL    HW122565   0.937   2.217  14.496 -1.1321  0.1020  0.5504
 3702SOL    HW222566   0.915   2.351  14.462 -0.8145  0.9238 -1.5523
 3703SOL     OW22567   2.409   3.319   8.297 -0.0870  0.0696 -0.2586
 3703SOL    HW122568   2.358   3.306   8.378 -1.7109 -0.7853 -1.4084
 3703SOL    HW222569   2.370   3.240   8.260  0.1152 -0.6309  1.0070
 3704SOL     OW22570   0.304   2.110   8.326 -0.3980  0.0767  0.5967
 3704SOL    HW122571   0.345   2.025   8.341 -0.6789  0.1485  1.7879
 3704SOL    HW222572   0.328   2.164   8.402 -0.8968  1.4158 -0.1907
 3705SOL     OW22573   0.472   3.169   6.219  0.3167  0.4102 -0.3936
 3705SOL    HW122574   0.542   3.232   6.201  0.3560  0.2959 -0.6414
 3705SOL    HW222575   0.445   3.152   6.129  1.3761  0.9822 -0.8244
 3706SOL     OW22576   4.423   3.374   7.238  0.2434 -0.0567  0.5111
 3706SOL    HW122577   4.516   3.362   7.220  0.3562 -2.1178  2.4254
 3706SOL    HW222578   4.423   3.451   7.294  1.5362  1.1125 -1.1060
 3707SOL     OW22579   3.535   1.605   4.430  0.1906  0.1869 -0.2298
 3707SOL    HW122580   3.621   1.587   4.392  0.4069 -0.4025  0.5280
 3707SOL    HW222581   3.490   1.521   4.419  0.1224  0.1001  0.6621
 3708SOL     OW22582   3.813   0.152  14.046 -0.0467  0.1336 -0.2408
 3708SOL    HW122583   3.781   0.148  13.955 -1.6991 -1.5304  0.4116
 3708SOL    HW222584   3.853   0.066  14.057  0.0867  0.3409  0.8831
 3709SOL     OW22585   0.650   3.209   9.713  0.2162 -0.3959  0.6323
 3709SOL    HW122586   0.603   3.210   9.797 -0.7893  0.9653  0.0343
 3709SOL    HW222587   0.586   3.165   9.657  0.8221 -0.2380 -0.1786
 3710SOL     OW22588   3.175   1.483   8.154 -0.0234  0.1363  0.2670
 3710SOL    HW122589   3.241   1.440   8.208  0.1643  1.9659  1.4802
 3710SOL    HW222590   3.104   1.480   8.219 -1.5664  2.7981 -1.3083
 3711SOL     OW22591   1.754   1.986   5.225  0.2159  0.5266  0.1197
 3711SOL    HW122592   1.678   2.030   5.262  0.4093  1.8853 -1.0883
 3711SOL    HW222593   1.705   1.952   5.150  0.0189 -0.3563  0.6466
 3712SOL     OW22594   2.978   3.225  14.779 -0.0468  0.5408  0.3234
 3712SOL    HW122595   3.014   3.314  14.779  1.5901 -0.1239 -0.1181
 3712SOL    HW222596   3.051   3.167  14.758 -1.4673 -1.4014  0.7730
 3713SOL     OW22597   3.344   3.376   5.540  0.0730  0.0052 -0.7979
 3713SOL    HW122598   3.320   3.420   5.458  2.4359  0.0960 -1.4385
 3713SOL    HW222599   3.351   3.457   5.591 -1.0808 -0.3798 -0.0266
 3714SOL     OW22600   3.246   3.794   5.469  0.2174 -0.4201  0.3059
 3714SOL    HW122601   3.246   3.818   5.376  1.0070  0.4308  0.5368
 3714SOL    HW222602   3.204   3.871   5.507  4.5192  2.2673 -0.4144
 3715SOL     OW22603   0.191   2.587   9.205 -0.2203 -0.5530 -0.2259
 3715SOL    HW122604   0.274   2.547   9.235  0.0653  0.7580  0.7116
 3715SOL    HW222605   0.219   2.677   9.193 -0.9393 -0.1055  1.4629
 3716SOL     OW22606   1.371   3.322  12.926  0.5638  0.4827 -0.1434
 3716SOL    HW122607   1.466   3.336  12.935  0.5136  1.7402 -1.5230
 3716SOL    HW222608   1.371   3.243  12.872  4.0437  1.4438 -1.5811
 3717SOL     OW22609   4.566   3.859  17.017  0.0832  0.4914 -0.3077
 3717SOL    HW122610   4.625   3.784  17.029 -1.7471 -0.2365  3.9065
 3717SOL    HW222611   4.476   3.830  17.028  0.4061 -1.1363 -1.9323
 3718SOL     OW22612   2.848   3.672   5.869  0.6752  0.0305 -0.2090
 3718SOL    HW122613   2.783   3.622   5.820  0.7601  0.4749 -0.7779
 3718SOL    HW222614   2.796   3.753   5.869  0.2733 -0.2267  2.0521
 3719SOL     OW22615   4.249   0.687   7.518  0.2700  0.2778 -0.7405
 3719SOL    HW122616   4.214   0.774   7.537  1.7469  0.7610 -0.3000
 3719SOL    HW222617   4.264   0.642   7.601  1.2729  0.0092 -1.0716
 3720SOL     OW22618   1.712   0.872  14.857 -0.0965 -0.4742 -0.5348
 3720SOL    HW122619   1.735   0.785  14.823 -1.6227  0.2620 -3.5190
 3720SOL    HW222620   1.798   0.912  14.868 -0.8832  1.3281 -0.9404
 3721SOL     OW22621   2.635   4.505  13.902  0.0103 -0.4316  0.3695
 3721SOL    HW122622   2.586   4.451  13.839  0.9783 -2.1572  1.1192
 3721SOL    HW222623   2.711   4.520  13.845  0.3618 -0.6322  0.7883
 3722SOL     OW22624   0.410   1.405   6.587  0.0057  0.2579  0.0203
 3722SOL    HW122625   0.444   1.383   6.674  0.4530  0.9333  0.0206
 3722SOL    HW222626   0.427   1.499   6.582  3.3221 -0.3065  0.4363
 3723SOL     OW22627   4.002   1.804   3.948 -0.7303 -0.1894 -0.5180
 3723SOL    HW122628   4.084   1.844   3.979 -1.7608  1.1862  0.4328
 3723SOL    HW222629   4.008   1.803   3.853 -2.0884  0.1878 -0.6089
 3724SOL     OW22630   1.559   3.105   2.581  0.4084  0.0118 -0.4478
 3724SOL    HW122631   1.630   3.147   2.532 -1.1460  1.9995 -1.0083
 3724SOL    HW222632   1.578   3.011   2.584 -0.9346 -0.2121  1.3627
 3725SOL     OW22633   2.909   0.163   6.669 -0.4997 -0.2192  0.8755
 3725SOL    HW122634   2.991   0.171   6.621 -1.1583 -0.3601 -0.2807
 3725SOL    HW222635   2.949   0.192   6.751  1.0926  0.8084 -0.2729
 3726SOL     OW22636   3.904   0.785  11.528 -0.3656  0.3289  0.0820
 3726SOL    HW122637   3.956   0.779  11.448 -2.1440  3.0314 -1.2623
 3726SOL    HW222638   3.858   0.869  11.518 -0.3666  0.1428 -1.4219
 3727SOL     OW22639   0.545   3.361   7.166 -0.0671 -0.1274  0.4098
 3727SOL    HW122640   0.616   3.424   7.152  1.1561 -2.6710 -4.5863
 3727SOL    HW222641   0.516   3.378   7.256 -0.3171  0.4498  0.2240
 3728SOL     OW22642   4.117   2.641   3.686 -0.0748  0.0589  0.2006
 3728SOL    HW122643   4.023   2.624   3.679 -0.3954  2.1210 -0.2961
 3728SOL    HW222644   4.120   2.730   3.652 -0.7371 -1.1705 -3.0484
 3729SOL     OW22645   0.869   3.516   8.326 -0.0432  0.3030  0.2784
 3729SOL    HW122646   0.863   3.501   8.231 -1.7840  3.1724 -0.0620
 3729SOL    HW222647   0.913   3.601   8.325 -1.1340  0.8639 -1.3128
 3730SOL     OW22648   4.415   0.429   4.301  0.7569 -0.2304  0.0131
 3730SOL    HW122649   4.488   0.490   4.312  1.5259 -1.4760  1.6276
 3730SOL    HW222650   4.425   0.399   4.210 -2.0402  0.7642 -0.6479
 3731SOL     OW22651   3.636   0.066   8.287  0.0519 -0.1827 -0.2180
 3731SOL    HW122652   3.677   0.021   8.213 -0.4674 -2.0654  0.6440
 3731SOL    HW222653   3.688   0.039   8.363 -2.2429 -2.2340  0.5845
 3732SOL     OW22654   3.228   1.003   4.704 -0.7327 -0.0666  0.3791
 3732SOL    HW122655   3.207   1.026   4.794 -1.3834 -1.4672  0.5786
 3732SOL    HW222656   3.202   1.082   4.657  1.1156  1.4460  1.9040
 3733SOL     OW22657   0.980   1.924   6.210  0.1801  0.1340 -0.6648
 3733SOL    HW122658   1.009   1.905   6.299  0.9999 -1.5156 -1.2850
 3733SOL    HW222659   0.917   1.995   6.220 -3.3014 -3.1371  0.5301
 3734SOL     OW22660   2.389   2.672   7.736  0.3010  0.0366  0.4011
 3734SOL    HW122661   2.389   2.707   7.825 -0.5840  2.3625 -0.5047
 3734SOL    HW222662   2.480   2.659   7.710  0.0122  0.3415 -0.7714
 3735SOL     OW22663   4.069   3.685   0.651 -0.1284 -0.4660  0.1580
 3735SOL    HW122664   4.095   3.770   0.687  1.0587 -0.5742 -0.4521
 3735SOL    HW222665   4.103   3.622   0.715 -1.2818 -1.7316 -0.4648
 3736SOL     OW22666   2.825   2.937  15.337  0.0635 -0.5282  0.3104
 3736SOL    HW122667   2.814   3.008  15.400  0.1164 -0.3222  0.0833
 3736SOL    HW222668   2.747   2.883  15.353 -0.6455 -0.1179 -1.8055
 3737SOL     OW22669   0.202   3.040   2.759  0.4469  0.1683  0.0019
 3737SOL    HW122670   0.127   2.982   2.745 -0.8830  2.3556 -2.1089
 3737SOL    HW222671   0.187   3.090   2.678  4.7341  2.2910  0.5013
 3738SOL     OW22672   0.699   2.257  15.272 -0.4332  0.2202 -0.1654
 3738SOL    HW122673   0.688   2.332  15.331  1.2061 -0.3877  0.9093
 3738SOL    HW222674   0.610   2.224  15.265 -0.0460 -1.0780  1.0389
 3739SOL     OW22675   0.654   0.369   5.439  0.6974 -0.2157 -0.1558
 3739SOL    HW122676   0.749   0.375   5.438  0.5876  1.6831  1.5976
 3739SOL    HW222677   0.617   0.457   5.433  1.0302 -0.1081 -0.6037
 3740SOL     OW22678   1.340   3.851   2.992  0.1533 -0.0418 -0.0188
 3740SOL    HW122679   1.422   3.802   3.000 -0.4860 -1.1195 -0.1577
 3740SOL    HW222680   1.307   3.850   3.082  2.1624 -0.3003  0.7223
 3741SOL     OW22681   2.833   2.718   5.520  0.1426 -0.2395 -0.1873
 3741SOL    HW122682   2.781   2.645   5.554 -0.4771 -0.2381 -1.1481
 3741SOL    HW222683   2.806   2.796   5.569 -0.4385 -1.5198  1.5368
 3742SOL     OW22684   2.874   1.560   1.061  0.6738 -0.3056 -0.4200
 3742SOL    HW122685   2.928   1.619   1.008 -2.1071  2.9392  0.3739
 3742SOL    HW222686   2.788   1.590   1.032  0.5152  1.1597  1.5178
 3743SOL     OW22687   2.874   0.843  16.237 -0.3169 -0.2803 -0.0190
 3743SOL    HW122688   2.929   0.912  16.201 -0.8779  2.3326  4.0499
 3743SOL    HW222689   2.864   0.874  16.328 -0.0283 -0.2372 -0.0043
 3744SOL     OW22690   1.218   1.198   8.834  0.7848 -0.2572  0.1601
 3744SOL    HW122691   1.293   1.225   8.887  1.1097  0.0894 -0.4833
 3744SOL    HW222692   1.165   1.149   8.897  0.5442  1.3064  1.1778
 3745SOL     OW22693   1.040   3.228   8.711 -0.1020  0.2662  0.6064
 3745SOL    HW122694   1.021   3.292   8.642 -1.5192 -2.9585 -2.0304
 3745SOL    HW222695   0.952   3.212   8.745  1.1020 -2.7700  2.3461
 3746SOL     OW22696   1.590   3.880   4.890 -0.1206  0.3258 -0.2404
 3746SOL    HW122697   1.518   3.942   4.891 -1.2292 -0.9085 -2.3561
 3746SOL    HW222698   1.560   3.801   4.935  2.1476 -0.2060  0.3309
 3747SOL     OW22699   3.541   1.687   2.441  0.7040  0.0381 -0.3346
 3747SOL    HW122700   3.447   1.701   2.457  0.5383  0.8334 -1.9698
 3747SOL    HW222701   3.538   1.612   2.381  0.2693  0.0680 -0.3525
 3748SOL     OW22702   0.614   1.449   5.549  0.0729  0.1097 -0.2279
 3748SOL    HW122703   0.690   1.507   5.539 -0.0083  0.7617  3.0605
 3748SOL    HW222704   0.640   1.398   5.626 -0.3719  1.4340  0.7769
 3749SOL     OW22705   0.837   1.830  17.617 -0.0762  0.0372  0.3816
 3749SOL    HW122706   0.857   1.913  17.574 -1.1793  0.7392  1.2044
 3749SOL    HW222707   0.922   1.811  17.656  1.5021  0.0952 -3.0146
 3750SOL     OW22708   0.640   1.686   4.726 -0.0501 -0.2166 -0.1175
 3750SOL    HW122709   0.582   1.619   4.690 -0.7203 -0.5923  1.6696
 3750SOL    HW222710   0.596   1.699   4.810  1.7537 -2.2663  1.1277
 3751SOL     OW22711   3.857   0.845  11.177 -0.4065 -0.3221 -0.1711
 3751SOL    HW122712   3.815   0.767  11.215  1.5068 -0.3753  1.8222
 3751SOL    HW222713   3.939   0.843  11.226  0.4371 -1.5354 -1.6336
 3752SOL     OW22714   0.716   3.978   0.995  0.0538  0.1658 -0.5598
 3752SOL    HW122715   0.806   3.956   1.022 -1.2813 -2.0783  2.1121
 3752SOL    HW222716   0.672   3.940   1.071  2.1333 -5.1857 -2.0499
 3753SOL     OW22717   0.011   3.782   5.393 -0.2322  0.1229  0.0842
 3753SOL    HW122718   0.061   3.840   5.335 -1.2514  1.0355  0.1181
 3753SOL    HW222719   0.031   3.694   5.361  0.8148  1.1744 -2.1561
 3754SOL     OW22720   4.574   0.529   1.547 -0.4121  0.7492 -0.6107
 3754SOL    HW122721   4.541   0.611   1.510 -0.0493  1.3694  0.4176
 3754SOL    HW222722   4.626   0.503   1.471 -0.8642 -2.6085  0.2515
 3755SOL     OW22723   1.721   1.199  13.530  0.7427  0.4600  0.0012
 3755SOL    HW122724   1.741   1.291  13.542 -0.4682  1.0386 -2.3976
 3755SOL    HW222725   1.686   1.198  13.441 -2.8564 -1.0937  1.4378
 3756SOL     OW22726   4.367   4.134   5.654  0.1639  0.2012  0.2507
 3756SOL    HW122727   4.346   4.124   5.747  1.5097 -0.8178  0.4504
 3756SOL    HW222728   4.276   4.130   5.624 -0.2284 -0.2307  1.4909
 3757SOL     OW22729   3.442   3.748   6.754  0.3738 -0.2188 -0.0909
 3757SOL    HW122730   3.471   3.689   6.684  2.2594 -0.4796  0.9282
 3757SOL    HW222731   3.346   3.745   6.748  0.4214 -0.4606 -0.7552
 3758SOL     OW22732   0.314   3.735  12.161  0.0423  0.2737  0.3761
 3758SOL    HW122733   0.291   3.790  12.087 -0.1584  1.9881  1.7179
 3758SOL    HW222734   0.303   3.799  12.232  1.8082  0.0068  0.8929
 3759SOL     OW22735   0.967   3.247   9.035  0.1386  0.0934 -0.3134
 3759SOL    HW122736   0.882   3.247   9.081  0.1448  1.9918 -0.3238
 3759SOL    HW222737   1.039   3.236   9.098  1.6966  0.1403 -2.1115
 3760SOL     OW22738   2.232   4.711   2.704 -0.3131  0.4632  0.7587
 3760SOL    HW122739   2.291   4.641   2.676  0.8173  1.1435  1.4182
 3760SOL    HW222740   2.168   4.697   2.634 -0.1295  3.2669  0.0438
 3761SOL     OW22741   2.334   3.306   6.974  0.0222  0.5855 -0.0491
 3761SOL    HW122742   2.413   3.324   6.922 -0.1545  1.3887 -0.0295
 3761SOL    HW222743   2.359   3.341   7.060 -4.1219 -1.4470  1.9553
 3762SOL     OW22744   0.022   3.804   0.785 -0.2353 -0.2595  0.5047
 3762SOL    HW122745   0.016   3.710   0.771  2.1770 -0.5920  1.8243
 3762SOL    HW222746   0.115   3.825   0.787 -0.9158  3.0689 -1.4053
 3763SOL     OW22747   4.083   2.584   4.336  0.3239  0.6646  0.1041
 3763SOL    HW122748   4.019   2.624   4.276 -0.6841 -0.9898  0.0913
 3763SOL    HW222749   4.067   2.646   4.407 -2.5921 -0.3088  0.2844
 3764SOL     OW22750   0.784   1.742   3.768 -0.1413 -0.1840  0.0627
 3764SOL    HW122751   0.717   1.808   3.785 -0.2036 -0.0479 -0.6962
 3764SOL    HW222752   0.773   1.672   3.832 -0.2200 -2.4444 -2.4046
 3765SOL     OW22753   0.671   3.148   6.529  0.4275  0.1384 -0.0998
 3765SOL    HW122754   0.736   3.078   6.525 -0.8899 -1.1172  0.3188
 3765SOL    HW222755   0.717   3.216   6.578  1.9171 -2.1143  1.6803
 3766SOL     OW22756   0.783   1.691   8.231 -0.0465  0.1349 -0.3313
 3766SOL    HW122757   0.793   1.739   8.149 -1.3145  0.2343 -0.4201
 3766SOL    HW222758   0.829   1.747   8.293 -0.4311 -1.1451  1.1231
 3767SOL     OW22759   3.824   0.917   0.627 -0.4350 -0.0475  0.1807
 3767SOL    HW122760   3.833   0.821   0.622  2.7764  0.2292  0.6471
 3767SOL    HW222761   3.894   0.938   0.688  0.1696 -3.2048  0.5865
 3768SOL     OW22762   2.255   2.468   4.600  0.2719  0.3186 -0.0414
 3768SOL    HW122763   2.327   2.433   4.652 -0.6132 -2.0909 -0.4402
 3768SOL    HW222764   2.298   2.546   4.565  0.4051  0.0423 -0.5096
 3769SOL     OW22765   2.587   0.544   9.188 -0.6183  0.0034 -0.1284
 3769SOL    HW122766   2.562   0.505   9.272  1.6443  2.8706  1.8598
 3769SOL    HW222767   2.682   0.538   9.189 -0.5595  1.0208  0.5594
 3770SOL     OW22768   2.644   2.949   6.751 -0.0141  0.5442 -0.2123
 3770SOL    HW122769   2.653   2.854   6.757 -0.7803  0.5963  1.7185
 3770SOL    HW222770   2.675   2.975   6.838  1.8231 -3.5749  0.3523
 3771SOL     OW22771   4.092   0.214   8.599 -0.0723  0.0447  0.1674
 3771SOL    HW122772   4.035   0.269   8.652  0.5721  1.0080 -0.1410
 3771SOL    HW222773   4.096   0.264   8.518  1.9020 -0.3777  0.0070
 3772SOL     OW22774   1.088   2.409   4.879  0.3454 -0.3391  0.0754
 3772SOL    HW122775   1.183   2.402   4.882  0.4304  1.4792  1.5385
 3772SOL    HW222776   1.077   2.501   4.855 -1.4003 -0.6758 -0.4929
 3773SOL     OW22777   4.370   3.161  12.408 -0.3879  0.8518 -0.3203
 3773SOL    HW122778   4.451   3.202  12.439  0.0659  1.6140 -2.5284
 3773SOL    HW222779   4.314   3.164  12.486  2.4474 -0.8159  1.7735
 3774SOL     OW22780   4.637   3.275   4.338 -0.4758  0.4731 -0.0789
 3774SOL    HW122781   4.677   3.312   4.259 -2.3009 -0.1977 -1.3087
 3774SOL    HW222782   4.557   3.231   4.309  1.9904 -2.9358 -1.7010
 3775SOL     OW22783   1.153   3.753   5.984  0.0012 -0.1984 -0.5585
 3775SOL    HW122784   1.216   3.710   6.042 -0.6770  0.1321  0.4196
 3775SOL    HW222785   1.201   3.833   5.967 -0.0522 -0.1679 -0.5674
 3776SOL     OW22786   3.728   2.999   4.931 -0.1597  0.4898 -0.2223
 3776SOL    HW122787   3.712   2.914   4.891 -2.3243  0.3450  0.9114
 3776SOL    HW222788   3.651   3.000   4.989  0.1263 -0.4761  0.1653
 3777SOL     OW22789   0.449   0.055   6.210 -0.2396 -0.1459  0.1435
 3777SOL    HW122790   0.390   0.030   6.139 -0.0821 -2.6469  0.8670
 3777SOL    HW222791   0.419   0.144   6.227  0.2322  0.0589 -0.1046
 3778SOL     OW22792   3.938   4.634  13.989  0.6185  0.5010 -0.3725
 3778SOL    HW122793   3.895   4.548  13.980  1.0833  0.2230  0.0590
 3778SOL    HW222794   3.926   4.670  13.901 -2.1084 -1.7594 -0.9453
 3779SOL     OW22795   3.786   3.347   2.746  0.4623  0.1003  0.8683
 3779SOL    HW122796   3.795   3.435   2.783 -0.5916  0.2156  0.8491
 3779SOL    HW222797   3.712   3.368   2.690  2.4985  1.1668 -1.4120
 3780SOL     OW22798   1.244   4.008  15.365 -0.3520 -0.2158  0.5778
 3780SOL    HW122799   1.185   3.946  15.322  1.0301 -0.9446 -0.2820
 3780SOL    HW222800   1.250   3.964  15.449 -0.4731  1.2139  1.3310
 3781SOL     OW22801   0.357   0.125   0.372 -0.1629  0.0304  0.4187
 3781SOL    HW122802   0.314   0.189   0.429 -0.0057 -0.2846  0.8896
 3781SOL    HW222803   0.427   0.180   0.338 -0.2300 -0.3686 -0.3710
 3782SOL     OW22804   3.160   2.134   7.849 -0.2390 -0.5197 -0.4182
 3782SOL    HW122805   3.136   2.079   7.924  0.1569 -0.5007 -0.2769
 3782SOL    HW222806   3.093   2.201   7.841 -0.2755 -0.5969 -0.7474
 3783SOL     OW22807   3.715   2.652   6.575 -0.4661  0.4496 -0.7158
 3783SOL    HW122808   3.701   2.566   6.534  0.9594 -0.5326  0.8569
 3783SOL    HW222809   3.664   2.710   6.519 -2.2504  0.3669  0.8214
 3784SOL     OW22810   2.010   3.566   4.810  0.2543  0.2590  0.7565
 3784SOL    HW122811   1.916   3.551   4.813  0.7641 -3.0276  0.4675
 3784SOL    HW222812   2.019   3.621   4.888 -1.3528 -2.2525  2.7104
 3785SOL     OW22813   3.930   3.350   7.698  0.0229 -0.3298  0.0281
 3785SOL    HW122814   4.024   3.348   7.718 -0.1658 -0.4439  0.8853
 3785SOL    HW222815   3.890   3.360   7.784  0.0632 -1.2927  0.1591
 3786SOL     OW22816   0.206   1.174   4.148  0.0441 -0.1005  0.0667
 3786SOL    HW122817   0.127   1.121   4.143  0.1385 -0.4936  3.0578
 3786SOL    HW222818   0.189   1.235   4.220  2.3512 -1.0251  1.4186
 3787SOL     OW22819   0.544   4.012  10.153 -0.7257  0.0197 -0.2336
 3787SOL    HW122820   0.593   4.041  10.076  1.0197  0.6910  1.1168
 3787SOL    HW222821   0.466   4.066  10.159  0.3327  1.4349  0.6858
 3788SOL     OW22822   1.965   1.403   7.288 -0.0753  0.5026  0.2648
 3788SOL    HW122823   2.025   1.438   7.222 -1.3363  1.6892 -0.2701
 3788SOL    HW222824   1.953   1.475   7.350  1.6935 -1.0557  2.3893
 3789SOL     OW22825   0.010   3.922  12.090 -0.6228  0.4862 -0.0085
 3789SOL    HW122826   0.038   4.006  12.127  1.7981 -0.0698 -0.5691
 3789SOL    HW222827   0.072   3.933  12.018  0.3362 -2.0750  0.4123
 3790SOL     OW22828   3.174   2.597   5.809 -0.5443 -0.0430 -0.5888
 3790SOL    HW122829   3.211   2.637   5.730 -1.1424 -1.0297 -1.3629
 3790SOL    HW222830   3.098   2.556   5.768 -0.7602  0.0008 -0.2377
 3791SOL     OW22831   0.590   2.489  11.638 -0.8556 -0.2539 -0.3237
 3791SOL    HW122832   0.502   2.465  11.608 -2.8217  4.5105  1.5273
 3791SOL    HW222833   0.618   2.521  11.553  0.5330 -2.2777 -0.6174
 3792SOL     OW22834   2.736   2.393   3.124 -0.3751  0.2364 -0.0882
 3792SOL    HW122835   2.654   2.361   3.160 -1.0280  2.0527  0.0350
 3792SOL    HW222836   2.737   2.485   3.150  0.8832  0.4013 -0.7339
 3793SOL     OW22837   3.660   1.104   0.176 -0.1931  0.1926 -0.6069
 3793SOL    HW122838   3.716   1.072   0.246 -3.4337 -1.7735  1.0912
 3793SOL    HW222839   3.645   1.198   0.189 -1.2536  0.2044 -1.8524
 3794SOL     OW22840   3.263   3.501   5.969 -0.1496 -0.3134 -0.1998
 3794SOL    HW122841   3.354   3.484   5.946  0.1166  1.1843 -0.2645
 3794SOL    HW222842   3.275   3.556   6.047  0.1240 -0.9788  0.2245
 3795SOL     OW22843   3.120   1.436   3.903 -0.0593  0.5730  0.4063
 3795SOL    HW122844   3.090   1.461   3.991  2.4855 -0.6833  1.6384
 3795SOL    HW222845   3.190   1.501   3.895 -1.2545  1.6176 -1.6401
 3796SOL     OW22846   0.978   3.266   5.055 -0.5184  0.0294  0.6074
 3796SOL    HW122847   1.058   3.270   5.107  1.1448  1.4100 -2.0167
 3796SOL    HW222848   0.951   3.175   5.065  1.6076 -0.3669  2.5751
 3797SOL     OW22849   3.571   0.858   8.436 -0.1268 -0.1697 -0.1170
 3797SOL    HW122850   3.587   0.794   8.505 -2.0261 -1.0447 -0.4974
 3797SOL    HW222851   3.479   0.867   8.461 -0.0611 -0.5026  0.2398
 3798SOL     OW22852   1.665   1.209  13.261  0.0719 -0.2776 -0.3074
 3798SOL    HW122853   1.731   1.251  13.206  2.1355 -1.4173  1.2786
 3798SOL    HW222854   1.593   1.192  13.200 -0.0366 -0.6501 -0.0785
 3799SOL     OW22855   2.330   4.042   4.608 -0.0785 -0.5616 -0.1359
 3799SOL    HW122856   2.282   3.974   4.655 -1.2586  0.3568 -0.0002
 3799SOL    HW222857   2.315   4.024   4.515  2.1830  0.8457 -0.7622
 3800SOL     OW22858   1.221   4.401   1.717 -0.0855  0.3052 -0.1222
 3800SOL    HW122859   1.221   4.486   1.672 -0.5268  1.2203  1.6082
 3800SOL    HW222860   1.136   4.363   1.698 -0.2413 -0.0708  1.3185
 3801SOL     OW22861   4.288   2.616   6.858 -0.4236 -0.6134  0.1668
 3801SOL    HW122862   4.207   2.668   6.860 -0.0148  0.0534 -0.5584
 3801SOL    HW222863   4.254   2.532   6.890 -1.7843  0.7264  2.2649
 3802SOL     OW22864   2.680   0.170   6.848 -0.5040  0.1357  0.5556
 3802SOL    HW122865   2.717   0.258   6.858  1.1083 -0.2084 -2.3202
 3802SOL    HW222866   2.728   0.147   6.768  1.5993  1.6981  1.3404
 3803SOL     OW22867   4.722   1.872  11.210  0.6018 -0.0805  0.1179
 3803SOL    HW122868   0.088   1.899  11.200  0.7175 -1.7645 -3.1304
 3803SOL    HW222869   4.706   1.908  11.298 -2.1805  0.1429 -0.4895
 3804SOL     OW22870   2.102   2.385   7.230  0.0623 -0.1715  0.3873
 3804SOL    HW122871   2.083   2.431   7.148  0.5603 -1.0514 -0.2161
 3804SOL    HW222872   2.091   2.455   7.294  1.1573 -0.3017  0.7096
 3805SOL     OW22873   4.627   3.925   4.385  0.3799  0.4351 -0.5785
 3805SOL    HW122874   4.669   3.922   4.299  1.6654 -1.8629  0.1326
 3805SOL    HW222875   4.569   3.849   4.375 -0.0633  0.6417  0.4046
 3806SOL     OW22876   2.868   1.622  13.484  0.4733  0.2332 -0.1610
 3806SOL    HW122877   2.854   1.675  13.406 -0.6376  1.0848  0.6185
 3806SOL    HW222878   2.779   1.591  13.500  0.1774  1.2148  0.0787
 3807SOL     OW22879   0.079   3.734  17.672  0.1835  0.1147 -0.4783
 3807SOL    HW122880   0.091   3.822   0.004 -2.8383  0.9776 -1.5968
 3807SOL    HW222881   0.160   3.691  17.699 -0.6821 -1.6501 -0.6281
 3808SOL     OW22882   0.051   3.622   7.984  0.7542  0.2552  0.2249
 3808SOL    HW122883   0.011   3.637   7.898 -1.6073 -0.9126  1.1178
 3808SOL    HW222884   0.139   3.657   7.975  0.4374  0.5862 -1.6080
 3809SOL     OW22885   2.249   3.986   4.346 -0.3117  0.1552 -0.4679
 3809SOL    HW122886   2.257   4.054   4.279  0.0573  0.4203 -0.1559
 3809SOL    HW222887   2.179   3.932   4.311  0.3566 -2.5158  2.2304
 3810SOL     OW22888   2.961   1.105   7.431  0.2379  0.1883 -0.1202
 3810SOL    HW122889   2.874   1.102   7.391 -1.0260 -0.0229  2.6356
 3810SOL    HW222890   2.963   1.021   7.477 -2.9721 -0.0425 -0.3561
 3811SOL     OW22891   2.186   3.673   6.468 -0.4470 -0.8941 -0.5897
 3811SOL    HW122892   2.119   3.647   6.532  0.8598  0.9705  1.5357
 3811SOL    HW222893   2.164   3.765   6.459  1.4159 -0.3811  0.1311
 3812SOL     OW22894   3.759   2.150   5.383 -0.6054 -0.2024  0.3540
 3812SOL    HW122895   3.782   2.073   5.331  0.4809 -0.1139  0.7033
 3812SOL    HW222896   3.696   2.120   5.448 -1.4975  4.7141  1.7739
 3813SOL     OW22897   0.920   1.689   4.734 -0.2085  0.1239  0.0618
 3813SOL    HW122898   0.914   1.601   4.771 -2.9432 -0.4682 -1.7335
 3813SOL    HW222899   0.826   1.705   4.723 -0.0967 -0.4917 -1.8142
 3814SOL     OW22900   1.414   3.297  13.199 -0.0189 -0.7377 -0.0907
 3814SOL    HW122901   1.352   3.235  13.236 -0.2128 -2.4641 -3.2799
 3814SOL    HW222902   1.366   3.310  13.116  0.8232  1.1780 -0.2874
 3815SOL     OW22903   3.517   2.848   9.150  0.0316 -0.0570  0.1679
 3815SOL    HW122904   3.460   2.809   9.216 -1.5838 -0.8675 -1.7134
 3815SOL    HW222905   3.509   2.788   9.076  0.1731  0.4526 -0.2629
 3816SOL     OW22906   0.415   0.901   6.035  0.2080 -0.4476  0.1474
 3816SOL    HW122907   0.491   0.956   6.051  0.2242 -0.9301  1.6836
 3816SOL    HW222908   0.451   0.859   5.957  0.0759 -0.3571  0.0367
 3817SOL     OW22909   2.905   2.034   8.298 -0.4603  0.1250  0.3865
 3817SOL    HW122910   2.902   2.130   8.298  1.4570  0.1930  1.5189
 3817SOL    HW222911   2.966   2.011   8.368  1.2749  0.1964 -1.0814
 3818SOL     OW22912   1.629   1.105   8.679  0.3122 -0.7724 -0.3695
 3818SOL    HW122913   1.709   1.156   8.687 -0.1547 -0.0498 -0.3246
 3818SOL    HW222914   1.594   1.120   8.767 -0.1846 -1.7264 -0.4022
 3819SOL     OW22915   2.193   4.405  16.882  0.1790 -0.1997 -0.4309
 3819SOL    HW122916   2.201   4.316  16.917 -0.9212 -0.0970  0.0826
 3819SOL    HW222917   2.114   4.424  16.932 -0.5423 -2.0169 -0.8937
 3820SOL     OW22918   0.141   1.786  12.431 -0.0409  0.5854 -0.3708
 3820SOL    HW122919   0.047   1.784  12.450  0.3627 -1.1677  1.5581
 3820SOL    HW222920   0.159   1.697  12.399  1.7701  0.1919  1.6693
 3821SOL     OW22921   0.061   4.366  17.387  0.6503 -0.0536 -0.0891
 3821SOL    HW122922   0.040   4.363  17.481 -1.5093 -1.2710 -0.5958
 3821SOL    HW222923   0.123   4.293  17.379 -1.8035 -2.1690  0.1103
 3822SOL     OW22924   1.745   1.021   8.262  0.5711 -0.2508  0.0373
 3822SOL    HW122925   1.829   1.017   8.308  1.0737  2.6211 -0.6099
 3822SOL    HW222926   1.706   0.939   8.292  1.0501 -0.4356  0.1595
 3823SOL     OW22927   2.645   3.718  14.833  0.3829  0.2167  0.3544
 3823SOL    HW122928   2.558   3.750  14.811 -0.4102 -0.6875  2.2279
 3823SOL    HW222929   2.659   3.639  14.781  0.9216 -0.5775  1.7021
 3824SOL     OW22930   4.607   1.485  12.952  0.6173  0.3684  0.1624
 3824SOL    HW122931   4.695   1.524  12.954 -0.4812  2.9405 -1.7733
 3824SOL    HW222932   4.630   1.405  12.904 -0.7339 -0.7029  1.3249
 3825SOL     OW22933   2.026   3.324   2.370  0.0352 -0.2880 -0.1366
 3825SOL    HW122934   2.072   3.303   2.452 -0.0656  3.6158  0.9718
 3825SOL    HW222935   2.077   3.268   2.312  1.5637  0.8429  0.1112
 3826SOL     OW22936   0.931   3.721  17.374 -0.4359  0.2677 -0.1531
 3826SOL    HW122937   0.940   3.769  17.292 -1.2983 -0.5634 -0.7294
 3826SOL    HW222938   0.865   3.660  17.342  0.4467 -1.1917  0.7950
 3827SOL     OW22939   4.058   4.123  14.370  0.0783  0.3393  0.3919
 3827SOL    HW122940   3.994   4.100  14.437 -0.8667 -1.0302 -0.9740
 3827SOL    HW222941   4.004   4.141  14.293  0.5029  0.6563  0.1689
 3828SOL     OW22942   3.312   4.570  10.758  0.3061 -0.2988 -0.0325
 3828SOL    HW122943   3.323   4.620  10.839  0.6312 -0.7094  0.1792
 3828SOL    HW222944   3.397   4.526  10.764  0.0712 -0.4580  2.1267
 3829SOL     OW22945   1.953   3.615  16.945  0.2858 -0.3179  0.5429
 3829SOL    HW122946   1.946   3.525  16.911 -2.1693  0.5607 -1.2455
 3829SOL    HW222947   1.972   3.664  16.865  0.0408 -0.1972  0.5594
 3830SOL     OW22948   3.567   0.676  13.637 -0.3013  0.3681 -0.9433
 3830SOL    HW122949   3.512   0.749  13.666 -1.4824 -0.6222 -0.7184
 3830SOL    HW222950   3.530   0.668  13.549 -1.9884 -0.2552 -0.1713
 3831SOL     OW22951   1.581   2.908   5.223 -0.5889 -0.5889  0.5765
 3831SOL    HW122952   1.596   2.885   5.131 -0.3410 -0.0965  0.4943
 3831SOL    HW222953   1.669   2.914   5.261 -0.4725  0.7722  0.0773
 3832SOL     OW22954   2.935   1.757   4.808  0.0247  0.0800  0.2591
 3832SOL    HW122955   2.939   1.662   4.817 -0.5188  0.2308  1.9139
 3832SOL    HW222956   3.027   1.784   4.802  0.7268 -1.8901  2.1963
 3833SOL     OW22957   1.760   4.112   5.923  0.4379 -0.6178  0.5403
 3833SOL    HW122958   1.781   4.114   6.017  1.2366 -0.3068  0.3514
 3833SOL    HW222959   1.780   4.201   5.897 -3.2675 -0.2147 -0.8332
 3834SOL     OW22960   2.897   0.873   0.312  0.0592  0.5649  0.0259
 3834SOL    HW122961   2.977   0.913   0.278  0.3502  0.3698  0.4960
 3834SOL    HW222962   2.902   0.888   0.406  0.9377  2.5197 -0.3140
 3835SOL     OW22963   2.703   3.619   3.954 -0.0017  0.2751  0.0832
 3835SOL    HW122964   2.623   3.569   3.970 -0.6629  1.4253  0.4264
 3835SOL    HW222965   2.776   3.562   3.975 -1.8648 -2.8920 -2.0795
 3836SOL     OW22966   1.875   1.293   6.914  0.0966 -0.0486  0.0990
 3836SOL    HW122967   1.922   1.376   6.920 -0.0059  0.0488 -0.4490
 3836SOL    HW222968   1.941   1.223   6.915  1.0417  0.8305 -0.5714
 3837SOL     OW22969   0.938   3.156   1.871  0.1688 -0.2069 -0.4865
 3837SOL    HW122970   0.864   3.096   1.875 -0.9659  1.1970 -0.3170
 3837SOL    HW222971   0.895   3.235   1.838  0.1975 -0.8973 -2.1706
 3838SOL     OW22972   0.461   4.471  11.061  0.1447  0.1571 -0.0597
 3838SOL    HW122973   0.368   4.479  11.042  0.4902  2.3449 -0.8559
 3838SOL    HW222974   0.467   4.434  11.149 -0.1063  1.1721  0.3869
 3839SOL     OW22975   1.139   1.590   5.555  0.2032  0.0776  0.2542
 3839SOL    HW122976   1.218   1.535   5.548  0.3726  0.1448  1.6634
 3839SOL    HW222977   1.095   1.575   5.471 -1.6580  1.9011  0.9287
 3840SOL     OW22978   0.894   1.927   8.342 -0.3264  0.3800  0.3262
 3840SOL    HW122979   0.857   1.987   8.407  2.4396 -0.4356  2.6565
 3840SOL    HW222980   0.978   1.971   8.327 -0.6854  0.0670 -2.5474
 3841SOL     OW22981   1.075   0.079   4.815 -0.4528  0.1591  0.4854
 3841SOL    HW122982   1.105   0.067   4.725 -1.8231  0.6668 -0.0333
 3841SOL    HW222983   1.130   0.019   4.866  2.2792  3.2651  1.2077
 3842SOL     OW22984   4.641   1.830   3.449 -0.3477  0.2708 -0.3043
 3842SOL    HW122985   4.710   1.828   3.516 -1.9262 -1.2661  1.3199
 3842SOL    HW222986   4.582   1.767   3.492 -1.6047  0.5751 -1.5905
 3843SOL     OW22987   2.128   3.824   8.088  0.3442 -0.1977 -0.3334
 3843SOL    HW122988   2.156   3.816   8.179  1.4944 -0.9820 -0.7562
 3843SOL    HW222989   2.130   3.920   8.085 -0.1189 -0.2251 -1.8571
 3844SOL     OW22990   2.469   3.050   0.274 -0.1008  0.2538 -0.3415
 3844SOL    HW122991   2.423   3.085   0.198 -2.3957 -1.3104  0.3427
 3844SOL    HW222992   2.542   3.010   0.228  0.5766  0.7928  0.2511
 3845SOL     OW22993   0.035   3.491   6.928  0.1598 -0.3479  0.0953
 3845SOL    HW122994   0.007   3.475   7.019  3.2566  0.8538  1.2717
 3845SOL    HW222995   0.109   3.545   6.957 -1.1581  1.7327 -0.4539
 3846SOL     OW22996   0.833   0.297   6.883 -0.1532 -0.7209  0.5135
 3846SOL    HW122997   0.782   0.293   6.964 -1.3039 -3.0908 -0.3250
 3846SOL    HW222998   0.918   0.285   6.925  0.1767  0.3997  0.1420
 3847SOL     OW22999   4.468   3.793   4.658  0.5032 -0.3448 -0.1614
 3847SOL    HW123000   4.522   3.872   4.658 -1.8283  1.2214  2.8469
 3847SOL    HW223001   4.481   3.753   4.572 -1.2650 -0.7278 -0.2505
 3848SOL     OW23002   0.743   0.120   6.244  0.2057  0.1770 -0.0385
 3848SOL    HW123003   0.686   0.176   6.296 -0.2057 -1.6388  1.4505
 3848SOL    HW223004   0.680   0.048   6.237 -0.5963  1.0478 -1.8458
 3849SOL     OW23005   4.517   0.316   9.174 -0.2285 -0.3694 -0.1739
 3849SOL    HW123006   4.457   0.252   9.137 -1.9221  2.0478 -1.6586
 3849SOL    HW223007   4.556   0.260   9.240 -0.6270  0.0916  0.4521
 3850SOL     OW23008   3.828   3.080   9.113 -0.2674  0.4778 -0.0533
 3850SOL    HW123009   3.812   2.996   9.158 -2.2880  0.9934  0.1928
 3850SOL    HW223010   3.923   3.090   9.112 -0.4406  2.0896 -0.4627
 3851SOL     OW23011   0.196   2.477   4.463 -0.4909  0.1030 -1.0197
 3851SOL    HW123012   0.158   2.390   4.477  2.0600 -0.8952 -0.3438
 3851SOL    HW223013   0.283   2.484   4.501 -1.1021  1.7349  0.0722
 3852SOL     OW23014   0.719   0.556   6.507  0.5194  0.2718  1.0038
 3852SOL    HW123015   0.698   0.477   6.556  4.2000 -1.0608  0.4260
 3852SOL    HW223016   0.787   0.599   6.559  2.4811  1.3347 -2.4376
 3853SOL     OW23017   1.383   1.725   4.715 -0.3169 -0.2769 -0.4997
 3853SOL    HW123018   1.430   1.758   4.639 -0.2488 -0.7485 -0.6637
 3853SOL    HW223019   1.293   1.754   4.697 -1.0992 -0.8811  2.2848
 3854SOL     OW23020   2.274   3.122   8.155  0.0090  0.1627 -0.0780
 3854SOL    HW123021   2.289   3.033   8.125 -0.4426  0.4053 -1.0310
 3854SOL    HW223022   2.182   3.125   8.183 -0.3309  0.0896 -1.2211
 3855SOL     OW23023   3.986   0.622   3.917  0.1891  0.0517  0.2357
 3855SOL    HW123024   4.006   0.713   3.894 -0.2979 -0.0259 -0.4950
 3855SOL    HW223025   4.046   0.580   3.855  0.9939  3.0843 -1.0237
 3856SOL     OW23026   1.783   4.458   2.371  0.5666 -0.2448 -0.4806
 3856SOL    HW123027   1.839   4.385   2.343  0.7335 -0.3510  0.1216
 3856SOL    HW223028   1.713   4.445   2.307 -0.6616  2.8063  0.2588
 3857SOL     OW23029   1.590   4.004   7.739 -0.0085 -0.5510  0.2668
 3857SOL    HW123030   1.560   4.093   7.720  1.4367 -0.6291 -2.3311
 3857SOL    HW223031   1.602   3.953   7.660  0.1681  0.3523 -0.2859
 3858SOL     OW23032   4.080   0.155   5.271  0.1319  0.1477  0.0282
 3858SOL    HW123033   4.107   0.230   5.324 -0.1418 -0.9803  1.7753
 3858SOL    HW223034   3.988   0.152   5.294 -0.2580 -2.7497 -1.8219
 3859SOL     OW23035   0.839   3.382   4.819 -0.7313 -0.2135 -0.4218
 3859SOL    HW123036   0.893   3.364   4.896 -3.5565 -0.0033  1.5753
 3859SOL    HW223037   0.903   3.402   4.750  0.4991 -0.1683  0.7293
 3860SOL     OW23038   4.455   0.307  17.533 -0.6043 -0.0964 -0.1236
 3860SOL    HW123039   4.513   0.376  17.565 -0.5189  0.2783 -1.0884
 3860SOL    HW223040   4.421   0.279  17.619  1.4745  2.3179  1.4936
 3861SOL     OW23041   2.104   1.328   9.624  0.1549 -0.0865  0.0160
 3861SOL    HW123042   2.096   1.374   9.707  1.3635  1.8801 -0.9408
 3861SOL    HW223043   2.058   1.246   9.642 -0.1970 -0.6239 -3.2511
 3862SOL     OW23044   1.230   3.933   0.563 -0.7654  0.2526 -0.3630
 3862SOL    HW123045   1.275   4.014   0.586  0.7360 -0.3262 -1.1984
 3862SOL    HW223046   1.209   3.957   0.473 -2.2564 -1.7744 -0.5482
 3863SOL     OW23047   3.052   1.486   4.574 -0.1704  0.0015 -0.4092
 3863SOL    HW123048   2.997   1.534   4.513  0.4433  0.7965 -0.3442
 3863SOL    HW223049   3.136   1.528   4.554  0.2939 -1.7455 -2.0671
 3864SOL     OW23050   4.256   0.650   0.124 -0.2900 -0.2290  0.0466
 3864SOL    HW123051   4.334   0.598   0.142 -1.1476 -2.1225 -1.7283
 3864SOL    HW223052   4.282   0.740   0.146 -1.0019 -0.3077  1.2456
 3865SOL     OW23053   2.804   2.345   2.727  0.2476  0.4475 -0.1043
 3865SOL    HW123054   2.716   2.340   2.766 -0.4521  0.7751 -1.6404
 3865SOL    HW223055   2.782   2.380   2.641 -0.2700 -1.6149 -0.8075
 3866SOL     OW23056   1.747   0.102   5.121 -0.0583  0.0113  0.2824
 3866SOL    HW123057   1.827   0.092   5.070  0.2337 -2.6052  1.2145
 3866SOL    HW223058   1.774   0.062   5.204  0.6058  2.0632  1.0414
 3867SOL     OW23059   1.633   1.767   5.500 -0.4386  0.9715  0.2449
 3867SOL    HW123060   1.677   1.701   5.447 -0.1976 -0.2733  1.9998
 3867SOL    HW223061   1.615   1.839   5.439 -0.8599  0.9878  0.3878
 3868SOL     OW23062   4.408   1.946   8.189  0.1109  0.0570 -0.6396
 3868SOL    HW123063   4.496   1.914   8.173 -0.6517 -2.0070 -0.6994
 3868SOL    HW223064   4.355   1.866   8.195 -1.5292  1.3222  1.4776
 3869SOL     OW23065   0.322   1.041  12.361 -0.1277  0.2064  0.1279
 3869SOL    HW123066   0.299   0.996  12.442  2.1818  0.0590  0.6827
 3869SOL    HW223067   0.409   1.072  12.385 -1.3227  2.6995  1.2572
 3870SOL     OW23068   0.740   1.256   2.255  0.1127  0.1470 -0.1959
 3870SOL    HW123069   0.751   1.323   2.187  0.4128 -0.7240 -1.0111
 3870SOL    HW223070   0.803   1.276   2.324 -1.6593  0.2277  1.3989
 3871SOL     OW23071   3.144   3.752   3.399 -0.0023  0.3870 -0.1700
 3871SOL    HW123072   3.170   3.667   3.433  1.3124  0.7313 -0.3347
 3871SOL    HW223073   3.058   3.756   3.440 -0.0021 -0.8410 -0.0469
 3872SOL     OW23074   2.149   0.166   0.346 -0.6047  0.4073  0.5330
 3872SOL    HW123075   2.142   0.079   0.305  1.5717  0.7388 -0.5168
 3872SOL    HW223076   2.202   0.203   0.275  0.6112 -1.9512  0.1855
 3873SOL     OW23077   1.234   2.248  16.041 -0.1325  0.0425  0.5036
 3873SOL    HW123078   1.252   2.341  16.056  1.6467 -0.5068  1.6569
 3873SOL    HW223079   1.293   2.225  15.969  0.8682  1.1489  0.9623
 3874SOL     OW23080   4.008   0.446   8.710 -0.2292  0.2324  0.0014
 3874SOL    HW123081   3.969   0.478   8.628 -0.1413 -1.2179 -0.5919
 3874SOL    HW223082   3.946   0.479   8.776 -0.6491 -2.5835  0.9787
 3875SOL     OW23083   2.140   3.412   8.766  0.3480  0.5200 -0.0586
 3875SOL    HW123084   2.170   3.464   8.840  1.8132  0.6349 -0.7401
 3875SOL    HW223085   2.145   3.328   8.812 -1.2456  0.7193  0.4732
 3876SOL     OW23086   1.620   1.724   5.771 -0.1025  0.5078  0.3602
 3876SOL    HW123087   1.601   1.737   5.679 -0.5359 -1.6091  0.1453
 3876SOL    HW223088   1.677   1.648   5.780 -1.2824 -0.5503 -1.2734
 3877SOL     OW23089   0.792   2.224   1.502 -0.4241 -0.5925  0.6175
 3877SOL    HW123090   0.881   2.253   1.519  0.0060 -1.9092  0.6662
 3877SOL    HW223091   0.752   2.251   1.584  2.1648  1.0326  1.3181
 3878SOL     OW23092   1.422   3.405  15.009  0.3160 -0.0688  0.5650
 3878SOL    HW123093   1.443   3.352  14.932 -0.3354  0.3467  0.1025
 3878SOL    HW223094   1.327   3.415  15.001  0.3668 -0.7616 -0.9812
 3879SOL     OW23095   3.665   2.387   7.369 -0.1204  0.1441 -0.1731
 3879SOL    HW123096   3.652   2.341   7.452  0.5582 -1.5560 -1.0060
 3879SOL    HW223097   3.754   2.419   7.386  0.1155  0.5713 -2.1340
 3880SOL     OW23098   4.398   0.401  15.438  0.3554 -0.1779 -0.0348
 3880SOL    HW123099   4.337   0.332  15.410  1.7248 -0.8723 -1.3185
 3880SOL    HW223100   4.409   0.383  15.532 -2.8498 -2.2873 -0.0536
 3881SOL     OW23101   1.495   2.051   5.668  0.0826  0.3278  0.3790
 3881SOL    HW123102   1.419   2.003   5.700  0.9195 -0.9577  0.4361
 3881SOL    HW223103   1.568   2.010   5.714 -0.2848 -0.8960 -0.1257
 3882SOL     OW23104   3.148   2.738   2.772  0.2428 -0.4164 -0.5510
 3882SOL    HW123105   3.085   2.670   2.794  1.5204 -2.1103 -2.1428
 3882SOL    HW223106   3.105   2.811   2.817 -1.2942 -0.6785 -1.6165
 3883SOL     OW23107   3.681   1.120   1.607  0.4325 -0.4049 -0.2342
 3883SOL    HW123108   3.650   1.157   1.524 -0.4561 -0.4452  0.0734
 3883SOL    HW223109   3.606   1.140   1.663  1.0238  3.1569 -0.7291
 3884SOL     OW23110   0.842   2.670   9.555  0.4562 -0.5454 -0.2259
 3884SOL    HW123111   0.934   2.656   9.534  0.6099  0.5902 -0.3270
 3884SOL    HW223112   0.827   2.659   9.649  0.4142 -0.0607 -0.1736
 3885SOL     OW23113   2.256   1.095   8.206  0.2511  0.7051 -0.5086
 3885SOL    HW123114   2.257   1.110   8.300 -1.7665 -1.5259 -0.1261
 3885SOL    HW223115   2.270   1.185   8.175  0.0916  0.0058 -2.6052
 3886SOL     OW23116   3.936   2.568   3.423  0.5667  1.1065  0.0502
 3886SOL    HW123117   3.913   2.654   3.459  1.6334  0.9472  1.1292
 3886SOL    HW223118   3.951   2.582   3.330 -0.3858 -3.0916 -0.7398
 3887SOL     OW23119   3.615   3.218   9.367 -0.1122 -0.7499 -0.1833
 3887SOL    HW123120   3.659   3.255   9.291  0.8083  0.6729  1.0337
 3887SOL    HW223121   3.527   3.205   9.332 -0.4949 -1.0869  0.8821
 3888SOL     OW23122   0.305   0.390   6.208 -0.1129 -0.4284 -0.5468
 3888SOL    HW123123   0.264   0.467   6.168 -0.8640  0.1565  1.3584
 3888SOL    HW223124   0.303   0.411   6.301  0.4652 -0.9521 -0.4156
 3889SOL     OW23125   1.935   4.709  17.187 -0.3631  0.6295  0.1296
 3889SOL    HW123126   1.949   4.630  17.136 -0.1025  0.6773  0.1260
 3889SOL    HW223127   1.980   0.050  17.135 -0.7171 -1.3487 -2.6892
 3890SOL     OW23128   1.746   0.691   6.293  0.2156  0.0392 -0.2915
 3890SOL    HW123129   1.706   0.743   6.363 -1.3401 -0.6619 -0.6465
 3890SOL    HW223130   1.714   0.744   6.220 -0.3775  1.3559  0.9339
 3891SOL     OW23131   1.460   0.208   6.744  0.3550  0.3426 -0.0562
 3891SOL    HW123132   1.375   0.251   6.758 -0.2423 -0.4449 -1.2964
 3891SOL    HW223133   1.473   0.214   6.650  0.2434  1.2192 -0.0150
 3892SOL     OW23134   0.318   3.263  16.593 -0.1767  0.3447  0.3737
 3892SOL    HW123135   0.318   3.232  16.684 -0.8450  1.6662  0.8156
 3892SOL    HW223136   0.232   3.300  16.578 -0.0477  1.4062  2.1901
 3893SOL     OW23137   3.672   2.996   3.319  0.8942 -0.2226  0.2281
 3893SOL    HW123138   3.715   2.941   3.255 -0.7121  0.6686 -1.6188
 3893SOL    HW223139   3.693   3.081   3.279 -3.5358  0.1416 -1.2986
 3894SOL     OW23140   0.352   3.994   3.298 -0.1506 -0.0444 -0.3001
 3894SOL    HW123141   0.406   3.921   3.268  2.4906  1.2829  1.2321
 3894SOL    HW223142   0.394   4.073   3.265  1.9665 -0.3766  1.5802
 3895SOL     OW23143   0.989   2.652   2.314 -0.3745  0.2570  0.2213
 3895SOL    HW123144   0.993   2.741   2.348  2.6112  0.2734 -0.1238
 3895SOL    HW223145   1.039   2.603   2.379 -1.5201 -2.6955 -1.1096
 3896SOL     OW23146   0.361   2.474   4.723  0.2418 -0.5855 -0.1032
 3896SOL    HW123147   0.368   2.569   4.718 -3.1903 -0.3938 -1.5163
 3896SOL    HW223148   0.375   2.467   4.818 -4.0301 -0.1674  0.5529
 3897SOL     OW23149   3.011   4.597  15.106 -0.1191 -0.0263  0.4668
 3897SOL    HW123150   3.103   4.607  15.082  0.1206 -1.8839  0.6726
 3897SOL    HW223151   3.026   4.553  15.190 -1.2371 -1.8767 -0.3112
 3898SOL     OW23152   3.601   4.163   6.869  1.0526 -0.1116 -0.0881
 3898SOL    HW123153   3.661   4.236   6.881 -0.3148  0.6601  1.9644
 3898SOL    HW223154   3.628   4.113   6.946  0.1351 -0.7315 -0.1607
 3899SOL     OW23155   1.800   0.450   4.848 -0.2433 -0.1610  0.1771
 3899SOL    HW123156   1.885   0.409   4.829 -1.2029 -1.4771 -1.2508
 3899SOL    HW223157   1.738   0.377   4.850  0.6682 -0.9372 -0.0774
 3900SOL     OW23158   1.293   0.399   7.128 -0.2055 -0.0141 -0.1638
 3900SOL    HW123159   1.256   0.460   7.063  0.5838 -0.6928 -1.2576
 3900SOL    HW223160   1.319   0.462   7.195 -2.5213  0.9496 -0.1740
 3901SOL     OW23161   0.603   2.323  10.681 -0.0401  0.3181  0.3242
 3901SOL    HW123162   0.520   2.323  10.729 -0.9680 -4.0813 -1.2805
 3901SOL    HW223163   0.621   2.229  10.684  1.3066  0.6009  1.0055
 3902SOL     OW23164   4.218   2.839   7.139  0.1426  0.1604  0.7504
 3902SOL    HW123165   4.148   2.855   7.075 -2.2570 -1.0915  3.0509
 3902SOL    HW223166   4.215   2.926   7.178 -0.0250  1.2909 -1.8180
 3903SOL     OW23167   4.584   4.704  10.624 -0.1839 -0.1311 -0.3749
 3903SOL    HW123168   4.524   4.645  10.577  0.3088 -2.0223  1.3717
 3903SOL    HW223169   4.533   0.013  10.698 -1.3239  1.7692 -2.0270
 3904SOL     OW23170   3.030   0.598  14.945  0.2391  0.3707  0.1017
 3904SOL    HW123171   2.938   0.624  14.944 -0.3757 -1.8607 -0.3911
 3904SOL    HW223172   3.030   0.512  14.904  1.0805  1.5925 -2.4254
 3905SOL     OW23173   3.410   4.306   3.332  0.0543 -0.1737 -0.5769
 3905SOL    HW123174   3.370   4.231   3.376  2.8184 -1.5359 -0.3549
 3905SOL    HW223175   3.428   4.267   3.247  1.1012 -0.1676 -0.3627
 3906SOL     OW23176   0.266   4.236   6.870 -0.2475  0.1397  0.2810
 3906SOL    HW123177   0.180   4.274   6.852 -0.4217 -0.2566  0.2706
 3906SOL    HW223178   0.254   4.193   6.955 -0.2960  0.0434  0.2262
 3907SOL     OW23179   4.591   3.308   2.560  0.4354 -0.5569 -0.9298
 3907SOL    HW123180   4.607   3.325   2.653 -2.5636  0.5586 -0.6138
 3907SOL    HW223181   4.543   3.226   2.558 -3.6123  1.8269 -1.8157
 3908SOL     OW23182   3.922   3.336   6.071  0.3138 -0.2170  0.2878
 3908SOL    HW123183   3.961   3.249   6.077  1.3003  0.3040  1.4003
 3908SOL    HW223184   3.873   3.346   6.152  0.0413  0.2815  0.0663
 3909SOL     OW23185   3.705   2.183   8.285 -0.2744 -0.1088  0.3827
 3909SOL    HW123186   3.762   2.198   8.361  0.8325  3.1811 -1.1091
 3909SOL    HW223187   3.652   2.112   8.322  0.8190 -1.7565 -1.1548
 3910SOL     OW23188   0.463   1.887   8.025 -0.1524 -0.4794 -0.2814
 3910SOL    HW123189   0.495   1.976   8.037  1.3036 -1.0329 -0.0485
 3910SOL    HW223190   0.492   1.857   7.939 -1.7812  0.2082 -1.0731
 3911SOL     OW23191   3.391   1.024  10.845 -0.1673  0.4072  0.1371
 3911SOL    HW123192   3.392   1.088  10.917  0.9517  0.0651  0.4242
 3911SOL    HW223193   3.301   0.996  10.826  0.2605 -1.4933  0.9236
 3912SOL     OW23194   1.480   3.066   8.190  0.8077  0.3029  0.1019
 3912SOL    HW123195   1.412   3.115   8.144  0.0128  0.4120  1.3740
 3912SOL    HW223196   1.479   3.119   8.270 -0.0271  0.6302 -0.1269
 3913SOL     OW23197   4.105   2.439   2.052  0.3059  0.5867  0.1275
 3913SOL    HW123198   4.167   2.369   2.032 -0.4469 -0.0405 -0.0052
 3913SOL    HW223199   4.116   2.496   1.976 -0.3146  1.1427  0.4571
 3914SOL     OW23200   1.167   0.195   3.528  0.6785 -0.1045 -0.5231
 3914SOL    HW123201   1.221   0.181   3.606 -0.6238 -0.9488  0.2422
 3914SOL    HW223202   1.085   0.225   3.567  0.3854  0.1777 -1.3584
 3915SOL     OW23203   3.383   0.870   8.821 -0.3655  0.9562 -0.3647
 3915SOL    HW123204   3.395   0.903   8.910 -2.2112  1.8381 -0.4470
 3915SOL    HW223205   3.293   0.838   8.821 -0.4425  1.0327  4.8322
 3916SOL     OW23206   1.295   0.199  16.660  0.8971  0.8621 -0.5890
 3916SOL    HW123207   1.279   0.154  16.743 -0.8010  0.4824 -1.1279
 3916SOL    HW223208   1.218   0.255  16.664  1.9760  2.2109  1.4409
 3917SOL     OW23209   0.268   3.095   7.462 -0.0992 -0.7826  0.1615
 3917SOL    HW123210   0.352   3.061   7.491  0.6507  1.2815  0.4007
 3917SOL    HW223211   0.216   3.015   7.454 -0.9097 -0.1395 -1.0984
 3918SOL     OW23212   1.435   1.814   1.573 -0.4518 -0.4675  0.6046
 3918SOL    HW123213   1.352   1.769   1.590 -0.7499 -0.6767 -1.3661
 3918SOL    HW223214   1.462   1.759   1.499 -0.4405 -3.3430  2.7418
 3919SOL     OW23215   4.144   0.781   4.261 -0.1206 -0.0910 -0.0672
 3919SOL    HW123216   4.135   0.843   4.334 -0.1606  2.3475 -2.1089
 3919SOL    HW223217   4.148   0.697   4.307 -2.0896 -0.2160 -0.1218
 3920SOL     OW23218   2.273   3.697  15.594  0.0770 -0.1700 -0.4770
 3920SOL    HW123219   2.292   3.637  15.666 -1.4857 -1.0322 -0.8047
 3920SOL    HW223220   2.323   3.652  15.526 -0.5055 -1.0202 -0.3359
 3921SOL     OW23221   3.464   4.238   0.389 -0.0018  0.6068 -0.1531
 3921SOL    HW123222   3.508   4.321   0.370  0.6334  0.3249  0.0953
 3921SOL    HW223223   3.458   4.242   0.485 -0.2124 -0.6898 -0.1090
 3922SOL     OW23224   3.150   3.472   8.152 -0.7973  0.0554 -0.0063
 3922SOL    HW123225   3.095   3.498   8.227 -1.9853  0.9991 -1.2067
 3922SOL    HW223226   3.222   3.429   8.198 -1.5822 -1.4345 -0.1416
 3923SOL     OW23227   1.087   0.756   9.130  0.2006 -0.0932 -0.3468
 3923SOL    HW123228   1.158   0.812   9.101 -1.9408  1.8519 -1.7949
 3923SOL    HW223229   1.129   0.690   9.186 -1.4739 -1.1124 -0.2642
 3924SOL     OW23230   4.512   3.723  16.546 -0.2843 -0.3757 -0.3658
 3924SOL    HW123231   4.439   3.670  16.577 -1.2842 -0.6370 -3.1682
 3924SOL    HW223232   4.540   3.673  16.469  1.4759  0.9192 -0.5574
 3925SOL     OW23233   4.641   4.715   4.194  0.1982  0.7711  0.2056
 3925SOL    HW123234   4.709   4.696   4.258  1.1178  0.0236 -0.9943
 3925SOL    HW223235   4.588   0.045   4.252 -0.3973 -0.4564  0.8248
 3926SOL     OW23236   2.030   4.428  14.647 -0.6216  0.5000  0.5287
 3926SOL    HW123237   2.069   4.463  14.727 -2.8833  0.8597  1.4959
 3926SOL    HW223238   1.999   4.349  14.692 -0.4316  0.4966  0.6537
 3927SOL     OW23239   0.361   0.458  16.107  0.7552 -0.4063 -0.0422
 3927SOL    HW123240   0.353   0.508  16.026 -0.5624 -0.6250 -0.0446
 3927SOL    HW223241   0.424   0.389  16.087  0.6783 -0.2982 -0.6584
 3928SOL     OW23242   1.043   3.557   4.561  0.1128 -0.1735 -0.8793
 3928SOL    HW123243   1.053   3.524   4.472 -0.1326 -1.5457 -0.3970
 3928SOL    HW223244   1.132   3.549   4.596 -0.8355  0.8389  1.7640
 3929SOL     OW23245   2.273   4.546   9.431 -0.6842 -0.1146 -0.1228
 3929SOL    HW123246   2.187   4.506   9.446  0.0955 -0.9677  2.0509
 3929SOL    HW223247   2.291   4.504   9.347 -0.4826 -2.9480  1.3091
 3930SOL     OW23248   2.433   1.221  10.175  0.1712 -0.4488  0.3287
 3930SOL    HW123249   2.510   1.277  10.165  0.1428 -0.5369 -0.3810
 3930SOL    HW223250   2.466   1.137  10.208 -0.1521 -1.3685 -1.7028
 3931SOL     OW23251   0.511   2.324   8.184 -0.0953  0.2111  0.4022
 3931SOL    HW123252   0.563   2.244   8.191 -1.3493 -0.7438 -1.3565
 3931SOL    HW223253   0.429   2.310   8.137 -0.1713  1.4539  0.1560
 3932SOL     OW23254   1.451   1.010   9.867  0.6022  0.7062 -1.1646
 3932SOL    HW123255   1.448   0.931   9.922  3.2178  1.6719  0.4172
 3932SOL    HW223256   1.430   0.983   9.778 -2.8807  1.8510 -0.6557
 3933SOL     OW23257   2.946   1.490   4.823  0.3402  0.2629  0.1002
 3933SOL    HW123258   2.959   1.403   4.863  1.7970  0.8106  0.8233
 3933SOL    HW223259   2.999   1.469   4.747 -1.7389 -1.0865 -0.9857
 3934SOL     OW23260   1.252   0.741  13.498 -0.2598 -0.1062  0.4417
 3934SOL    HW123261   1.343   0.718  13.479  0.1734  1.2149  0.9285
 3934SOL    HW223262   1.270   0.835  13.495 -0.8525 -0.0069  0.1310
 3935SOL     OW23263   1.886   1.854   7.682  0.3924  0.2253 -0.4642
 3935SOL    HW123264   1.867   1.811   7.765  2.5370 -2.6000 -1.4415
 3935SOL    HW223265   1.961   1.906   7.713 -0.1934  1.3092 -0.8708
 3936SOL     OW23266   3.682   2.563   3.176 -0.0263 -0.4715  0.2222
 3936SOL    HW123267   3.668   2.649   3.137  1.4878 -0.0225  0.6508
 3936SOL    HW223268   3.775   2.548   3.156 -0.0048 -0.3236  0.2078
 3937SOL     OW23269   1.406   1.062   9.144  0.2196  0.3112  0.5698
 3937SOL    HW123270   1.368   1.007   9.076  1.9564  1.7912 -1.5751
 3937SOL    HW223271   1.346   1.137   9.138 -0.7762 -0.6453 -1.2843
 3938SOL     OW23272   1.772   4.135  17.333  0.0918 -0.3437 -0.4459
 3938SOL    HW123273   1.795   4.126  17.241  3.8497 -3.0317  0.7579
 3938SOL    HW223274   1.713   4.210  17.324  0.6118  0.1447  0.2013
 3939SOL     OW23275   0.879   2.194  10.739  0.1714 -0.0692  0.1864
 3939SOL    HW123276   0.846   2.128  10.678  0.6520  0.0550 -0.2056
 3939SOL    HW223277   0.810   2.180  10.804 -0.1901  1.4638  0.1153
 3940SOL     OW23278   1.470   3.990   5.372 -0.0820 -0.1076  0.0578
 3940SOL    HW123279   1.415   3.935   5.316  0.6876 -0.8038 -0.0180
 3940SOL    HW223280   1.444   4.079   5.348 -1.4211 -0.6753 -0.6374
 3941SOL     OW23281   2.546   2.618   6.502 -0.0109  0.3082  0.2418
 3941SOL    HW123282   2.566   2.525   6.514 -1.1472 -0.0011 -0.1880
 3941SOL    HW223283   2.586   2.634   6.417 -0.0074 -0.0079  0.1846
 3942SOL     OW23284   2.376   3.252   2.843  0.1741 -0.3305 -0.5489
 3942SOL    HW123285   2.431   3.188   2.799 -0.8969  0.1906 -2.6291
 3942SOL    HW223286   2.361   3.321   2.778  0.8948 -0.4388 -0.8297
 3943SOL     OW23287   1.949   2.585  13.964  0.2352 -0.5935 -0.1824
 3943SOL    HW123288   1.884   2.592  13.894 -1.1472 -0.5066  1.1113
 3943SOL    HW223289   2.013   2.518  13.939 -2.4956 -1.8142 -4.0524
 3944SOL     OW23290   4.127   4.219  10.543  0.5744  0.5613  0.2400
 3944SOL    HW123291   4.215   4.256  10.543  0.9437 -0.3181 -1.4794
 3944SOL    HW223292   4.086   4.284  10.600  0.6929  1.3220 -0.5335
 3945SOL     OW23293   4.489   1.371   3.073 -0.6201  0.4440 -0.4667
 3945SOL    HW123294   4.501   1.463   3.050 -0.1388  0.3534 -0.5829
 3945SOL    HW223295   4.446   1.371   3.159  0.6909 -1.8427  0.1828
 3946SOL     OW23296   1.863   3.200   7.618  0.2820  0.8529  0.0824
 3946SOL    HW123297   1.918   3.276   7.635  0.8765 -0.0455  2.1052
 3946SOL    HW223298   1.814   3.190   7.699  0.9247  0.1282  0.3810
 3947SOL     OW23299   0.093   4.709  10.490 -0.1554  0.1464 -0.0200
 3947SOL    HW123300   0.115   4.617  10.477 -4.7230 -1.0472  0.4563
 3947SOL    HW223301   0.022   4.712  10.554 -1.1054  0.2685 -1.0565
 3948SOL     OW23302   4.080   1.103   0.325 -0.0952 -0.1697  0.3996
 3948SOL    HW123303   3.989   1.094   0.355  0.4328  0.4029  2.1558
 3948SOL    HW223304   4.107   1.183   0.369  1.8482  0.0372 -1.2073
 3949SOL     OW23305   2.021   3.414   7.647 -0.5225  0.0741 -1.1976
 3949SOL    HW123306   2.013   3.491   7.590 -1.0016  1.2006  0.3846
 3949SOL    HW223307   2.037   3.453   7.733  2.2856 -1.1750 -1.1663
 3950SOL     OW23308   3.831   0.324  15.233  0.0268 -0.0014  0.0753
 3950SOL    HW123309   3.816   0.415  15.209 -0.7403  0.0479  0.7304
 3950SOL    HW223310   3.766   0.269  15.190 -1.4511  0.5578  1.5832
 3951SOL     OW23311   4.279   1.530  11.156 -0.0824  0.0756  0.1222
 3951SOL    HW123312   4.372   1.511  11.167  0.1463  0.8851 -0.3625
 3951SOL    HW223313   4.292   1.624  11.142 -0.2491 -0.1638 -1.6576
 3952SOL     OW23314   2.860   0.565  12.494 -0.1477  0.6838  0.9007
 3952SOL    HW123315   2.901   0.547  12.579 -1.5492 -1.0911  1.1720
 3952SOL    HW223316   2.849   0.476  12.462  2.0771  0.5390  0.5176
 3953SOL     OW23317   1.690   4.554   0.544  0.3943 -0.1571  0.2434
 3953SOL    HW123318   1.752   4.577   0.475 -3.4100  2.5864 -2.3118
 3953SOL    HW223319   1.622   4.614   0.514  0.5060  0.4238  1.1670
 3954SOL     OW23320   3.058   4.420   4.494 -0.1667  0.1360 -0.7588
 3954SOL    HW123321   3.004   4.343   4.479 -0.1156 -0.4641  2.1803
 3954SOL    HW223322   3.048   4.461   4.408 -1.1117  1.2508 -0.1198
 3955SOL     OW23323   0.271   0.748   6.978  0.9694  0.0547  0.5563
 3955SOL    HW123324   0.316   0.748   7.062  1.5088  2.0196  0.2739
 3955SOL    HW223325   0.185   0.769   7.012  1.5365 -0.3335  2.2181
 3956SOL     OW23326   1.355   1.485   7.939  0.5871  0.5764 -0.3217
 3956SOL    HW123327   1.370   1.412   7.879  0.4369  0.2042  0.0941
 3956SOL    HW223328   1.262   1.486   7.959  1.0374 -0.1099  1.8103
 3957SOL     OW23329   1.416   1.548   8.473  0.3004 -0.0587 -0.6058
 3957SOL    HW123330   1.349   1.534   8.406  0.8109 -1.8944 -0.7155
 3957SOL    HW223331   1.436   1.461   8.506 -1.1350 -0.3009 -0.3563
 3958SOL     OW23332   2.509   0.265   1.905  0.0683  0.3483 -0.1112
 3958SOL    HW123333   2.530   0.356   1.884 -0.3783  0.9369  1.9411
 3958SOL    HW223334   2.592   0.234   1.941 -0.7485 -0.2921  1.2449
 3959SOL     OW23335   4.302   1.643   2.625  0.2025  0.1898  0.5623
 3959SOL    HW123336   4.337   1.730   2.645  1.6043 -0.1839 -0.2265
 3959SOL    HW223337   4.222   1.664   2.577 -0.3001 -1.2221  0.7784
 3960SOL     OW23338   3.735   0.141   2.797  0.4059 -0.2261  0.2095
 3960SOL    HW123339   3.664   0.196   2.765  1.0903  0.0629 -0.8012
 3960SOL    HW223340   3.759   0.094   2.718  2.4765 -1.0474  1.3226
 3961SOL     OW23341   2.487   3.755   7.236 -0.3110  0.1352  0.3724
 3961SOL    HW123342   2.424   3.826   7.224  0.2572  0.4496 -0.6953
 3961SOL    HW223343   2.462   3.707   7.157  1.5128  0.9056 -0.6581
 3962SOL     OW23344   3.658   0.082  13.203  0.5562  0.3666 -0.3052
 3962SOL    HW123345   3.713   0.025  13.258 -1.3425 -0.6613  0.5327
 3962SOL    HW223346   3.601   0.130  13.264 -1.3001  0.0896 -1.8260
 3963SOL     OW23347   1.502   2.690   7.235  0.2368  0.3377  0.1236
 3963SOL    HW123348   1.434   2.673   7.300  0.0311 -2.2633 -0.7717
 3963SOL    HW223349   1.474   2.643   7.156 -0.4321  0.6064  0.2090
 3964SOL     OW23350   1.648   2.442   5.499  0.1088 -0.2066 -0.0531
 3964SOL    HW123351   1.623   2.372   5.559 -2.5618  0.9714  0.2048
 3964SOL    HW223352   1.738   2.464   5.525  0.8294 -2.3348 -0.6857
 3965SOL     OW23353   2.676   0.173   5.097  0.2765  0.3154 -0.8286
 3965SOL    HW123354   2.669   0.268   5.089 -0.0846  0.4769  1.3040
 3965SOL    HW223355   2.616   0.165   5.171  1.3798  1.7014  0.2129
 3966SOL     OW23356   0.020   0.538   8.084  0.2057 -0.3113  0.2492
 3966SOL    HW123357   0.002   0.462   8.028  3.5511 -0.4018 -0.6969
 3966SOL    HW223358   0.060   0.601   8.024  0.9091  2.0987  3.2588
 3967SOL     OW23359   4.424   4.530   9.038 -0.4602  0.2377 -0.1161
 3967SOL    HW123360   4.362   4.601   9.025  1.6684  1.7241 -2.2399
 3967SOL    HW223361   4.463   4.505   8.954  1.1654  2.3828 -0.0093
 3968SOL     OW23362   1.826   2.272   1.648 -0.0987 -0.4361 -0.2098
 3968SOL    HW123363   1.819   2.350   1.593 -0.1758 -1.3108 -1.4440
 3968SOL    HW223364   1.922   2.267   1.655 -0.0693 -2.1051 -2.0087
 3969SOL     OW23365   2.780   2.739   7.119 -0.2913 -0.0129  0.6439
 3969SOL    HW123366   2.838   2.773   7.187  1.9212  1.0322 -1.7420
 3969SOL    HW223367   2.781   2.812   7.056 -0.8292 -0.1128  0.5170
 3970SOL     OW23368   4.597   2.161   7.745 -0.0295 -0.2636  0.2874
 3970SOL    HW123369   4.555   2.155   7.831 -1.0425 -1.8790 -0.3249
 3970SOL    HW223370   4.674   2.105   7.753 -0.1257 -0.4300  0.0315
 3971SOL     OW23371   3.700   4.152  11.415 -0.2001 -0.4556 -0.6197
 3971SOL    HW123372   3.749   4.210  11.357 -0.6643 -3.1473 -3.7215
 3971SOL    HW223373   3.675   4.202  11.493 -1.7546 -1.2473 -0.6023
 3972SOL     OW23374   4.634   0.001  10.129 -0.1176 -0.1534 -0.1373
 3972SOL    HW123375   4.625   0.014  10.035  0.7281 -0.7249 -0.3002
 3972SOL    HW223376   4.619   4.633  10.141 -0.9302 -0.0870 -0.6369
 3973SOL     OW23377   1.894   4.586   3.511  0.4254  0.1801  0.0049
 3973SOL    HW123378   1.861   4.566   3.598 -1.6630  2.5553 -0.2334
 3973SOL    HW223379   1.821   4.627   3.464  0.3912 -1.6837 -1.5667
 3974SOL     OW23380   0.895   1.665  14.548  0.0149 -0.2948  0.3956
 3974SOL    HW123381   0.833   1.641  14.617  0.8366  0.6585  1.4664
 3974SOL    HW223382   0.893   1.759  14.564 -1.9084 -0.2581 -0.0497
 3975SOL     OW23383   4.616   0.868  12.055 -0.3422  0.0692 -0.1037
 3975SOL    HW123384   4.681   0.844  12.121  0.7046  3.6466  0.2037
 3975SOL    HW223385   4.672   0.917  11.994  0.9480  0.6372  1.5244
 3976SOL     OW23386   0.130   4.576   6.567 -0.3212 -0.5208 -0.5866
 3976SOL    HW123387   0.210   4.604   6.525  0.5784 -0.0403  1.4636
 3976SOL    HW223388   0.116   4.499   6.511 -1.3335 -0.5990 -0.2360
 3977SOL     OW23389   2.736   3.537   2.367 -0.5612  1.1713  0.2795
 3977SOL    HW123390   2.721   3.445   2.388 -1.5337  1.1285 -0.6058
 3977SOL    HW223391   2.756   3.537   2.273 -0.4802 -0.1688  0.2898
 3978SOL     OW23392   1.413   1.294   0.181 -0.0475 -0.1720  0.4334
 3978SOL    HW123393   1.332   1.261   0.143 -1.4006  1.1496  2.1897
 3978SOL    HW223394   1.434   1.233   0.251 -0.0758 -0.6542  0.0223
 3979SOL     OW23395   0.417   0.162   4.352 -0.0652  0.1069  0.0588
 3979SOL    HW123396   0.379   0.074   4.356  0.5524 -0.1923 -0.7632
 3979SOL    HW223397   0.445   0.173   4.443  1.0960  0.9060 -0.3966
 3980SOL     OW23398   3.270   4.362  13.427  0.0812  0.1036  0.3531
 3980SOL    HW123399   3.328   4.343  13.501 -1.2297 -0.6971  1.1976
 3980SOL    HW223400   3.319   4.438  13.398  2.8692 -1.7265  0.3025
 3981SOL     OW23401   2.384   4.651   3.142  0.4822  0.2600  0.1854
 3981SOL    HW123402   2.406   4.626   3.232 -1.3859  0.7664  0.7826
 3981SOL    HW223403   2.441   4.723   3.115  0.3534 -0.1932 -1.3080
 3982SOL     OW23404   4.369   1.817   9.139 -0.4721  0.3670  0.4140
 3982SOL    HW123405   4.424   1.768   9.079 -2.1784  0.5844 -1.3318
 3982SOL    HW223406   4.286   1.823   9.091 -1.7925 -1.7368  2.4255
 3983SOL     OW23407   3.914   4.366  15.047  0.4469 -0.2009  0.1086
 3983SOL    HW123408   3.881   4.451  15.018 -2.2303 -1.4200 -0.4233
 3983SOL    HW223409   3.957   4.392  15.128  0.6728  1.3280 -0.5065
 3984SOL     OW23410   0.693   2.141  13.343  0.0664  0.1603 -0.7907
 3984SOL    HW123411   0.651   2.116  13.425  0.2957  1.3837 -0.2849
 3984SOL    HW223412   0.677   2.234  13.325 -2.3195  0.6516  3.9259
 3985SOL     OW23413   3.690   3.622  14.671 -0.4247  0.4275  1.1771
 3985SOL    HW123414   3.727   3.543  14.631 -0.2110  1.5727 -0.8823
 3985SOL    HW223415   3.768   3.677  14.679  0.7737 -0.7618 -2.6799
 3986SOL     OW23416   4.200   1.564   8.767  0.2128  0.5809  0.0418
 3986SOL    HW123417   4.201   1.659   8.754  0.9567  0.6408  0.5507
 3986SOL    HW223418   4.177   1.541   8.677  0.3002  1.9093 -0.3281
 3987SOL     OW23419   4.344   4.614   6.833  0.1152 -0.0904  0.0795
 3987SOL    HW123420   4.344   4.619   6.738  3.0915  1.0157  0.1175
 3987SOL    HW223421   4.358   4.520   6.847 -0.2289 -0.6041 -3.1176
 3988SOL     OW23422   0.634   3.562   4.397  0.3174 -0.0243 -0.0470
 3988SOL    HW123423   0.686   3.523   4.327  0.4167  0.9224 -0.5113
 3988SOL    HW223424   0.702   3.604   4.451  1.2549 -1.0080 -0.4789
 3989SOL     OW23425   0.890   1.712   7.287  0.2818  0.2743 -0.8465
 3989SOL    HW123426   0.861   1.715   7.196  0.7962  1.1596 -0.9768
 3989SOL    HW223427   0.818   1.764   7.321 -0.8062 -0.6066 -1.8397
 3990SOL     OW23428   1.576   2.279   6.921  0.0096  0.7555  0.3234
 3990SOL    HW123429   1.654   2.306   6.872  1.7868 -1.3960  1.9658
 3990SOL    HW223430   1.622   2.222   6.982 -1.4003 -1.8566 -1.0816
 3991SOL     OW23431   3.494   2.045   5.008 -0.2851 -0.7156 -0.1837
 3991SOL    HW123432   3.503   2.004   4.922  0.3111  1.4942 -1.1693
 3991SOL    HW223433   3.400   2.042   5.025 -0.3018 -0.1246 -0.1870
 3992SOL     OW23434   0.973   2.949   4.422 -0.3641  0.2671  0.7002
 3992SOL    HW123435   0.978   2.915   4.333  0.3509  0.5388  0.6409
 3992SOL    HW223436   1.057   2.990   4.442  0.2698 -0.1665 -1.0805
 3993SOL     OW23437   2.896   2.609   7.867  0.0359 -0.1902  0.3615
 3993SOL    HW123438   2.876   2.578   7.955 -1.1413 -2.5369 -0.7591
 3993SOL    HW223439   2.810   2.591   7.829  0.7243 -3.4241  0.3376
 3994SOL     OW23440   3.074   1.331   7.344  0.5399  0.0097  1.0788
 3994SOL    HW123441   3.038   1.252   7.386  0.3901  0.0722  1.0697
 3994SOL    HW223442   2.997   1.387   7.353  0.6862 -0.0213  2.5404
 3995SOL     OW23443   1.504   2.301   9.307 -0.3854 -0.0215 -0.2288
 3995SOL    HW123444   1.552   2.221   9.286 -0.7958 -0.5362  0.8169
 3995SOL    HW223445   1.446   2.292   9.231 -0.3919 -1.0640 -0.1035
 3996SOL     OW23446   2.102   0.321   5.773 -0.2518  0.1167 -0.3471
 3996SOL    HW123447   2.108   0.382   5.846 -2.2126  0.3569 -0.3871
 3996SOL    HW223448   2.164   0.249   5.785  3.0338  2.8708 -0.8487
 3997SOL     OW23449   0.480   0.817   9.379  0.5894 -0.5751  0.1212
 3997SOL    HW123450   0.460   0.904   9.412  1.7725 -1.0375  2.0927
 3997SOL    HW223451   0.462   0.762   9.456 -2.5699 -1.8853 -1.5438
 3998SOL     OW23452   4.279   4.668   0.486 -0.3513  0.4390  0.2855
 3998SOL    HW123453   4.347   4.627   0.540 -0.6980 -0.1113  0.3031
 3998SOL    HW223454   4.200   4.619   0.511 -0.4924  0.5564  0.0628
 3999SOL     OW23455   0.175   0.466   7.031 -0.1136 -0.0227  0.0351
 3999SOL    HW123456   0.086   0.435   7.049 -0.8730  2.2106  0.0690
 3999SOL    HW223457   0.154   0.536   6.969  0.0962 -0.4310 -0.4984
 4000SOL     OW23458   2.897   4.245   3.419 -0.2291 -0.2065  0.3831
 4000SOL    HW123459   2.975   4.225   3.471 -0.5628 -2.7859 -0.1430
 4000SOL    HW223460   2.927   4.218   3.333  0.1888  2.6421 -0.3566
 4001SOL     OW23461   1.506   2.896   7.468 -0.1948  0.6832  0.2945
 4001SOL    HW123462   1.521   2.804   7.446 -0.3151  0.9261 -0.7806
 4001SOL    HW223463   1.555   2.932   7.394  0.7667 -1.6621 -0.2048
 4002SOL     OW23464   1.352   1.440   9.916  0.1519 -0.5828 -0.7124
 4002SOL    HW123465   1.413   1.512   9.923 -0.1108 -0.4546  0.2318
 4002SOL    HW223466   1.356   1.410  10.007  0.1412 -3.1183 -1.5344
 4003SOL     OW23467   1.577   2.818   2.688 -0.7011  0.6761  0.1012
 4003SOL    HW123468   1.586   2.735   2.641  0.6928  0.5484  0.6035
 4003SOL    HW223469   1.613   2.784   2.770  1.5322 -1.0282 -1.5806
 4004SOL     OW23470   2.412   1.163   0.219 -0.0190  0.0086 -0.2060
 4004SOL    HW123471   2.505   1.178   0.204  0.1480  1.4598  2.2564
 4004SOL    HW223472   2.395   1.216   0.297 -0.3237 -0.5011  0.0708
 4005SOL     OW23473   0.644   0.250  17.141  0.2471  0.1148  0.2491
 4005SOL    HW123474   0.618   0.270  17.231 -0.6225  1.7913 -0.3636
 4005SOL    HW223475   0.567   0.276  17.090  0.8930  0.0431 -0.7784
 4006SOL     OW23476   0.433   3.331  14.741 -0.1846 -0.3542 -0.4770
 4006SOL    HW123477   0.526   3.328  14.765 -0.0769 -2.6164 -1.1179
 4006SOL    HW223478   0.431   3.309  14.647  1.9169 -1.2170 -0.3385
 4007SOL     OW23479   1.687   4.043   4.278 -0.1242 -0.6263 -0.2729
 4007SOL    HW123480   1.690   3.947   4.283 -1.1598 -0.6432 -0.0404
 4007SOL    HW223481   1.593   4.057   4.279  0.1464  1.0108  2.7725
 4008SOL     OW23482   1.822   0.310   4.499 -0.3075 -0.0023  0.3407
 4008SOL    HW123483   1.765   0.340   4.428  1.5629 -0.5676 -1.4016
 4008SOL    HW223484   1.905   0.299   4.453 -0.2975  1.2841  0.0427
 4009SOL     OW23485   0.973   2.816   1.103  0.6226  0.1405 -0.0385
 4009SOL    HW123486   0.953   2.789   1.193 -1.6350 -0.7066 -0.7967
 4009SOL    HW223487   1.069   2.813   1.106  0.6080  1.0190  1.4810
 4010SOL     OW23488   2.969   0.204   1.052  0.1896  0.0419  0.2584
 4010SOL    HW123489   2.914   0.257   1.110 -0.7689 -1.0844  0.3651
 4010SOL    HW223490   2.906   0.132   1.051  1.4783 -1.0809 -0.5358
 4011SOL     OW23491   4.327   2.000  16.682 -0.0444  0.1604  0.0371
 4011SOL    HW123492   4.343   2.044  16.599  1.1490  0.1391  0.2446
 4011SOL    HW223493   4.399   2.036  16.734  2.7308 -1.3100 -2.7394
 4012SOL     OW23494   3.804   3.693   0.723 -0.2785 -0.4441 -0.5808
 4012SOL    HW123495   3.897   3.698   0.699  0.4152  0.8646  2.3546
 4012SOL    HW223496   3.798   3.624   0.789 -1.9945  1.5521  1.3835
 4013SOL     OW23497   2.033   3.895   4.768  0.4608  0.5739  0.6085
 4013SOL    HW123498   2.114   3.863   4.728  0.1774 -0.4955  0.9153
 4013SOL    HW223499   1.978   3.909   4.691 -0.3756 -0.1436  1.0828
 4014SOL     OW23500   1.414   4.072   4.624  0.3021  0.2306  0.4587
 4014SOL    HW123501   1.498   4.100   4.587  0.1352 -3.0829 -2.5207
 4014SOL    HW223502   1.421   4.106   4.713  2.0755  0.7639  0.1147
 4015SOL     OW23503   4.246   3.805  16.239 -0.3370 -0.1628 -0.2883
 4015SOL    HW123504   4.335   3.792  16.208 -0.8275  2.1536 -2.6854
 4015SOL    HW223505   4.202   3.829  16.157 -1.7530  1.1963  0.8451
 4016SOL     OW23506   1.391   3.646   2.113 -0.4344 -0.4276 -0.4148
 4016SOL    HW123507   1.367   3.621   2.202  1.4321  2.7355  0.9357
 4016SOL    HW223508   1.364   3.570   2.061  1.4101 -0.9366 -0.6304
 4017SOL     OW23509   0.656   0.593   4.911 -0.2908  0.2033  0.1699
 4017SOL    HW123510   0.567   0.605   4.943  0.2127  0.6290  1.4312
 4017SOL    HW223511   0.649   0.499   4.931 -1.1911  0.3642  0.5969
 4018SOL     OW23512   0.267   1.784   4.590  0.7747  0.2701 -0.0231
 4018SOL    HW123513   0.241   1.848   4.657  1.4466 -1.1963  1.6574
 4018SOL    HW223514   0.254   1.834   4.510  1.5115 -0.3317 -0.5185
 4019SOL     OW23515   3.656   4.224   4.326  0.0930 -0.1525  0.2972
 4019SOL    HW123516   3.606   4.299   4.357  1.6476  0.5479  1.0888
 4019SOL    HW223517   3.628   4.205   4.236 -0.5046 -2.0019  0.8729
 4020SOL     OW23518   1.576   3.507   6.918  0.0820 -0.0258  0.2210
 4020SOL    HW123519   1.563   3.488   7.011  3.0947 -2.1967  0.2025
 4020SOL    HW223520   1.483   3.506   6.892  0.5944 -1.8562 -1.5371
 4021SOL     OW23521   0.589   0.275   3.161  0.0895 -0.0230  0.0301
 4021SOL    HW123522   0.570   0.363   3.192 -0.7099 -0.3371  0.4502
 4021SOL    HW223523   0.641   0.246   3.236 -0.4627 -2.1866 -0.3966
 4022SOL     OW23524   3.135   3.856   5.140 -0.2137  0.4292  0.1668
 4022SOL    HW123525   3.227   3.832   5.146  0.2200  1.7504 -1.2011
 4022SOL    HW223526   3.138   3.924   5.072  3.0141 -0.5277 -0.6333
 4023SOL     OW23527   1.019   1.483   7.798 -0.1891 -0.0702 -0.0706
 4023SOL    HW123528   0.937   1.451   7.761  0.5721 -1.6964 -0.3427
 4023SOL    HW223529   1.079   1.480   7.723  1.6423  3.2382  1.2667
 4024SOL     OW23530   2.318   1.542  14.421  0.0590 -0.1918  0.7416
 4024SOL    HW123531   2.301   1.637  14.422 -1.2442 -0.4200  0.7655
 4024SOL    HW223532   2.346   1.524  14.511  2.7674 -1.7750 -0.4172
 4025SOL     OW23533   0.427   4.118   8.710  0.3539 -0.2781  0.1526
 4025SOL    HW123534   0.506   4.169   8.691  0.6154 -0.6106  0.3697
 4025SOL    HW223535   0.399   4.086   8.624 -1.3944  0.5801  0.3937
 4026SOL     OW23536   1.812   2.599  11.748  0.0588  0.0441 -0.1127
 4026SOL    HW123537   1.727   2.628  11.783 -0.8232 -0.1637 -2.0830
 4026SOL    HW223538   1.847   2.686  11.733 -1.8156  1.2541  2.3999
 4027SOL     OW23539   1.051   3.853   7.220  1.0198 -0.5712  0.8056
 4027SOL    HW123540   1.033   3.760   7.232  0.4673 -0.7797 -1.5980
 4027SOL    HW223541   1.035   3.881   7.310 -0.0973 -0.2809  0.5200
 4028SOL     OW23542   4.203   4.471   9.403  0.0451  0.1882 -0.5584
 4028SOL    HW123543   4.181   4.396   9.458  1.4701  0.7340  0.7728
 4028SOL    HW223544   4.114   4.500   9.384 -0.3604 -0.2976  0.5790
 4029SOL     OW23545   4.524   4.699   0.618  0.1518 -0.2940  0.8236
 4029SOL    HW123546   4.559   4.657   0.539  1.1137  1.2343  0.4517
 4029SOL    HW223547   4.595   0.037   0.628  0.2608 -0.1316 -0.9306
 4030SOL     OW23548   2.144   2.035   3.804 -0.9599  0.1802  0.3743
 4030SOL    HW123549   2.179   1.991   3.881  2.2808 -0.7180 -1.6239
 4030SOL    HW223550   2.223   2.039   3.750 -0.4661  1.7325  1.1989
 4031SOL     OW23551   2.862   2.971  11.555  0.2056  0.1953  0.3625
 4031SOL    HW123552   2.823   2.886  11.535 -2.2441  1.9114 -2.1212
 4031SOL    HW223553   2.867   3.011  11.468 -1.7154  0.4161  0.3558
 4032SOL     OW23554   1.461   3.173   6.852  0.5864 -0.0892 -0.5497
 4032SOL    HW123555   1.366   3.181   6.850  0.6203  0.1276 -1.3180
 4032SOL    HW223556   1.485   3.080   6.848  2.5959  0.4230 -0.3771
 4033SOL     OW23557   3.224   1.159   3.376  0.1941 -0.3592 -0.3593
 4033SOL    HW123558   3.187   1.147   3.464  1.6765  0.0506  0.3193
 4033SOL    HW223559   3.272   1.242   3.380 -0.5033  0.1150 -2.2577
 4034SOL     OW23560   3.236   2.957  10.452  0.2485 -0.2690 -0.3597
 4034SOL    HW123561   3.162   3.017  10.461 -0.3221 -0.8435 -1.2502
 4034SOL    HW223562   3.304   2.998  10.505 -2.2779  1.0090  1.8789
 4035SOL     OW23563   1.648   4.507   2.892 -0.6685  0.0953  0.7146
 4035SOL    HW123564   1.609   4.550   2.968 -1.7717 -0.8065  0.6691
 4035SOL    HW223565   1.717   4.457   2.937 -1.7571 -2.0525  0.0083
 4036SOL     OW23566   3.668   4.078   3.676 -0.5517  0.0796 -0.2361
 4036SOL    HW123567   3.617   4.080   3.595  1.1710  1.3496 -1.2851
 4036SOL    HW223568   3.757   4.063   3.644 -0.5208 -2.4971  1.1096
 4037SOL     OW23569   3.369   2.625   9.618  0.2672 -0.1576  0.0521
 4037SOL    HW123570   3.378   2.548   9.675 -2.2633  0.3529  1.1314
 4037SOL    HW223571   3.307   2.593   9.553 -0.5798 -0.8649  1.1975
 4038SOL     OW23572   2.192   0.406   3.800  0.5967  0.0905 -0.5399
 4038SOL    HW123573   2.168   0.362   3.719  0.3022  1.3038 -1.1101
 4038SOL    HW223574   2.278   0.364   3.806  0.1267 -0.8261 -0.1580
 4039SOL     OW23575   2.801   4.434  14.374 -0.4160 -0.9856 -0.1103
 4039SOL    HW123576   2.861   4.362  14.396 -0.0345 -0.1540  1.6305
 4039SOL    HW223577   2.843   4.506  14.422 -2.4522 -0.2433  0.5464
 4040SOL     OW23578   3.691   1.395   9.105 -0.1421 -0.1282 -0.1600
 4040SOL    HW123579   3.718   1.429   9.190 -1.0098 -0.1445  0.1223
 4040SOL    HW223580   3.771   1.363   9.065 -1.1340 -2.0159 -0.5942
 4041SOL     OW23581   2.533   2.065  16.742 -0.2292 -0.5796  0.4110
 4041SOL    HW123582   2.531   2.136  16.806 -1.9574 -0.7662  0.5580
 4041SOL    HW223583   2.467   2.095  16.679 -2.9573 -0.3646  3.4220
 4042SOL     OW23584   0.413   0.932   5.562  0.0524  0.2863 -0.3547
 4042SOL    HW123585   0.376   0.851   5.528 -1.4182 -0.1820  2.3831
 4042SOL    HW223586   0.339   0.992   5.567 -1.0944 -1.1281 -0.2631
 4043SOL     OW23587   3.863   2.821   3.509 -0.2771 -1.0531 -0.0091
 4043SOL    HW123588   3.948   2.866   3.511 -0.3323 -0.9455 -0.0724
 4043SOL    HW223589   3.812   2.898   3.534  0.1061 -0.9414  0.4275
 4044SOL     OW23590   1.932   2.111   6.249  0.6433  0.3139  0.1610
 4044SOL    HW123591   1.842   2.097   6.278  0.6702 -2.8511 -1.3155
 4044SOL    HW223592   1.920   2.158   6.166  1.2973 -0.9316 -0.6464
 4045SOL     OW23593   0.891   2.433   8.168 -0.2313  0.4627 -0.5005
 4045SOL    HW123594   0.898   2.425   8.073  1.5036 -1.1251 -0.2570
 4045SOL    HW223595   0.902   2.341   8.192  0.8895  0.2089 -1.9578
 4046SOL     OW23596   4.026   1.415   5.685  0.1202 -0.0665 -1.0443
 4046SOL    HW123597   3.951   1.359   5.668 -0.4271  1.0475 -2.2800
 4046SOL    HW223598   3.974   1.495   5.680 -2.4651 -1.7143 -0.1631
 4047SOL     OW23599   1.598   2.438  13.925  0.4979  0.1360  0.4625
 4047SOL    HW123600   1.659   2.501  13.887 -1.6737  0.5286 -2.3079
 4047SOL    HW223601   1.576   2.398  13.842 -1.1801  0.4500  0.7531
 4048SOL     OW23602   0.306   0.828   7.406 -0.2813  0.3170  0.0041
 4048SOL    HW123603   0.236   0.787   7.354 -0.8161  1.5580 -0.2518
 4048SOL    HW223604   0.334   0.900   7.350 -1.3573  0.1295 -0.7896
 4049SOL     OW23605   0.614   3.683  14.703  0.0818  0.3604 -0.2820
 4049SOL    HW123606   0.681   3.629  14.745 -2.3070 -2.0963  0.3754
 4049SOL    HW223607   0.650   3.771  14.715  1.6591 -0.1713 -1.0512
 4050SOL     OW23608   3.033   1.773   7.031 -0.0325 -0.0016  0.2068
 4050SOL    HW123609   2.981   1.739   7.104  1.7557 -1.0091  0.9983
 4050SOL    HW223610   2.954   1.808   6.988 -0.4263 -0.9356  0.1779
 4051SOL     OW23611   2.877   1.786   5.233  0.3878  0.4232  1.1634
 4051SOL    HW123612   2.785   1.811   5.236  0.0182 -0.9339  1.2285
 4051SOL    HW223613   2.880   1.702   5.279 -2.0120 -0.1936  0.1944
 4052SOL     OW23614   4.175   3.559   4.608  0.1430  0.5685  0.0557
 4052SOL    HW123615   4.171   3.507   4.688  1.5392 -0.4660 -0.5535
 4052SOL    HW223616   4.223   3.499   4.551 -0.7844  1.1654 -1.3561
 4053SOL     OW23617   3.048   0.743   2.291  0.2940 -0.2365 -0.1935
 4053SOL    HW123618   2.997   0.717   2.368 -0.5274  1.3498 -0.2201
 4053SOL    HW223619   2.990   0.727   2.217 -0.6715 -1.7590  0.9045
 4054SOL     OW23620   3.372   0.412  14.876  0.3255  0.1032  0.2492
 4054SOL    HW123621   3.312   0.357  14.926 -1.2241  2.7309  1.2277
 4054SOL    HW223622   3.355   0.493  14.924  1.0771  0.1004  0.5269
 4055SOL     OW23623   1.195   0.236  11.962  0.3460 -0.0717  0.5280
 4055SOL    HW123624   1.249   0.157  11.964  1.4266  0.5535 -4.2147
 4055SOL    HW223625   1.252   0.300  12.005  1.2589 -0.6161  0.1389
 4056SOL     OW23626   3.425   3.856  13.375 -0.1107  0.1551  0.2173
 4056SOL    HW123627   3.334   3.875  13.399 -0.6527  0.5924 -2.2634
 4056SOL    HW223628   3.411   3.801  13.299 -0.7854 -0.0493  0.4876
 4057SOL     OW23629   0.581   1.484   1.983  0.1267 -0.2851  0.4561
 4057SOL    HW123630   0.508   1.534   2.019 -0.5299  0.7265 -2.3080
 4057SOL    HW223631   0.570   1.497   1.889 -2.5659  0.0566  0.8292
 4058SOL     OW23632   2.884   1.169  14.747  0.0019 -0.4679 -0.0784
 4058SOL    HW123633   2.915   1.155  14.836  2.1471  0.8777 -0.6270
 4058SOL    HW223634   2.929   1.097  14.704  0.6278  1.1605 -2.1596
 4059SOL     OW23635   0.564   3.472   5.542  0.0139  0.2188 -0.4899
 4059SOL    HW123636   0.548   3.404   5.477 -1.3795  0.7777 -0.7256
 4059SOL    HW223637   0.487   3.529   5.543  0.3460  0.6433  1.2217
 4060SOL     OW23638   0.078   3.085  10.567  0.0856 -0.6121  0.2898
 4060SOL    HW123639   0.096   3.113  10.477  0.8044 -0.0683  0.5985
 4060SOL    HW223640   0.161   3.037  10.566 -0.2804 -1.2225 -0.1593
 4061SOL     OW23641   1.159   0.224   7.677  0.3027  0.7211 -0.5040
 4061SOL    HW123642   1.088   0.215   7.614 -0.1352 -1.1420  0.2526
 4061SOL    HW223643   1.199   0.139   7.654  1.4394  1.2413 -0.4842
 4062SOL     OW23644   3.365   4.268  16.635 -0.2739 -0.0641 -0.0626
 4062SOL    HW123645   3.424   4.321  16.688 -1.0437 -1.7497  2.4871
 4062SOL    HW223646   3.360   4.322  16.556  0.3341 -0.0572 -0.0949
 4063SOL     OW23647   1.114   3.058   1.228  0.6358 -0.2996 -1.3374
 4063SOL    HW123648   1.071   2.998   1.168  1.2424 -1.3274 -0.7502
 4063SOL    HW223649   1.047   3.073   1.295  2.7019  1.2965  0.3960
 4064SOL     OW23650   3.480   2.613   4.832 -0.1894 -0.1799  0.4070
 4064SOL    HW123651   3.555   2.575   4.879 -0.0047 -0.0970  0.1777
 4064SOL    HW223652   3.413   2.628   4.899  1.3423  0.9976  1.6951
 4065SOL     OW23653   1.503   1.006   8.081  0.4417  0.4377 -0.7678
 4065SOL    HW123654   1.559   1.039   8.150 -1.8462 -0.8713  1.7055
 4065SOL    HW223655   1.491   0.913   8.101 -0.2879  0.1859 -2.3341
 4066SOL     OW23656   4.204   0.819   9.766 -0.0751 -0.3320  0.5903
 4066SOL    HW123657   4.275   0.879   9.742  0.6920 -1.3807  0.1819
 4066SOL    HW223658   4.129   0.872   9.793 -0.4829 -1.5526  1.8860
 4067SOL     OW23659   4.716   1.578   0.724  0.5113  0.3247 -0.5887
 4067SOL    HW123660   4.690   1.485   0.723 -1.5853  0.9134 -0.3566
 4067SOL    HW223661   0.018   1.584   0.815  0.7342  1.4049 -0.7264
 4068SOL     OW23662   2.571   3.311  14.209 -0.1835 -0.2530  0.5380
 4068SOL    HW123663   2.638   3.375  14.235  1.7961 -2.6921  1.4868
 4068SOL    HW223664   2.507   3.371  14.170  0.4537 -0.0708 -0.2423
 4069SOL     OW23665   3.095   1.946   8.469  0.2468  0.0776  0.2956
 4069SOL    HW123666   3.172   1.954   8.412  2.7213 -1.8562  3.4182
 4069SOL    HW223667   3.138   1.979   8.547  0.3516  1.3944 -0.3206
 4070SOL     OW23668   2.956   4.410   2.663  0.3346  1.0277  0.3319
 4070SOL    HW123669   2.899   4.463   2.718 -1.0473 -0.4202  0.2864
 4070SOL    HW223670   2.891   4.392   2.595 -0.1700  2.2905  0.4892
 4071SOL     OW23671   3.822   1.038  11.529  0.2744 -0.0357 -0.6391
 4071SOL    HW123672   3.868   1.112  11.568  0.3176 -0.7307  0.6398
 4071SOL    HW223673   3.836   1.053  11.435 -0.8828  1.3524 -0.5769
 4072SOL     OW23674   4.224   1.932   3.373 -0.1128  0.0919 -0.2228
 4072SOL    HW123675   4.139   1.921   3.329 -0.2282 -1.2632  0.3605
 4072SOL    HW223676   4.239   2.024   3.353 -0.5557  0.1692 -0.2043
 4073SOL     OW23677   0.491   1.154   8.591 -0.6068 -0.4692  0.3453
 4073SOL    HW123678   0.547   1.170   8.515 -1.0212 -0.9589 -0.0665
 4073SOL    HW223679   0.518   1.216   8.659 -2.2625  2.0434 -1.2829
 4074SOL     OW23680   0.532   4.513   8.265  0.1634  0.6403 -0.5185
 4074SOL    HW123681   0.626   4.519   8.248  0.6590  0.3906  2.1103
 4074SOL    HW223682   0.504   4.514   8.174  0.0006 -3.7858 -0.5579
 4075SOL     OW23683   1.932   1.684   6.287 -0.3057 -0.6370  0.2813
 4075SOL    HW123684   1.988   1.747   6.240  0.4534 -1.6001 -0.1054
 4075SOL    HW223685   1.881   1.750   6.335  0.1118 -0.1235  0.0241
 4076SOL     OW23686   1.035   4.498  17.605  0.4775 -0.4534 -0.2490
 4076SOL    HW123687   0.943   4.474  17.590  0.6970 -2.0877  0.9489
 4076SOL    HW223688   1.029   4.589  17.574  0.2877  0.8448  3.5974
 4077SOL     OW23689   3.567   2.744   6.874  0.0592  0.1373 -0.0586
 4077SOL    HW123690   3.517   2.756   6.955  0.2509  1.1410 -0.0894
 4077SOL    HW223691   3.538   2.812   6.813 -0.0816 -0.9807 -1.2436
 4078SOL     OW23692   4.572   3.984  17.343  0.1246 -0.3827 -0.0052
 4078SOL    HW123693   4.601   4.030  17.264  1.9057 -1.3309  0.0813
 4078SOL    HW223694   4.484   3.958  17.316 -0.7023 -0.0062  2.3109
 4079SOL     OW23695   2.506   3.411   6.236 -0.1797  0.0851  0.0226
 4079SOL    HW123696   2.413   3.430   6.240 -0.1799 -0.3239  1.9638
 4079SOL    HW223697   2.510   3.324   6.276 -0.1058 -0.5030 -1.2409
 4080SOL     OW23698   2.923   3.583   6.249 -0.0485  0.2321  0.0769
 4080SOL    HW123699   2.927   3.596   6.344  0.2565 -0.0232  0.1000
 4080SOL    HW223700   2.964   3.497   6.249 -0.9603 -0.2034  0.8312
 4081SOL     OW23701   3.810   1.073   3.659 -0.1622  0.4057 -0.4838
 4081SOL    HW123702   3.737   1.025   3.699 -0.0978 -0.2430 -1.1405
 4081SOL    HW223703   3.766   1.132   3.598 -0.1323  0.5182 -0.3964
 4082SOL     OW23704   3.843   2.177   6.339  0.0007 -0.1121 -0.1694
 4082SOL    HW123705   3.819   2.157   6.430  0.0787 -0.4868 -0.2313
 4082SOL    HW223706   3.887   2.262   6.344 -1.3705  0.5272  1.1495
 4083SOL     OW23707   0.629   1.133   3.206 -0.4529 -0.5246  0.4072
 4083SOL    HW123708   0.588   1.194   3.146  1.5430 -0.2168 -0.6412
 4083SOL    HW223709   0.677   1.077   3.145  1.2219  1.4371 -0.0396
 4084SOL     OW23710   0.863   3.634   2.965 -0.3162 -0.0890  0.1809
 4084SOL    HW123711   0.915   3.554   2.962 -0.2547  0.0065 -1.4681
 4084SOL    HW223712   0.812   3.624   3.045  2.1745 -2.5326  1.4157
 4085SOL     OW23713   1.397   3.188  12.249  0.5173 -0.6735  0.9842
 4085SOL    HW123714   1.441   3.201  12.333 -0.5818 -1.1482  1.6330
 4085SOL    HW223715   1.325   3.250  12.265  1.1523 -0.1093  1.6461
 4086SOL     OW23716   0.180   0.401   6.737 -0.5468 -0.3895 -0.5532
 4086SOL    HW123717   0.168   0.424   6.645 -3.0680 -1.0543 -0.3690
 4086SOL    HW223718   0.089   0.417   6.761 -0.3431  0.6933 -0.4843
 4087SOL     OW23719   4.680   3.318   5.922 -0.3319  0.6089 -0.1181
 4087SOL    HW123720   4.722   3.280   5.845 -2.8009 -1.4569 -0.4382
 4087SOL    HW223721   0.031   3.353   5.968  1.4431 -1.1150 -1.7727
 4088SOL     OW23722   2.011   2.807   8.093 -0.0148  0.1624 -0.1266
 4088SOL    HW123723   1.960   2.738   8.050  1.8903 -1.3113 -0.0038
 4088SOL    HW223724   2.033   2.754   8.169  1.6436  0.2565 -0.5575
 4089SOL     OW23725   2.406   3.755   4.994  0.1476  0.9071  0.1330
 4089SOL    HW123726   2.479   3.814   5.008  1.8628 -1.4631  1.1109
 4089SOL    HW223727   2.457   3.676   4.977 -1.0194 -0.0915  1.2258
 4090SOL     OW23728   3.747   0.346   6.141 -0.6961 -0.6445  0.0172
 4090SOL    HW123729   3.810   0.415   6.119  1.1352 -1.7709  1.7437
 4090SOL    HW223730   3.673   0.386   6.094  0.2188 -1.5926 -2.1957
 4091SOL     OW23731   1.480   4.213   4.029  0.1022  0.3814  0.4928
 4091SOL    HW123732   1.529   4.284   4.069 -1.0497  0.6585  1.4050
 4091SOL    HW223733   1.392   4.242   4.054 -0.5899 -0.7680 -0.5690
 4092SOL     OW23734   4.698   0.601   0.523  0.0181  0.1477  0.3441
 4092SOL    HW123735   0.045   0.545   0.496 -1.5482 -0.5567 -2.4188
 4092SOL    HW223736   4.637   0.578   0.453  2.6047 -0.0955 -1.8490
 4093SOL     OW23737   0.720   4.389   7.673  0.3899 -1.0139 -0.3566
 4093SOL    HW123738   0.718   4.318   7.737 -1.0578 -1.0792 -0.4801
 4093SOL    HW223739   0.674   4.466   7.706  1.3833 -0.0868 -1.1414
 4094SOL     OW23740   0.324   3.929   9.513  0.2300  0.3774 -0.3798
 4094SOL    HW123741   0.275   3.993   9.564  0.5215  1.5496 -1.5743
 4094SOL    HW223742   0.350   3.871   9.585  0.0711 -0.6093 -1.1273
 4095SOL     OW23743   4.306   0.566   9.813  0.0239  0.6354  0.2257
 4095SOL    HW123744   4.278   0.656   9.799  0.9485  1.0213  0.8769
 4095SOL    HW223745   4.327   0.560   9.906  2.1971  2.9367 -0.1050
 4096SOL     OW23746   0.451   1.284   3.740 -0.0185  0.2667 -0.1767
 4096SOL    HW123747   0.501   1.364   3.728 -0.8146  1.1537  2.2949
 4096SOL    HW223748   0.516   1.221   3.708  0.1504  1.5495 -2.3219
 4097SOL     OW23749   4.528   4.126  16.306  0.4132 -0.2974  0.2922
 4097SOL    HW123750   4.612   4.123  16.351  0.1630 -3.0297  0.5925
 4097SOL    HW223751   4.552   4.184  16.233  1.7951  1.1237  1.8871
 4098SOL     OW23752   2.815   1.171  13.960  0.4755  0.8243  0.6314
 4098SOL    HW123753   2.816   1.228  13.884  2.7816 -0.0987 -0.0034
 4098SOL    HW223754   2.766   1.231  14.016 -1.5683 -0.7065  0.4885
 4099SOL     OW23755   0.705   0.246   1.897  0.3560  0.4512 -0.2696
 4099SOL    HW123756   0.773   0.263   1.831  0.6219 -0.2350 -0.1792
 4099SOL    HW223757   0.629   0.235   1.839  0.0693 -1.5365  0.4679
 4100SOL     OW23758   3.245   1.626   2.227 -0.5864 -1.0311  0.2157
 4100SOL    HW123759   3.211   1.612   2.315 -0.0918  0.9389  0.7036
 4100SOL    HW223760   3.322   1.569   2.225  0.8330  0.9259 -0.1306
 4101SOL     OW23761   1.738   2.076   4.027 -0.3740  0.3981 -0.4255
 4101SOL    HW123762   1.801   2.135   3.986  0.8555 -0.1418  0.7144
 4101SOL    HW223763   1.729   2.129   4.106  1.3366  0.1783 -0.0903
 4102SOL     OW23764   0.918   2.690   1.842 -0.2373  0.2571  0.0285
 4102SOL    HW123765   0.979   2.713   1.913  1.1731  2.7507 -2.0164
 4102SOL    HW223766   0.838   2.703   1.893  0.2683  0.0810  0.8783
 4103SOL     OW23767   1.750   2.039   5.834  0.5963 -0.0100  0.6542
 4103SOL    HW123768   1.754   1.980   5.910  1.5296 -0.6039  0.1471
 4103SOL    HW223769   1.797   1.996   5.762 -2.7406  0.7928 -2.0107
 4104SOL     OW23770   2.014   4.679   6.439  0.7611  0.4414 -0.1315
 4104SOL    HW123771   2.008   0.039   6.396 -1.0074  0.9410  1.1226
 4104SOL    HW223772   1.970   4.634   6.366  1.8655 -1.9524  0.6815
 4105SOL     OW23773   0.772   2.842   1.668  0.2122  0.1655  0.3338
 4105SOL    HW123774   0.858   2.811   1.697 -0.9625 -2.2363  1.3185
 4105SOL    HW223775   0.753   2.786   1.592  0.7951  1.9698 -1.1194
 4106SOL     OW23776   0.077   2.047   1.364 -0.3913  0.0388  0.2196
 4106SOL    HW123777   0.001   2.093   1.398 -0.5019 -0.2089  0.3132
 4106SOL    HW223778   0.130   2.058   1.443  1.1244 -1.8119 -0.5476
 4107SOL     OW23779   3.789   3.769   9.628  0.7811 -0.4765  0.4186
 4107SOL    HW123780   3.757   3.679   9.622  0.9917 -0.4404 -1.3736
 4107SOL    HW223781   3.752   3.813   9.552  0.3807  0.5706  1.2255
 4108SOL     OW23782   4.554   4.394  17.139  0.0209 -0.0713 -0.5914
 4108SOL    HW123783   4.516   4.379  17.052  1.2393  0.2823 -1.1754
 4108SOL    HW223784   4.608   4.317  17.153 -1.1709 -0.6041  1.0464
 4109SOL     OW23785   1.885   2.658   7.048 -0.4509  0.0813 -0.2993
 4109SOL    HW123786   1.893   2.564   7.063  1.2722 -0.1660 -3.0012
 4109SOL    HW223787   1.973   2.685   7.022  0.0807  0.6348  2.0397
 4110SOL     OW23788   3.010   3.681   3.113 -0.1638  0.1932 -1.4201
 4110SOL    HW123789   2.935   3.730   3.081  2.1882  2.0542 -4.0505
 4110SOL    HW223790   2.965   3.610   3.160  1.0904 -0.5558 -1.3545
 4111SOL     OW23791   0.863   0.647   3.206 -0.1749 -0.0040  0.1971
 4111SOL    HW123792   0.824   0.683   3.286 -0.4107 -0.1430  0.1428
 4111SOL    HW223793   0.783   0.616   3.164  0.6256 -0.1584 -1.1959
 4112SOL     OW23794   1.852   3.977  14.702 -0.5870  0.7213  0.7802
 4112SOL    HW123795   1.773   3.974  14.756 -0.5678 -0.7589  0.7327
 4112SOL    HW223796   1.895   4.057  14.731 -1.4379  0.6345  2.2862
 4113SOL     OW23797   0.005   2.823  12.930  0.0920 -0.1249 -0.8142
 4113SOL    HW123798   4.681   2.905  12.939 -1.0217 -0.9592  0.5660
 4113SOL    HW223799   4.671   2.752  12.953 -0.2341  0.1770 -0.7304
 4114SOL     OW23800   1.536   1.094   5.875  0.0857 -0.3375 -0.4927
 4114SOL    HW123801   1.472   1.027   5.853 -0.1777 -0.3885  0.4091
 4114SOL    HW223802   1.495   1.174   5.843 -0.6489 -0.7274 -0.5132
 4115SOL     OW23803   2.217   2.212  12.893  0.1808  0.2077  0.2285
 4115SOL    HW123804   2.296   2.239  12.845  0.5393 -0.5395  0.4046
 4115SOL    HW223805   2.159   2.189  12.820 -1.7748  0.7225  1.6445
 4116SOL     OW23806   3.816   2.480   1.516  0.1123  0.1893 -0.0046
 4116SOL    HW123807   3.727   2.448   1.532  1.1946 -3.0824 -0.7093
 4116SOL    HW223808   3.851   2.469   1.605  1.5202  2.3980 -0.2938
 4117SOL     OW23809   1.734   0.602   8.388  0.0589 -0.2975  0.2534
 4117SOL    HW123810   1.692   0.561   8.464 -3.5233 -0.2883 -1.7217
 4117SOL    HW223811   1.768   0.677   8.436 -0.2453  0.1999 -0.3156
 4118SOL     OW23812   1.918   1.468   3.840 -0.4646  0.3785 -0.2573
 4118SOL    HW123813   2.005   1.507   3.846  0.2323 -0.9210 -1.8877
 4118SOL    HW223814   1.902   1.492   3.749 -2.3511  0.1294 -0.0003
 4119SOL     OW23815   2.723   4.037   0.922 -0.1474 -0.2566 -0.0564
 4119SOL    HW123816   2.719   3.943   0.909  1.0372 -0.2121 -0.6654
 4119SOL    HW223817   2.784   4.070   0.857  1.2340 -1.9272  0.4105
 4120SOL     OW23818   2.474   0.317  17.515 -0.3137 -0.4377  0.0768
 4120SOL    HW123819   2.466   0.230  17.554 -1.4496 -0.4239 -0.1250
 4120SOL    HW223820   2.427   0.376  17.573  0.5622  1.4674 -1.1488
 4121SOL     OW23821   2.968   0.176   3.570 -0.1601 -0.8507 -0.3835
 4121SOL    HW123822   2.964   0.271   3.555  0.2389 -0.9813 -1.3592
 4121SOL    HW223823   3.061   0.156   3.560  0.4147  1.9999 -0.7092
 4122SOL     OW23824   1.438   1.350   2.099 -0.6097 -0.5240 -0.2554
 4122SOL    HW123825   1.370   1.402   2.142  0.0625  2.2397 -2.5319
 4122SOL    HW223826   1.500   1.358   2.172 -1.5198  0.8998  0.3500
 4123SOL     OW23827   0.374   0.167   6.946 -0.6965 -0.0237  0.9826
 4123SOL    HW123828   0.287   0.184   6.909  0.9528  0.9265 -2.5106
 4123SOL    HW223829   0.368   0.087   6.998 -2.3857 -1.4772 -1.4391
 4124SOL     OW23830   2.102   4.577   1.811  0.3984 -0.0881  0.0158
 4124SOL    HW123831   2.033   4.607   1.870 -0.2067 -1.0858 -0.1748
 4124SOL    HW223832   2.108   4.652   1.752  1.1952 -0.1436  0.0317
 4125SOL     OW23833   4.711   0.424   0.861 -0.1311 -0.6031 -0.0155
 4125SOL    HW123834   4.720   0.440   0.767  0.3188 -0.1498  0.1024
 4125SOL    HW223835   4.682   0.509   0.895  2.2181 -0.6476  2.0827
 4126SOL     OW23836   2.901   4.417   0.666 -0.3120  0.0954 -0.3569
 4126SOL    HW123837   2.878   4.420   0.759 -0.4429 -2.7481 -0.2990
 4126SOL    HW223838   2.811   4.397   0.638  0.1779 -1.7481 -0.6124
 4127SOL     OW23839   2.977   3.958  17.418 -0.0824 -0.3762  0.4323
 4127SOL    HW123840   3.066   3.991  17.409  0.1575 -0.8734  0.9550
 4127SOL    HW223841   2.990   3.863  17.406  0.5136 -0.0608 -1.4259
 4128SOL     OW23842   3.198   0.872  11.473  0.4496 -0.0242  0.3178
 4128SOL    HW123843   3.201   0.928  11.551  1.2081 -1.9539  1.6590
 4128SOL    HW223844   3.287   0.838  11.467  0.0619 -0.9457 -0.1031
 4129SOL     OW23845   2.471   0.433  13.895  0.2587 -0.2381  0.1369
 4129SOL    HW123846   2.526   0.458  13.969 -2.1077  1.8442  1.1793
 4129SOL    HW223847   2.528   0.414  13.821  1.2812 -0.9054  1.1080
 4130SOL     OW23848   1.537   0.008   0.441  0.0958  0.0029 -0.0645
 4130SOL    HW123849   1.448   0.043   0.446 -0.2532 -0.9954  0.6701
 4130SOL    HW223850   1.586   0.089   0.428  0.6668 -0.2073  0.8203
 4131SOL     OW23851   0.900   1.746   6.018 -0.0132 -0.0960 -0.1053
 4131SOL    HW123852   0.915   1.669   6.073 -0.6823 -1.7956 -2.3419
 4131SOL    HW223853   0.928   1.817   6.077 -3.9105  0.2680  1.2802
 4132SOL     OW23854   3.787   4.713   0.857  0.3241 -0.0143  0.0525
 4132SOL    HW123855   3.706   4.687   0.901 -0.3670  0.9128 -0.6657
 4132SOL    HW223856   3.760   4.685   0.769  2.9849  1.9236 -1.4039
 4133SOL     OW23857   3.859   3.496   9.419 -0.2996 -0.1022 -0.1419
 4133SOL    HW123858   3.892   3.427   9.361  0.4605  0.0354  0.1167
 4133SOL    HW223859   3.824   3.451   9.496  2.1511 -1.4679  0.1665
 4134SOL     OW23860   2.702   2.800  15.784  0.3218  0.3498 -0.3160
 4134SOL    HW123861   2.776   2.849  15.818  0.3486 -0.2290  0.4487
 4134SOL    HW223862   2.724   2.707  15.792  2.0725  0.8526  0.6824
 4135SOL     OW23863   3.159   1.810   3.118  0.1518  0.2363 -0.2382
 4135SOL    HW123864   3.251   1.835   3.131 -0.1237  1.3243 -0.3424
 4135SOL    HW223865   3.166   1.783   3.027  2.5809  1.4116 -0.4256
 4136SOL     OW23866   3.976   0.326   0.871  0.1696  0.0796 -0.4683
 4136SOL    HW123867   4.071   0.324   0.865  0.3753  0.9633  2.7914
 4136SOL    HW223868   3.972   0.348   0.964  1.8097  2.8438 -1.0444
 4137SOL     OW23869   4.024   3.460  10.544  0.0986  0.4899 -0.0698
 4137SOL    HW123870   4.052   3.534  10.490  0.3051 -1.2910 -2.3962
 4137SOL    HW223871   3.974   3.498  10.617 -0.3395  0.9997 -0.6366
 4138SOL     OW23872   0.190   2.914   8.348  0.3196 -0.2845  0.2141
 4138SOL    HW123873   0.120   2.978   8.351  0.2512 -0.3350 -0.2499
 4138SOL    HW223874   0.270   2.967   8.347 -0.3890  0.7953  1.1942
 4139SOL     OW23875   3.545   4.181   8.609  0.1401  0.9289 -0.0649
 4139SOL    HW123876   3.492   4.245   8.560  1.5189 -0.2791 -3.1430
 4139SOL    HW223877   3.477   4.116   8.627  1.9659 -1.4047 -1.6157
 4140SOL     OW23878   4.469   4.098   7.907  0.0587  0.3043 -0.2366
 4140SOL    HW123879   4.495   4.178   7.954  0.5447 -0.3287  0.5857
 4140SOL    HW223880   4.387   4.079   7.952  0.6858  0.2074  0.8851
 4141SOL     OW23881   0.256   0.095  10.237 -0.3970  0.7291  0.5007
 4141SOL    HW123882   0.222   0.073  10.323 -0.6487  0.8957  0.4435
 4141SOL    HW223883   0.203   0.169  10.207 -2.4232  0.0049  2.3252
 4142SOL     OW23884   2.521   4.134   7.391  0.3767 -0.6238 -0.0745
 4142SOL    HW123885   2.545   4.220   7.426 -0.3561 -0.8629  1.0327
 4142SOL    HW223886   2.608   4.095   7.397  0.8408  0.2765 -1.0123
 4143SOL     OW23887   0.406   0.381   2.857  0.5770 -0.5191  0.4647
 4143SOL    HW123888   0.398   0.300   2.907  2.0180 -1.1589 -0.3491
 4143SOL    HW223889   0.315   0.407   2.838  0.9287  0.3899  0.0018
 4144SOL     OW23890   0.167   0.561   7.519 -0.4924 -0.0765 -0.5747
 4144SOL    HW123891   0.155   0.512   7.437  0.6383  1.1257 -1.4636
 4144SOL    HW223892   0.171   0.488   7.581 -2.1804  0.1713 -0.1937
 4145SOL     OW23893   0.547   2.016   5.144 -0.2067 -1.1794 -0.3954
 4145SOL    HW123894   0.611   2.084   5.164  0.4794 -1.2075 -2.4470
 4145SOL    HW223895   0.606   1.947   5.112  0.7247  0.3056 -1.8544
 4146SOL     OW23896   3.018   2.417   6.080 -0.1691  0.6230 -0.1379
 4146SOL    HW123897   3.030   2.337   6.030  0.5816  2.3915 -2.8187
 4146SOL    HW223898   3.102   2.461   6.068  0.8474 -1.2525  0.2050
 4147SOL     OW23899   4.547   1.970   8.879 -0.2883 -0.0529 -0.2565
 4147SOL    HW123900   4.509   2.036   8.821 -2.0164  0.9780  2.0501
 4147SOL    HW223901   4.487   1.899   8.856  0.7573 -0.2326 -2.4355
 4148SOL     OW23902   2.183   4.335   5.626 -0.2906 -0.2400  0.5752
 4148SOL    HW123903   2.178   4.332   5.530 -0.5944 -0.4252  0.5977
 4148SOL    HW223904   2.184   4.430   5.637 -4.1188 -0.4602  2.8316
 4149SOL     OW23905   2.557   1.929   5.863 -0.4257  0.3367 -0.0090
 4149SOL    HW123906   2.477   1.901   5.906 -1.5910 -0.2609 -2.5543
 4149SOL    HW223907   2.528   1.934   5.772  1.1983 -0.2469 -0.5680
 4150SOL     OW23908   2.334   4.243  13.697  0.2666 -0.0595  0.0444
 4150SOL    HW123909   2.263   4.248  13.761  1.0841 -0.5305  0.9801
 4150SOL    HW223910   2.405   4.295  13.734  0.7474 -1.7543  1.5182
 4151SOL     OW23911   0.931   0.161   7.969 -0.1456 -0.2403  0.3210
 4151SOL    HW123912   0.879   0.086   7.940  0.5138 -0.0440 -1.3559
 4151SOL    HW223913   1.019   0.126   7.957  0.2140  0.3962  1.1719
 4152SOL     OW23914   2.047   1.764  15.072  0.0892 -0.2404  0.6183
 4152SOL    HW123915   2.110   1.836  15.073 -0.8339  0.5847 -0.6610
 4152SOL    HW223916   2.101   1.691  15.042 -1.7087 -0.8976 -1.0182
 4153SOL     OW23917   0.160   3.501  13.200 -0.4350 -0.4136  0.5508
 4153SOL    HW123918   0.167   3.595  13.188 -2.4095 -0.3226  0.1708
 4153SOL    HW223919   0.070   3.488  13.229 -1.0834  0.5375 -1.0828
 4154SOL     OW23920   4.620   3.569   8.185 -0.5329 -0.0401 -0.2494
 4154SOL    HW123921   4.613   3.653   8.230  0.6505  0.3131 -0.7384
 4154SOL    HW223922   4.678   3.592   8.113 -0.4698 -1.8307 -0.7859
 4155SOL     OW23923   2.283   2.456   2.748  0.0611  0.1132 -0.4077
 4155SOL    HW123924   2.328   2.398   2.688  0.5924 -0.0303  0.1271
 4155SOL    HW223925   2.252   2.530   2.696  0.2630  1.1909  1.0042
 4156SOL     OW23926   3.402   3.456   0.081  0.7288 -0.5380  0.4450
 4156SOL    HW123927   3.474   3.493   0.030  1.7821 -0.2003  2.1728
 4156SOL    HW223928   3.453   3.389   0.128  0.6776 -1.5599 -0.9639
 4157SOL     OW23929   1.432   2.831   3.833  0.2522  0.5129  0.2496
 4157SOL    HW123930   1.493   2.894   3.795 -0.4927  1.0428 -0.0663
 4157SOL    HW223931   1.358   2.891   3.839 -0.6583 -0.4050 -1.9804
 4158SOL     OW23932   3.583   4.490   6.722 -0.7949 -0.1048  0.4175
 4158SOL    HW123933   3.644   4.545   6.673 -0.8501 -0.6755 -0.2884
 4158SOL    HW223934   3.529   4.555   6.767  0.1648  0.5190  0.6726
 4159SOL     OW23935   3.660   3.932   9.410 -0.3579  0.0109  0.3314
 4159SOL    HW123936   3.653   3.841   9.381  0.7165 -0.3421  1.1324
 4159SOL    HW223937   3.625   3.978   9.334 -0.8651  1.9814  1.7567
 4160SOL     OW23938   1.561   1.642   6.489 -0.2181  0.2278 -0.0521
 4160SOL    HW123939   1.580   1.550   6.509 -0.9599 -0.4415 -2.4177
 4160SOL    HW223940   1.561   1.678   6.578 -0.2592  1.8167 -0.7040
 4161SOL     OW23941   3.863   0.107   6.042 -0.4302 -0.0236 -0.5941
 4161SOL    HW123942   3.822   0.112   5.955  1.1714 -0.5935 -1.3864
 4161SOL    HW223943   3.808   0.173   6.085 -2.5098 -1.3685 -1.2065
 4162SOL     OW23944   1.079   2.783   3.231 -0.1721  0.7163 -0.1459
 4162SOL    HW123945   1.067   2.698   3.189 -0.9317  2.0819 -2.6666
 4162SOL    HW223946   1.056   2.765   3.322  2.7145  0.6453  0.5616
 4163SOL     OW23947   0.947   4.313   6.966  0.0046 -0.5078 -0.5854
 4163SOL    HW123948   0.900   4.395   6.960  0.5901 -0.2758 -2.0590
 4163SOL    HW223949   0.984   4.306   6.878  0.1539 -0.2118 -0.5441
 4164SOL     OW23950   4.559   0.297   6.540  0.1972  0.4487 -0.4379
 4164SOL    HW123951   4.535   0.381   6.579  2.3825  0.9580 -0.1650
 4164SOL    HW223952   4.607   0.326   6.462  2.0827  0.3184  0.6507
 4165SOL     OW23953   3.683   3.028   6.188 -0.1647  0.1060  0.1206
 4165SOL    HW123954   3.609   2.967   6.192  0.3858 -0.5088  0.7340
 4165SOL    HW223955   3.735   2.972   6.245 -0.0869 -0.0589 -0.1130
 4166SOL     OW23956   2.112   4.637   0.216 -0.0804 -0.1685 -0.3490
 4166SOL    HW123957   2.055   4.564   0.191  1.7738 -2.5532  2.4759
 4166SOL    HW223958   2.190   4.606   0.171  0.6324  1.3755 -0.1678
 4167SOL     OW23959   1.136   4.593   2.797  0.4900  0.0428  0.3911
 4167SOL    HW123960   1.058   4.594   2.741 -0.1511 -0.0577  1.2829
 4167SOL    HW223961   1.154   4.687   2.803  0.2595  0.0730  0.6233
 4168SOL     OW23962   0.981   2.853   1.396  0.0316  0.6756  0.1297
 4168SOL    HW123963   0.924   2.930   1.400  0.7139  1.1336  1.0886
 4168SOL    HW223964   1.019   2.853   1.484 -0.5924  1.9410  0.4000
 4169SOL     OW23965   1.339   1.364   5.875  0.5545  0.4046 -0.1425
 4169SOL    HW123966   1.259   1.310   5.877  0.5553  0.4570  1.0879
 4169SOL    HW223967   1.368   1.376   5.965 -1.0485  0.6730  0.3515
 4170SOL     OW23968   2.629   4.000  14.720  0.4718  0.6201  0.2734
 4170SOL    HW123969   2.586   4.072  14.767 -1.9584 -1.1059  0.6702
 4170SOL    HW223970   2.667   3.950  14.793  1.4942  4.1160  2.1347
 4171SOL     OW23971   0.100   1.537   8.016  0.0308 -0.2953  0.0634
 4171SOL    HW123972   0.055   1.499   8.091 -1.4852 -2.2862 -1.8566
 4171SOL    HW223973   0.127   1.456   7.974 -0.6606 -0.5009  0.0182
 4172SOL     OW23974   0.266   3.063  14.641  0.7040  0.0381  0.0384
 4172SOL    HW123975   0.202   3.038  14.575 -0.4445  0.3912  1.0107
 4172SOL    HW223976   0.299   3.139  14.593  0.9601  0.3127  0.6385
 4173SOL     OW23977   0.842   1.700   5.056 -0.2535 -0.0926 -0.3934
 4173SOL    HW123978   0.777   1.680   5.124  1.4654 -2.6542  0.4738
 4173SOL    HW223979   0.874   1.616   5.023 -2.2247 -0.7786 -0.5205
 4174SOL     OW23980   4.655   2.040  11.606  0.1344 -0.7608 -0.2783
 4174SOL    HW123981   0.003   1.980  11.593 -0.1314 -1.1477  0.0188
 4174SOL    HW223982   4.583   1.977  11.607 -1.6788  1.3246  0.4562
 4175SOL     OW23983   1.733   1.825  16.379 -0.4949  0.1031  0.0784
 4175SOL    HW123984   1.781   1.746  16.353 -1.4622 -0.9846  1.5850
 4175SOL    HW223985   1.681   1.792  16.453 -0.3152  1.8254  0.9770
 4176SOL     OW23986   2.801   2.483   5.927 -0.0675 -0.0417 -0.3307
 4176SOL    HW123987   2.880   2.437   5.955 -1.0802 -1.4018  0.2927
 4176SOL    HW223988   2.743   2.445   5.993 -1.5003  0.8312 -1.0920
 4177SOL     OW23989   0.444   1.669   9.362  0.6255 -0.2922 -0.0706
 4177SOL    HW123990   0.391   1.627   9.430  0.3438  0.4278  0.1540
 4177SOL    HW223991   0.442   1.608   9.289  1.0283 -0.2685 -0.0979
 4178SOL     OW23992   0.877   1.192   8.300 -0.4794 -0.3507  0.7343
 4178SOL    HW123993   0.860   1.276   8.256  0.6650  0.1792  1.3032
 4178SOL    HW223994   0.935   1.234   8.363 -1.4008  0.4819  1.0217
 4179SOL     OW23995   1.497   2.974  11.793 -0.2353 -0.0839 -0.0113
 4179SOL    HW123996   1.535   2.888  11.813 -2.2669 -1.2044 -0.8571
 4179SOL    HW223997   1.545   3.033  11.850  0.0934 -0.6263  0.2752
 4180SOL     OW23998   4.260   2.088  16.085 -0.4085 -0.3190 -0.7115
 4180SOL    HW123999   4.307   2.097  16.002  0.7954  1.1105  0.1056
 4180SOL    HW224000   4.311   2.026  16.137 -0.8734  0.1884  0.3387
 4181SOL     OW24001   0.744   0.798  13.756  0.0753 -0.1067  0.2505
 4181SOL    HW124002   0.811   0.865  13.747  0.2670 -0.2369  0.7169
 4181SOL    HW224003   0.778   0.724  13.705  1.6186  0.0918  0.9996
 4182SOL     OW24004   3.841   2.018   7.582 -0.3828 -0.1610 -0.0279
 4182SOL    HW124005   3.881   2.057   7.504 -1.0752 -0.1639 -0.3787
 4182SOL    HW224006   3.890   2.055   7.656  3.2099  1.2534 -3.1028
 4183SOL     OW24007   1.405   4.368   7.889  0.0981  0.4399 -0.6708
 4183SOL    HW124008   1.467   4.341   7.957  1.1705  1.1448 -1.3660
 4183SOL    HW224009   1.447   4.325   7.815 -0.7357 -1.9409  0.2346
 4184SOL     OW24010   1.988   1.192  13.681  0.6688 -0.1343  0.8667
 4184SOL    HW124011   2.038   1.230  13.610  3.5326  0.8414  3.4001
 4184SOL    HW224012   1.917   1.254  13.697  0.2987 -0.0555 -1.0528
 4185SOL     OW24013   0.982   3.900   0.997 -0.5755  0.0019 -0.6702
 4185SOL    HW124014   1.010   3.932   0.912  3.5882 -2.1924 -0.1799
 4185SOL    HW224015   1.023   3.814   1.011 -1.2836 -0.1434  0.5742
 4186SOL     OW24016   1.568   0.946   5.197  0.0366  0.1624 -0.0130
 4186SOL    HW124017   1.536   0.949   5.107  1.0521  2.2271 -0.3008
 4186SOL    HW224018   1.483   0.950   5.242 -0.2384 -0.3742 -0.4783
 4187SOL     OW24019   1.882   2.608  11.436  0.0727  0.4717  0.7887
 4187SOL    HW124020   1.858   2.568  11.353  0.5172 -0.3361  1.0472
 4187SOL    HW224021   1.886   2.703  11.420 -3.0646  0.4922  0.1796
 4188SOL     OW24022   4.472   4.549   5.299  0.0401 -0.1623 -0.1078
 4188SOL    HW124023   4.517   4.633   5.289  1.5142 -1.2570 -2.5564
 4188SOL    HW224024   4.507   4.492   5.230 -0.6041 -0.8789  0.1540
 4189SOL     OW24025   4.386   2.997   7.417 -0.0787  0.8398 -0.2346
 4189SOL    HW124026   4.472   2.992   7.376 -0.7624  2.8197 -1.9065
 4189SOL    HW224027   4.382   2.912   7.462 -0.3466  0.9862  0.0163
 4190SOL     OW24028   3.927   3.640  13.231  0.2358 -0.2494  0.1869
 4190SOL    HW124029   3.981   3.618  13.155  0.7599  2.3614 -0.2161
 4190SOL    HW224030   3.982   3.700  13.281  0.1312  2.0771 -2.4415
 4191SOL     OW24031   3.139   1.727   7.366 -0.1512 -0.2832  0.4507
 4191SOL    HW124032   3.153   1.712   7.460 -2.1041  0.5698  0.8806
 4191SOL    HW224033   3.048   1.700   7.355  0.0978 -1.1122  0.3894
 4192SOL     OW24034   1.098   3.775  11.941 -0.2170 -0.5155  0.2615
 4192SOL    HW124035   1.152   3.818  12.008 -0.1045  2.0730 -1.5104
 4192SOL    HW224036   1.162   3.728  11.888 -1.9743 -1.9686 -0.5685
 4193SOL     OW24037   0.700   1.443   7.047  0.6195 -0.2533  0.8843
 4193SOL    HW124038   0.682   1.531   7.014  0.0769 -0.3742  0.8551
 4193SOL    HW224039   0.796   1.446   7.044  0.5769  0.4896  0.1053
 4194SOL     OW24040   3.099   4.155   6.405 -0.2488 -0.0561  0.2963
 4194SOL    HW124041   3.036   4.159   6.477 -3.2551 -1.3598 -2.2385
 4194SOL    HW224042   3.087   4.239   6.362 -2.0231 -1.0926 -1.2409
 4195SOL     OW24043   3.583   3.240  14.092  0.3738  0.4307 -0.3666
 4195SOL    HW124044   3.500   3.196  14.111  0.8868 -1.3740 -2.2645
 4195SOL    HW224045   3.608   3.260  14.182 -0.0439 -0.5470 -0.0287
 4196SOL     OW24046   3.507   4.612   1.431 -0.0883  0.3750 -0.0286
 4196SOL    HW124047   3.541   4.616   1.342 -0.3599  1.0211 -0.1038
 4196SOL    HW224048   3.423   4.656   1.420 -0.2741  0.0927  0.2848
 4197SOL     OW24049   2.092   2.428  10.586 -0.0985  0.3546  0.2718
 4197SOL    HW124050   2.172   2.475  10.611  1.2922 -3.0058  2.0964
 4197SOL    HW224051   2.040   2.425  10.665 -0.4088 -0.8424  0.0212
 4198SOL     OW24052   3.323   3.601   5.668  0.3478 -0.4372  0.2505
 4198SOL    HW124053   3.257   3.583   5.734 -1.7159  1.7426 -1.2307
 4198SOL    HW224054   3.279   3.651   5.600 -1.0055 -2.1497 -0.1446
 4199SOL     OW24055   3.167   1.683   5.409  0.4210  0.5478 -0.1946
 4199SOL    HW124056   3.176   1.667   5.503 -3.2201  2.0568  0.4059
 4199SOL    HW224057   3.134   1.599   5.378 -0.5288  1.0321 -0.5046
 4200SOL     OW24058   0.723   0.572  11.019  0.0651 -0.3168  0.2263
 4200SOL    HW124059   0.757   0.498  10.968 -1.8596  0.2630 -1.8764
 4200SOL    HW224060   0.770   0.644  10.977 -1.3641  0.2953 -0.3295
 4201SOL     OW24061   3.524   0.047   6.863 -0.3071 -0.1427 -0.1047
 4201SOL    HW124062   3.532   0.102   6.785  0.2679  0.7230  0.5589
 4201SOL    HW224063   3.608   0.043   6.909  0.4997  4.1903 -1.1806
 4202SOL     OW24064   0.217   2.824  13.612  0.7979 -0.3708  0.1636
 4202SOL    HW124065   0.130   2.847  13.579  1.2917  2.3420  0.8000
 4202SOL    HW224066   0.248   2.911  13.636 -0.1271 -0.4289  1.5791
 4203SOL     OW24067   0.659   0.491   6.098 -0.2212  0.3292 -0.4028
 4203SOL    HW124068   0.590   0.431   6.071 -0.8190  1.1185 -0.6136
 4203SOL    HW224069   0.603   0.548   6.150 -0.5499 -1.6634  1.4336
 4204SOL     OW24070   4.664   0.408   0.188 -0.0032 -0.3681 -0.0136
 4204SOL    HW124071   4.708   0.430   0.106  0.2337 -2.5800 -0.5013
 4204SOL    HW224072   4.604   0.338   0.163  0.3091 -0.5818 -0.1689
 4205SOL     OW24073   0.261   0.804   6.678  0.0404  0.2962 -0.1104
 4205SOL    HW124074   0.230   0.771   6.763 -1.6580  3.4973  0.4973
 4205SOL    HW224075   0.354   0.801   6.699 -0.1818 -0.8779  0.6843
 4206SOL     OW24076   4.120   0.899   1.460 -0.1485 -0.5941 -0.0244
 4206SOL    HW124077   4.132   0.980   1.510  0.1654 -1.2830  1.0256
 4206SOL    HW224078   4.167   0.835   1.513 -1.4048 -1.8297 -0.4047
 4207SOL     OW24079   3.600   4.587  14.377  0.1031  0.0609 -0.3184
 4207SOL    HW124080   3.528   4.524  14.386 -1.6358  1.6997 -2.5961
 4207SOL    HW224081   3.660   4.538  14.321 -0.6075  0.3203 -1.3217
 4208SOL     OW24082   0.547   2.152   4.907  0.1346  0.1332  0.8473
 4208SOL    HW124083   0.495   2.110   4.976  1.9540 -1.6458  1.1315
 4208SOL    HW224084   0.627   2.103   4.929  2.8018  3.0896 -2.2544
 4209SOL     OW24085   2.453   3.478   2.377 -0.0088  0.0547 -0.0746
 4209SOL    HW124086   2.505   3.556   2.354  2.2748 -0.5025  3.1275
 4209SOL    HW224087   2.437   3.446   2.289  2.2900 -0.2587 -0.3842
 4210SOL     OW24088   1.257   1.504   2.696  0.1389  0.3601 -0.0858
 4210SOL    HW124089   1.279   1.509   2.789 -0.2882  0.9100 -0.0134
 4210SOL    HW224090   1.222   1.416   2.701  1.0090  0.0846  1.2142
 4211SOL     OW24091   3.185   0.942   9.860 -0.0545  0.1793  0.0333
 4211SOL    HW124092   3.090   0.929   9.867  0.0293  0.6642  2.0090
 4211SOL    HW224093   3.193   1.011   9.794  2.4853  0.8371  1.0246
 4212SOL     OW24094   2.003   0.615  13.380 -0.2931  0.2333  0.0727
 4212SOL    HW124095   2.065   0.688  13.387  2.0184 -1.6204 -1.2574
 4212SOL    HW224096   1.935   0.649  13.439 -0.7043 -0.0111 -0.2640
 4213SOL     OW24097   3.514   1.103   4.258  0.1550 -0.3570 -0.8310
 4213SOL    HW124098   3.477   1.065   4.338 -0.1909  1.4326 -0.1445
 4213SOL    HW224099   3.459   1.071   4.187 -0.8404  0.8767 -0.6160
 4214SOL     OW24100   0.694   4.344   5.061 -0.2349  0.4744 -0.2628
 4214SOL    HW124101   0.621   4.326   5.001 -0.1915 -1.1331  0.1554
 4214SOL    HW224102   0.671   4.425   5.106  0.0946  0.0101  0.7234
 4215SOL     OW24103   0.038   1.864   8.777  0.5788 -0.1342  0.4046
 4215SOL    HW124104   4.725   1.777   8.763 -0.2005  0.2665  0.0107
 4215SOL    HW224105   4.699   1.894   8.841  0.1173  0.8253 -0.5074
 4216SOL     OW24106   1.006   4.282   4.439 -0.5801 -0.0116 -0.2082
 4216SOL    HW124107   1.053   4.365   4.450 -1.6074  0.6166 -0.4632
 4216SOL    HW224108   0.941   4.309   4.374 -0.9421 -3.0742 -1.1153
 4217SOL     OW24109   0.335   2.838   3.855  0.2452 -0.4574  0.1933
 4217SOL    HW124110   0.296   2.776   3.917  0.8393  1.5569  2.5413
 4217SOL    HW224111   0.326   2.792   3.771 -2.8905  1.6945 -0.6696
 4218SOL     OW24112   1.739   1.550  16.865  0.0836  0.1830 -0.0183
 4218SOL    HW124113   1.685   1.606  16.920 -0.5696  1.6980 -2.2044
 4218SOL    HW224114   1.831   1.566  16.885  0.2130  1.5226 -1.6565
 4219SOL     OW24115   4.282   4.344   8.651  0.4488 -0.1649 -0.3255
 4219SOL    HW124116   4.193   4.381   8.655  0.2399 -0.4509 -2.2789
 4219SOL    HW224117   4.340   4.419   8.641  0.3133  0.0389  0.4272
 4220SOL     OW24118   4.216   3.538   6.383 -0.1272 -0.4252  0.2723
 4220SOL    HW124119   4.282   3.485   6.339 -0.2479 -0.1952 -0.1901
 4220SOL    HW224120   4.193   3.474   6.451 -1.2380 -0.7589 -0.4115
 4221SOL     OW24121   1.169   4.153   3.567 -0.8056  0.0550  0.2094
 4221SOL    HW124122   1.138   4.078   3.516  0.4692 -2.3445  2.9271
 4221SOL    HW224123   1.135   4.228   3.518 -1.3462 -0.9719 -0.9848
 4222SOL     OW24124   2.723   2.367  12.786 -0.0335 -0.2313  0.0523
 4222SOL    HW124125   2.793   2.325  12.837  0.2982  0.2353 -0.0162
 4222SOL    HW224126   2.743   2.309  12.713 -2.4733 -0.4825 -0.3979
 4223SOL     OW24127   3.031   3.516   9.940  0.0373 -0.2670  0.1112
 4223SOL    HW124128   3.056   3.468   9.861  0.2846 -0.4486  0.3008
 4223SOL    HW224129   3.033   3.603   9.900 -2.9134  0.0675  0.7496
 4224SOL     OW24130   4.151   4.439   2.634  0.4177 -0.1896 -0.1551
 4224SOL    HW124131   4.230   4.442   2.579 -0.6563 -0.4983 -1.7246
 4224SOL    HW224132   4.078   4.436   2.573 -2.3644 -1.3501  3.2676
 4225SOL     OW24133   1.748   0.074   7.455  0.1818 -0.4588  0.2353
 4225SOL    HW124134   1.712   0.006   7.398 -0.0612 -0.4776  0.4100
 4225SOL    HW224135   1.722   0.153   7.408  2.2911  1.1481  1.7750
 4226SOL     OW24136   2.611   3.989  11.564  0.6391  0.3659  0.3131
 4226SOL    HW124137   2.541   3.924  11.569  0.9920 -0.1920 -2.0386
 4226SOL    HW224138   2.694   3.941  11.568  0.8868  0.6986 -0.7638
 4227SOL     OW24139   2.648   1.260   5.661  0.1603  0.1630 -0.0356
 4227SOL    HW124140   2.602   1.281   5.742  0.5178  1.6950 -0.2095
 4227SOL    HW224141   2.578   1.288   5.602 -0.0026  0.6063  0.3664
 4228SOL     OW24142   4.630   2.513   6.616 -0.1720  0.6267  0.0650
 4228SOL    HW124143   4.619   2.553   6.702  0.0011  0.6103  0.0947
 4228SOL    HW224144   4.697   2.562   6.569  0.2981 -0.8946 -0.8771
 4229SOL     OW24145   0.184   2.301   6.750 -0.7355  0.0191 -0.4171
 4229SOL    HW124146   0.091   2.320   6.761 -0.8657 -0.7333 -0.1809
 4229SOL    HW224147   0.206   2.321   6.659 -0.9852  2.2874  0.0364
 4230SOL     OW24148   4.325   3.119  16.421 -0.1679 -0.0619  0.2274
 4230SOL    HW124149   4.363   3.166  16.346  0.1623 -0.5044  0.1206
 4230SOL    HW224150   4.406   3.073  16.443 -1.4074 -1.2114  2.3472
 4231SOL     OW24151   4.161   3.085  11.455 -0.3055  0.2703  0.3061
 4231SOL    HW124152   4.195   3.052  11.372 -1.0255  1.5216 -0.4786
 4231SOL    HW224153   4.067   3.080  11.436 -0.2787 -2.4656  0.8553
 4232SOL     OW24154   4.442   3.590   5.131 -0.4049  0.1138  0.2386
 4232SOL    HW124155   4.422   3.607   5.039 -1.1396  2.5865  0.8667
 4232SOL    HW224156   4.410   3.670   5.172  0.5397  0.7760 -0.3229
 4233SOL     OW24157   1.714   0.666  10.332  0.4653  0.0892  0.3744
 4233SOL    HW124158   1.697   0.718  10.411  1.5712 -0.1319  0.7609
 4233SOL    HW224159   1.671   0.729  10.274 -1.6183 -2.2415 -0.6310
 4234SOL     OW24160   4.273   3.729   8.143  0.2588 -0.1956 -0.2416
 4234SOL    HW124161   4.291   3.789   8.216 -0.3201  0.5084 -0.6896
 4234SOL    HW224162   4.318   3.768   8.069 -0.8239  3.2836  0.9558
 4235SOL     OW24163   3.392   3.478   2.927  0.0256 -0.4228 -0.3439
 4235SOL    HW124164   3.388   3.464   2.832 -0.2816 -0.1653 -0.3686
 4235SOL    HW224165   3.340   3.553   2.955 -1.3630 -0.7468 -2.0047
 4236SOL     OW24166   2.147   0.269   7.753  0.0304  0.4544  0.1434
 4236SOL    HW124167   2.101   0.305   7.828  0.8622 -3.4126  2.5267
 4236SOL    HW224168   2.080   0.212   7.714  1.1723 -0.6835 -0.1743
 4237SOL     OW24169   0.923   2.635   8.352  0.4091 -0.2584  0.4866
 4237SOL    HW124170   0.830   2.642   8.371 -0.0962 -2.6249 -1.0957
 4237SOL    HW224171   0.918   2.566   8.286  1.6354 -0.5557  0.7006
 4238SOL     OW24172   1.560   1.260   9.911  0.4043  0.1611  0.2664
 4238SOL    HW124173   1.482   1.311   9.890  1.5886  2.2452  0.9673
 4238SOL    HW224174   1.529   1.169   9.910  0.9520 -0.0272  0.5210
 4239SOL     OW24175   0.502   2.702   5.592 -0.2492 -0.2578  0.3845
 4239SOL    HW124176   0.586   2.671   5.559 -0.9836 -1.9456  0.1158
 4239SOL    HW224177   0.534   2.753   5.666 -0.7512 -2.1305  1.8795
 4240SOL     OW24178   2.051   3.536   8.031 -0.1197 -0.1741  0.1692
 4240SOL    HW124179   2.063   3.630   8.014  2.0290 -0.4165  0.3592
 4240SOL    HW224180   1.969   3.517   7.986 -1.5735  0.1322  2.6651
 4241SOL     OW24181   4.323   0.467   4.779  0.1840  0.6773 -0.6229
 4241SOL    HW124182   4.391   0.422   4.729 -0.3920  0.9918 -1.6903
 4241SOL    HW224183   4.352   0.453   4.869 -0.1142  3.2622 -0.1348
 4242SOL     OW24184   0.168   1.539   4.648  0.5276 -0.2596  0.3068
 4242SOL    HW124185   0.085   1.572   4.616  0.4094 -0.1264  0.7520
 4242SOL    HW224186   0.229   1.610   4.630 -1.8158  0.7817 -3.5534
 4243SOL     OW24187   4.561   2.564   9.397 -0.2854  0.4053 -0.2660
 4243SOL    HW124188   4.572   2.561   9.492  1.8978  3.2643 -0.4483
 4243SOL    HW224189   4.504   2.640   9.387  1.6458  2.1603  2.0836
 4244SOL     OW24190   4.301   3.273   6.808  0.7895  0.4475  0.1647
 4244SOL    HW124191   4.386   3.318   6.809 -0.5557  2.9560  1.5364
 4244SOL    HW224192   4.324   3.206   6.872  0.7319  0.2638 -0.0097
 4245SOL     OW24193   2.648   2.768  11.797 -0.4932 -0.6700  0.5043
 4245SOL    HW124194   2.629   2.699  11.860 -2.0461  0.0456  0.8061
 4245SOL    HW224195   2.737   2.797  11.816 -1.3142  2.4285 -0.5073
 4246SOL     OW24196   1.628   0.109   6.493  0.2207 -0.2094 -0.1788
 4246SOL    HW124197   1.536   0.091   6.476 -0.1501 -0.8936  2.5830
 4246SOL    HW224198   1.654   0.104   6.401 -0.7728 -0.9984 -0.4126
 4247SOL     OW24199   3.747   0.655  15.496  0.2954  0.2847  0.1393
 4247SOL    HW124200   3.694   0.734  15.485 -1.1367 -0.6363  0.4088
 4247SOL    HW224201   3.715   0.619  15.579 -0.9761 -0.6638 -0.7747
 4248SOL     OW24202   1.180   0.189  14.151 -0.2630 -0.3451 -0.2753
 4248SOL    HW124203   1.204   0.104  14.116  3.3486  0.2215  0.8349
 4248SOL    HW224204   1.266   0.231  14.154  0.2020 -1.3740  0.6635
 4249SOL     OW24205   1.434   0.878  17.154 -0.6017  0.1557  0.4089
 4249SOL    HW124206   1.410   0.891  17.245 -1.0925  1.3770  0.1080
 4249SOL    HW224207   1.366   0.924  17.105 -1.0214 -0.0176  0.8289
 4250SOL     OW24208   3.769   2.290   8.913 -0.1287  0.1528  0.0162
 4250SOL    HW124209   3.862   2.291   8.934 -0.0435  2.1384 -0.5364
 4250SOL    HW224210   3.727   2.332   8.988  1.1306  0.6388  0.4409
 4251SOL     OW24211   1.737   3.340  16.054  0.6403 -0.5420 -0.6631
 4251SOL    HW124212   1.647   3.307  16.052  0.9664 -1.5245  1.1609
 4251SOL    HW224213   1.715   3.433  16.064  3.9571  0.3374 -1.5977
 4252SOL     OW24214   1.383   2.057   6.864 -0.1625 -0.5619  0.2558
 4252SOL    HW124215   1.332   2.133   6.836 -0.7851 -1.1105 -0.0895
 4252SOL    HW224216   1.469   2.101   6.868  0.1996 -1.1975 -0.4661
 4253SOL     OW24217   4.205   2.479   1.586 -0.3054  0.7721 -0.4867
 4253SOL    HW124218   4.286   2.527   1.570 -0.7711  1.4947 -0.6872
 4253SOL    HW224219   4.156   2.546   1.634 -0.3278  0.6498 -0.3372
 4254SOL     OW24220   0.304   2.791  13.056 -0.0979 -0.2870 -0.4714
 4254SOL    HW124221   0.388   2.836  13.066 -0.0935 -0.9748  2.7233
 4254SOL    HW224222   0.268   2.797  13.145 -0.7407 -1.7909 -0.6218
 4255SOL     OW24223   1.109   3.776   7.920  0.3262  0.2365 -0.1100
 4255SOL    HW124224   1.147   3.799   7.836 -1.1672  2.1407 -0.2690
 4255SOL    HW224225   1.049   3.849   7.938 -0.2895  0.0411 -1.3734
 4256SOL     OW24226   3.163   1.796  13.011 -0.0482  0.2484  0.2194
 4256SOL    HW124227   3.114   1.721  13.046  0.5335 -0.8043 -1.2054
 4256SOL    HW224228   3.249   1.758  12.993 -0.0553  1.0501 -1.5565
 4257SOL     OW24229   2.146   2.578   8.656 -0.2339 -0.0474 -0.6916
 4257SOL    HW124230   2.105   2.664   8.660  0.8029  0.4313 -0.1311
 4257SOL    HW224231   2.068   2.523   8.653  2.5674 -4.1972  0.8315
 4258SOL     OW24232   2.709   3.721  15.295  0.6295 -0.0600  0.6912
 4258SOL    HW124233   2.698   3.637  15.252 -0.9212 -0.5734  2.1154
 4258SOL    HW224234   2.626   3.758  15.266  0.5357 -0.6656  0.1975
 4259SOL     OW24235   2.796   1.224   9.774  0.4007  0.7895  0.2456
 4259SOL    HW124236   2.839   1.155   9.825 -3.4308 -2.0730 -0.3924
 4259SOL    HW224237   2.879   1.233   9.727 -0.2323  1.7565 -0.6750
 4260SOL     OW24238   3.625   3.375   6.658  0.2989 -0.3648  0.6493
 4260SOL    HW124239   3.593   3.402   6.744  0.5926 -0.9005  0.9298
 4260SOL    HW224240   3.592   3.285   6.663  1.3126 -0.7979 -0.5517
 4261SOL     OW24241   3.004   2.501   5.092 -0.3674  0.1915 -0.2601
 4261SOL    HW124242   2.940   2.448   5.139  0.7205 -2.0559 -1.3086
 4261SOL    HW224243   2.966   2.497   5.004 -0.0365  0.3881 -0.4146
 4262SOL     OW24244   0.079   2.445   3.890  0.3697  0.0391  0.7193
 4262SOL    HW124245   0.116   2.440   3.801  0.6747  1.6647  0.7564
 4262SOL    HW224246   0.150   2.415   3.947  1.9083  0.7270 -0.8329
 4263SOL     OW24247   3.417   1.095   4.971  0.6157  0.3329 -0.2736
 4263SOL    HW124248   3.385   1.182   4.948 -2.4175 -0.3024  1.5507
 4263SOL    HW224249   3.492   1.118   5.026  0.8045 -1.2875  0.1515
 4264SOL     OW24250   2.481   0.126   9.471  0.0730  0.3108 -0.3842
 4264SOL    HW124251   2.491   0.136   9.376  0.6183  1.0343 -0.2587
 4264SOL    HW224252   2.567   0.088   9.489  0.6397  2.0122  0.4578
 4265SOL     OW24253   0.350   1.513   2.367 -0.0806  0.1655  0.2602
 4265SOL    HW124254   0.403   1.434   2.350  0.0886  0.2925  0.1940
 4265SOL    HW224255   0.325   1.501   2.458  0.7365 -0.3752  0.4132
 4266SOL     OW24256   0.167   1.752   9.453 -0.4574 -0.1149 -0.4357
 4266SOL    HW124257   0.224   1.781   9.382  1.1043  0.5043  1.0914
 4266SOL    HW224258   0.097   1.817   9.445  0.0251  0.9198  4.0659
 4267SOL     OW24259   3.480   1.798  10.300  0.0025 -0.1264  0.5714
 4267SOL    HW124260   3.485   1.878  10.352  1.7101  0.9243 -1.2013
 4267SOL    HW224261   3.513   1.738  10.367  0.7025 -3.0849 -2.4026
 4268SOL     OW24262   1.742   3.932  12.199  0.1728  0.2349  0.2150
 4268SOL    HW124263   1.685   3.918  12.124  1.0526  1.0603 -0.6195
 4268SOL    HW224264   1.772   3.843  12.219 -1.5995 -0.9748 -2.5326
 4269SOL     OW24265   2.520   2.376  17.147  0.1089 -0.1887  0.3985
 4269SOL    HW124266   2.612   2.366  17.172  0.2821  1.5968  0.4629
 4269SOL    HW224267   2.519   2.435  17.072 -0.9767  1.8248  1.9928
 4270SOL     OW24268   0.405   3.919   1.443  0.2746  0.2987 -0.4801
 4270SOL    HW124269   0.381   3.905   1.534  0.6721 -1.8702 -0.6972
 4270SOL    HW224270   0.326   3.969   1.423 -0.5449 -0.9345 -0.3572
 4271SOL     OW24271   3.848   2.205   2.345  0.0440  0.0034 -0.3410
 4271SOL    HW124272   3.844   2.263   2.269  0.0374 -1.2705 -1.3134
 4271SOL    HW224273   3.919   2.143   2.332  0.3459  0.2179  0.2662
 4272SOL     OW24274   3.595   3.788   6.264  0.2573  0.2552 -0.0597
 4272SOL    HW124275   3.584   3.881   6.285 -0.6284  0.5032 -1.6611
 4272SOL    HW224276   3.632   3.790   6.176 -1.4224 -0.3447 -0.7744
 4273SOL     OW24277   1.973   2.379   0.385  0.0127 -0.2974 -0.0103
 4273SOL    HW124278   2.028   2.440   0.434 -2.8121  1.7134  0.7021
 4273SOL    HW224279   1.946   2.425   0.306  1.4503 -0.9691 -0.8765
 4274SOL     OW24280   3.688   0.765   4.380  0.3684 -0.0955 -0.7616
 4274SOL    HW124281   3.719   0.677   4.403  1.5174  0.4391 -0.2573
 4274SOL    HW224282   3.726   0.792   4.296  1.2648 -0.9756 -0.6401
 4275SOL     OW24283   3.335   2.623   9.199 -0.0238  0.2847  0.4754
 4275SOL    HW124284   3.307   2.547   9.251  2.4715 -0.3737  0.8510
 4275SOL    HW224285   3.278   2.622   9.122 -0.5761 -0.2861  0.8877
 4276SOL     OW24286   3.553   1.389   6.332 -0.2978 -0.2791 -0.0529
 4276SOL    HW124287   3.498   1.413   6.407 -1.5462  1.3061 -1.4619
 4276SOL    HW224288   3.633   1.441   6.341 -0.6091  0.4915 -1.7216
 4277SOL     OW24289   3.333   3.224   9.416  0.3072  0.4282 -0.4419
 4277SOL    HW124290   3.270   3.282   9.373 -0.3994 -0.4760 -0.6056
 4277SOL    HW224291   3.300   3.138   9.391 -0.4640  0.5971  0.0196
 4278SOL     OW24292   1.519   4.149   8.189  0.2131  0.5493 -0.0470
 4278SOL    HW124293   1.516   4.054   8.188  1.7571  0.4634  2.5771
 4278SOL    HW224294   1.560   4.172   8.106  1.4527  0.0338  0.4052
 4279SOL     OW24295   3.962   2.240   4.377 -0.5276  0.0902  0.2327
 4279SOL    HW124296   3.907   2.300   4.327 -0.1464 -0.6669 -1.0944
 4279SOL    HW224297   3.897   2.206   4.438 -1.3786  0.1052 -0.6630
 4280SOL     OW24298   3.959   0.257   2.552 -0.5940  0.4351 -0.0219
 4280SOL    HW124299   4.011   0.314   2.608  1.4987 -0.6569 -0.8268
 4280SOL    HW224300   3.878   0.306   2.544 -0.2763  1.0154  0.3596
 4281SOL     OW24301   1.630   0.897   4.929  0.2011 -0.4733  0.3151
 4281SOL    HW124302   1.618   0.812   4.884 -0.6595  0.9532 -2.1895
 4281SOL    HW224303   1.721   0.891   4.957  0.4525 -0.0630 -0.4139
 4282SOL     OW24304   3.241   3.005   9.253  0.0133 -0.2940  0.0700
 4282SOL    HW124305   3.222   3.016   9.160 -0.5433  1.5340  0.4168
 4282SOL    HW224306   3.336   3.004   9.238  0.1599 -0.4360  1.0003
 4283SOL     OW24307   3.886   2.421   2.573  0.1545 -0.4985 -0.4453
 4283SOL    HW124308   3.853   2.456   2.490 -0.7066  1.8927  0.9200
 4283SOL    HW224309   3.804   2.381   2.603  0.0328 -1.3820 -1.9034
 4284SOL     OW24310   1.339   4.396   7.479 -0.3320  0.1740 -0.6479
 4284SOL    HW124311   1.368   4.479   7.442 -1.6136  0.4705 -0.9708
 4284SOL    HW224312   1.276   4.365   7.414 -0.4964 -0.2689 -0.2753
 4285SOL     OW24313   1.513   3.611   4.696 -0.3062  0.1091  0.4356
 4285SOL    HW124314   1.565   3.666   4.639  0.5853 -2.4999 -1.2791
 4285SOL    HW224315   1.450   3.679   4.721 -2.3038 -1.5400 -0.0657
 4286SOL     OW24316   2.426   2.708   4.569 -0.0442 -0.1895 -0.3802
 4286SOL    HW124317   2.421   2.780   4.632  2.0785  0.7367 -1.2845
 4286SOL    HW224318   2.515   2.673   4.570 -0.2494 -0.8841 -4.9302
 4287SOL     OW24319   1.804   1.227  15.468 -0.1981 -0.4161  1.2412
 4287SOL    HW124320   1.812   1.321  15.455  1.4626 -0.4693  1.9128
 4287SOL    HW224321   1.887   1.183  15.449 -0.3588 -0.7857  1.3829
 4288SOL     OW24322   0.973   3.037  13.434 -0.6201 -0.2407 -0.2859
 4288SOL    HW124323   1.050   3.050  13.489  0.2768 -2.5677 -0.9926
 4288SOL    HW224324   0.969   3.119  13.384 -2.6051  0.3742  0.8400
 4289SOL     OW24325   0.603   0.291   7.053  0.3837 -0.1272 -1.1053
 4289SOL    HW124326   0.535   0.273   6.988  0.3131  1.7775 -1.5666
 4289SOL    HW224327   0.578   0.375   7.091 -0.3352 -1.0614  0.4783
 4290SOL     OW24328   2.037   4.626   7.202  0.2059 -0.1823  0.6925
 4290SOL    HW124329   2.122   4.637   7.244  0.5854  1.0402 -0.4341
 4290SOL    HW224330   2.025   4.708   7.154  0.7197  0.6717  2.0290
 4291SOL     OW24331   0.758   1.378   1.576 -0.6452  0.1994  0.0121
 4291SOL    HW124332   0.829   1.315   1.591 -1.0567 -0.8861 -2.4941
 4291SOL    HW224333   0.740   1.372   1.482 -2.8071  3.6967  0.2273
 4292SOL     OW24334   1.712   1.439   4.669 -0.3856  0.6645 -0.4382
 4292SOL    HW124335   1.729   1.533   4.681  2.3390  0.2684 -1.0479
 4292SOL    HW224336   1.744   1.433   4.579  1.6785  0.0798  0.3259
 4293SOL     OW24337   4.412   1.251   5.879 -0.0584 -0.2478  0.2338
 4293SOL    HW124338   4.495   1.282   5.915 -0.3070  0.4012  0.2504
 4293SOL    HW224339   4.355   1.328   5.872 -0.0190 -0.3040 -0.6803
 4294SOL     OW24340   1.727   4.085   5.328  0.2278  0.4512 -0.9208
 4294SOL    HW124341   1.648   4.043   5.362 -0.4295  2.3962 -0.0343
 4294SOL    HW224342   1.681   4.147   5.271  0.1268  0.6666 -0.6052
 4295SOL     OW24343   2.763   3.480  14.278  0.5015  0.6869 -0.0479
 4295SOL    HW124344   2.852   3.483  14.314  0.3211 -1.8244  0.6151
 4295SOL    HW224345   2.743   3.574  14.278  1.8485  0.9818 -0.8102
 4296SOL     OW24346   1.183   0.865  10.216 -0.2456  0.0497 -0.2327
 4296SOL    HW124347   1.120   0.792  10.210  0.1657 -0.2095 -1.5025
 4296SOL    HW224348   1.261   0.813  10.197 -0.9470 -0.9667 -0.3495
 4297SOL     OW24349   4.453   3.883   7.399  0.0068  0.3385 -0.2904
 4297SOL    HW124350   4.470   3.851   7.310 -1.1948 -2.2348  0.4012
 4297SOL    HW224351   4.522   3.950   7.401 -0.2686  0.6241 -0.3058
 4298SOL     OW24352   2.615   2.404  10.424  0.5645 -0.2642 -0.6072
 4298SOL    HW124353   2.569   2.422  10.506  2.2068  0.0409  0.2470
 4298SOL    HW224354   2.567   2.326  10.397  0.1553 -1.5872  4.1086
 4299SOL     OW24355   0.713   4.357   5.527  0.2066 -0.0348  0.2081
 4299SOL    HW124356   0.681   4.271   5.555  1.2471  0.5639  3.2899
 4299SOL    HW224357   0.688   4.413   5.601  0.8100 -0.5540  0.8086
 4300SOL     OW24358   0.308   0.943   4.551 -0.6368 -0.0696  0.0758
 4300SOL    HW124359   0.395   0.955   4.513 -0.2631 -1.0040  0.6564
 4300SOL    HW224360   0.280   1.033   4.568 -1.2002 -0.1269 -0.5130
 4301SOL     OW24361   3.312   3.068   6.026  0.1803 -0.0900  0.3027
 4301SOL    HW124362   3.344   2.990   5.980  1.4361  0.0994  0.8398
 4301SOL    HW224363   3.235   3.097   5.978  0.4024  0.9822  0.5887
 4302SOL     OW24364   1.946   0.091   6.007 -0.0912 -0.0911  0.6761
 4302SOL    HW124365   1.949   0.186   6.020  1.0506  0.0359 -0.5776
 4302SOL    HW224366   2.040   0.073   6.010 -0.1311 -0.8976 -3.7230
 4303SOL     OW24367   1.310   0.069   9.540 -0.2974  0.1679  0.0460
 4303SOL    HW124368   1.323   4.703   9.514 -2.7103 -0.0583 -0.3274
 4303SOL    HW224369   1.402   0.098   9.541 -0.0426 -0.6887  1.1350
 4304SOL     OW24370   3.853   4.369  13.941  0.5080  0.1704  0.0918
 4304SOL    HW124371   3.813   4.298  13.891 -0.8984  2.0270 -1.4068
 4304SOL    HW224372   3.870   4.338  14.030  0.8240 -1.0057 -0.3718
 4305SOL     OW24373   4.324   1.668   3.410 -0.2125 -0.2356 -0.6037
 4305SOL    HW124374   4.322   1.651   3.316 -0.6511 -2.5777 -0.1483
 4305SOL    HW224375   4.295   1.760   3.412  1.1277  0.2159 -1.7258
 4306SOL     OW24376   4.260   2.632   3.063 -0.0388 -0.0005 -0.2440
 4306SOL    HW124377   4.291   2.550   3.025 -0.3580 -1.2856  2.2987
 4306SOL    HW224378   4.345   2.675   3.074 -0.8965  0.9015  2.9852
 4307SOL     OW24379   3.327   4.674   3.168  0.1629  0.6541  0.3835
 4307SOL    HW124380   3.400   0.008   3.187  1.4896 -1.6397  2.5080
 4307SOL    HW224381   3.256   0.009   3.145 -0.1135  0.8733  1.8157
 4308SOL     OW24382   1.744   2.465   2.427 -0.4210  0.1093  0.2917
 4308SOL    HW124383   1.748   2.371   2.412 -0.3176  0.0811  0.5036
 4308SOL    HW224384   1.702   2.484   2.342 -1.8866  1.3259  1.2888
 4309SOL     OW24385   4.398   1.662   0.880 -0.2512 -0.0153 -0.2270
 4309SOL    HW124386   4.414   1.754   0.858 -2.8201  0.6172  0.5070
 4309SOL    HW224387   4.304   1.646   0.871  0.1042 -0.7924 -2.4682
 4310SOL     OW24388   0.265   3.894  13.014 -0.7504  0.7627 -0.3209
 4310SOL    HW124389   0.339   3.904  12.954 -0.4714  1.5000  0.1407
 4310SOL    HW224390   0.200   3.921  12.950 -0.7295  2.5393  0.4061
 4311SOL     OW24391   4.216   1.555   4.957  0.1059 -0.4284 -0.8171
 4311SOL    HW124392   4.270   1.502   5.015 -1.1592  1.1793  1.8351
 4311SOL    HW224393   4.146   1.491   4.942 -0.9670  0.7627 -0.8961
 4312SOL     OW24394   3.563   2.190  16.419 -0.1042  0.1701  0.0233
 4312SOL    HW124395   3.485   2.216  16.370 -1.5436 -0.2310  2.1015
 4312SOL    HW224396   3.613   2.150  16.348 -1.0226 -1.4004  0.2562
 4313SOL     OW24397   0.446   2.659  10.918  0.1386 -0.1282 -0.2573
 4313SOL    HW124398   0.490   2.611  10.988  0.5776  0.9899  0.2249
 4313SOL    HW224399   0.364   2.612  10.902  0.1202  0.1199 -0.9149
 4314SOL     OW24400   2.815   2.308   8.614  0.2304 -0.0088  0.4594
 4314SOL    HW124401   2.899   2.351   8.633 -0.6494  0.5431  3.0870
 4314SOL    HW224402   2.792   2.271   8.699 -0.9905 -1.5376 -0.5394
 4315SOL     OW24403   1.850   0.252   5.379  0.5535  0.1010 -0.5531
 4315SOL    HW124404   1.841   0.281   5.470 -1.8766 -3.4028  0.3210
 4315SOL    HW224405   1.937   0.284   5.357  1.1595 -1.0320  0.1761
 4316SOL     OW24406   3.509   1.660   5.707 -0.5506  0.1241  1.1239
 4316SOL    HW124407   3.540   1.587   5.654  1.5754  1.5829  0.3564
 4316SOL    HW224408   3.580   1.724   5.702  0.2557 -0.8917 -0.2029
 4317SOL     OW24409   3.164   2.034  12.822 -0.0162 -0.2592  0.4461
 4317SOL    HW124410   3.135   1.970  12.886  0.7079 -0.4990  0.5336
 4317SOL    HW224411   3.088   2.091  12.809 -0.3896 -1.3678 -2.4108
 4318SOL     OW24412   4.327   4.406  10.596 -0.2921  0.2177 -0.0140
 4318SOL    HW124413   4.303   4.497  10.607  0.7148  0.2426  1.9146
 4318SOL    HW224414   4.342   4.401  10.501 -0.0853  0.2238  0.0167
 4319SOL     OW24415   1.463   0.251   5.002 -0.4377 -0.3701  0.2028
 4319SOL    HW124416   1.391   0.207   5.048  0.5436 -0.9425  1.1907
 4319SOL    HW224417   1.530   0.188   4.976 -1.5160 -2.2357  1.9188
 4320SOL     OW24418   4.660   0.530   9.257 -0.3304 -0.5121  0.4829
 4320SOL    HW124419   4.629   0.471   9.188  0.6863  0.2463 -0.6236
 4320SOL    HW224420   4.582   0.586   9.259  0.1236  0.2052 -1.6879
 4321SOL     OW24421   3.677   0.719   4.752  0.1145 -0.3910 -0.1515
 4321SOL    HW124422   3.607   0.658   4.727 -1.2756 -0.2981  3.4893
 4321SOL    HW224423   3.628   0.786   4.800 -0.0283  1.5108 -2.9764
 4322SOL     OW24424   3.123   0.121   6.131 -0.6768 -0.9774 -0.1797
 4322SOL    HW124425   3.037   0.091   6.162 -0.6068 -0.1334  0.8335
 4322SOL    HW224426   3.137   0.072   6.050 -2.0500  0.3748 -1.2615
 4323SOL     OW24427   0.662   1.612   8.776 -0.1561 -0.0102  0.1032
 4323SOL    HW124428   0.719   1.640   8.847  1.7890  1.1786 -1.9242
 4323SOL    HW224429   0.669   1.518   8.762  0.1104 -0.1558  1.2557
 4324SOL     OW24430   2.856   0.512   9.230  0.3064  0.0446  0.4184
 4324SOL    HW124431   2.882   0.432   9.185 -1.3769  0.3310 -1.0849
 4324SOL    HW224432   2.932   0.539   9.281  1.4167 -1.0745 -0.6521
 4325SOL     OW24433   1.223   2.577   9.047  0.5348 -0.9721 -0.3889
 4325SOL    HW124434   1.152   2.604   8.988 -1.1866 -2.8116  0.8103
 4325SOL    HW224435   1.286   2.534   8.990 -0.1902 -2.3667 -0.1473
 4326SOL     OW24436   4.194   2.189  14.401 -0.0470  0.3806  0.3298
 4326SOL    HW124437   4.105   2.180  14.369 -0.5032  1.1735  1.3510
 4326SOL    HW224438   4.207   2.282  14.385  0.6032 -0.4021 -3.6513
 4327SOL     OW24439   0.108   0.636   4.972  0.0275 -0.5541 -0.1725
 4327SOL    HW124440   0.044   0.602   5.035 -0.0491 -0.7736 -0.3678
 4327SOL    HW224441   0.080   0.728   4.970  0.5609 -0.4135 -1.0761
 4328SOL     OW24442   3.256   1.245   6.059 -0.0871  0.3517 -0.2280
 4328SOL    HW124443   3.343   1.255   6.097  0.3919  1.4384 -1.6210
 4328SOL    HW224444   3.209   1.174   6.103 -2.0991  0.8120 -1.6301
 4329SOL     OW24445   1.927   3.115   5.974  0.3123 -0.4957  0.3815
 4329SOL    HW124446   1.900   3.024   5.980  1.3164 -0.9011 -1.3899
 4329SOL    HW224447   1.882   3.137   5.892  0.5707 -2.9051 -0.3907
 4330SOL     OW24448   2.976   2.051   3.482 -0.4816  0.0855  0.3948
 4330SOL    HW124449   3.045   2.042   3.416 -2.0395  0.5771 -1.2893
 4330SOL    HW224450   2.917   2.107   3.432  0.1716 -0.5133 -1.0383
 4331SOL     OW24451   1.719   2.223   9.945 -0.2300 -0.4589 -0.3642
 4331SOL    HW124452   1.780   2.154   9.971  1.5615  0.7382 -1.3400
 4331SOL    HW224453   1.665   2.177   9.881  1.1787  1.1379 -2.6847
 4332SOL     OW24454   4.335   0.053   3.575  0.5187 -0.3389  0.1884
 4332SOL    HW124455   4.424   0.020   3.584 -0.0025 -0.7264  3.9478
 4332SOL    HW224456   4.291   4.722   3.638  0.9399  2.4526  3.0373
 4333SOL     OW24457   3.361   1.291   8.241 -0.0603  0.1580 -0.1913
 4333SOL    HW124458   3.417   1.215   8.223  1.4222  1.0226  0.8555
 4333SOL    HW224459   3.396   1.302   8.329  0.7338  1.3124 -0.6619
 4334SOL     OW24460   3.850   2.213   9.532  0.7051 -0.0386 -0.1973
 4334SOL    HW124461   3.871   2.278   9.465  2.2881  0.4316  0.7537
 4334SOL    HW224462   3.854   2.273   9.607 -0.9013 -1.5100  1.0539
 4335SOL     OW24463   3.119   4.417  13.152 -0.8607  0.0820 -0.4217
 4335SOL    HW124464   3.061   4.464  13.092 -0.4235  0.5206 -0.5073
 4335SOL    HW224465   3.079   4.423  13.239 -1.1484 -0.0597 -0.5436
 4336SOL     OW24466   0.941   0.863   9.974 -0.8461 -0.1936 -0.1792
 4336SOL    HW124467   0.966   0.938  10.028 -1.9587  1.1302 -1.5015
 4336SOL    HW224468   0.989   0.793  10.017 -1.9565 -0.0161  1.3639
 4337SOL     OW24469   4.717   4.410   7.367 -0.4116 -0.1329  0.8072
 4337SOL    HW124470   4.652   4.477   7.345 -0.3664  0.4829  2.4837
 4337SOL    HW224471   4.659   4.335   7.359 -1.7691  1.0717 -0.5253
 4338SOL     OW24472   2.683   3.270  12.877  0.2698 -0.4536  0.2567
 4338SOL    HW124473   2.663   3.257  12.784 -0.7351 -0.3424  0.4615
 4338SOL    HW224474   2.777   3.250  12.881  0.5476  0.5361 -1.2262
 4339SOL     OW24475   3.634   2.323   2.712  0.2291  0.2097 -0.3538
 4339SOL    HW124476   3.640   2.249   2.771 -0.8108 -0.8947 -1.6487
 4339SOL    HW224477   3.542   2.323   2.688 -0.5024 -1.5182  2.6034
 4340SOL     OW24478   1.037   2.222   8.773  0.2809  0.3018  0.6318
 4340SOL    HW124479   0.979   2.297   8.789 -1.2186 -0.9289  1.0368
 4340SOL    HW224480   0.989   2.152   8.818  0.1513  0.2569  0.4239
 4341SOL     OW24481   0.646   0.400   2.732 -0.7193  0.3122 -0.3526
 4341SOL    HW124482   0.570   0.375   2.784 -2.0828  3.5543 -0.7630
 4341SOL    HW224483   0.623   0.424   2.642  0.8664  0.0665 -0.8267
 4342SOL     OW24484   3.882   2.158   0.642 -0.1234  0.0611  0.1287
 4342SOL    HW124485   3.865   2.225   0.708  1.1962  0.8910 -0.3751
 4342SOL    HW224486   3.975   2.160   0.621  0.4832  0.1080  2.9417
 4343SOL     OW24487   2.222   1.901  14.740 -0.5539  0.1256  0.0804
 4343SOL    HW124488   2.244   1.856  14.659  0.8219 -1.5183  1.3563
 4343SOL    HW224489   2.134   1.936  14.727 -0.2128  1.0327  0.2383
 4344SOL     OW24490   3.241   0.135   3.533 -0.5317 -0.3688 -0.1093
 4344SOL    HW124491   3.251   0.174   3.446 -0.1036  0.2946  0.2454
 4344SOL    HW224492   3.304   0.063   3.531 -3.1754 -2.6956 -0.7339
 4345SOL     OW24493   4.000   0.674   8.043  0.1508 -0.0159  0.7355
 4345SOL    HW124494   4.046   0.755   8.066  0.4622 -0.3986  1.4943
 4345SOL    HW224495   3.916   0.711   8.017 -0.8390 -1.3301  2.0304
 4346SOL     OW24496   3.241   1.926   8.952 -0.2685 -0.3184 -0.6000
 4346SOL    HW124497   3.235   1.918   9.047 -1.7051 -2.3185 -0.8604
 4346SOL    HW224498   3.311   1.991   8.945  0.4481 -1.0166  0.0366
 4347SOL     OW24499   1.533   3.992   6.326  0.0373 -0.1128  0.0623
 4347SOL    HW124500   1.613   3.979   6.275  0.2732 -1.0045  0.6692
 4347SOL    HW224501   1.497   4.066   6.277  0.9776  0.5177  0.3306
 4348SOL     OW24502   1.108   0.143   1.464 -0.2577  0.3298  0.3457
 4348SOL    HW124503   1.191   0.166   1.423 -0.7208 -0.2292 -0.9053
 4348SOL    HW224504   1.073   0.232   1.475 -1.7035 -0.6259  3.4619
 4349SOL     OW24505   0.664   0.674   5.385 -0.1982 -0.0488  0.2866
 4349SOL    HW124506   0.661   0.765   5.415 -1.5795 -0.2052  0.6544
 4349SOL    HW224507   0.649   0.677   5.291 -0.6857  0.8001  0.3849
 4350SOL     OW24508   0.716   0.979   4.705  0.1880  0.4240 -0.2727
 4350SOL    HW124509   0.663   0.906   4.672 -0.7625  0.2506  1.6166
 4350SOL    HW224510   0.703   0.972   4.800  0.7000  1.9153 -0.1026
 4351SOL     OW24511   3.762   4.487   7.247 -0.6866 -0.5602  0.3233
 4351SOL    HW124512   3.694   4.430   7.284 -1.7468 -0.3044 -1.2206
 4351SOL    HW224513   3.828   4.424   7.217 -0.0779  0.6541 -0.8396
 4352SOL     OW24514   2.276   1.793   2.755 -0.0709 -0.0435 -0.5939
 4352SOL    HW124515   2.258   1.699   2.751  0.8981 -0.3152  1.1289
 4352SOL    HW224516   2.317   1.808   2.670 -0.8620  1.8514 -0.6377
 4353SOL     OW24517   1.175   0.038   6.212 -0.5953 -0.0910  0.4315
 4353SOL    HW124518   1.088   0.063   6.180 -0.6309 -2.8046 -1.6197
 4353SOL    HW224519   1.171   0.071   6.301 -0.4276 -0.5606  0.6136
 4354SOL     OW24520   2.063   0.224   3.987  0.7505 -0.6872 -0.3399
 4354SOL    HW124521   1.988   0.262   3.940  0.3282  1.9165  2.4355
 4354SOL    HW224522   2.105   0.298   4.032  1.2749 -0.1481 -1.7122
 4355SOL     OW24523   4.345   4.629   8.609 -0.2666 -0.0269 -0.4542
 4355SOL    HW124524   4.340   4.696   8.676  1.1269 -1.5955  1.2065
 4355SOL    HW224525   4.439   4.631   8.594 -0.0636 -4.1587  0.1050
 4356SOL     OW24526   3.077   4.395   2.360  0.1087  0.1226 -0.0140
 4356SOL    HW124527   3.049   4.308   2.333  1.9256 -1.1757  2.2232
 4356SOL    HW224528   3.020   4.404   2.437 -1.2689  1.9037 -1.2439
 4357SOL     OW24529   1.359   1.251   9.560 -0.3252 -0.5471  0.6056
 4357SOL    HW124530   1.312   1.202   9.492  0.8195 -0.9702  0.1008
 4357SOL    HW224531   1.449   1.217   9.554 -1.0438 -2.4321  0.3522
 4358SOL     OW24532   2.471   1.454   5.604  0.2984 -0.5148  1.2585
 4358SOL    HW124533   2.429   1.479   5.687 -1.4179 -1.0506  0.5293
 4358SOL    HW224534   2.448   1.534   5.557 -0.4634 -0.9279  0.9396
 4359SOL     OW24535   1.844   4.240   3.441  0.3186  0.2608 -0.3805
 4359SOL    HW124536   1.824   4.333   3.443  0.8210  0.3325  1.0300
 4359SOL    HW224537   1.798   4.212   3.520  1.0981  0.0160 -0.0117
 4360SOL     OW24538   1.700   0.913  10.032  0.4132  0.1554  0.4058
 4360SOL    HW124539   1.675   0.966   9.955  2.9021 -0.0139 -0.5415
 4360SOL    HW224540   1.731   0.983  10.090  0.0593  0.4531  0.2368
 4361SOL     OW24541   0.946   0.152   7.526  0.7412  0.4179 -0.2528
 4361SOL    HW124542   0.965   0.108   7.443  0.2463 -1.5306  0.6783
 4361SOL    HW224543   0.922   0.241   7.500 -0.4922  0.2407  0.2998
 4362SOL     OW24544   3.991   2.421   6.343 -0.4339  0.0797  0.3406
 4362SOL    HW124545   3.977   2.448   6.252  2.5561 -0.9525 -0.4289
 4362SOL    HW224546   4.086   2.425   6.339 -0.4915  1.5113  0.3933
 4363SOL     OW24547   2.892   1.252   3.593  0.5439 -0.2013 -0.2956
 4363SOL    HW124548   2.911   1.346   3.590  0.0712 -0.0330  2.1358
 4363SOL    HW224549   2.797   1.244   3.603  0.3957  0.1843 -1.4459
 4364SOL     OW24550   4.698   0.758   5.311  0.1185 -0.1969  0.3395
 4364SOL    HW124551   4.652   0.704   5.247  0.3753 -0.2219  0.1774
 4364SOL    HW224552   4.722   0.700   5.383 -3.0630  0.3371  1.8508
 4365SOL     OW24553   0.705   2.480  17.584 -0.2016  0.4639  0.5093
 4365SOL    HW124554   0.680   2.541  17.654 -1.7489  1.9223 -1.3352
 4365SOL    HW224555   0.800   2.490  17.591 -0.3634  1.7610  0.7992
 4366SOL     OW24556   0.601   1.344   8.415 -0.2684 -0.3160  0.2018
 4366SOL    HW124557   0.660   1.420   8.408 -0.2623 -0.5730 -2.5226
 4366SOL    HW224558   0.522   1.383   8.455  0.0095 -0.2814  0.7223
 4367SOL     OW24559   3.222   2.474   7.711  0.4349 -0.6776  0.6183
 4367SOL    HW124560   3.287   2.437   7.771  1.9368  1.0422 -0.0071
 4367SOL    HW224561   3.219   2.419   7.632  1.8884 -0.3053  0.3104
 4368SOL     OW24562   1.340   1.835   6.728  0.1432 -0.1484  0.3027
 4368SOL    HW124563   1.413   1.773   6.729 -1.5725 -2.1665  0.8832
 4368SOL    HW224564   1.387   1.913   6.760 -0.5794  0.2040  0.4988
 4369SOL     OW24565   1.925   0.894   4.326 -0.3659  0.2879  0.4290
 4369SOL    HW124566   1.874   0.967   4.362  0.6196  0.4250  1.5514
 4369SOL    HW224567   1.907   0.819   4.383  1.7621 -0.9917 -0.6102
 4370SOL     OW24568   3.426   1.947   1.830  0.0887  0.0630 -0.4112
 4370SOL    HW124569   3.440   1.913   1.918 -0.5330  0.7864 -0.0428
 4370SOL    HW224570   3.426   1.867   1.776  2.6666  0.4763 -1.0487
 4371SOL     OW24571   2.896   2.897   2.774  0.1906  0.7406 -0.3387
 4371SOL    HW124572   2.869   2.952   2.847 -0.2411  4.0808 -3.0061
 4371SOL    HW224573   2.864   2.811   2.802 -1.9638  0.9989 -1.9861
 4372SOL     OW24574   3.384   4.097  14.751 -0.1364 -0.3336 -0.4410
 4372SOL    HW124575   3.300   4.085  14.795  0.2128  1.3003  0.6910
 4372SOL    HW224576   3.454   4.062  14.807 -1.1747 -0.8429  0.5460
 4373SOL     OW24577   4.631   1.577   7.152  0.4793 -0.3371  0.5189
 4373SOL    HW124578   4.588   1.591   7.068  1.8792  0.9248  0.0221
 4373SOL    HW224579   4.605   1.656   7.198  0.3651  0.3963 -0.8118
 4374SOL     OW24580   1.471   4.469  13.996  0.1146  0.0925  0.0715
 4374SOL    HW124581   1.466   4.384  14.040  1.0178  0.6434  1.2536
 4374SOL    HW224582   1.531   4.455  13.923  2.4836  2.8160  1.5022
 4375SOL     OW24583   2.543   2.145   0.237  0.5381 -0.0122  0.7268
 4375SOL    HW124584   2.544   2.182   0.325 -2.5946  3.0076 -0.4754
 4375SOL    HW224585   2.548   2.052   0.259  0.1194 -0.2880 -0.3176
 4376SOL     OW24586   2.745   4.677   7.789 -0.2623  0.3465 -0.0144
 4376SOL    HW124587   2.735   0.046   7.797 -0.9076  0.4728 -2.4056
 4376SOL    HW224588   2.680   4.648   7.853  0.5016  0.6604  0.9003
 4377SOL     OW24589   3.090   4.404   3.812 -0.0631 -0.5011  0.1658
 4377SOL    HW124590   3.121   4.316   3.836  1.0387 -0.3908 -0.8654
 4377SOL    HW224591   3.120   4.455   3.887 -0.0878 -0.4317  0.1281
 4378SOL     OW24592   0.307   1.471   4.881  0.3692 -0.5883  0.2524
 4378SOL    HW124593   0.264   1.500   4.801  0.5879 -1.4462 -0.1684
 4378SOL    HW224594   0.271   1.540   4.938  1.8646  1.1379 -0.8989
 4379SOL     OW24595   1.480   3.327   4.845 -0.2286  0.3786 -0.5053
 4379SOL    HW124596   1.527   3.304   4.764  1.1525  0.8339  0.1752
 4379SOL    HW224597   1.475   3.419   4.818  0.9887  1.1273  1.8039
 4380SOL     OW24598   0.669   3.110   7.173 -0.4760  1.1934 -0.2222
 4380SOL    HW124599   0.754   3.152   7.187  0.0768 -0.1823  0.5617
 4380SOL    HW224600   0.615   3.187   7.191  0.1273  1.7043 -0.6261
 4381SOL     OW24601   1.150   4.281   7.870 -0.1063 -0.1947  0.4346
 4381SOL    HW124602   1.179   4.192   7.889  0.3869 -0.3824 -1.1926
 4381SOL    HW224603   1.233   4.322   7.842 -0.3239 -0.4261 -0.5416
 4382SOL     OW24604   2.267   2.997   6.604  0.1115  0.0596 -0.0877
 4382SOL    HW124605   2.269   2.994   6.508  0.5040 -0.3875 -0.0706
 4382SOL    HW224606   2.314   2.914   6.616 -2.7937 -1.8093 -1.6775
 4383SOL     OW24607   3.659   3.706   5.219  0.1771 -0.0597 -0.0431
 4383SOL    HW124608   3.697   3.674   5.137 -0.7944 -1.5464  0.0761
 4383SOL    HW224609   3.730   3.666   5.269  0.6293 -1.8230 -2.0741
 4384SOL     OW24610   2.640   2.687   7.439 -0.4404  0.4711 -0.5239
 4384SOL    HW124611   2.636   2.764   7.382 -0.1218  0.9466  0.0965
 4384SOL    HW224612   2.729   2.666   7.409  0.0335 -0.1451  1.2819
 4385SOL     OW24613   0.646   0.926  15.586 -0.5137  0.4810 -0.6905
 4385SOL    HW124614   0.738   0.900  15.592 -0.6781  0.4860  1.7335
 4385SOL    HW224615   0.657   1.007  15.535 -1.5673  0.0247 -1.6384
 4386SOL     OW24616   1.827   0.025   3.168 -0.2052 -0.2410 -0.3967
 4386SOL    HW124617   1.802   0.113   3.142 -2.0274 -1.3373 -2.3992
 4386SOL    HW224618   1.910   0.045   3.210  0.4824 -3.0042 -0.3789
 4387SOL     OW24619   0.049   1.629  16.668  0.1484 -0.5311  0.0904
 4387SOL    HW124620   0.036   1.722  16.688  0.3142 -0.5322  0.2023
 4387SOL    HW224621   0.137   1.615  16.703  0.1421  0.3975  0.4855
 4388SOL     OW24622   3.609   0.460   1.941  0.2772  0.7169 -0.6285
 4388SOL    HW124623   3.621   0.549   1.908 -1.4859  1.3015  0.3145
 4388SOL    HW224624   3.658   0.415   1.872 -0.0488  0.6933 -0.8415
 4389SOL     OW24625   0.501   3.214   2.560  0.3430 -0.1869 -0.7019
 4389SOL    HW124626   0.476   3.124   2.580 -0.6588 -0.3328 -2.6373
 4389SOL    HW224627   0.563   3.230   2.632  0.3047  2.7753 -1.3164
 4390SOL     OW24628   3.726   3.352  12.033 -0.2690  0.4632 -0.2321
 4390SOL    HW124629   3.806   3.370  12.081 -0.3720 -0.8279  0.4165
 4390SOL    HW224630   3.764   3.316  11.953 -0.5133  0.8351 -0.5183
 4391SOL     OW24631   4.337   0.709   3.128  0.4941  0.6547  0.4284
 4391SOL    HW124632   4.392   0.636   3.157  0.6309  1.0398  1.1563
 4391SOL    HW224633   4.244   0.691   3.141  0.7810 -0.0153  1.5415
 4392SOL     OW24634   1.566   3.986  14.832  0.0286 -0.5610  0.3437
 4392SOL    HW124635   1.481   4.028  14.815 -0.6069 -1.7457  0.5991
 4392SOL    HW224636   1.565   3.986  14.928 -2.5490  0.6420  0.3220
 4393SOL     OW24637   4.491   1.309   4.919 -0.0836  0.3555  0.3008
 4393SOL    HW124638   4.582   1.280   4.907 -0.8109 -1.2594 -1.4033
 4393SOL    HW224639   4.495   1.357   5.001 -0.6527 -0.1206  0.6064
 4394SOL     OW24640   2.807   1.802  13.283  0.2131 -0.2329  0.0701
 4394SOL    HW124641   2.865   1.870  13.248  0.3185 -0.2207  0.2635
 4394SOL    HW224642   2.739   1.800  13.217 -0.2627  0.0888  0.5478
 4395SOL     OW24643   0.642   3.352   2.055  0.4766 -0.3511  0.2487
 4395SOL    HW124644   0.614   3.320   2.141  0.0018  1.2810  0.7007
 4395SOL    HW224645   0.564   3.398   2.025  1.1499  0.2353 -0.5850
 4396SOL     OW24646   2.366   3.851   5.860  0.2591  0.0234 -0.8825
 4396SOL    HW124647   2.360   3.907   5.937  2.6378  2.5225 -2.4749
 4396SOL    HW224648   2.433   3.784   5.877 -0.2602  0.4195  2.7489
 4397SOL     OW24649   2.059   2.900   9.763  0.0729 -0.1903 -0.7912
 4397SOL    HW124650   1.991   2.852   9.810  1.5695 -0.8191  0.7018
 4397SOL    HW224651   2.079   2.958   9.836  2.3007 -0.4136 -1.2168
 4398SOL     OW24652   0.807   3.701   4.552 -0.4555  0.6042  0.4308
 4398SOL    HW124653   0.885   3.647   4.564 -0.5526  0.6630  1.3541
 4398SOL    HW224654   0.800   3.731   4.643  1.8361 -1.7382  1.4132
 4399SOL     OW24655   4.706   3.844  11.371  0.2492  0.3864  0.0403
 4399SOL    HW124656   0.036   3.916  11.340  0.6650  1.0123  2.2293
 4399SOL    HW224657   0.044   3.776  11.392 -0.6931 -0.6447 -0.4978
 4400SOL     OW24658   2.253   1.469   6.681  0.5970 -0.5863 -0.4593
 4400SOL    HW124659   2.188   1.528   6.643  1.3386  0.1152 -0.6265
 4400SOL    HW224660   2.252   1.385   6.634 -1.2313 -0.7753 -0.0859
 4401SOL     OW24661   3.116   0.140   5.441 -0.4120 -0.7475  0.0127
 4401SOL    HW124662   3.158   0.095   5.514 -0.7989 -2.2363 -0.6900
 4401SOL    HW224663   3.183   0.204   5.417 -2.1297  0.6375 -1.1563
 4402SOL     OW24664   4.229   3.953   4.963 -0.3622 -0.1754  0.5528
 4402SOL    HW124665   4.210   3.885   4.899  0.6429  0.1759 -0.1338
 4402SOL    HW224666   4.301   3.927   5.021 -0.5411  2.6484  2.0394
 4403SOL     OW24667   1.638   0.278   0.411  0.0214 -0.2101 -0.4947
 4403SOL    HW124668   1.715   0.312   0.365 -1.5787 -0.4618 -3.3523
 4403SOL    HW224669   1.615   0.350   0.470 -0.7073 -0.1666 -0.8367
 4404SOL     OW24670   3.766   4.722   3.026  0.0951  0.2433  0.4066
 4404SOL    HW124671   3.711   0.013   3.102 -0.4682  0.3565 -0.0267
 4404SOL    HW224672   3.711   0.016   2.950 -1.7596 -0.5519  1.5232
 4405SOL     OW24673   4.016   0.788   8.809 -0.0277 -0.0265  0.1087
 4405SOL    HW124674   4.087   0.727   8.789 -1.1238 -0.9063 -1.0516
 4405SOL    HW224675   3.973   0.745   8.883  1.2401 -0.5397  0.5643
 4406SOL     OW24676   4.477   3.098   2.158 -0.2866  0.4730 -0.6368
 4406SOL    HW124677   4.389   3.068   2.136 -0.9402  1.2106  0.9836
 4406SOL    HW224678   4.513   3.138   2.079  4.8910 -1.3231  0.8611
 4407SOL     OW24679   1.380   2.967  16.078  0.4411  0.1433  0.2082
 4407SOL    HW124680   1.420   2.880  16.078  0.5734  0.2041 -0.5581
 4407SOL    HW224681   1.443   3.000  16.142  0.3111  0.0012  0.4116
 4408SOL     OW24682   1.427   2.283   9.055 -0.1967 -0.1160  0.4045
 4408SOL    HW124683   1.352   2.239   9.015 -0.1505  1.5520 -1.5278
 4408SOL    HW224684   1.443   2.347   8.986 -2.7514 -0.6945 -0.7099
 4409SOL     OW24685   0.254   2.832  11.338  0.2200 -0.4666 -0.4039
 4409SOL    HW124686   0.306   2.763  11.299 -0.5531 -0.8621 -0.7300
 4409SOL    HW224687   0.230   2.883  11.261  0.0567  0.0251 -0.0240
 4410SOL     OW24688   0.115   1.928  15.126  0.1922 -0.0584 -0.0614
 4410SOL    HW124689   0.208   1.916  15.105  0.0680 -1.7683  0.3945
 4410SOL    HW224690   0.070   1.931  15.041 -2.6669 -1.3937  1.4219
 4411SOL     OW24691   3.040   2.477   8.522  0.1943 -0.3488  0.1266
 4411SOL    HW124692   3.092   2.397   8.522  1.4103  0.4466  0.1743
 4411SOL    HW224693   3.051   2.504   8.431 -0.9215 -1.3770 -0.3281
 4412SOL     OW24694   4.338   3.174   7.055 -0.3086 -0.3090 -0.0889
 4412SOL    HW124695   4.358   3.251   7.109  1.4241 -0.2699 -0.8009
 4412SOL    HW224696   4.251   3.149   7.085  0.4577  0.1337  2.5019
 4413SOL     OW24697   1.188   2.208   6.448  0.2616  0.3539  0.5820
 4413SOL    HW124698   1.279   2.184   6.467  0.4021 -1.4034 -2.2648
 4413SOL    HW224699   1.200   2.293   6.405  0.4851  1.9010  3.7461
 4414SOL     OW24700   3.474   1.235   9.085 -0.2816 -0.0976 -0.5849
 4414SOL    HW124701   3.517   1.156   9.117  0.0462  0.7947  1.1943
 4414SOL    HW224702   3.547   1.296   9.071  0.1069 -0.2375  0.7781
 4415SOL     OW24703   0.835   0.543   5.845  0.6204 -0.2630  0.4108
 4415SOL    HW124704   0.791   0.517   5.926  1.1340 -0.8510  0.5108
 4415SOL    HW224705   0.926   0.549   5.876  1.7229  1.6209 -3.1943
 4416SOL     OW24706   2.243   3.120  12.816  0.0008  0.4427 -0.7293
 4416SOL    HW124707   2.226   3.204  12.773  4.0062  1.2544 -0.6926
 4416SOL    HW224708   2.179   3.057  12.783  0.4653 -0.2980 -0.2131
 4417SOL     OW24709   0.688   2.057  11.729 -0.2653 -0.1152  0.4985
 4417SOL    HW124710   0.771   2.077  11.772 -0.2749  0.9726  0.0125
 4417SOL    HW224711   0.693   1.962  11.737 -0.8396 -0.1668  0.2648
 4418SOL     OW24712   2.310   1.039   5.462 -0.0988  0.0098 -0.3152
 4418SOL    HW124713   2.392   0.995   5.440 -0.5280 -0.2469 -1.3991
 4418SOL    HW224714   2.319   1.130   5.433 -3.1467  0.0893 -1.0667
 4419SOL     OW24715   3.528   3.374   2.613  0.1271 -0.6447  0.2216
 4419SOL    HW124716   3.526   3.375   2.517  1.2007  0.6047  0.2143
 4419SOL    HW224717   3.506   3.466   2.633 -2.1821 -0.6272 -2.3722
 4420SOL     OW24718   4.274   0.711   8.481  0.4508  0.3263 -0.4236
 4420SOL    HW124719   4.265   0.805   8.497  0.0040  0.4916 -1.6628
 4420SOL    HW224720   4.289   0.670   8.567 -0.6786 -0.6436 -0.6743
 4421SOL     OW24721   4.296   1.688   6.529 -0.0245 -0.0760 -0.1265
 4421SOL    HW124722   4.384   1.682   6.565 -0.6661 -2.7253  0.9623
 4421SOL    HW224723   4.253   1.680   6.614  1.2744 -1.8626  0.3451
 4422SOL     OW24724   2.657   2.103   6.382 -0.0036  0.1675 -0.3735
 4422SOL    HW124725   2.697   2.050   6.451 -0.3555  0.7614  0.2899
 4422SOL    HW224726   2.733   2.132   6.332  1.0112 -2.2273 -0.2214
 4423SOL     OW24727   0.427   0.395   3.933 -0.0930  0.3126  0.5285
 4423SOL    HW124728   0.375   0.352   3.865  1.1508 -1.8353  0.9512
 4423SOL    HW224729   0.354   0.414   3.992 -0.0239 -1.0046  1.0313
 4424SOL     OW24730   3.624   1.893   2.222  0.3013  0.5722 -0.0822
 4424SOL    HW124731   3.627   1.837   2.144  1.4598  1.1536 -0.4489
 4424SOL    HW224732   3.646   1.824   2.286 -1.0164  1.1814  1.0306
 4425SOL     OW24733   3.310   0.454   1.994  0.3491 -0.0134 -0.0682
 4425SOL    HW124734   3.318   0.403   1.913  0.3190 -1.1467  0.6560
 4425SOL    HW224735   3.216   0.447   2.012  0.4526 -3.1316 -0.7305
 4426SOL     OW24736   3.679   0.669   5.637 -0.2803 -0.0481 -0.1890
 4426SOL    HW124737   3.678   0.624   5.552 -0.3015  0.2354 -0.3382
 4426SOL    HW224738   3.773   0.690   5.633 -0.7687  2.3505  0.8447
 4427SOL     OW24739   0.151   4.003  14.656  0.0473  0.1579  0.2993
 4427SOL    HW124740   0.241   3.998  14.690  0.2953  0.5372 -0.2862
 4427SOL    HW224741   0.134   4.097  14.662  0.2767 -0.0681  4.4283
 4428SOL     OW24742   4.656   4.602  12.663 -0.1821 -0.2356 -0.3144
 4428SOL    HW124743   4.724   4.664  12.690 -2.0924  0.5738  2.6098
 4428SOL    HW224744   4.700   4.545  12.600 -2.6645 -0.8843 -1.4654
 4429SOL     OW24745   0.061   3.440   9.096  0.0183 -0.8123  0.3016
 4429SOL    HW124746   4.701   3.398   9.101  0.5102 -1.5063  3.2878
 4429SOL    HW224747   0.119   3.366   9.077 -0.8132 -0.4215 -3.6706
 4430SOL     OW24748   3.020   2.247   7.276  0.0711 -0.1959  0.4398
 4430SOL    HW124749   2.943   2.214   7.230  0.3439 -0.4953  0.1974
 4430SOL    HW224750   3.075   2.170   7.263  3.0216  1.8726  0.4935
 4431SOL     OW24751   0.040   3.778   3.515  0.2395  0.2922  0.0935
 4431SOL    HW124752   0.066   3.775   3.422  0.4547 -0.3570  0.1758
 4431SOL    HW224753   0.111   3.832   3.551  1.6267 -1.1813 -0.4221
 4432SOL     OW24754   3.771   3.134  14.872  0.4877 -0.7166  0.6949
 4432SOL    HW124755   3.696   3.098  14.920  0.8063 -3.2818 -0.7336
 4432SOL    HW224756   3.761   3.227  14.893  1.4121 -0.8215  1.6056
 4433SOL     OW24757   0.178   1.965   6.023  0.6872 -0.0839 -0.1692
 4433SOL    HW124758   0.221   1.969   6.108 -0.2795  0.0525  0.3112
 4433SOL    HW224759   0.173   2.059   6.004 -3.7762 -0.0658  1.0966
 4434SOL     OW24760   4.470   1.497   6.331  0.0148 -0.6477  0.1078
 4434SOL    HW124761   4.562   1.493   6.357  0.6650  1.7300 -1.8262
 4434SOL    HW224762   4.435   1.572   6.379 -0.9798  0.9096 -3.0785
 4435SOL     OW24763   1.885   4.452   5.042  0.3370  0.0640  0.5419
 4435SOL    HW124764   1.869   4.365   5.078  1.3243  0.4995  2.0347
 4435SOL    HW224765   1.815   4.471   4.980  0.5455 -0.2114  0.2238
 4436SOL     OW24766   1.302   2.695   3.545 -0.4397  0.1154  0.1535
 4436SOL    HW124767   1.254   2.777   3.555  2.0378  1.3155  2.5325
 4436SOL    HW224768   1.389   2.734   3.530 -0.0387 -0.3611  1.2275
 4437SOL     OW24769   0.478   0.311  11.245 -0.1378 -0.3980 -0.0166
 4437SOL    HW124770   0.556   0.298  11.299 -0.5105  1.8714  1.0236
 4437SOL    HW224771   0.490   0.402  11.220 -1.6228 -0.7246 -1.9628
 4438SOL     OW24772   2.496   3.149   6.341  0.2675 -0.0270  0.5226
 4438SOL    HW124773   2.492   3.160   6.436  2.8625  1.2676  0.4695
 4438SOL    HW224774   2.408   3.117   6.323  0.3234 -0.0406  0.2735
 4439SOL     OW24775   4.359   2.540  13.160 -0.6461 -0.0180  0.1881
 4439SOL    HW124776   4.302   2.596  13.108  1.2255 -1.3219 -3.2642
 4439SOL    HW224777   4.298   2.473  13.191 -2.0262  1.2701  0.2361
 4440SOL     OW24778   4.041   1.297   3.017  0.1908  0.7819  0.6676
 4440SOL    HW124779   4.043   1.322   2.924  0.3090  1.0639  0.7460
 4440SOL    HW224780   4.135   1.287   3.031  0.1255 -2.5048 -1.2146
 4441SOL     OW24781   3.169   3.586   0.563  0.3272 -0.3321 -0.3746
 4441SOL    HW124782   3.228   3.628   0.499  0.3454 -1.4797 -1.1089
 4441SOL    HW224783   3.084   3.626   0.546  0.4604  0.1735  0.1638
 4442SOL     OW24784   3.314   3.998   6.488  0.0047  0.3873  0.4483
 4442SOL    HW124785   3.397   4.017   6.443 -1.7434  1.5962 -2.2098
 4442SOL    HW224786   3.262   4.076   6.468 -3.1623 -1.2547  2.3477
 4443SOL     OW24787   2.016   1.608  11.597 -0.1581 -0.3177 -0.4811
 4443SOL    HW124788   2.034   1.676  11.533  0.1582  1.3194  1.3216
 4443SOL    HW224789   1.937   1.571  11.558 -0.1469  0.5637 -1.3185
 4444SOL     OW24790   4.690   0.173  10.323 -0.0562 -0.0861  0.4945
 4444SOL    HW124791   0.005   0.107  10.380 -1.2869  0.5795  2.1487
 4444SOL    HW224792   4.659   0.118  10.251 -0.5694 -0.4399  0.9857
 4445SOL     OW24793   4.488   1.988  17.001 -0.0075  0.1819 -0.1780
 4445SOL    HW124794   4.477   2.043  16.923 -1.1435  1.4724  0.8970
 4445SOL    HW224795   4.412   2.025  17.045  0.3816  0.3782  0.3309
 4446SOL     OW24796   0.134   3.784  15.394  0.0780 -0.0752 -0.6647
 4446SOL    HW124797   0.047   3.823  15.393  0.3103  0.5273  1.4253
 4446SOL    HW224798   0.194   3.859  15.405 -1.7619  1.3118  0.0222
 4447SOL     OW24799   3.244   4.280   1.405  0.6395  0.3207  0.0238
 4447SOL    HW124800   3.337   4.257   1.416  0.2304 -0.8735  0.9830
 4447SOL    HW224801   3.226   4.311   1.493  0.5057 -0.4894  0.2805
 4448SOL     OW24802   3.755   0.733   3.703  0.3952  0.9236 -0.0862
 4448SOL    HW124803   3.723   0.762   3.618 -0.5333 -0.6649 -0.2828
 4448SOL    HW224804   3.713   0.794   3.764 -0.5741  1.7111 -1.5393
 4449SOL     OW24805   0.725   2.436  10.478 -0.5842 -0.3160  0.6601
 4449SOL    HW124806   0.819   2.424  10.494 -0.8399 -0.6093  1.9333
 4449SOL    HW224807   0.689   2.387  10.552  1.7887 -0.1455  1.9349
 4450SOL     OW24808   0.231   0.611   5.531  0.6366  0.9414 -0.0824
 4450SOL    HW124809   0.216   0.527   5.574 -0.5720  1.1179 -0.1796
 4450SOL    HW224810   0.240   0.590   5.438  1.7930 -1.3501  0.5339
 4451SOL     OW24811   0.996   4.548   5.994  0.1828  0.2967 -0.0571
 4451SOL    HW124812   0.986   4.566   6.088 -0.6289 -1.1371  0.1344
 4451SOL    HW224813   0.979   4.638   5.965  2.0304  0.9327  0.8601
 4452SOL     OW24814   0.253   3.067   4.017 -0.2034 -0.6337  0.2714
 4452SOL    HW124815   0.240   3.124   3.941  0.1892 -2.7523 -1.3918
 4452SOL    HW224816   0.326   3.013   3.987  0.3187 -0.8320  1.9184
 4453SOL     OW24817   0.520   0.529   3.308  0.6587  0.0597  0.5921
 4453SOL    HW124818   0.459   0.601   3.323  0.3961 -0.0077 -0.1688
 4453SOL    HW224819   0.521   0.487   3.394  3.2983  0.3390  0.6769
 4454SOL     OW24820   3.356   4.423  14.380  0.0412 -0.9964  0.2100
 4454SOL    HW124821   3.366   4.390  14.469 -1.7848 -0.2096  0.6971
 4454SOL    HW224822   3.332   4.343  14.333  1.4740 -1.5275  0.3808
 4455SOL     OW24823   2.569   0.598   7.448  0.4964  0.2407  0.1389
 4455SOL    HW124824   2.642   0.581   7.508  0.3555  0.0621  0.2588
 4455SOL    HW224825   2.505   0.642   7.505 -0.7386  0.7748 -1.6830
 4456SOL     OW24826   4.114   4.441   0.582 -0.5441  0.0977  0.8946
 4456SOL    HW124827   4.092   4.419   0.492  0.4305 -0.9633  0.9215
 4456SOL    HW224828   4.042   4.504   0.586  0.1356  0.8931  0.6000
 4457SOL     OW24829   2.860   1.085   0.532 -0.0506 -0.2098 -0.4240
 4457SOL    HW124830   2.943   1.053   0.566 -1.7930 -2.2290  1.8612
 4457SOL    HW224831   2.837   1.141   0.606 -0.1165  1.0998 -1.4284
 4458SOL     OW24832   0.726   0.185   8.673 -0.1783  0.0506 -0.0344
 4458SOL    HW124833   0.694   0.270   8.642 -0.6307 -0.9342 -2.3195
 4458SOL    HW224834   0.644   0.136   8.671  0.5406 -1.1271 -0.2677
 4459SOL     OW24835   1.370   2.655   8.153 -0.0613 -1.1372 -0.1840
 4459SOL    HW124836   1.366   2.710   8.231  1.9755  0.3620 -1.1428
 4459SOL    HW224837   1.455   2.685   8.120  1.1797 -2.2481  2.0074
 4460SOL     OW24838   2.385   2.585  13.081 -0.5775  0.3936 -0.0856
 4460SOL    HW124839   2.450   2.565  13.015 -0.0277  1.4908  0.1218
 4460SOL    HW224840   2.343   2.500  13.094 -1.4987  0.4889 -2.4246
 4461SOL     OW24841   4.597   0.003   3.233 -0.2873  0.9364  0.1919
 4461SOL    HW124842   4.677   0.006   3.285  0.3660 -0.4827 -0.7152
 4461SOL    HW224843   4.641   4.708   3.150  0.5979 -0.4759  1.0192
 4462SOL     OW24844   0.567   0.332   0.355  0.1027 -0.6240  0.0119
 4462SOL    HW124845   0.543   0.351   0.265 -1.1710  2.1909  0.9594
 4462SOL    HW224846   0.658   0.344   0.328  0.3374 -1.4418  0.4195
 4463SOL     OW24847   3.684   1.293   8.023 -0.2050  0.0396  0.3813
 4463SOL    HW124848   3.619   1.355   8.055 -0.2175  0.1745  0.0937
 4463SOL    HW224849   3.759   1.332   8.068  1.4459 -1.8758 -0.7095
 4464SOL     OW24850   0.645   3.854   2.918  0.3610 -0.0642 -0.7379
 4464SOL    HW124851   0.664   3.827   3.007  0.1695  1.9978 -0.0607
 4464SOL    HW224852   0.735   3.851   2.885  0.5376  1.7085 -0.4162
 4465SOL     OW24853   2.484   2.126   8.626  0.6223  0.2507 -0.1722
 4465SOL    HW124854   2.408   2.084   8.586 -1.3454  1.8046  1.9468
 4465SOL    HW224855   2.474   2.220   8.612 -0.9757 -0.0413 -0.9188
 4466SOL     OW24856   2.308   1.692   4.443 -0.2655  0.2129  0.4086
 4466SOL    HW124857   2.258   1.661   4.367  0.8145 -3.3784  1.1643
 4466SOL    HW224858   2.342   1.775   4.410  2.9955 -0.6009  1.7331
 4467SOL     OW24859   3.086   1.425   5.365 -0.1665  0.0738  0.0567
 4467SOL    HW124860   3.000   1.418   5.406 -1.2879  2.3186 -1.9302
 4467SOL    HW224861   3.102   1.341   5.323 -0.4927  0.0469 -0.0105
 4468SOL     OW24862   3.720   0.030   4.648  0.6157  0.0889 -0.3699
 4468SOL    HW124863   3.788   0.087   4.612 -0.9607  2.3675  0.2801
 4468SOL    HW224864   3.744   4.669   4.613  0.6606 -0.9201  2.1726
 4469SOL     OW24865   3.401   0.475   7.496  0.4145  0.3975 -0.5055
 4469SOL    HW124866   3.471   0.420   7.459  0.9559 -0.6674  2.0643
 4469SOL    HW224867   3.372   0.434   7.578  0.1325 -0.4171 -1.0065
 4470SOL     OW24868   3.250   1.264  14.055  0.7423 -0.7150  0.6143
 4470SOL    HW124869   3.340   1.293  14.066 -0.1620  2.7758 -1.1060
 4470SOL    HW224870   3.211   1.310  13.980 -0.7260  0.9286  2.4046
 4471SOL     OW24871   1.192   2.091   6.198  0.2710  0.6305 -0.5460
 4471SOL    HW124872   1.173   2.089   6.291  1.3534  0.3912 -0.3294
 4471SOL    HW224873   1.132   2.024   6.164  0.4437  1.5064 -2.6164
 4472SOL     OW24874   3.233   3.278   3.445 -0.0088 -0.1029 -0.0415
 4472SOL    HW124875   3.241   3.334   3.369 -1.0343  0.2723  0.1280
 4472SOL    HW224876   3.273   3.198   3.412 -0.9634 -0.9876  0.9292
 4473SOL     OW24877   3.420   3.355  13.623 -0.2989  0.9941 -0.1303
 4473SOL    HW124878   3.478   3.355  13.699 -0.8576  1.0306  0.2913
 4473SOL    HW224879   3.409   3.449  13.611  0.6774  1.1061 -0.1266
 4474SOL     OW24880   3.947   2.013   2.076 -0.3439  0.4372  0.6100
 4474SOL    HW124881   4.037   2.042   2.062  0.1320 -1.3413  0.1054
 4474SOL    HW224882   3.917   2.046   2.161 -0.5808 -0.8956  1.0371
 4475SOL     OW24883   4.317   1.946   7.567 -0.0400 -0.1345 -0.3258
 4475SOL    HW124884   4.354   1.868   7.526  0.0855 -0.4361  0.3505
 4475SOL    HW224885   4.302   1.905   7.652 -0.3053  0.8516  0.1050
 4476SOL     OW24886   3.945   1.975   8.698 -0.3719 -0.0295 -0.0448
 4476SOL    HW124887   3.909   1.887   8.709 -2.2668  0.6991 -0.4968
 4476SOL    HW224888   4.014   1.945   8.639 -1.6688  0.4771 -1.8427
 4477SOL     OW24889   2.185   2.704   2.648 -0.0597  0.2549 -0.0421
 4477SOL    HW124890   2.150   2.676   2.563  0.4512 -1.7051  0.3774
 4477SOL    HW224891   2.121   2.659   2.704  0.4163  0.8608  0.9831
 4478SOL     OW24892   4.001   3.500  14.253  0.7068 -0.4331 -0.3152
 4478SOL    HW124893   3.907   3.480  14.254  0.1216  2.3181 -1.2989
 4478SOL    HW224894   4.037   3.446  14.324  1.4887  1.0330  0.3914
 4479SOL     OW24895   4.365   2.146   2.260  0.1174 -0.0203 -0.5370
 4479SOL    HW124896   4.420   2.094   2.318 -1.9210 -1.6150 -0.0471
 4479SOL    HW224897   4.384   2.238   2.277  0.9929 -0.4642  0.9302
 4480SOL     OW24898   2.694   1.791   7.414 -0.0661 -0.1301  0.0995
 4480SOL    HW124899   2.613   1.829   7.446 -0.0660  0.5752 -0.7291
 4480SOL    HW224900   2.737   1.754   7.491  1.5140 -0.8955 -1.1250
 4481SOL     OW24901   0.574   0.995  14.191 -0.5390 -0.5285  0.1199
 4481SOL    HW124902   0.602   0.958  14.107  0.7595  2.2331 -0.6795
 4481SOL    HW224903   0.517   0.921  14.211 -0.2158 -0.4144  1.4651
 4482SOL     OW24904   2.340   4.329   6.352  0.5373  0.2979  0.0426
 4482SOL    HW124905   2.247   4.349   6.344  1.0903  2.6798 -0.4831
 4482SOL    HW224906   2.356   4.418   6.383 -1.1933  0.2786  0.9957
 4483SOL     OW24907   4.470   4.237   6.482  0.8007  0.2396  0.1362
 4483SOL    HW124908   4.444   4.148   6.508 -2.6917  1.9656  2.4580
 4483SOL    HW224909   4.426   4.246   6.398  1.9544 -0.8785 -0.6053
 4484SOL     OW24910   1.286   3.933   7.665  0.1455  0.3021 -0.0557
 4484SOL    HW124911   1.191   3.940   7.655  0.2761  0.7396 -1.0300
 4484SOL    HW224912   1.308   4.012   7.617 -1.2610  0.6540 -0.1048
 4485SOL     OW24913   3.890   2.311   7.779 -0.4219  0.3700  0.1366
 4485SOL    HW124914   3.925   2.234   7.825  0.8013  0.5406 -0.5227
 4485SOL    HW224915   3.914   2.379   7.842  2.0397  1.7296 -2.2880
 4486SOL     OW24916   0.620   1.972   3.764  0.9384  0.3514 -0.2063
 4486SOL    HW124917   0.539   1.929   3.734  0.3179  0.3117  1.4895
 4486SOL    HW224918   0.598   2.065   3.762 -1.6097 -0.2194  1.5109
 4487SOL     OW24919   2.842   2.957  15.007 -0.3159 -0.0931 -0.3698
 4487SOL    HW124920   2.790   2.939  14.928 -1.6878  1.5577  0.1600
 4487SOL    HW224921   2.904   2.885  14.996  2.0808  1.7189  1.6523
 4488SOL     OW24922   2.405   2.799  11.425 -0.0605  0.1210 -0.2544
 4488SOL    HW124923   2.359   2.755  11.353  0.7961  1.1712 -1.4485
 4488SOL    HW224924   2.433   2.876  11.376 -2.2996  2.2256  1.8356
 4489SOL     OW24925   0.381   4.202   5.724 -0.5471  0.3228  0.3342
 4489SOL    HW124926   0.325   4.273   5.692 -0.6251 -0.1361 -0.5402
 4489SOL    HW224927   0.314   4.143   5.757 -0.6248  0.8678  1.1598
 4490SOL     OW24928   1.551   1.499   8.110 -0.1466  0.5881  0.1329
 4490SOL    HW124929   1.484   1.464   8.168 -0.0631 -0.8273 -0.6341
 4490SOL    HW224930   1.508   1.506   8.024 -0.0970 -2.7637 -0.1549
 4491SOL     OW24931   0.275   4.650   4.345  0.2282  0.4616  0.2630
 4491SOL    HW124932   0.240   4.588   4.409  0.3792 -0.5491 -0.6283
 4491SOL    HW224933   0.267   4.589   4.272 -2.1377 -0.2478  1.1125
 4492SOL     OW24934   0.851   3.036   0.393 -0.7719 -0.3701  0.2361
 4492SOL    HW124935   0.875   2.955   0.437 -2.6444 -0.5893  0.8327
 4492SOL    HW224936   0.788   2.998   0.332  0.2171  0.4841 -1.3537
 4493SOL     OW24937   3.759   0.059   7.142 -0.2522 -0.0439 -0.0248
 4493SOL    HW124938   3.799   0.089   7.060 -3.5820 -0.3311 -1.7514
 4493SOL    HW224939   3.801   4.699   7.153 -3.1749 -1.8334 -2.9424
 4494SOL     OW24940   3.057   4.641  10.737 -0.2280 -0.5277 -1.0366
 4494SOL    HW124941   3.146   4.605  10.734  0.2724  0.5599  1.4439
 4494SOL    HW224942   3.060   4.709  10.670  0.8222 -1.8312 -2.3343
 4495SOL     OW24943   4.631   0.457   6.790  0.0143 -0.5253  0.6382
 4495SOL    HW124944   4.645   0.542   6.832 -0.9760 -0.5637  1.0389
 4495SOL    HW224945   4.538   0.467   6.771  0.1468 -0.2615  0.1161
 4496SOL     OW24946   3.963   4.073  14.635  0.2277  0.2061 -0.8257
 4496SOL    HW124947   3.935   4.094  14.724 -1.4125 -2.8825 -0.5868
 4496SOL    HW224948   4.051   4.109  14.637  0.2844  0.0740 -0.9142
 4497SOL     OW24949   1.494   3.982   0.353  0.1240  0.0960 -0.3178
 4497SOL    HW124950   1.516   3.934   0.432 -2.6256  0.9917  0.9958
 4497SOL    HW224951   1.532   3.927   0.285 -0.0167 -1.3876  0.8167
 4498SOL     OW24952   4.568   3.542   6.402  0.3263 -0.0146  0.3817
 4498SOL    HW124953   4.513   3.472   6.368  0.6183 -0.4278  0.7549
 4498SOL    HW224954   4.499   3.595   6.442  0.1162  0.8088 -1.0746
 4499SOL     OW24955   1.207   0.541  15.520 -0.0885 -0.1249 -0.0941
 4499SOL    HW124956   1.215   0.634  15.537  1.7286 -0.0305 -1.5612
 4499SOL    HW224957   1.111   0.533  15.517 -0.1516  0.6379 -0.0974
 4500SOL     OW24958   0.557   1.420   7.315 -0.8537 -0.3458 -0.1334
 4500SOL    HW124959   0.626   1.413   7.249 -0.7178 -0.7642  0.0501
 4500SOL    HW224960   0.519   1.500   7.279  0.3404  0.0151 -0.6059
 4501SOL     OW24961   4.193   3.300   2.057 -0.5262 -0.5147  0.0862
 4501SOL    HW124962   4.227   3.349   1.982  1.8619 -0.5724  1.1066
 4501SOL    HW224963   4.122   3.250   2.018  0.0664 -1.4623  0.2296
 4502SOL     OW24964   3.207   1.028   3.116  0.1584 -0.5922 -0.1194
 4502SOL    HW124965   3.116   1.022   3.088 -0.1867  0.0061  0.8930
 4502SOL    HW224966   3.211   1.084   3.193 -1.0087 -1.8776  0.8806
 4503SOL     OW24967   3.098   1.138  17.570  0.6210  0.0406 -0.2476
 4503SOL    HW124968   3.088   1.228  17.539  2.6475  0.6404  0.8607
 4503SOL    HW224969   3.178   1.151  17.621  1.2337 -0.5157 -1.0885
 4504SOL     OW24970   2.183   2.005  12.321 -0.1652  0.2091 -0.9187
 4504SOL    HW124971   2.119   2.037  12.257 -3.0090  0.9639  2.2874
 4504SOL    HW224972   2.115   1.980  12.384  0.7361  0.1728  0.0417
 4505SOL     OW24973   0.265   3.577   1.418  0.4001 -0.3246 -0.3599
 4505SOL    HW124974   0.281   3.549   1.328  0.1614  0.5201 -0.6662
 4505SOL    HW224975   0.351   3.564   1.458 -0.2826  1.4374  1.6909
 4506SOL     OW24976   2.736   0.475  17.078  0.0849 -0.0850 -0.2196
 4506SOL    HW124977   2.723   0.402  17.017 -2.2644 -1.3979  1.8774
 4506SOL    HW224978   2.649   0.507  17.099  0.6266  1.7804 -0.7898
 4507SOL     OW24979   4.506   3.972   3.563  0.1196 -0.2127 -0.0522
 4507SOL    HW124980   4.443   3.900   3.553 -1.4883  1.5770 -2.8727
 4507SOL    HW224981   4.582   3.923   3.594 -0.5725 -1.3128 -0.0975
 4508SOL     OW24982   0.675   3.795   2.268 -0.3080  0.5474 -0.1072
 4508SOL    HW124983   0.708   3.715   2.228 -2.3548  1.0258 -2.7872
 4508SOL    HW224984   0.760   3.837   2.280 -1.2395  1.5869  2.7429
 4509SOL     OW24985   2.131   2.221   1.648  0.3681 -0.0760  0.5199
 4509SOL    HW124986   2.128   2.139   1.698 -1.1609 -0.9980 -1.0652
 4509SOL    HW224987   2.142   2.182   1.561  0.9131  0.7295  0.2368
 4510SOL     OW24988   2.918   2.143   9.824 -0.2653  0.2075 -0.2651
 4510SOL    HW124989   2.937   2.211   9.760  0.9190  2.6241  2.6186
 4510SOL    HW224990   2.839   2.186   9.858 -0.7083 -0.6374 -0.2400
 4511SOL     OW24991   4.697   2.973  14.702  0.3993  0.3539 -0.1341
 4511SOL    HW124992   0.064   2.996  14.687 -0.4893  2.4591 -2.3451
 4511SOL    HW224993   4.672   2.902  14.643  1.4260 -1.5799  1.7776
 4512SOL     OW24994   1.073   4.031   5.570  0.0327  0.1579  0.0776
 4512SOL    HW124995   1.031   4.112   5.540  2.4078  1.3941  0.0305
 4512SOL    HW224996   1.146   4.064   5.623 -0.9496  1.8115  0.3786
 4513SOL     OW24997   2.319   3.127  17.203  0.0271  0.1993 -0.2029
 4513SOL    HW124998   2.239   3.131  17.256 -0.0715 -0.0381 -0.3347
 4513SOL    HW224999   2.341   3.219  17.188 -0.0995  0.2902  0.1447
 4514SOL     OW25000   3.155   4.422   8.453 -0.2006  0.2599 -0.0141
 4514SOL    HW125001   3.112   4.377   8.526  0.1047 -0.5010 -0.3061
 4514SOL    HW225002   3.105   4.378   8.384  0.0837  0.3501 -0.2786
 4515SOL     OW25003   2.011   2.355  11.720 -0.1909 -0.5037  0.0631
 4515SOL    HW125004   2.049   2.317  11.799 -2.5693 -1.2503  0.8253
 4515SOL    HW225005   2.091   2.381  11.674 -1.1068  0.7430 -0.8293
 4516SOL     OW25006   3.807   1.796   8.994  0.0809  0.0576  0.5068
 4516SOL    HW125007   3.902   1.789   9.001  0.2030  1.5044  0.1509
 4516SOL    HW225008   3.795   1.726   8.929 -2.0717  0.8033  0.0925
 4517SOL     OW25009   2.011   4.566   8.176  0.6172  0.4035  0.4559
 4517SOL    HW125010   1.934   4.535   8.224 -0.4058  0.6742 -0.9726
 4517SOL    HW225011   2.045   4.487   8.133 -0.7652  1.1053 -1.9251
 4518SOL     OW25012   3.101   1.990   7.300  0.3166 -0.7453 -0.0314
 4518SOL    HW125013   3.129   1.906   7.336 -0.3183 -0.8293  0.2570
 4518SOL    HW225014   3.010   1.965   7.284  0.5681  0.2499 -3.1935
 4519SOL     OW25015   1.461   0.919   9.610  0.0571 -0.2022  0.0438
 4519SOL    HW125016   1.412   0.951   9.534  1.3427  1.3379 -0.1408
 4519SOL    HW225017   1.459   0.825   9.590 -2.7064 -0.8627  3.6670
 4520SOL     OW25018   4.487   0.497   3.006  0.1166 -0.2365 -0.1441
 4520SOL    HW125019   4.403   0.483   2.962  0.0694  3.2205 -1.1007
 4520SOL    HW225020   4.527   0.422   2.962  0.8945  1.9087 -3.0975
 4521SOL     OW25021   3.041   4.394   6.235 -0.0217  0.2637  0.2682
 4521SOL    HW125022   3.121   4.447   6.234 -0.9267  1.6085 -0.3058
 4521SOL    HW225023   3.042   4.359   6.145 -0.4314  0.6740  0.1054
 4522SOL     OW25024   3.640   0.953   5.636 -0.6618  0.3742  0.1043
 4522SOL    HW125025   3.617   0.978   5.725  1.4095  0.6001  0.5857
 4522SOL    HW225026   3.645   0.858   5.647  1.4563  0.3275 -1.1292
 4523SOL     OW25027   0.517   0.776   5.828  0.1647 -0.3732 -0.1142
 4523SOL    HW125028   0.575   0.721   5.775  0.8035  0.5179 -0.3447
 4523SOL    HW225029   0.486   0.835   5.759  0.7607 -1.1280 -1.0439
 4524SOL     OW25030   2.741   2.718   3.149  0.1764  0.1368 -0.3179
 4524SOL    HW125031   2.651   2.748   3.157  0.3396  0.1195  1.6315
 4524SOL    HW225032   2.767   2.771   3.074  1.9414  1.6704  1.3690
 4525SOL     OW25033   0.524   2.691   1.784  0.4274 -0.3095 -0.5836
 4525SOL    HW125034   0.597   2.752   1.772  0.5728 -0.4381 -0.3585
 4525SOL    HW225035   0.531   2.653   1.871 -4.2227 -0.4349 -0.2748
 4526SOL     OW25036   2.868   3.499   9.655 -0.0787 -0.3922  0.1197
 4526SOL    HW125037   2.806   3.517   9.726  0.4553  1.3974  0.1446
 4526SOL    HW225038   2.827   3.426   9.610 -2.3686  0.5531  0.6527
 4527SOL     OW25039   2.690   0.730   1.588 -0.4249 -0.4304  0.6200
 4527SOL    HW125040   2.619   0.725   1.524 -1.9163  1.0472  2.1399
 4527SOL    HW225041   2.776   0.723   1.545  1.0188  1.8337  3.1564
 4528SOL     OW25042   2.292   3.878   5.569  0.1160  0.6599 -0.5378
 4528SOL    HW125043   2.288   3.876   5.664  2.1180  0.3885 -0.4580
 4528SOL    HW225044   2.375   3.924   5.560  2.0057 -2.7027 -0.2188
 4529SOL     OW25045   4.190   4.006   4.307  0.5106  0.7694  0.2342
 4529SOL    HW125046   4.127   3.935   4.302 -0.7995  2.0069 -0.9969
 4529SOL    HW225047   4.165   4.052   4.387 -1.3043  0.3310 -0.1026
 4530SOL     OW25048   2.534   0.714  13.153  0.1330  0.2926 -0.3947
 4530SOL    HW125049   2.562   0.804  13.137  0.0740  0.1629 -1.2141
 4530SOL    HW225050   2.459   0.724  13.095  0.8641  0.9799 -1.2242
 4531SOL     OW25051   2.045   3.950  14.523 -0.9129  0.0382  0.1381
 4531SOL    HW125052   1.985   3.973  14.594 -2.0458  1.2968 -1.2187
 4531SOL    HW225053   2.043   3.856  14.542 -2.6657  0.1725  0.6206
 4532SOL     OW25054   2.699   4.540   9.728  0.6639 -0.3093 -0.8568
 4532SOL    HW125055   2.732   4.520   9.815  1.2319  1.4161 -0.6936
 4532SOL    HW225056   2.614   4.496   9.716  1.2444 -2.0205  1.4310
 4533SOL     OW25057   2.875   3.714   5.323 -0.0386  0.1149 -0.1304
 4533SOL    HW125058   2.936   3.650   5.358  1.2980  0.8673 -1.0838
 4533SOL    HW225059   2.876   3.686   5.231 -2.8474  0.9790 -0.4468
 4534SOL     OW25060   0.503   1.292  15.186 -0.4002  0.2739 -0.0090
 4534SOL    HW125061   0.488   1.386  15.184 -0.6268  0.2484  0.6659
 4534SOL    HW225062   0.596   1.288  15.163 -0.3411 -0.2496  0.3266
 4535SOL     OW25063   1.732   1.493   7.558 -0.2193 -0.3761 -0.2736
 4535SOL    HW125064   1.723   1.494   7.654  0.0417 -0.4211 -0.2470
 4535SOL    HW225065   1.647   1.527   7.532  0.8903  1.0585 -2.0323
 4536SOL     OW25066   3.443   1.498   8.043  0.0917 -0.1478 -0.1552
 4536SOL    HW125067   3.440   1.463   7.954 -1.8053 -0.2771 -0.0386
 4536SOL    HW225068   3.349   1.500   8.063 -0.0292 -2.0852 -0.5065
 4537SOL     OW25069   2.196   3.978   0.090  0.3903 -0.0503  0.0146
 4537SOL    HW125070   2.146   4.057   0.068 -0.8337 -0.8659 -0.1508
 4537SOL    HW225071   2.146   3.918   0.034 -0.4213  0.8242 -0.2005
 4538SOL     OW25072   0.036   2.765   6.699  0.1916 -0.1354  0.7408
 4538SOL    HW125073   0.003   2.818   6.627  1.3433 -1.0475 -0.4427
 4538SOL    HW225074   4.697   2.768   6.770 -0.2316  2.1582  0.2727
 4539SOL     OW25075   2.359   4.725  16.975 -0.4399 -0.5118  0.4414
 4539SOL    HW125076   2.363   4.633  17.002  1.5200 -0.9860 -1.4561
 4539SOL    HW225077   2.351   4.707  16.881  1.0440  0.4831  0.1415
 4540SOL     OW25078   2.227   4.580   3.641 -0.0674  0.8603  0.0429
 4540SOL    HW125079   2.273   4.609   3.562  0.9563  2.3244  1.1975
 4540SOL    HW225080   2.165   4.512   3.613 -0.6141  1.7543 -0.9002
 4541SOL     OW25081   2.904   0.939  16.508  0.1774  0.0898 -0.2511
 4541SOL    HW125082   2.868   1.027  16.514 -1.6714 -0.6987  0.1972
 4541SOL    HW225083   2.892   0.907  16.597  1.3524 -0.5046 -0.3031
 4542SOL     OW25084   3.604   1.519   8.594  0.0052  0.1432 -0.1334
 4542SOL    HW125085   3.510   1.525   8.611  0.2236 -1.6474  1.6936
 4542SOL    HW225086   3.605   1.455   8.523 -0.8096 -0.0675  0.0406
 4543SOL     OW25087   4.010   2.223   7.104  0.0581  0.1367  0.3609
 4543SOL    HW125088   4.086   2.196   7.052 -0.9021  2.4898 -2.2226
 4543SOL    HW225089   3.949   2.244   7.034  0.0724  0.5641  0.4797
 4544SOL     OW25090   2.036   0.347  15.945 -0.0931 -0.2775 -0.1979
 4544SOL    HW125091   1.958   0.307  15.906 -0.2932  0.2719 -0.3713
 4544SOL    HW225092   2.076   0.272  15.989 -0.7460  0.5612  1.8299
 4545SOL     OW25093   1.064   4.066   5.853  0.7055  0.0455 -0.8709
 4545SOL    HW125094   1.154   4.097   5.853  0.6482  0.2092 -0.9246
 4545SOL    HW225095   1.058   4.061   5.949 -0.7265  2.5298 -0.8427
 4546SOL     OW25096   0.680   1.779   6.272  0.1751 -0.3577 -0.1745
 4546SOL    HW125097   0.730   1.698   6.268 -1.5752 -1.4460 -0.2805
 4546SOL    HW225098   0.738   1.848   6.241  2.0410 -2.1286 -0.6069
 4547SOL     OW25099   4.171   4.465   4.238  0.5968 -1.0255  0.0567
 4547SOL    HW125100   4.078   4.465   4.217  0.8575  0.9319 -1.1078
 4547SOL    HW225101   4.166   4.515   4.319  1.6414 -1.4621  0.3933
 4548SOL     OW25102   2.719   4.699   3.317  0.2228  0.2383  0.4837
 4548SOL    HW125103   2.727   4.621   3.372 -1.9168 -1.0079 -0.9791
 4548SOL    HW225104   2.725   4.660   3.229  2.6134 -2.2590  1.7376
 4549SOL     OW25105   1.510   2.915   7.739  0.2282  0.3180  0.1139
 4549SOL    HW125106   1.465   2.840   7.776 -0.4291  0.2112 -0.9112
 4549SOL    HW225107   1.492   2.899   7.646 -1.1219  0.8333  0.2891
 4550SOL     OW25108   2.785   1.415   7.315 -0.2885 -0.8605 -0.3118
 4550SOL    HW125109   2.720   1.411   7.385  1.7126  0.2065  1.5971
 4550SOL    HW225110   2.762   1.334   7.269 -0.0047 -1.5217  0.7177
 4551SOL     OW25111   3.468   1.543   0.200 -0.0712  0.1322 -0.2029
 4551SOL    HW125112   3.534   1.484   0.237 -0.0269  0.7258  0.6707
 4551SOL    HW225113   3.459   1.508   0.111  0.9617 -1.3466  0.2635
 4552SOL     OW25114   3.091   3.984  14.579  0.3539  0.3510 -0.0627
 4552SOL    HW125115   3.149   3.915  14.545 -1.0931 -2.2395  2.7261
 4552SOL    HW225116   3.006   3.944  14.560 -0.5492  2.0739  0.4182
 4553SOL     OW25117   4.477   1.367   6.809 -0.8060  0.0200  0.1105
 4553SOL    HW125118   4.409   1.363   6.742 -2.0756 -3.2173  1.6221
 4553SOL    HW225119   4.473   1.278   6.843  0.8663  0.0875  0.4653
 4554SOL     OW25120   4.578   2.601   2.542  0.0594  0.4207  0.6550
 4554SOL    HW125121   4.540   2.606   2.630 -2.2679  1.1956 -0.3904
 4554SOL    HW225122   4.504   2.631   2.489  0.0853 -0.5294  0.0792
 4555SOL     OW25123   0.204   2.255   0.939 -0.0270 -0.7563  0.3964
 4555SOL    HW125124   0.128   2.238   0.884  0.5329 -3.6670  0.5398
 4555SOL    HW225125   0.160   2.239   1.023  1.3857  1.7835  1.6096
 4556SOL     OW25126   1.615   4.354  17.286 -0.0419  0.1362 -0.0807
 4556SOL    HW125127   1.559   4.388  17.216 -1.2607  1.3365  1.4556
 4556SOL    HW225128   1.652   4.434  17.322 -0.2627 -0.2211  0.9387
 4557SOL     OW25129   3.416   2.472   8.299  0.4634 -0.2594  0.2022
 4557SOL    HW125130   3.354   2.400   8.310 -1.5405  0.9126 -3.3704
 4557SOL    HW225131   3.357   2.547   8.284  0.1074 -1.0047 -2.1037
 4558SOL     OW25132   2.869   3.004   6.524 -0.3294 -0.5484  0.3025
 4558SOL    HW125133   2.801   3.017   6.590 -1.7067 -0.7235 -1.0573
 4558SOL    HW225134   2.899   3.093   6.505 -1.4687 -0.1727  0.2247
 4559SOL     OW25135   1.596   0.341  17.473 -0.1383  0.4809 -0.4174
 4559SOL    HW125136   1.529   0.277  17.448  0.8185 -0.5373 -0.3899
 4559SOL    HW225137   1.670   0.302  17.426  1.0907  3.0387 -0.5617
 4560SOL     OW25138   1.097   1.328   4.490 -0.3124  0.3412  0.3905
 4560SOL    HW125139   1.019   1.295   4.447 -1.7454  1.4102  2.1763
 4560SOL    HW225140   1.121   1.260   4.554 -0.9194  0.5053  0.7890
 4561SOL     OW25141   2.381   0.002   4.894 -0.5034  0.1853 -0.0059
 4561SOL    HW125142   2.344   4.706   4.980  1.0610 -0.1696  0.5689
 4561SOL    HW225143   2.308   4.710   4.835 -1.5989  2.0550  0.8254
 4562SOL     OW25144   1.705   1.232   6.344 -0.0929  0.2986  0.2529
 4562SOL    HW125145   1.762   1.295   6.300  0.4409  0.7287  1.5378
 4562SOL    HW225146   1.661   1.292   6.405  1.2735 -0.6805  2.2028
 4563SOL     OW25147   1.627   2.713   8.377  0.3158  0.2383 -0.4172
 4563SOL    HW125148   1.644   2.749   8.290 -1.7076 -0.3235 -1.0306
 4563SOL    HW225149   1.550   2.765   8.400  0.4997  0.1711  0.3680
 4564SOL     OW25150   1.462   0.911  15.752  0.3621  0.0617  0.4451
 4564SOL    HW125151   1.485   0.859  15.829 -0.2040  0.5963  0.9793
 4564SOL    HW225152   1.372   0.927  15.780 -0.1571 -2.2743  0.1734
 4565SOL     OW25153   3.872   3.145   2.591  0.0187  0.7573 -0.0826
 4565SOL    HW125154   3.816   3.069   2.602  0.3402  0.4332 -0.6612
 4565SOL    HW225155   3.833   3.211   2.648  1.4412 -1.5686  3.6310
 4566SOL     OW25156   3.854   1.537  16.877 -0.6015  0.0198  0.0060
 4566SOL    HW125157   3.931   1.484  16.855 -0.3009  0.5023 -0.1231
 4566SOL    HW225158   3.817   1.556  16.791 -0.5958 -1.5511 -0.3306
 4567SOL     OW25159   3.076   3.828   8.553  0.2356  0.1725 -0.1106
 4567SOL    HW125160   3.171   3.832   8.539  0.0644 -0.2234 -1.4623
 4567SOL    HW225161   3.054   3.916   8.582 -4.2469 -0.7290 -0.7795
 4568SOL     OW25162   3.351   2.143   7.270  0.1270 -0.1621 -0.1505
 4568SOL    HW125163   3.441   2.112   7.266 -0.7340 -2.5951 -0.6882
 4568SOL    HW225164   3.298   2.068   7.298  1.1338  0.1062  2.5075
 4569SOL     OW25165   3.189   1.716   2.861 -0.1138  0.1226 -0.6571
 4569SOL    HW125166   3.241   1.654   2.810  0.7503 -1.4840  2.1934
 4569SOL    HW225167   3.140   1.743   2.783 -1.0055 -0.8974 -0.4573
 4570SOL     OW25168   0.220   1.259   3.606 -0.2577  0.3069 -0.2177
 4570SOL    HW125169   0.270   1.236   3.528  0.7312  0.0161  0.5080
 4570SOL    HW225170   0.284   1.249   3.677  0.2142  0.2320 -0.6569
 4571SOL     OW25171   1.704   2.605   2.870 -0.0063 -0.4623  0.3546
 4571SOL    HW125172   1.636   2.559   2.820  0.8345  0.3245 -1.5054
 4571SOL    HW225173   1.782   2.565   2.833  1.2715  0.7647  1.7248
 4572SOL     OW25174   3.390   2.172   4.643  0.1410 -0.1115  0.5745
 4572SOL    HW125175   3.448   2.241   4.610 -2.2034  1.0478 -1.0794
 4572SOL    HW225176   3.442   2.130   4.711  1.0673 -0.8682 -0.6061
 4573SOL     OW25177   0.139   2.741   4.303 -0.0758  0.2698 -0.2541
 4573SOL    HW125178   0.203   2.692   4.354  1.6982  1.8311 -0.9960
 4573SOL    HW225179   0.063   2.684   4.290 -1.0111  1.3912  0.3076
 4574SOL     OW25180   2.658   2.718   4.955  0.4897  0.7267  0.1505
 4574SOL    HW125181   2.727   2.711   5.021  1.2692 -0.0933 -0.7487
 4574SOL    HW225182   2.602   2.643   4.974  0.7089  0.4396 -0.3459
 4575SOL     OW25183   1.875   2.047   4.866  0.3999 -0.2431  0.1718
 4575SOL    HW125184   1.844   2.033   4.776 -2.4080 -1.4220  1.3297
 4575SOL    HW225185   1.805   2.093   4.911 -0.4942 -0.5541 -0.8980
 4576SOL     OW25186   4.341   0.188   9.420  0.0024  0.5104 -0.6018
 4576SOL    HW125187   4.435   0.181   9.403 -0.2927  0.2145 -2.1140
 4576SOL    HW225188   4.332   0.100   9.458 -0.2598  0.2200 -1.3232
 4577SOL     OW25189   0.651   0.228   3.480  0.1322 -0.3814  0.6775
 4577SOL    HW125190   0.744   0.247   3.494 -0.1254  0.7745  0.8220
 4577SOL    HW225191   0.607   0.279   3.548 -0.6715 -0.7949  0.4769
 4578SOL     OW25192   4.273   1.406   0.680 -0.3999  0.6403 -0.3213
 4578SOL    HW125193   4.243   1.492   0.707  0.8175  0.1941  2.4596
 4578SOL    HW225194   4.353   1.438   0.636 -0.3949 -1.0823 -1.5824
 4579SOL     OW25195   4.154   2.389   3.834  0.1970  0.5121  0.0198
 4579SOL    HW125196   4.090   2.424   3.896  0.0238  1.4164 -0.6689
 4579SOL    HW225197   4.097   2.397   3.758 -0.1007  1.3348  0.3237
 4580SOL     OW25198   3.037   3.809   4.033  0.4265 -0.1245  0.6938
 4580SOL    HW125199   3.130   3.829   4.043  0.0909  1.9694 -0.4363
 4580SOL    HW225200   3.028   3.744   4.103  0.7139 -1.6884 -0.7111
 4581SOL     OW25201   3.684   3.692   3.079 -0.1766  0.0256  0.2674
 4581SOL    HW125202   3.735   3.711   3.158  1.2080 -2.4963 -0.0250
 4581SOL    HW225203   3.654   3.780   3.054 -2.7035 -1.4855 -1.9682
 4582SOL     OW25204   2.077   3.903  15.163 -0.0797 -0.3212  0.3518
 4582SOL    HW125205   2.035   3.951  15.091  0.0095  0.8393  1.0832
 4582SOL    HW225206   2.079   3.962  15.238  0.5526  1.7172 -1.2552
 4583SOL     OW25207   4.174   2.267   8.041  0.2902  0.3460 -0.2806
 4583SOL    HW125208   4.208   2.245   8.128 -2.6137  0.8258  0.9924
 4583SOL    HW225209   4.141   2.181   8.016 -0.2452  0.4616  0.0056
 4584SOL     OW25210   3.283   1.966  13.443 -0.6733  0.3856  0.2994
 4584SOL    HW125211   3.213   1.918  13.488 -0.6155  0.5222  0.5306
 4584SOL    HW225212   3.240   1.993  13.362 -3.0699 -0.2627  1.3459
 4585SOL     OW25213   0.653   3.801   9.450 -0.0501  0.2265 -0.0303
 4585SOL    HW125214   0.735   3.781   9.495  0.0813 -1.5157 -1.0599
 4585SOL    HW225215   0.622   3.867   9.512  0.7084 -1.0949  1.7642
 4586SOL     OW25216   0.197   2.285   3.118 -0.0788 -0.0514 -0.5558
 4586SOL    HW125217   0.126   2.241   3.165 -1.5832  1.0514 -1.7927
 4586SOL    HW225218   0.196   2.241   3.033  1.4080 -2.6879  0.7968
 4587SOL     OW25219   0.307   0.242  15.783  0.4343 -0.4584  0.2064
 4587SOL    HW125220   0.224   0.210  15.818 -0.7205  2.2432  0.0139
 4587SOL    HW225221   0.306   0.203  15.696 -2.2657  1.1066 -0.4503
 4588SOL     OW25222   4.205   3.882   1.386  0.3119 -0.7027 -0.1828
 4588SOL    HW125223   4.172   3.850   1.303  0.3779 -1.1140 -0.0536
 4588SOL    HW225224   4.239   3.967   1.359  0.5060 -0.6868  0.1039
 4589SOL     OW25225   2.366   2.585  17.253 -0.4718 -0.1542 -0.0012
 4589SOL    HW125226   2.279   2.546  17.256 -0.3447 -0.2866  2.7412
 4589SOL    HW225227   2.424   2.509  17.241  0.1316  0.4275 -0.7218
 4590SOL     OW25228   0.373   2.389   7.457  0.4546 -0.1483 -0.6315
 4590SOL    HW125229   0.468   2.375   7.468  0.5498  1.4739  0.6551
 4590SOL    HW225230   0.352   2.306   7.415  1.2968 -1.7504  2.0878
 4591SOL     OW25231   2.793   2.998   6.992 -0.3584  0.4378 -0.5936
 4591SOL    HW125232   2.760   3.079   7.030 -1.8131 -0.1505 -0.6173
 4591SOL    HW225233   2.882   3.031   7.008  0.3508 -0.2125 -3.2866
 4592SOL     OW25234   1.028   3.592   2.048  0.1622 -0.0186  0.2571
 4592SOL    HW125235   1.070   3.677   2.036  1.5495 -1.0582 -2.1766
 4592SOL    HW225236   1.069   3.550   2.123 -0.8100 -1.0978  0.1876
 4593SOL     OW25237   0.899   0.818  15.598 -0.4254 -0.9098 -0.3513
 4593SOL    HW125238   0.908   0.741  15.653 -0.2389  0.0193  0.9041
 4593SOL    HW225239   0.883   0.771  15.516 -0.9906  2.7311 -2.3221
 4594SOL     OW25240   1.425   4.504   3.337  0.2343 -0.6621  0.8397
 4594SOL    HW125241   1.355   4.548   3.385 -1.5150  1.1184 -3.2664
 4594SOL    HW225242   1.419   4.420   3.382  1.1591 -1.0066  0.3246
 4595SOL     OW25243   2.249   2.631   2.990  0.2547 -0.6308 -0.3288
 4595SOL    HW125244   2.164   2.670   3.010  1.1861  2.0974 -1.5925
 4595SOL    HW225245   2.220   2.542   2.971  0.1727 -0.8922  1.0448
 4596SOL     OW25246   0.138   3.521   1.648  0.1930  0.2041 -0.1350
 4596SOL    HW125247   0.160   3.536   1.555  1.9301  1.0532  0.4029
 4596SOL    HW225248   0.054   3.567   1.644  0.9076  1.5322 -0.1403
 4597SOL     OW25249   0.124   0.058   1.907 -0.5149  0.1652  0.1343
 4597SOL    HW125250   0.132   0.015   1.822 -1.8264 -0.1946  0.1933
 4597SOL    HW225251   0.205   0.026   1.948 -0.0591 -0.0176 -0.8957
 4598SOL     OW25252   2.828   2.763  13.160  0.4825  0.3776 -0.3448
 4598SOL    HW125253   2.756   2.792  13.103  0.2855 -1.4693 -1.0500
 4598SOL    HW225254   2.792   2.794  13.243 -1.0277 -0.8106 -0.5475
 4599SOL     OW25255   1.056   1.505   5.258 -0.0923  0.4609  0.3966
 4599SOL    HW125256   1.058   1.555   5.177 -1.9900 -0.4648 -0.2298
 4599SOL    HW225257   1.091   1.425   5.217  1.3362  0.6864  1.1607
 4600SOL     OW25258   2.100   3.631   3.241  0.6580 -0.9242  0.4491
 4600SOL    HW125259   2.178   3.687   3.246 -0.8984  1.3339 -0.5407
 4600SOL    HW225260   2.081   3.610   3.332 -1.1663  2.0088  0.7379
 4601SOL     OW25261   0.040   4.572  15.856 -0.2944  0.3931 -1.3078
 4601SOL    HW125262   0.040   4.663  15.828 -0.2923  1.2614  1.4697
 4601SOL    HW225263   0.066   4.519  15.781 -0.7319  0.0488 -1.2168
 4602SOL     OW25264   2.311   4.188  14.218 -0.1819  0.0878 -0.2363
 4602SOL    HW125265   2.261   4.114  14.252 -0.7650  1.1813  1.2621
 4602SOL    HW225266   2.401   4.182  14.250 -0.3386 -1.1772 -0.0113
 4603SOL     OW25267   2.652   4.227  15.323 -0.0175  0.1245 -0.2678
 4603SOL    HW125268   2.575   4.192  15.279 -1.1902 -1.6947  3.2421
 4603SOL    HW225269   2.712   4.154  15.305  0.5416  0.6609 -0.5612
 4604SOL     OW25270   2.471   2.757  13.704 -0.6529  0.4003  0.3062
 4604SOL    HW125271   2.402   2.695  13.680 -1.8180  2.3222 -1.2758
 4604SOL    HW225272   2.469   2.823  13.635  0.1932  0.8546  0.7230
 4605SOL     OW25273   3.582   1.899   8.593  0.1953  0.3733  0.2179
 4605SOL    HW125274   3.535   1.842   8.654 -1.4941  1.1081 -0.4002
 4605SOL    HW225275   3.602   1.969   8.655 -0.7207  0.6370  0.2148
 4606SOL     OW25276   1.288   3.615  15.590 -0.4819 -0.4008 -0.2394
 4606SOL    HW125277   1.279   3.678  15.518  0.8959 -0.4376 -0.4352
 4606SOL    HW225278   1.228   3.547  15.558 -0.5532 -0.5916  0.3030
 4607SOL     OW25279   0.008   1.247  12.876 -0.0911 -0.1029  0.5449
 4607SOL    HW125280   4.724   1.230  12.782 -1.2264  2.5133  0.1558
 4607SOL    HW225281   4.691   1.167  12.906 -1.5596  0.4216 -0.0857
 4608SOL     OW25282   2.165   4.456   4.895 -0.2747 -0.5927 -0.0096
 4608SOL    HW125283   2.086   4.405   4.911  0.0720 -0.9186  0.6589
 4608SOL    HW225284   2.145   4.512   4.820  0.1866 -0.8618 -0.3329
 4609SOL     OW25285   0.473   2.548   2.622 -0.1480  0.6325  0.0293
 4609SOL    HW125286   0.441   2.578   2.708 -1.4084  1.1047 -0.6035
 4609SOL    HW225287   0.535   2.482   2.653 -0.4439  0.9562  1.3230
 4610SOL     OW25288   2.813   3.054  15.596 -0.0134  0.4064 -0.0071
 4610SOL    HW125289   2.906   3.061  15.575 -0.0288  0.9870  0.1258
 4610SOL    HW225290   2.817   2.981  15.658 -0.3111 -0.5006 -1.0494
 4611SOL     OW25291   1.804   0.320   9.622  0.6064  0.3355  0.2176
 4611SOL    HW125292   1.788   0.413   9.632  1.5742  0.5064  0.1908
 4611SOL    HW225293   1.823   0.295   9.712 -2.8470 -1.8495  0.3481
 4612SOL     OW25294   0.905   1.229  16.593 -0.0245  0.0940  0.4220
 4612SOL    HW125295   0.831   1.272  16.637  0.4708  0.6651  0.6925
 4612SOL    HW225296   0.880   1.237  16.501  0.1152 -1.3080  0.2540
 4613SOL     OW25297   1.969   4.661  14.224 -0.1019 -0.0522 -0.1070
 4613SOL    HW125298   1.956   4.566  14.226  3.0693 -0.5417 -2.3999
 4613SOL    HW225299   2.055   4.668  14.182  1.6442  0.7493  3.5600
 4614SOL     OW25300   2.537   3.169   6.617 -0.0314  0.6124  0.1160
 4614SOL    HW125301   2.550   3.096   6.677  0.7957  0.7100  0.0547
 4614SOL    HW225302   2.609   3.228   6.635 -0.2310  0.5552  1.1226
 4615SOL     OW25303   1.811   2.881   6.010  0.5081  0.2261  0.1282
 4615SOL    HW125304   1.734   2.840   5.971  0.8715  0.1309 -0.4922
 4615SOL    HW225305   1.872   2.808   5.997 -1.3514 -1.3296  0.0401
 4616SOL     OW25306   0.449   4.183   8.358  0.1541 -0.2688 -0.1543
 4616SOL    HW125307   0.365   4.224   8.380  0.3536  0.2420 -0.3507
 4616SOL    HW225308   0.450   4.199   8.264  2.9074  2.2146  0.3023
 4617SOL     OW25309   2.920   4.158   6.628 -0.6089 -0.5963 -0.0741
 4617SOL    HW125310   2.888   4.248   6.633 -0.3545 -0.4723 -0.6010
 4617SOL    HW225311   2.888   4.126   6.712 -0.8133  2.1646  0.9172
 4618SOL     OW25312   2.401   4.193  13.420 -0.2529  0.3095  0.0731
 4618SOL    HW125313   2.378   4.203  13.512  2.3207 -2.2297  0.9884
 4618SOL    HW225314   2.311   4.201  13.387  0.5036  0.5181 -1.9380
 4619SOL     OW25315   1.150   3.914   9.034  0.3253 -0.1223  0.0634
 4619SOL    HW125316   1.224   3.975   9.039 -0.4431  0.8781 -0.7675
 4619SOL    HW225317   1.157   3.872   9.120 -1.6677  1.7113  1.1183
 4620SOL     OW25318   2.029   2.346   4.551 -0.0456 -0.4595 -0.4546
 4620SOL    HW125319   2.096   2.412   4.568 -0.6224  0.0054  0.0270
 4620SOL    HW225320   2.005   2.323   4.641 -0.1731 -0.7756 -0.5711
 4621SOL     OW25321   2.431   0.758   4.280 -1.0609 -0.7163 -0.2320
 4621SOL    HW125322   2.375   0.835   4.296  2.1931  1.5600  0.1397
 4621SOL    HW225323   2.512   0.806   4.263  0.3604 -2.8720  0.4875
 4622SOL     OW25324   0.684   1.333   8.724 -0.0927  0.6770 -0.2836
 4622SOL    HW125325   0.747   1.349   8.654 -0.1184 -0.1790 -0.4935
 4622SOL    HW225326   0.722   1.254   8.762  0.3543  0.9626 -0.1329
 4623SOL     OW25327   1.226   4.676   5.664  0.0311  0.2254 -0.0659
 4623SOL    HW125328   1.141   4.634   5.665  1.6689 -3.1258 -1.8295
 4623SOL    HW225329   1.285   4.611   5.627  1.3049  1.5648 -0.3974
 4624SOL     OW25330   1.167   3.329   1.176 -0.1804 -0.2512  0.4418
 4624SOL    HW125331   1.179   3.316   1.082 -0.5361 -0.9513  0.4898
 4624SOL    HW225332   1.154   3.243   1.216  1.0859 -1.3123 -1.4270
 4625SOL     OW25333   4.159   0.541   3.704  0.2399  0.0878 -0.1393
 4625SOL    HW125334   4.187   0.581   3.622 -1.0473 -0.2751 -0.7692
 4625SOL    HW225335   4.232   0.479   3.713 -1.2178 -1.8324 -1.3015
 4626SOL     OW25336   3.086   2.678   0.583 -0.0338 -0.2764 -0.2349
 4626SOL    HW125337   3.052   2.731   0.511  0.9383  0.1788 -0.3658
 4626SOL    HW225338   3.163   2.725   0.617  0.9330 -2.2971  0.3698
 4627SOL     OW25339   0.668   2.080  14.425  0.4155  0.3246  0.5766
 4627SOL    HW125340   0.641   2.071  14.516 -0.2570  0.2904  0.3748
 4627SOL    HW225341   0.623   2.004  14.387  2.3319 -0.4730 -0.0984
 4628SOL     OW25342   4.087   1.810   2.496 -0.1717 -0.5558  0.6165
 4628SOL    HW125343   4.124   1.860   2.568 -1.7822 -2.4173  2.7332
 4628SOL    HW225344   4.062   1.876   2.431 -0.8221 -0.4224  1.0064
 4629SOL     OW25345   3.915   0.251   3.385  0.1205  0.3883  0.1771
 4629SOL    HW125346   3.967   0.242   3.465  0.4705  1.6245  0.0849
 4629SOL    HW225347   3.992   0.253   3.328 -0.4893  0.9854 -0.6155
 4630SOL     OW25348   1.957   1.177   4.972  0.2013 -0.1018  0.3531
 4630SOL    HW125349   2.001   1.258   4.999  2.2695 -0.7881 -1.0084
 4630SOL    HW225350   1.877   1.211   4.933  0.6725 -0.2685 -0.7386
 4631SOL     OW25351   0.718   2.831   2.815 -0.3641  0.2055  0.2962
 4631SOL    HW125352   0.737   2.796   2.728  0.1073  0.4426  0.3049
 4631SOL    HW225353   0.777   2.906   2.823 -1.2944  1.0836 -1.2631
 4632SOL     OW25354   3.152   3.835   1.017 -0.1857  0.1291 -0.1625
 4632SOL    HW125355   3.239   3.862   1.047  0.3726 -2.9892  0.9874
 4632SOL    HW225356   3.176   3.759   0.964 -0.7645 -2.5168  3.3688
 4633SOL     OW25357   2.135   1.022   5.642 -0.0649 -0.2377  0.2439
 4633SOL    HW125358   2.173   1.064   5.719 -0.9760  0.5035  0.3040
 4633SOL    HW225359   2.209   1.026   5.582 -0.1283 -1.3458  0.1076
 4634SOL     OW25360   1.139   0.013  12.249  0.5867  0.1643 -0.1344
 4634SOL    HW125361   1.133   4.652  12.290 -0.5268 -0.4433 -1.5859
 4634SOL    HW225362   1.063   0.012  12.192 -1.0965  1.5056  2.0493
 4635SOL     OW25363   0.348   0.151   6.620  0.1603 -0.1022 -0.3566
 4635SOL    HW125364   0.375   0.185   6.705 -0.1393 -0.4913 -0.1122
 4635SOL    HW225365   0.270   0.206   6.610 -0.2694 -0.5305  0.7104
 4636SOL     OW25366   0.913   2.504   7.294  0.3007 -0.2264 -0.0756
 4636SOL    HW125367   0.946   2.424   7.336  2.2724  0.8904  0.4547
 4636SOL    HW225368   0.953   2.573   7.346  1.6956  0.2252 -1.7828
 4637SOL     OW25369   4.447   3.091   6.309  0.2994 -0.5553  0.2520
 4637SOL    HW125370   4.465   3.082   6.403  0.6287 -0.6503  0.1805
 4637SOL    HW225371   4.538   3.099   6.282  0.2857  0.3683  0.4746
 4638SOL     OW25372   1.871   0.491   7.320  0.8884 -0.0612  0.2569
 4638SOL    HW125373   1.810   0.559   7.349  0.9050  0.0733 -0.0264
 4638SOL    HW225374   1.955   0.535   7.307  1.1463 -0.1528  1.5890
 4639SOL     OW25375   3.622   3.928   7.614  0.2944  0.0856  0.2488
 4639SOL    HW125376   3.698   3.906   7.561  0.5365 -1.2059  1.1354
 4639SOL    HW225377   3.550   3.913   7.553 -1.0882 -0.5107  2.0231
 4640SOL     OW25378   1.472   3.168  10.322 -0.5827 -0.1265  0.0112
 4640SOL    HW125379   1.457   3.099  10.257  0.5386  1.5567 -2.0169
 4640SOL    HW225380   1.394   3.149  10.374 -1.3671 -1.7320 -1.7688
 4641SOL     OW25381   1.206   1.021   6.105  0.0619  0.5322  0.1784
 4641SOL    HW125382   1.182   0.932   6.130 -2.0917  0.5544 -1.8733
 4641SOL    HW225383   1.261   1.061   6.173  0.5828  0.6865 -0.3343
 4642SOL     OW25384   1.524   1.529   0.131 -0.6261 -0.1862 -0.2469
 4642SOL    HW125385   1.478   1.451   0.161  0.3523 -0.6445  0.0830
 4642SOL    HW225386   1.606   1.512   0.178 -0.5363  1.1577  0.0703
 4643SOL     OW25387   0.129   0.866  15.639 -0.4615  0.5630 -0.4885
 4643SOL    HW125388   0.048   0.912  15.661  0.5192  3.3022 -2.5619
 4643SOL    HW225389   0.097   0.807  15.570 -0.4922 -2.2787  1.9678
 4644SOL     OW25390   4.255   0.056   1.511 -0.1988  0.8236  0.0665
 4644SOL    HW125391   4.163   0.057   1.485  0.5967  2.8954 -2.6823
 4644SOL    HW225392   4.259   4.716   1.581  0.5638 -1.7909 -2.4138
 4645SOL     OW25393   4.389   0.679  13.889 -0.3620  0.0564  0.4722
 4645SOL    HW125394   4.423   0.721  13.811 -1.0079 -0.5503 -0.1379
 4645SOL    HW225395   4.447   0.700  13.962 -0.1638 -1.3977  0.7248
 4646SOL     OW25396   1.899   0.982  14.095  0.2634  0.7153  0.8879
 4646SOL    HW125397   1.981   1.032  14.095  0.6335  0.1154  0.9765
 4646SOL    HW225398   1.851   1.027  14.165 -0.8363  0.9839 -0.0388
 4647SOL     OW25399   3.865   2.023   3.533 -0.2926 -0.5748  0.6878
 4647SOL    HW125400   3.838   1.942   3.576  1.3127 -0.4610  1.8906
 4647SOL    HW225401   3.908   2.066   3.606  0.2000 -2.5895  1.6063
 4648SOL     OW25402   4.616   0.983  15.687 -0.0337  0.7391 -0.2730
 4648SOL    HW125403   4.640   1.065  15.731  1.6774 -0.1103  0.3626
 4648SOL    HW225404   4.536   1.020  15.648 -0.0365  1.9638  0.8738
 4649SOL     OW25405   2.419   2.936   9.767  0.0584  0.0569 -0.5477
 4649SOL    HW125406   2.484   2.885   9.719 -0.6550 -0.0285 -1.4298
 4649SOL    HW225407   2.348   2.873   9.777 -1.1807  1.6289  0.4719
 4650SOL     OW25408   2.594   1.050   7.543  0.0043  0.5734 -0.3365
 4650SOL    HW125409   2.675   1.079   7.585 -0.4532 -0.3821  1.2039
 4650SOL    HW225410   2.576   0.970   7.592 -0.9398  0.1558 -1.3604
 4651SOL     OW25411   1.970   0.987   2.430  0.1834 -0.4588 -0.3873
 4651SOL    HW125412   1.902   1.037   2.476  1.7936 -0.3889  1.8855
 4651SOL    HW225413   2.025   1.062   2.407  2.1794 -1.5765  0.8138
 4652SOL     OW25414   4.535   0.434  12.442 -0.3091  0.4661  0.0527
 4652SOL    HW125415   4.461   0.449  12.382 -1.5608  2.1665  2.0367
 4652SOL    HW225416   4.492   0.442  12.527 -1.4891  0.5293 -0.5424
 4653SOL     OW25417   1.640   1.009   6.699 -0.0726  0.1152  0.1251
 4653SOL    HW125418   1.675   0.921   6.714  1.6111  0.6611 -0.5951
 4653SOL    HW225419   1.723   1.054   6.716 -0.8281  1.7299 -0.5162
 4654SOL     OW25420   1.925   2.600  10.434 -0.1616  0.1236  0.6304
 4654SOL    HW125421   1.988   2.560  10.494 -0.7489  0.1187  1.2497
 4654SOL    HW225422   1.848   2.546  10.450 -2.2141  2.2002 -2.2802
 4655SOL     OW25423   4.341   3.553   3.027 -0.3427 -0.4412  0.6117
 4655SOL    HW125424   4.339   3.465   2.990  0.2892  0.5056 -1.6893
 4655SOL    HW225425   4.249   3.579   3.023  0.3168  1.8914  0.9329
 4656SOL     OW25426   4.065   4.608   7.854 -0.0966 -0.0035 -0.2030
 4656SOL    HW125427   4.026   4.561   7.928  1.0772  0.4641  0.7061
 4656SOL    HW225428   4.119   4.667   7.907  0.4162 -0.2737 -0.4274
 4657SOL     OW25429   2.081   0.598  14.623 -0.2110 -0.0845 -0.4270
 4657SOL    HW125430   2.175   0.583  14.638 -0.3514 -1.2133 -0.6832
 4657SOL    HW225431   2.056   0.538  14.553 -0.5674  1.3193 -1.5017
 4658SOL     OW25432   0.957   3.567  12.758  0.2827  0.8539  0.2322
 4658SOL    HW125433   1.019   3.521  12.814 -1.8923 -1.6251  0.6164
 4658SOL    HW225434   1.018   3.632  12.723  1.3687 -0.7576 -0.8365
 4659SOL     OW25435   1.461   4.277   5.381  0.2167  0.0840  0.1927
 4659SOL    HW125436   1.545   4.307   5.415  0.7570  0.0453 -1.1388
 4659SOL    HW225437   1.397   4.333   5.426 -0.4010 -0.8349  0.4613
 4660SOL     OW25438   1.583   1.859   9.007 -0.5119 -0.1464  0.5026
 4660SOL    HW125439   1.679   1.862   9.007 -0.5173  0.1077  0.0062
 4660SOL    HW225440   1.569   1.953   9.008 -1.6985 -0.3851  3.8592
 4661SOL     OW25441   1.703   1.939   4.346  0.4541 -0.0021  0.0099
 4661SOL    HW125442   1.636   1.982   4.292 -0.1703 -0.9369  0.0533
 4661SOL    HW225443   1.676   1.848   4.334  1.4016 -0.1120 -1.3225
 4662SOL     OW25444   2.531   1.878  15.753  0.3464  0.2626 -0.1802
 4662SOL    HW125445   2.551   1.801  15.806  3.8272  0.4632 -1.2071
 4662SOL    HW225446   2.592   1.877  15.679  1.9050  1.6510  1.0841
 4663SOL     OW25447   3.802   4.078   4.516  0.1420  0.4085  0.2788
 4663SOL    HW125448   3.812   4.163   4.559  0.0053  0.1054  0.9156
 4663SOL    HW225449   3.738   4.108   4.450  0.7099  0.2049 -0.3621
 4664SOL     OW25450   4.280   4.667   7.333 -0.6501  0.2994  0.3303
 4664SOL    HW125451   4.239   4.667   7.420 -1.1055  0.6136  0.1188
 4664SOL    HW225452   4.311   4.577   7.326  0.2681  0.7384 -1.0238
 4665SOL     OW25453   3.133   3.338   3.026  0.0315  0.2058  0.1504
 4665SOL    HW125454   3.113   3.264   2.968 -1.2178  0.5214  0.1724
 4665SOL    HW225455   3.190   3.395   2.974 -0.2922  2.5138  2.3404
 4666SOL     OW25456   2.928   0.382   5.307 -0.2111 -0.1229  0.1123
 4666SOL    HW125457   2.963   0.360   5.221 -1.0564 -0.9543 -0.0236
 4666SOL    HW225458   2.936   0.477   5.303  1.1193 -0.2562 -0.2919
 4667SOL     OW25459   4.518   3.411   9.270 -0.3416 -0.5430  0.1295
 4667SOL    HW125460   4.458   3.479   9.303  1.1920  0.1352  1.5054
 4667SOL    HW225461   4.517   3.353   9.346  0.1648  0.5765  0.9955
 4668SOL     OW25462   3.847   2.542   6.069  0.1195  0.4924  0.1305
 4668SOL    HW125463   3.918   2.489   6.031 -0.7267  0.3914 -1.3027
 4668SOL    HW225464   3.876   2.630   6.046 -0.5681  0.8009  0.4679
 4669SOL     OW25465   0.729   3.885   8.652 -0.0808 -0.2970 -0.6439
 4669SOL    HW125466   0.643   3.901   8.615 -0.7009 -1.7533  0.1860
 4669SOL    HW225467   0.768   3.844   8.575 -1.3660  3.0996 -3.0745
 4670SOL     OW25468   0.416   0.823   5.184  0.6503  0.0579 -0.8324
 4670SOL    HW125469   0.338   0.878   5.180  1.2215  0.8949 -0.3417
 4670SOL    HW225470   0.382   0.735   5.203 -1.4899  0.6118 -2.1814
 4671SOL     OW25471   3.678   1.368   0.272 -0.2153 -0.3837  0.2703
 4671SOL    HW125472   3.735   1.346   0.345 -0.1210 -2.0475 -0.3106
 4671SOL    HW225473   3.754   1.399   0.222 -0.2533  0.8947  1.0002
 4672SOL     OW25474   0.651   3.283   2.789 -0.3450 -0.5131  0.4133
 4672SOL    HW125475   0.635   3.367   2.832 -1.0815 -0.4542  0.0261
 4672SOL    HW225476   0.746   3.277   2.779 -0.4961 -1.6851 -0.2575
 4673SOL     OW25477   0.774   1.962  16.611 -0.4713  0.0813 -0.7097
 4673SOL    HW125478   0.813   1.998  16.532  0.7806 -0.3880 -0.3040
 4673SOL    HW225479   0.767   2.039  16.668 -1.0003 -1.3609  1.1579
 4674SOL     OW25480   1.343   3.645   6.430  0.0318  0.7932 -0.3939
 4674SOL    HW125481   1.322   3.654   6.522  0.3097 -2.2116 -0.0210
 4674SOL    HW225482   1.437   3.661   6.434 -0.1616  1.7453  0.2496
 4675SOL     OW25483   2.853   4.251  12.097  0.0275  0.1286 -0.0199
 4675SOL    HW125484   2.826   4.160  12.103  1.2664 -0.3207 -1.4065
 4675SOL    HW225485   2.804   4.292  12.026  0.6423  2.8303  1.0873
 4676SOL     OW25486   0.503   1.020   3.623  0.2539  0.1343  0.3903
 4676SOL    HW125487   0.423   0.996   3.668 -0.6511 -0.6666 -1.6347
 4676SOL    HW225488   0.475   1.027   3.531 -2.2595 -1.4247  1.0653
 4677SOL     OW25489   1.329   4.334   0.121  0.3123 -0.0774 -0.0939
 4677SOL    HW125490   1.391   4.362   0.053  1.1452  1.3016  1.2568
 4677SOL    HW225491   1.295   4.418   0.152 -1.9340 -1.0734  0.1457
 4678SOL     OW25492   2.492   3.290   0.947  0.3550  0.1880  0.2552
 4678SOL    HW125493   2.555   3.349   0.989  0.3819  0.9260 -0.8052
 4678SOL    HW225494   2.545   3.212   0.933 -0.2529 -0.3091  0.7260
 4679SOL     OW25495   1.347   2.336   7.548  0.0251 -0.4843  0.6518
 4679SOL    HW125496   1.333   2.252   7.593  0.7329 -0.1807  1.4412
 4679SOL    HW225497   1.439   2.324   7.527 -0.0725 -0.4158  0.1964
 4680SOL     OW25498   3.086   3.177   5.887  0.4047  0.8152 -0.4653
 4680SOL    HW125499   3.042   3.257   5.918 -0.9399  0.6080 -1.8832
 4680SOL    HW225500   3.008   3.122   5.884  0.2734  1.1018 -1.9884
 4681SOL     OW25501   3.157   2.127   6.334 -0.3532  0.3411  0.1037
 4681SOL    HW125502   3.126   2.087   6.416 -0.9088  0.4776 -0.0365
 4681SOL    HW225503   3.190   2.215   6.350  0.1853  0.4866 -1.8888
 4682SOL     OW25504   3.054   1.351   6.431 -0.4048  0.3966  0.6188
 4682SOL    HW125505   3.016   1.350   6.519  1.1380 -2.5896  1.2419
 4682SOL    HW225506   3.096   1.437   6.434 -0.8263  0.6485 -0.6433
 4683SOL     OW25507   3.941   1.798   4.531 -0.3399 -0.0753 -0.2044
 4683SOL    HW125508   4.001   1.865   4.562  0.5557 -1.1365  0.3637
 4683SOL    HW225509   3.977   1.723   4.579  3.3538  0.3731 -2.2360
 4684SOL     OW25510   3.375   1.307   8.817 -0.1094  0.3459 -0.0271
 4684SOL    HW125511   3.439   1.255   8.769  0.7621  0.8976  0.5274
 4684SOL    HW225512   3.378   1.275   8.907 -1.2815  1.6411  0.4830
 4685SOL     OW25513   1.033   0.275   7.128  0.5852  0.1049 -0.0325
 4685SOL    HW125514   1.112   0.326   7.145  1.0888 -1.2192  1.6582
 4685SOL    HW225515   1.061   0.203   7.070 -2.9213 -2.2464  1.1931
 4686SOL     OW25516   1.115   3.032  11.594 -0.0833  0.3987  0.0118
 4686SOL    HW125517   1.036   2.981  11.579  0.3034 -1.5431  4.4958
 4686SOL    HW225518   1.118   3.037  11.689  1.1234  0.1158 -0.0064
 4687SOL     OW25519   3.545   1.982   7.500  0.0036 -0.0846  0.4758
 4687SOL    HW125520   3.555   2.000   7.406  0.7948 -1.3212  0.3246
 4687SOL    HW225521   3.637   1.975   7.526  0.2134  1.1368  0.0650
 4688SOL     OW25522   2.364   1.610   6.871 -0.6096 -0.3441 -0.0723
 4688SOL    HW125523   2.316   1.572   6.798 -2.6201 -0.7223  1.4496
 4688SOL    HW225524   2.450   1.602   6.831 -0.8895 -0.8716 -0.5666
 4689SOL     OW25525   0.454   3.841  12.430  0.5199  0.6349  0.2358
 4689SOL    HW125526   0.508   3.767  12.403 -0.5367  0.1267 -0.4518
 4689SOL    HW225527   0.454   3.896  12.352  2.8202  0.1331 -0.1289
 4690SOL     OW25528   0.914   2.437   5.458 -0.7298  0.2311  0.5003
 4690SOL    HW125529   0.908   2.344   5.438  1.6983 -0.1393  1.4712
 4690SOL    HW225530   0.968   2.472   5.386  0.8643  0.2655  1.7120
 4691SOL     OW25531   2.409   4.621   7.648 -0.3881 -0.0575 -0.2292
 4691SOL    HW125532   2.411   4.692   7.713  3.2596 -0.8470  0.5179
 4691SOL    HW225533   2.374   4.676   7.578  1.1981 -0.3315 -1.2387
 4692SOL     OW25534   2.830   0.056   4.475 -1.0776 -0.7466 -0.3211
 4692SOL    HW125535   2.878   0.029   4.396  0.4500 -2.1565  1.0899
 4692SOL    HW225536   2.740   0.065   4.444 -1.1261 -0.3012 -0.0401
 4693SOL     OW25537   4.429   2.604   0.463 -0.2742 -0.8406  0.2316
 4693SOL    HW125538   4.420   2.642   0.551 -0.3639  1.6330 -0.8496
 4693SOL    HW225539   4.345   2.638   0.431  0.9223  1.0701 -0.8433
 4694SOL     OW25540   3.759   0.088  12.464 -0.3766  0.0796  0.2612
 4694SOL    HW125541   3.688   0.046  12.511 -1.2582 -1.0080 -2.0621
 4694SOL    HW225542   3.714   0.104  12.381 -1.7048 -1.8865  0.6269
 4695SOL     OW25543   4.389   4.501   6.561  0.3928  0.2693 -0.1001
 4695SOL    HW125544   4.386   4.434   6.493  1.2548 -0.0294  0.1606
 4695SOL    HW225545   4.449   4.559   6.515  2.7031 -0.8805  1.4589
 4696SOL     OW25546   2.797   1.443   3.241 -0.0736 -0.3020  0.0806
 4696SOL    HW125547   2.748   1.496   3.305  0.0061 -1.4239  1.0783
 4696SOL    HW225548   2.729   1.430   3.175 -0.5277 -0.6673  0.6084
 4697SOL     OW25549   3.472   1.899   1.391  1.0257  0.2044  0.5497
 4697SOL    HW125550   3.560   1.866   1.413  1.5028 -0.0686 -1.7237
 4697SOL    HW225551   3.450   1.850   1.311  1.5983  0.4615  0.2368
 4698SOL     OW25552   0.702   3.671  12.776  0.7638 -0.3734  0.3388
 4698SOL    HW125553   0.719   3.751  12.726  0.4237 -0.8111 -0.4814
 4698SOL    HW225554   0.782   3.620  12.767  1.1291  0.4824 -1.2758
 4699SOL     OW25555   0.318   0.384  10.272  0.0852  0.2339  0.1752
 4699SOL    HW125556   0.241   0.413  10.321  0.8616 -1.3586  2.3326
 4699SOL    HW225557   0.361   0.321  10.329  1.5847  0.9433 -0.1593
 4700SOL     OW25558   4.071   2.761   7.859 -0.2858 -0.0542 -0.0918
 4700SOL    HW125559   4.028   2.701   7.798  0.5687 -0.7296 -0.0323
 4700SOL    HW225560   4.025   2.843   7.842  0.8871  0.7202  0.4762
 4701SOL     OW25561   3.186   2.047   9.239 -0.6530 -0.1187 -0.0572
 4701SOL    HW125562   3.269   2.001   9.254 -0.8196 -0.1488  0.7863
 4701SOL    HW225563   3.190   2.103   9.317  0.6931 -1.3613  0.7832
 4702SOL     OW25564   2.166   4.147   6.930 -0.8297 -0.0831  0.2232
 4702SOL    HW125565   2.207   4.118   7.012  2.1500  0.1400 -1.1666
 4702SOL    HW225566   2.212   4.231   6.920 -1.8566  0.7332  2.3517
 4703SOL     OW25567   2.679   1.560   3.442 -0.3420 -0.4798 -0.1573
 4703SOL    HW125568   2.678   1.655   3.432 -2.2503 -0.2794  1.7323
 4703SOL    HW225569   2.667   1.546   3.536  0.3376 -1.3002 -0.1897
 4704SOL     OW25570   0.515   2.637   0.943  0.6412 -0.3523  0.3957
 4704SOL    HW125571   0.448   2.704   0.929 -0.7398 -2.0197 -1.1010
 4704SOL    HW225572   0.565   2.652   0.864 -0.5424  0.0539 -0.2758
 4705SOL     OW25573   0.238   0.171   0.011  0.7275 -0.0340 -0.4564
 4705SOL    HW125574   0.205   0.129  17.635  1.1757  1.7688 -1.6164
 4705SOL    HW225575   0.186   0.130   0.080  0.6647  0.4918 -0.1885
 4706SOL     OW25576   0.755   1.324   3.029 -0.1964 -0.0870 -0.4683
 4706SOL    HW125577   0.759   1.298   3.121 -0.3808  0.0631 -0.4185
 4706SOL    HW225578   0.687   1.275   2.985 -0.1049  1.1237 -1.9496
 4707SOL     OW25579   4.107   0.957   8.156 -0.0736  0.0344  0.2593
 4707SOL    HW125580   4.052   0.968   8.233 -2.0427  3.2695 -1.6161
 4707SOL    HW225581   4.180   0.901   8.182 -0.1886  0.3322  1.2257
 4708SOL     OW25582   3.819   4.357   8.924  0.1431 -0.1804 -0.6405
 4708SOL    HW125583   3.851   4.387   9.009  0.9768 -0.5471 -0.8336
 4708SOL    HW225584   3.730   4.333   8.952  0.9596 -0.9214  1.3031
 4709SOL     OW25585   3.890   2.793  16.460  0.4155  0.1594 -0.1580
 4709SOL    HW125586   3.860   2.787  16.551 -0.4251 -2.3887 -0.6061
 4709SOL    HW225587   3.820   2.750  16.412 -0.0921  0.7540  0.0596
 4710SOL     OW25588   2.111   4.321   3.534  0.1381 -0.0837 -0.2983
 4710SOL    HW125589   2.044   4.280   3.479 -0.7168 -0.5484  1.1024
 4710SOL    HW225590   2.088   4.268   3.610  0.2858 -0.8464 -0.7887
 4711SOL     OW25591   3.801   1.832  17.390 -0.4452  0.0470  0.3019
 4711SOL    HW125592   3.767   1.810  17.476  0.3589 -1.6453  0.1936
 4711SOL    HW225593   3.755   1.914  17.372 -0.2177 -0.2924 -1.9026
 4712SOL     OW25594   4.256   1.013   5.831  0.7228 -0.5781 -0.1961
 4712SOL    HW125595   4.343   1.011   5.791  0.9279  0.1419  0.2282
 4712SOL    HW225596   4.255   1.106   5.850 -0.8476 -0.9634  1.5480
 4713SOL     OW25597   2.291   0.096  10.354 -0.4306 -0.1325  0.3306
 4713SOL    HW125598   2.342   0.133  10.426  0.7536 -1.5708  0.2100
 4713SOL    HW225599   2.228   0.166  10.334 -0.3172  0.3507  1.6025
 4714SOL     OW25600   1.855   0.228   2.175 -0.1687  0.4396  0.3414
 4714SOL    HW125601   1.760   0.220   2.187 -0.4278  0.1626 -1.8450
 4714SOL    HW225602   1.890   0.153   2.222  3.3346  0.1908 -2.6061
 4715SOL     OW25603   0.795   0.120  15.976 -0.0981  0.2635  0.5822
 4715SOL    HW125604   0.852   0.193  16.001 -2.2825  2.4471 -0.8462
 4715SOL    HW225605   0.802   0.061  16.051  0.8964  0.2979  0.5172
 4716SOL     OW25606   2.063   1.879  12.781  0.5207  0.4948 -0.6937
 4716SOL    HW125607   2.057   1.945  12.712 -3.5854 -0.3927 -1.1904
 4716SOL    HW225608   2.158   1.875  12.794  0.4035  0.3058  0.1180
 4717SOL     OW25609   2.290   0.667  17.414  0.3957  0.1480 -0.2599
 4717SOL    HW125610   2.205   0.628  17.391 -0.3799  2.3241 -1.0923
 4717SOL    HW225611   2.260   0.755  17.393 -3.0902 -0.5743  1.6755
 4718SOL     OW25612   4.156   3.323  12.532  0.4711  0.4037 -0.6747
 4718SOL    HW125613   4.189   3.394  12.587 -4.1331  3.9252 -2.4787
 4718SOL    HW225614   4.151   3.251  12.595 -2.3932  0.3271 -0.9887
 4719SOL     OW25615   1.938   3.521   8.625 -0.0511 -0.3136  0.0256
 4719SOL    HW125616   2.009   3.474   8.668  0.2745 -0.2600 -0.4521
 4719SOL    HW225617   1.880   3.540   8.699  0.5508 -0.3508  0.5152
 4720SOL     OW25618   4.549   2.175   4.403 -0.1675 -0.0136  0.0628
 4720SOL    HW125619   4.541   2.181   4.308 -0.2111  0.4407  0.0931
 4720SOL    HW225620   4.539   2.081   4.419  0.9781  0.0831  1.3209
 4721SOL     OW25621   3.472   4.625   2.367  0.6607  0.0228  0.2016
 4721SOL    HW125622   3.377   4.633   2.364  0.6916  0.1882 -0.3205
 4721SOL    HW225623   3.486   4.636   2.461 -0.9597  0.8839  0.3293
 4722SOL     OW25624   4.017   1.657   3.203 -0.1614  0.5173 -0.2027
 4722SOL    HW125625   3.947   1.644   3.140  0.4134 -2.2715 -0.2532
 4722SOL    HW225626   3.992   1.747   3.226  0.1580  0.8846 -1.3055
 4723SOL     OW25627   1.146   3.764  15.291  0.0328 -0.0035 -0.1196
 4723SOL    HW125628   1.063   3.717  15.287 -2.9930  5.3926  0.5004
 4723SOL    HW225629   1.209   3.693  15.276 -0.1670  0.2266 -2.0238
 4724SOL     OW25630   3.508   4.131  15.944  0.4118  0.0729 -0.2949
 4724SOL    HW125631   3.502   4.215  15.990 -1.1619 -0.7212  0.9497
 4724SOL    HW225632   3.591   4.137  15.897 -0.8723  0.0878 -2.5465
 4725SOL     OW25633   2.457   2.465   3.194 -0.6009  0.8936 -0.1037
 4725SOL    HW125634   2.377   2.414   3.208  0.9109 -1.5684 -0.4158
 4725SOL    HW225635   2.433   2.533   3.257  1.2157  0.6816  0.7989
 4726SOL     OW25636   1.766   2.449   5.954 -0.2268 -0.1070 -0.2050
 4726SOL    HW125637   1.785   2.495   6.035 -0.8559 -0.5313  0.1836
 4726SOL    HW225638   1.689   2.497   5.925  0.5507  0.5688 -1.1607
 4727SOL     OW25639   1.369   3.154   7.931 -0.1063 -0.4355 -0.2286
 4727SOL    HW125640   1.406   3.076   7.890  0.2247 -0.2602 -0.2748
 4727SOL    HW225641   1.297   3.116   7.980 -0.6299 -0.4864 -1.0258
 4728SOL     OW25642   3.017   0.805   8.018  0.0478 -0.0826  0.4928
 4728SOL    HW125643   2.984   0.834   7.933 -1.5960  0.0762  1.1847
 4728SOL    HW225644   3.086   0.747   7.985  0.5641  1.4485 -1.0792
 4729SOL     OW25645   2.255   3.654   2.935  0.1328  0.0911 -0.0168
 4729SOL    HW125646   2.211   3.575   2.965 -0.2833 -0.1769 -1.3335
 4729SOL    HW225647   2.186   3.721   2.938  0.0843  0.2027 -3.3086
 4730SOL     OW25648   0.088   3.820   8.800 -0.1080  0.1414  0.1713
 4730SOL    HW125649   4.722   3.847   8.794 -0.4339 -0.5593  1.8791
 4730SOL    HW225650   0.123   3.831   8.712  0.2703 -1.1635  0.1698
 4731SOL     OW25651   0.078   3.805   6.271 -0.3616  0.2224  0.6499
 4731SOL    HW125652   0.043   3.721   6.241 -0.5221  1.6570 -3.2454
 4731SOL    HW225653   0.058   3.801   6.365  0.6734 -0.6305  0.8384
 4732SOL     OW25654   3.890   3.825   4.012  0.0236 -0.5667  0.5203
 4732SOL    HW125655   3.836   3.750   3.991  0.9294 -1.0305 -0.1505
 4732SOL    HW225656   3.824   3.894   4.017  0.0761 -0.5089  0.4033
 4733SOL     OW25657   0.520   3.264   8.575  0.3539 -0.7068  0.1918
 4733SOL    HW125658   0.533   3.322   8.650  0.3700  0.1511 -0.4829
 4733SOL    HW225659   0.428   3.283   8.558  0.1349 -0.4551  1.6556
 4734SOL     OW25660   4.241   4.273   6.960  0.3263 -0.3862 -0.2339
 4734SOL    HW125661   4.284   4.300   6.878 -2.6586 -0.2314 -1.7527
 4734SOL    HW225662   4.151   4.299   6.938  0.2219 -0.5034  0.0632
 4735SOL     OW25663   0.933   1.819  15.415  0.2407  0.1135  0.2684
 4735SOL    HW125664   0.939   1.913  15.400  0.6456  0.0003 -0.2894
 4735SOL    HW225665   1.012   1.810  15.468  0.1727 -1.0060  0.1820
 4736SOL     OW25666   2.943   0.690  10.294  0.6261 -0.1276 -0.5438
 4736SOL    HW125667   2.894   0.629  10.348  0.8411  0.2928  0.1198
 4736SOL    HW225668   3.004   0.722  10.360  0.3948  0.3423 -0.5582
 4737SOL     OW25669   2.415   2.040   6.107  0.0748  0.1635  0.0219
 4737SOL    HW125670   2.405   2.116   6.165 -1.1959 -0.8644  1.1461
 4737SOL    HW225671   2.486   2.072   6.051 -1.0869  0.2489 -1.4288
 4738SOL     OW25672   1.550   2.156   8.192  0.0076  0.1953  0.1761
 4738SOL    HW125673   1.643   2.156   8.215  0.3382  1.8173 -1.1023
 4738SOL    HW225674   1.517   2.233   8.238  0.1911  1.8940 -2.4981
 4739SOL     OW25675   4.639   3.330   1.928  0.5771  0.6723  0.1274
 4739SOL    HW125676   4.654   3.407   1.983 -1.5292  1.2200 -0.0768
 4739SOL    HW225677   4.570   3.364   1.872  1.3421  0.8524 -0.7028
 4740SOL     OW25678   3.319   2.280  16.288  0.2604 -0.4010  0.2262
 4740SOL    HW125679   3.320   2.328  16.205 -0.2762 -0.5748  0.1206
 4740SOL    HW225680   3.301   2.350  16.349 -1.2185 -1.4746  1.0031
 4741SOL     OW25681   2.333   0.773   7.581  0.3721  0.3095  0.4467
 4741SOL    HW125682   2.339   0.680   7.600  2.6669  0.4234  0.2865
 4741SOL    HW225683   2.332   0.804   7.671 -2.0945  0.1749  0.4680
 4742SOL     OW25684   2.575   1.896  10.391  0.2951 -0.0723 -0.2939
 4742SOL    HW125685   2.556   1.813  10.435 -2.3127  0.1448 -0.9719
 4742SOL    HW225686   2.632   1.942  10.452  1.3192 -1.1020 -0.4763
 4743SOL     OW25687   4.260   2.650   5.373 -0.1802 -0.4103 -0.6207
 4743SOL    HW125688   4.238   2.611   5.458  0.9920 -1.4310 -0.7928
 4743SOL    HW225689   4.237   2.743   5.366 -0.7732 -0.5998 -1.2433
 4744SOL     OW25690   1.147   0.833   3.562 -0.3167 -0.1663  0.3528
 4744SOL    HW125691   1.157   0.754   3.508  1.6092  0.2759  0.0443
 4744SOL    HW225692   1.147   0.783   3.643  0.8504  1.3620  1.3052
 4745SOL     OW25693   1.381   1.841  13.768 -0.5652 -0.2464  0.6053
 4745SOL    HW125694   1.433   1.914  13.734 -1.3470  0.1761  0.3131
 4745SOL    HW225695   1.446   1.809  13.830 -1.1166 -1.0094  0.7941
 4746SOL     OW25696   4.653   3.856  13.213  0.0512  0.2828  0.2756
 4746SOL    HW125697   4.719   3.802  13.257  1.0386  0.2225 -1.2948
 4746SOL    HW225698   4.707   3.894  13.143 -1.1216  0.6946 -0.3910
 4747SOL     OW25699   1.418   3.715   3.774  0.3536 -0.0822 -0.2486
 4747SOL    HW125700   1.466   3.700   3.855  0.6203  0.1293 -0.3628
 4747SOL    HW225701   1.394   3.807   3.788  0.2363  0.2185 -2.3808
 4748SOL     OW25702   4.209   1.898  12.457  0.5296  0.0385 -0.3865
 4748SOL    HW125703   4.207   1.845  12.536 -0.1340 -1.0681 -1.1553
 4748SOL    HW225704   4.251   1.977  12.493 -1.2308  0.5725  0.5057
 4749SOL     OW25705   0.243   0.980  15.874 -0.4892  0.6592 -0.1199
 4749SOL    HW125706   0.207   0.925  15.943  0.3027 -0.0572 -0.2753
 4749SOL    HW225707   0.237   0.932  15.792  1.0648  2.3718 -1.2367
 4750SOL     OW25708   0.017   2.002   7.317 -0.2816 -0.1426  0.3331
 4750SOL    HW125709   4.688   2.048   7.381 -1.1834 -0.5195 -0.1641
 4750SOL    HW225710   0.027   2.073   7.255 -2.2246  0.1410  0.3381
 4751SOL     OW25711   3.453   3.661   3.916  0.2116  0.5640  0.1021
 4751SOL    HW125712   3.374   3.701   3.879 -0.0725 -1.6341 -1.6556
 4751SOL    HW225713   3.416   3.607   3.986 -0.8381 -0.9083 -1.5998
 4752SOL     OW25714   2.610   3.413   4.301 -0.1990 -0.1512  0.7363
 4752SOL    HW125715   2.700   3.442   4.282  0.3177 -1.6322  0.9596
 4752SOL    HW225716   2.574   3.487   4.350 -2.1067 -0.5455 -0.0667
 4753SOL     OW25717   1.253   4.709  11.694 -0.0744 -0.2021  0.2104
 4753SOL    HW125718   1.240   0.076  11.674  2.3871 -0.4581 -2.5780
 4753SOL    HW225719   1.269   4.712  11.789 -1.7330  0.9894  0.4401
 4754SOL     OW25720   3.133   3.410  14.108 -0.1801 -0.1507 -0.3610
 4754SOL    HW125721   3.225   3.418  14.135 -0.0472  1.9272 -1.4385
 4754SOL    HW225722   3.128   3.462  14.027  0.6742  0.8472  0.2169
 4755SOL     OW25723   3.326   1.393   3.100 -0.3256 -0.4740  0.1800
 4755SOL    HW125724   3.239   1.367   3.130  0.1747  0.6526  2.6240
 4755SOL    HW225725   3.357   1.444   3.175  1.3400  1.5964 -1.9114
 4756SOL     OW25726   1.049   4.437   1.447 -0.4290 -0.2008  0.1696
 4756SOL    HW125727   1.032   4.381   1.523 -0.1944  0.2398  0.5450
 4756SOL    HW225728   1.007   4.516   1.480  1.4179  2.2787 -3.4885
 4757SOL     OW25729   4.627   4.102   3.341  0.5230 -0.1566 -1.0895
 4757SOL    HW125730   4.595   4.082   3.429 -1.0487 -0.2472 -1.6851
 4757SOL    HW225731   4.571   4.179   3.326  1.4355  0.6146 -0.5330
 4758SOL     OW25732   1.055   1.600   4.412 -0.2542 -0.4328  0.3594
 4758SOL    HW125733   1.084   1.509   4.410  0.2848 -0.2773  1.2590
 4758SOL    HW225734   0.963   1.593   4.440 -0.7136  1.1465 -0.7302
 4759SOL     OW25735   2.318   3.104   2.038  0.5056 -0.1280 -0.2929
 4759SOL    HW125736   2.379   3.177   2.025 -0.8287  1.2005  0.8928
 4759SOL    HW225737   2.336   3.051   1.961 -1.3294 -2.3228  0.7895
 4760SOL     OW25738   3.707   2.608   3.718  0.2712 -0.1106 -0.0502
 4760SOL    HW125739   3.666   2.576   3.638  0.6404 -0.1841 -0.2115
 4760SOL    HW225740   3.658   2.689   3.730  1.1310  0.6453 -1.5611
 4761SOL     OW25741   1.261   1.055   5.809 -0.2362 -0.3620  0.0921
 4761SOL    HW125742   1.240   0.963   5.822  1.4811 -0.8749 -0.8142
 4761SOL    HW225743   1.231   1.090   5.894  1.8647  1.9723 -0.1197
 4762SOL     OW25744   1.693   2.042   7.592  0.0947 -0.6307 -0.0265
 4762SOL    HW125745   1.765   1.979   7.587  0.3187 -0.3313 -0.5756
 4762SOL    HW225746   1.621   1.979   7.587 -0.7475  0.2713  0.9222
 4763SOL     OW25747   2.986   1.166  11.171  0.7560 -0.2092  0.3961
 4763SOL    HW125748   2.992   1.077  11.205 -0.8353 -0.8341 -0.9568
 4763SOL    HW225749   2.900   1.171  11.130  0.8750  1.9006  0.3816
 4764SOL     OW25750   1.264   4.047   1.093  0.7468 -0.4496  0.7322
 4764SOL    HW125751   1.288   3.982   1.027  1.0369  0.1901  0.2061
 4764SOL    HW225752   1.174   4.022   1.112  0.7213 -0.2806  0.8364
 4765SOL     OW25753   0.805   0.103   4.670 -0.0108  0.3960 -0.0893
 4765SOL    HW125754   0.868   0.084   4.739 -0.5633 -1.0073  0.0369
 4765SOL    HW225755   0.852   0.087   4.588 -1.5213 -0.5081 -0.7793
 4766SOL     OW25756   1.509   0.915   7.055  0.0311  0.0595  0.1649
 4766SOL    HW125757   1.429   0.930   7.105 -0.8193 -2.9229 -0.2695
 4766SOL    HW225758   1.563   0.985   7.091  1.0338 -1.7206  2.1064
 4767SOL     OW25759   3.401   2.664   3.911  0.3272 -0.4430  0.1643
 4767SOL    HW125760   3.404   2.738   3.850 -0.7628  0.7252  1.5263
 4767SOL    HW225761   3.322   2.687   3.960 -0.7731 -1.5842 -1.0634
 4768SOL     OW25762   3.256   3.382  15.267  0.6216 -0.5560  0.1861
 4768SOL    HW125763   3.323   3.376  15.199 -0.3548  0.9687 -0.9215
 4768SOL    HW225764   3.292   3.452  15.322  0.3243  0.5973 -1.0831
 4769SOL     OW25765   0.689   1.301   4.640  0.1021 -0.0805 -0.5008
 4769SOL    HW125766   0.616   1.282   4.698 -0.4735 -1.1177 -1.5549
 4769SOL    HW225767   0.752   1.256   4.695  0.3618  0.0280 -0.7103
 4770SOL     OW25768   0.300   2.217   8.621 -0.2630 -0.6369  0.1033
 4770SOL    HW125769   0.293   2.128   8.656  0.3914 -0.0487  1.7426
 4770SOL    HW225770   0.220   2.250   8.663 -1.2571 -0.8890 -1.5917
 4771SOL     OW25771   0.788   1.786  11.754  0.1613 -0.0745  0.2589
 4771SOL    HW125772   0.800   1.805  11.661 -1.8335  1.8385  0.3877
 4771SOL    HW225773   0.860   1.831  11.797 -0.6850 -0.2829  1.8929
 4772SOL     OW25774   3.948   1.395   4.549  0.0242 -0.0298  0.4049
 4772SOL    HW125775   3.863   1.385   4.592  0.1446 -0.3701  0.5672
 4772SOL    HW225776   3.998   1.448   4.611 -2.1333  1.9035  0.4890
 4773SOL     OW25777   2.544   2.780   8.923  0.2710 -0.0206 -0.0078
 4773SOL    HW125778   2.634   2.813   8.916  0.2559 -0.2678 -1.5342
 4773SOL    HW225779   2.513   2.832   8.996  0.7298  1.9910 -1.2391
 4774SOL     OW25780   3.472   0.639   6.717  0.7696  0.0394 -0.7078
 4774SOL    HW125781   3.467   0.573   6.786  0.6932 -0.6209 -1.3414
 4774SOL    HW225782   3.560   0.675   6.729  1.0519 -1.4268  1.6104
 4775SOL     OW25783   3.993   3.898  13.373  0.2110 -0.7719  0.7539
 4775SOL    HW125784   3.906   3.885  13.410 -0.4684  1.1038 -0.2047
 4775SOL    HW225785   3.988   3.988  13.340 -2.7912 -0.6114  1.6674
 4776SOL     OW25786   1.217   2.609   4.281  0.2657 -0.6398  0.6654
 4776SOL    HW125787   1.148   2.544   4.266  1.2837 -1.3576 -0.8892
 4776SOL    HW225788   1.216   2.671   4.209  1.3723 -1.8588 -0.3900
 4777SOL     OW25789   4.350   2.093   5.387 -0.5283 -0.3798  0.2661
 4777SOL    HW125790   4.288   2.167   5.389  0.8566  0.7934  0.1279
 4777SOL    HW225791   4.289   2.036   5.340  1.1677 -1.5255 -0.5397
 4778SOL     OW25792   4.318   0.025   7.700  0.4587  0.2532  0.3778
 4778SOL    HW125793   4.236   4.705   7.681  0.9528 -0.3617 -0.2612
 4778SOL    HW225794   4.284   0.099   7.751  2.6286  4.5727 -4.3953
 4779SOL     OW25795   1.317   1.187   5.571 -0.4199 -0.8259  0.3153
 4779SOL    HW125796   1.308   1.134   5.650  0.9676 -1.6318 -0.0734
 4779SOL    HW225797   1.229   1.224   5.567  0.0168  0.0037 -1.4403
 4780SOL     OW25798   0.894   3.748   5.382  0.0423 -0.0252 -0.6668
 4780SOL    HW125799   0.857   3.821   5.432  2.1004 -1.1730  2.5020
 4780SOL    HW225800   0.817   3.732   5.326  0.0513  0.3650 -0.7963
 4781SOL     OW25801   2.486   2.161   1.788 -0.4810 -0.0992 -0.3950
 4781SOL    HW125802   2.546   2.205   1.848  0.6245 -0.2064 -1.4311
 4781SOL    HW225803   2.413   2.145   1.848  0.0823  0.4894  0.4569
 4782SOL     OW25804   3.336   2.321  15.753 -0.0694 -0.2232  0.8401
 4782SOL    HW125805   3.260   2.375  15.775 -0.4900 -0.7120  0.5670
 4782SOL    HW225806   3.406   2.384  15.736  1.8892 -2.7027 -0.1880
 4783SOL     OW25807   1.235   0.440   2.483  0.1524 -0.1532  0.2189
 4783SOL    HW125808   1.297   0.486   2.540  0.2651 -1.0198  0.8001
 4783SOL    HW225809   1.300   0.383   2.444  1.0653 -0.2803  1.9197
 4784SOL     OW25810   4.479   3.446   7.671  0.1099 -0.3894 -0.2233
 4784SOL    HW125811   4.530   3.422   7.748 -2.1893  0.4308  1.5614
 4784SOL    HW225812   4.451   3.360   7.641 -1.1379 -0.3491  0.8089
 4785SOL     OW25813   0.130   0.853   7.197 -0.2782  0.1195  0.6874
 4785SOL    HW125814   0.058   0.793   7.177  0.6765 -0.4569 -1.1228
 4785SOL    HW225815   0.096   0.940   7.179 -0.7398 -0.0744  0.6189
 4786SOL     OW25816   4.119   1.198   8.629  0.0395 -0.3967  0.2408
 4786SOL    HW125817   4.033   1.235   8.651  0.3979 -0.5198  1.8936
 4786SOL    HW225818   4.172   1.235   8.700 -0.6947 -1.9586  1.5980
 4787SOL     OW25819   2.906   4.022   7.756 -0.0805 -0.8457  0.2303
 4787SOL    HW125820   2.875   3.967   7.828 -0.2611 -0.8615  0.1399
 4787SOL    HW225821   2.867   3.983   7.678 -0.1916  1.0476 -0.6718
 4788SOL     OW25822   0.749   2.548   5.896 -0.0669 -0.4486  0.2897
 4788SOL    HW125823   0.750   2.574   5.988 -1.1985  0.5263  0.0333
 4788SOL    HW225824   0.739   2.453   5.903  1.2358 -0.5577  0.6350
 4789SOL     OW25825   0.677   0.001   7.039 -0.1041 -0.2069  0.3072
 4789SOL    HW125826   0.638   0.087   7.055  2.0281  0.7290  0.6127
 4789SOL    HW225827   0.683   4.704   7.132 -0.3924 -0.3589  0.2881
 4790SOL     OW25828   0.735   0.635   2.796 -0.2084 -0.5633  0.5496
 4790SOL    HW125829   0.653   0.677   2.825 -1.1905 -0.4728 -2.3525
 4790SOL    HW225830   0.693   0.552   2.773  1.4671 -1.3822  0.5032
 4791SOL     OW25831   2.140   2.240  14.152 -0.2938  0.3018  0.4996
 4791SOL    HW125832   2.191   2.293  14.213 -0.4882  0.3204  0.6468
 4791SOL    HW225833   2.157   2.282  14.067 -0.5682 -0.7407 -0.0748
 4792SOL     OW25834   2.118   3.867   6.662 -0.1515  0.1626 -0.4520
 4792SOL    HW125835   2.158   3.782   6.684 -0.9124 -0.2783 -0.7693
 4792SOL    HW225836   2.051   3.868   6.730  1.2792 -0.0390  0.9670
 4793SOL     OW25837   4.316   3.013   8.714 -0.1232  0.0405 -0.2367
 4793SOL    HW125838   4.324   2.995   8.808 -2.4953 -1.3948 -0.3068
 4793SOL    HW225839   4.270   2.942   8.669  0.4741  0.0337 -0.8340
 4794SOL     OW25840   2.036   2.664  11.942 -0.0761  0.1028 -0.7756
 4794SOL    HW125841   2.011   2.583  11.898  0.3109 -1.4567  1.8907
 4794SOL    HW225842   2.131   2.663  11.929  0.1688 -2.2481  1.1837
 4795SOL     OW25843   1.037   4.247  16.787  0.1809 -0.6596  0.0922
 4795SOL    HW125844   1.012   4.288  16.705  0.2758  3.2192  1.9787
 4795SOL    HW225845   1.132   4.245  16.794 -0.0848 -0.9283  3.6715
 4796SOL     OW25846   1.910   3.445   1.505  0.2454  0.1097  0.2401
 4796SOL    HW125847   1.950   3.425   1.420  2.3116  1.4439  0.9237
 4796SOL    HW225848   1.828   3.399   1.486  0.9123 -2.3098  3.3069
 4797SOL     OW25849   0.566   4.449   6.573 -0.0140 -0.8050  0.7696
 4797SOL    HW125850   0.533   4.527   6.528 -0.4480 -1.2542  0.3105
 4797SOL    HW225851   0.525   4.374   6.530  0.0065 -0.4547  0.1352
 4798SOL     OW25852   1.367   3.206   0.446 -0.1127 -0.1674 -0.3282
 4798SOL    HW125853   1.287   3.255   0.430 -0.8160 -1.5763 -1.2024
 4798SOL    HW225854   1.358   3.122   0.399  2.7496  0.3580 -1.7856
 4799SOL     OW25855   0.662   3.349  12.989 -0.1583 -0.2640 -0.3387
 4799SOL    HW125856   0.587   3.292  12.971 -0.0308 -0.5388 -0.0080
 4799SOL    HW225857   0.646   3.426  12.935 -2.3590 -1.5289 -1.5338
 4800SOL     OW25858   2.826   1.966   6.559 -0.2703  0.1030 -0.0965
 4800SOL    HW125859   2.902   1.908   6.568  0.7751  1.7091  1.3214
 4800SOL    HW225860   2.849   2.029   6.627 -1.3047 -0.9811  1.2856
 4801SOL     OW25861   1.068   4.536   4.549 -0.2691  0.1713  0.2808
 4801SOL    HW125862   1.011   4.610   4.529  2.1302  1.8042 -0.5414
 4801SOL    HW225863   1.041   4.504   4.635  0.6111 -4.0847 -1.0503
 4802SOL     OW25864   2.623   4.338  16.941 -0.4543 -0.3649 -0.1319
 4802SOL    HW125865   2.669   4.255  16.940  0.5252  0.1817 -0.0129
 4802SOL    HW225866   2.650   4.387  16.863 -0.0351  0.3049  0.4435
 4803SOL     OW25867   2.240   4.510   2.930 -0.4324  0.0211  0.3173
 4803SOL    HW125868   2.317   4.472   2.889 -0.6101  0.6933 -0.6438
 4803SOL    HW225869   2.279   4.543   3.011  0.4875  0.5245 -0.3276
 4804SOL     OW25870   1.137   1.657   7.404 -0.7749  0.1186  0.2663
 4804SOL    HW125871   1.169   1.728   7.350  2.8136 -0.6304  1.4437
 4804SOL    HW225872   1.056   1.637   7.356 -0.7626 -1.7102  0.9921
 4805SOL     OW25873   1.675   3.130   4.936  0.1759  0.0529 -0.3456
 4805SOL    HW125874   1.694   3.170   5.021 -0.6782 -0.3931  0.0539
 4805SOL    HW225875   1.636   3.206   4.893  1.4142  0.0742 -1.4223
 4806SOL     OW25876   2.777   3.838  13.064  0.0076 -0.5222  0.6708
 4806SOL    HW125877   2.769   3.836  12.969  1.4470  1.3603  0.5208
 4806SOL    HW225878   2.791   3.932  13.076  1.1443 -0.6189  0.0865
 4807SOL     OW25879   0.354   1.926  17.520 -0.2665 -0.0891 -0.7079
 4807SOL    HW125880   0.414   1.940  17.446  0.5855 -4.9472 -0.9537
 4807SOL    HW225881   0.418   1.888  17.580 -1.0695 -0.5401 -0.1427
 4808SOL     OW25882   3.558   0.790   7.441  0.3168 -0.2536  0.7911
 4808SOL    HW125883   3.521   0.713   7.397 -1.1833  0.8525  0.1110
 4808SOL    HW225884   3.646   0.784   7.403 -0.2743 -0.8777 -0.5028
 4809SOL     OW25885   0.851   3.622  14.828  0.1145 -0.4904 -0.4957
 4809SOL    HW125886   0.828   3.542  14.875  0.1816 -0.8616 -1.0912
 4809SOL    HW225887   0.905   3.672  14.889  2.4111  0.9129 -3.6716
 4810SOL     OW25888   3.578   4.660   6.371 -0.4544  0.2186 -0.5517
 4810SOL    HW125889   3.512   0.003   6.361  0.5964  1.3010 -0.0485
 4810SOL    HW225890   3.619   4.658   6.285 -0.1927  1.6625 -0.4627
 4811SOL     OW25891   1.587   2.992  10.591  0.1478  0.5378 -0.9311
 4811SOL    HW125892   1.661   2.934  10.610  0.6137  0.9144 -1.5939
 4811SOL    HW225893   1.544   2.936  10.526  0.1566 -0.9304  0.3132
 4812SOL     OW25894   1.667   4.364   7.474  0.5856 -0.2885  0.5331
 4812SOL    HW125895   1.730   4.408   7.532  1.3477 -0.1529 -0.3978
 4812SOL    HW225896   1.581   4.395   7.503 -0.3506 -1.5568 -0.9299
 4813SOL     OW25897   1.679   1.081   3.127  0.3030 -0.6928 -0.1329
 4813SOL    HW125898   1.695   1.130   3.207 -1.7075 -0.5700  0.1970
 4813SOL    HW225899   1.634   1.146   3.073  1.9406  0.0594 -0.5971
 4814SOL     OW25900   2.628   3.361   3.693 -0.1822  0.5816 -0.4106
 4814SOL    HW125901   2.610   3.295   3.760 -0.5528 -0.5247 -1.6102
 4814SOL    HW225902   2.719   3.334   3.680 -0.2946  0.4984 -0.9899
 4815SOL     OW25903   3.924   3.345   4.605  0.4348  0.3001 -0.1675
 4815SOL    HW125904   3.884   3.262   4.630 -0.7691  0.9731  0.1735
 4815SOL    HW225905   3.967   3.369   4.686 -0.1849 -0.0780  0.2754
 4816SOL     OW25906   0.071   2.974   4.428  0.3750  0.2193 -0.2870
 4816SOL    HW125907   4.704   2.950   4.422  0.8349 -0.9222 -2.7906
 4816SOL    HW225908   0.110   2.888   4.413 -0.7116 -0.1959 -0.7976
 4817SOL     OW25909   0.939   3.359   5.964  0.5505  0.0509 -0.9413
 4817SOL    HW125910   0.886   3.330   5.889 -0.6456  1.0220 -0.4824
 4817SOL    HW225911   0.959   3.450   5.942 -1.5408  0.5884 -0.6104
 4818SOL     OW25912   2.909   3.399  10.134  0.1035  0.5615  0.5067
 4818SOL    HW125913   2.943   3.440  10.055 -1.6215 -2.6753 -1.8998
 4818SOL    HW225914   2.907   3.480  10.186  1.5578  0.6538  0.4035
 4819SOL     OW25915   0.610   0.710   3.094  0.3235 -0.0558 -0.4654
 4819SOL    HW125916   0.579   0.713   3.004 -1.5067 -1.2778  0.1090
 4819SOL    HW225917   0.536   0.660   3.129 -0.1108 -1.0119 -2.7456
 4820SOL     OW25918   2.282   1.103   5.868  0.0580  0.9203  0.1308
 4820SOL    HW125919   2.211   1.075   5.925 -0.0664  1.0886  0.0582
 4820SOL    HW225920   2.310   1.174   5.925 -0.6994  2.1950 -1.0896
 4821SOL     OW25921   3.251   3.585   3.583  0.3947 -0.2413  0.2692
 4821SOL    HW125922   3.187   3.556   3.648 -0.6504 -0.0847 -0.7042
 4821SOL    HW225923   3.251   3.507   3.528  0.3984  1.8697 -2.6934
 4822SOL     OW25924   2.655   1.405   6.816  0.4299  0.2732 -0.3781
 4822SOL    HW125925   2.668   1.393   6.722  0.0394 -0.2103 -0.3726
 4822SOL    HW225926   2.744   1.435   6.835  0.0178  1.8485 -0.9598
 4823SOL     OW25927   4.467   1.074   6.155 -0.1518  0.7035  0.1413
 4823SOL    HW125928   4.455   1.015   6.229  0.0154  0.6271  0.1084
 4823SOL    HW225929   4.378   1.082   6.122 -0.9259 -1.3642  1.7295
 4824SOL     OW25930   2.401   3.547   4.474 -0.0263  0.0539  0.7601
 4824SOL    HW125931   2.326   3.575   4.422  0.0411  0.0747  0.6745
 4824SOL    HW225932   2.355   3.480   4.524  1.4566 -0.5170  1.3675
 4825SOL     OW25933   3.094   0.169   2.001 -0.6765  0.1515  0.2184
 4825SOL    HW125934   3.025   0.151   2.064 -0.9146  1.1721  0.2517
 4825SOL    HW225935   3.099   0.264   2.014 -1.5638  0.2996 -0.5308
 4826SOL     OW25936   4.304   4.397   7.212 -0.2788 -0.0802  0.1453
 4826SOL    HW125937   4.220   4.436   7.238 -0.4870 -1.4646  1.5213
 4826SOL    HW225938   4.282   4.344   7.135 -1.1240 -3.0453  2.4361
 4827SOL     OW25939   2.522   2.550   3.592  0.0788 -0.2818  0.0092
 4827SOL    HW125940   2.558   2.529   3.678  2.0578 -0.9263 -0.9876
 4827SOL    HW225941   2.598   2.590   3.549 -0.1079 -0.5267 -0.5592
 4828SOL     OW25942   4.005   1.588   7.370  0.0994 -0.0563 -0.1625
 4828SOL    HW125943   4.097   1.564   7.361  0.6949  1.9110  0.8548
 4828SOL    HW225944   4.001   1.650   7.297 -3.7419 -1.4917 -1.1660
 4829SOL     OW25945   0.974   2.994   8.470  0.7890  0.5333  0.2395
 4829SOL    HW125946   1.038   2.966   8.536  2.0466  1.2950 -0.6702
 4829SOL    HW225947   0.892   2.974   8.516  0.6467  1.2289  0.2824
 4830SOL     OW25948   2.277   0.248  13.858  0.2705 -0.3485  0.4834
 4830SOL    HW125949   2.207   0.310  13.877  0.2043 -0.2735  0.0166
 4830SOL    HW225950   2.355   0.305  13.857 -0.0017  0.0265  0.5482
 4831SOL     OW25951   1.961   2.159   0.552  0.1822  0.2006 -0.6256
 4831SOL    HW125952   1.996   2.202   0.630 -0.3928 -1.4596  0.5454
 4831SOL    HW225953   1.955   2.238   0.498  1.0056  1.6920  1.4672
 4832SOL     OW25954   3.415   3.027   0.623  0.3793 -0.3823  0.1767
 4832SOL    HW125955   3.406   3.079   0.703  0.9908 -1.5382  0.9997
 4832SOL    HW225956   3.447   3.089   0.558  0.4146 -1.3872 -0.7707
 4833SOL     OW25957   0.660   2.800   5.018  0.3526  0.0388 -0.3594
 4833SOL    HW125958   0.568   2.816   5.036  0.4653 -0.1959  0.4482
 4833SOL    HW225959   0.690   2.890   5.035  0.7069  0.0002 -0.7918
 4834SOL     OW25960   0.167   4.210   3.013  0.6726 -0.0087  0.3398
 4834SOL    HW125961   0.210   4.162   2.942 -0.4872 -1.8469  0.8862
 4834SOL    HW225962   0.079   4.176   3.000  1.4734 -0.9222 -2.8644
 4835SOL     OW25963   0.420   2.744   2.401  0.4715  0.0543  0.2527
 4835SOL    HW125964   0.346   2.771   2.346  3.4057  2.8030 -2.3255
 4835SOL    HW225965   0.378   2.681   2.461  0.0851 -1.2447 -1.3692
 4836SOL     OW25966   0.513   0.413   2.474  0.4565 -0.5765  0.1958
 4836SOL    HW125967   0.445   0.346   2.466 -3.3129  2.9952  1.8400
 4836SOL    HW225968   0.565   0.384   2.400  0.0322  3.2715 -1.6168
 4837SOL     OW25969   4.518   2.263   5.540 -0.5542  0.1199  0.5144
 4837SOL    HW125970   4.468   2.197   5.492 -0.6502 -0.9794  2.1468
 4837SOL    HW225971   4.579   2.285   5.469  0.6568  0.7019  1.7455
 4838SOL     OW25972   1.992   2.092   6.721 -0.3205 -0.3337 -0.0237
 4838SOL    HW125973   2.033   2.006   6.723 -1.1595 -0.7805 -1.5698
 4838SOL    HW225974   2.052   2.148   6.771  1.5170  0.0894 -2.6412
 4839SOL     OW25975   1.207   2.993   3.913 -0.3996 -0.3154 -0.4213
 4839SOL    HW125976   1.159   2.929   3.860  2.4314  1.8468 -5.6208
 4839SOL    HW225977   1.144   3.034   3.972 -1.1176 -1.7377 -0.2082
 4840SOL     OW25978   3.235   0.207   3.995 -0.0568 -0.1547 -0.3819
 4840SOL    HW125979   3.213   0.181   4.084  2.0316 -1.2551 -0.1827
 4840SOL    HW225980   3.267   0.127   3.952 -0.5962 -0.1590 -0.7891
 4841SOL     OW25981   1.488   3.097   5.594  0.0861 -1.0597 -0.0795
 4841SOL    HW125982   1.562   3.039   5.611 -0.4378 -2.2051 -1.8043
 4841SOL    HW225983   1.519   3.175   5.641  1.9052 -2.5289  1.1459
 4842SOL     OW25984   0.632   0.334   6.705  0.2511 -0.1159  0.6812
 4842SOL    HW125985   0.698   0.309   6.769  0.4014 -0.1946  0.4990
 4842SOL    HW225986   0.573   0.387   6.756 -1.5232 -0.2185 -1.2608
 4843SOL     OW25987   4.705   0.841   6.711  0.1213 -0.1672 -0.0628
 4843SOL    HW125988   4.674   0.806   6.627 -1.0215  1.4900 -0.3444
 4843SOL    HW225989   0.057   0.877   6.668 -1.1493  1.2371 -1.1735
 4844SOL     OW25990   2.760   1.176   6.161 -0.2230 -0.1768 -0.2742
 4844SOL    HW125991   2.755   1.084   6.135  1.6277 -0.1831 -0.6199
 4844SOL    HW225992   2.794   1.155   6.248  0.1388  0.2332 -0.3140
 4845SOL     OW25993   2.802   0.003   1.243  0.2020  0.1236  0.6363
 4845SOL    HW125994   2.795   0.096   1.264 -2.4200  0.0361  0.1089
 4845SOL    HW225995   2.773   4.724   1.152  2.3620 -0.6761 -0.0065
 4846SOL     OW25996   0.904   3.993   6.875 -0.7257 -0.0489 -0.7506
 4846SOL    HW125997   0.993   3.957   6.884 -1.1814 -0.7106  0.9907
 4846SOL    HW225998   0.899   4.000   6.780  0.9492  1.2157 -0.7451
 4847SOL     OW25999   4.080   0.938   4.469 -0.3194  0.0562  0.5204
 4847SOL    HW126000   4.124   1.013   4.507  2.2515 -0.1356 -2.0817
 4847SOL    HW226001   3.991   0.950   4.502  0.1480  1.7576  1.1451
 4848SOL     OW26002   1.134   1.860   4.316  0.6757  0.1032  0.3347
 4848SOL    HW126003   1.074   1.926   4.353 -0.9060 -0.5600 -1.0449
 4848SOL    HW226004   1.118   1.780   4.367  2.6514 -0.2478  0.4047
 4849SOL     OW26005   3.635   2.256   7.977 -0.2454  0.4391 -0.4280
 4849SOL    HW126006   3.672   2.231   8.061 -1.1697  0.5694  0.0233
 4849SOL    HW226007   3.703   2.312   7.938  0.2658 -1.3736 -2.1423
 4850SOL     OW26008   1.101   3.253   4.138 -0.2988 -0.1971  0.1404
 4850SOL    HW126009   1.043   3.184   4.104 -1.7546  0.8920  0.3825
 4850SOL    HW226010   1.177   3.199   4.156 -2.0091 -2.7881 -0.4071
 4851SOL     OW26011   0.102   2.043  12.319  0.2085  0.2378 -0.1582
 4851SOL    HW126012   0.161   1.979  12.358  0.4535  1.1777  1.0031
 4851SOL    HW226013   0.069   1.985  12.249  2.9981 -1.7287  0.1233
 4852SOL     OW26014   3.773   2.737   2.587 -0.4783 -0.0283  0.3037
 4852SOL    HW126015   3.864   2.745   2.557  0.0143 -2.2467  1.2393
 4852SOL    HW226016   3.722   2.711   2.510 -0.4349 -1.6975  0.8445
 4853SOL     OW26017   2.927   3.196   5.358  0.4666  0.7229  0.6872
 4853SOL    HW126018   2.884   3.280   5.375  0.9753  0.9502  0.8285
 4853SOL    HW226019   2.984   3.227   5.288  0.9912 -0.5496  0.5459
 4854SOL     OW26020   2.822   0.239   7.472  0.0620  0.4521 -0.7079
 4854SOL    HW126021   2.868   0.155   7.476 -0.0698  0.3601 -1.1263
 4854SOL    HW226022   2.788   0.235   7.383 -0.9784  1.3155 -0.3407
 4855SOL     OW26023   1.810   3.702  11.930 -0.2163 -0.2889 -0.1141
 4855SOL    HW126024   1.897   3.724  11.896 -0.4468  1.8928  0.7318
 4855SOL    HW226025   1.822   3.708  12.025  0.8342  0.4284 -0.2832
 4856SOL     OW26026   4.310   0.003   2.692  0.2076  0.4018 -0.3154
 4856SOL    HW126027   4.249   0.050   2.748  0.6270  1.0448 -0.3958
 4856SOL    HW226028   4.309   4.642   2.733  0.3174  0.2241 -0.6805
 4857SOL     OW26029   2.716   0.891   7.982  0.4534 -0.3073 -0.3607
 4857SOL    HW126030   2.778   0.887   7.909  0.4457  1.4738 -0.4694
 4857SOL    HW226031   2.741   0.978   8.014 -2.1656  0.2823  0.0360
 4858SOL     OW26032   2.950   2.989   0.481  0.0958 -0.0610  0.4474
 4858SOL    HW126033   3.009   3.032   0.543 -0.1797  2.1718 -0.8208
 4858SOL    HW226034   3.003   2.947   0.413  0.4584  1.8925 -0.4896
 4859SOL     OW26035   1.604   0.749   7.257 -0.0418  0.2916 -0.0135
 4859SOL    HW126036   1.695   0.778   7.261  0.1290 -0.4097  1.2473
 4859SOL    HW226037   1.574   0.775   7.170  2.9204 -0.3045 -1.1958
 4860SOL     OW26038   3.423   4.038   3.795  0.1101  0.7561 -0.2200
 4860SOL    HW126039   3.396   3.968   3.736 -2.4952  0.1786  1.6396
 4860SOL    HW226040   3.512   4.060   3.769  0.8359 -0.9524  0.8513
 4861SOL     OW26041   1.331   1.795   9.033 -0.1233 -0.1542 -0.4306
 4861SOL    HW126042   1.426   1.808   9.033 -0.3527  1.4918 -0.8208
 4861SOL    HW226043   1.302   1.832   9.116  0.7015 -0.7961  0.1429
 4862SOL     OW26044   3.904   0.828   0.317  0.0601 -0.3175  0.1486
 4862SOL    HW126045   3.952   0.839   0.398 -1.4249  1.0336  0.8464
 4862SOL    HW226046   3.862   0.914   0.314  1.7252  0.5672  3.1663
 4863SOL     OW26047   3.605   2.751  17.387 -0.7819 -0.6407 -0.2551
 4863SOL    HW126048   3.510   2.737  17.377 -0.8597 -0.5697  0.3819
 4863SOL    HW226049   3.631   2.659  17.376 -0.0609 -0.4243 -0.2988
 4864SOL     OW26050   1.524   2.540   5.797 -0.5161 -0.4064 -0.2356
 4864SOL    HW126051   1.522   2.450   5.763 -4.6677  0.0793 -1.1851
 4864SOL    HW226052   1.443   2.539   5.847  0.1360  1.4930  0.8730
 4865SOL     OW26053   1.438   2.152  15.856  0.4864 -0.4252 -0.3107
 4865SOL    HW126054   1.494   2.075  15.844  0.1194 -0.6363 -0.7015
 4865SOL    HW226055   1.463   2.212  15.785  0.4636 -0.3269 -0.2357
 4866SOL     OW26056   1.015   3.848  10.598 -0.2435  0.0667  0.5439
 4866SOL    HW126057   1.055   3.782  10.540 -0.1610  0.0385  0.6332
 4866SOL    HW226058   1.087   3.907  10.617  2.4018 -3.5506  1.8369
 4867SOL     OW26059   0.333   1.415   1.133  0.1459  0.2895 -0.2374
 4867SOL    HW126060   0.398   1.349   1.157  0.1488 -0.5348 -2.5076
 4867SOL    HW226061   0.251   1.366   1.139 -1.3373  2.9558  1.0471
 4868SOL     OW26062   2.184   2.689  12.941  0.1276  0.7930  0.3436
 4868SOL    HW126063   2.113   2.681  13.005 -0.5805 -0.1105 -0.5504
 4868SOL    HW226064   2.249   2.680  13.011 -0.2480 -1.9448  0.3442
 4869SOL     OW26065   0.369   4.495   6.828 -0.0734 -0.0627  0.1406
 4869SOL    HW126066   0.319   4.414   6.823 -0.4524  0.1582  0.3846
 4869SOL    HW226067   0.338   4.536   6.747  1.5746  0.1871 -0.3546
 4870SOL     OW26068   0.267   2.329   8.064 -0.5505 -0.1734 -0.1678
 4870SOL    HW126069   0.247   2.420   8.044  0.1857 -0.0920 -0.5294
 4870SOL    HW226070   0.177   2.295   8.071 -0.9132  1.4439  2.9099
 4871SOL     OW26071   1.990   1.906   4.206 -0.2899 -0.1073  0.2845
 4871SOL    HW126072   1.909   1.933   4.249  0.0371 -0.4500  1.1338
 4871SOL    HW226073   2.051   1.963   4.254 -1.0700 -0.6559  1.9094
 4872SOL     OW26074   1.143   2.306   1.837  0.5211  0.2772  0.0491
 4872SOL    HW126075   1.053   2.281   1.858  1.0527 -0.3251  1.6275
 4872SOL    HW226076   1.174   2.350   1.916 -0.2374 -1.9224  1.5811
 4873SOL     OW26077   1.064   0.943   8.727 -0.0582  0.2404  0.1341
 4873SOL    HW126078   1.001   0.897   8.781  1.2409 -1.3598  0.2954
 4873SOL    HW226079   1.146   0.916   8.769  0.2262 -2.0986 -1.9541
 4874SOL     OW26080   3.489   1.528   3.640  0.7093 -0.5061 -0.0829
 4874SOL    HW126081   3.486   1.619   3.669  0.3896 -0.6036  0.1927
 4874SOL    HW226082   3.573   1.501   3.678 -1.1598 -2.5774  2.5608
 4875SOL     OW26083   4.595   2.957  16.136  0.1679  0.4160  0.3422
 4875SOL    HW126084   4.520   2.913  16.176  0.8719  2.2801  3.6775
 4875SOL    HW226085   4.547   3.016  16.077 -1.3548  0.5493  1.7044
 4876SOL     OW26086   4.264   4.460  17.114 -0.1997 -0.5647  0.3106
 4876SOL    HW126087   4.216   4.540  17.137  0.4540 -0.2535  0.6098
 4876SOL    HW226088   4.321   4.478  17.040 -1.1854  1.5059  0.0654
 4877SOL     OW26089   2.212   4.615   4.446 -0.1328  0.6873  0.1864
 4877SOL    HW126090   2.244   4.529   4.474 -3.3647 -0.9133 -1.0003
 4877SOL    HW226091   2.122   4.589   4.426  0.5582 -0.2811 -1.6457
 4878SOL     OW26092   0.303   2.237   9.474  0.1969 -0.6563 -0.2565
 4878SOL    HW126093   0.348   2.155   9.454 -0.4861 -1.0669 -0.1262
 4878SOL    HW226094   0.240   2.233   9.402 -0.8155  0.9771  0.5182
 4879SOL     OW26095   0.882   1.254   2.723 -0.5973 -0.2835  0.1008
 4879SOL    HW126096   0.939   1.243   2.799 -0.0393  2.5927  0.1125
 4879SOL    HW226097   0.823   1.180   2.732 -0.4751 -0.4229 -0.2509
 4880SOL     OW26098   0.650   3.036   2.100 -0.2708 -0.1464  0.7125
 4880SOL    HW126099   0.611   3.051   2.015 -0.2809 -0.8405  0.5899
 4880SOL    HW226100   0.622   3.114   2.148  1.4397  0.8539  0.0584
 4881SOL     OW26101   0.963   0.299   5.376 -0.1747  0.2879  0.1432
 4881SOL    HW126102   0.995   0.348   5.300 -0.0040 -3.5540 -2.3010
 4881SOL    HW226103   1.046   0.276   5.418 -1.3162 -0.2139  2.1076
 4882SOL     OW26104   3.879   2.141   7.319 -0.0540  0.2537  0.0335
 4882SOL    HW126105   3.913   2.178   7.237  2.8164  0.7109  1.4226
 4882SOL    HW226106   3.901   2.216   7.375 -0.7283  0.2085  0.3544
 4883SOL     OW26107   2.764   0.106  11.575  0.1231  0.4846  0.0254
 4883SOL    HW126108   2.763   0.136  11.666 -0.3852  2.7523 -0.7321
 4883SOL    HW226109   2.845   0.146  11.543  1.6319 -1.4874  1.3711
 4884SOL     OW26110   2.288   0.240   0.950  0.0410 -0.3330 -0.0650
 4884SOL    HW126111   2.246   0.215   1.032 -0.6012  1.7772  0.2504
 4884SOL    HW226112   2.237   0.316   0.922 -0.0717  0.1503  1.4959
 4885SOL     OW26113   3.440   1.260   1.799 -0.3011 -0.4502  0.8482
 4885SOL    HW126114   3.426   1.279   1.706  0.5832  0.0360  0.8167
 4885SOL    HW226115   3.367   1.315   1.828 -0.3107 -0.1757  0.3185
 4886SOL     OW26116   3.894   3.822   2.731 -0.2656 -0.4248 -0.0576
 4886SOL    HW126117   3.987   3.814   2.710 -0.1714  1.5402 -0.3837
 4886SOL    HW226118   3.840   3.822   2.652  2.5869  1.3332 -2.0056
 4887SOL     OW26119   2.858   4.307  16.555  0.2543 -0.1054 -0.4949
 4887SOL    HW126120   2.866   4.373  16.486  1.8980 -0.2837 -0.4868
 4887SOL    HW226121   2.947   4.272  16.550  0.7835  1.1687  0.0534
 4888SOL     OW26122   4.684   1.382  17.242 -0.5865  0.1257  0.4012
 4888SOL    HW126123   0.040   1.342  17.212  0.2220  0.7475  1.7887
 4888SOL    HW226124   4.705   1.475  17.246 -0.8880  0.1347  1.6546
 4889SOL     OW26125   1.095   1.725   6.485 -0.2751  0.0632  0.1507
 4889SOL    HW126126   1.041   1.647   6.471 -0.2206  0.1720 -0.6570
 4889SOL    HW226127   1.029   1.795   6.485 -0.1114  0.2132  2.0581
 4890SOL     OW26128   2.842   3.730   4.284 -1.2617  0.4044  0.1745
 4890SOL    HW126129   2.852   3.824   4.276 -2.5119  0.3256 -2.3159
 4890SOL    HW226130   2.747   3.715   4.288 -1.0206 -0.7566  1.5800
 4891SOL     OW26131   1.931   1.905  16.653  0.0707 -0.3936  0.5487
 4891SOL    HW126132   1.929   1.993  16.689 -1.0349  0.5836 -1.8392
 4891SOL    HW226133   1.921   1.924  16.560  2.7563 -0.0723  0.3403
 4892SOL     OW26134   1.362   3.589  17.645 -0.5398  0.6150 -0.4443
 4892SOL    HW126135   1.370   3.499  17.615 -1.9854  0.5713 -0.7012
 4892SOL    HW226136   1.307   3.574   0.018 -0.7831  3.0698 -0.1419
 4893SOL     OW26137   0.383   0.956   8.410  0.2382 -0.1341 -1.1489
 4893SOL    HW126138   0.412   1.024   8.471  0.0394  0.6568 -1.9204
 4893SOL    HW226139   0.430   0.988   8.332 -0.6334  0.9028 -1.2458
 4894SOL     OW26140   0.801   1.111   8.876  0.3437  0.9570  0.0376
 4894SOL    HW126141   0.744   1.045   8.914  0.7711  0.6973  0.2385
 4894SOL    HW226142   0.883   1.071   8.908 -0.3364  0.0484  0.6403
 4895SOL     OW26143   3.275   2.423   5.302  0.5611 -0.9066 -0.0615
 4895SOL    HW126144   3.282   2.354   5.368  0.5196 -0.1412  0.7405
 4895SOL    HW226145   3.195   2.402   5.254 -1.6138  1.8239  2.2996
 4896SOL     OW26146   3.678   1.119   7.835 -0.1518 -0.1753 -0.0564
 4896SOL    HW126147   3.583   1.104   7.838 -0.0933 -0.6377 -0.5358
 4896SOL    HW226148   3.690   1.185   7.904 -0.2118  0.0451 -0.2595
 4897SOL     OW26149   3.427   0.566   8.288  0.5103 -0.2265  0.0716
 4897SOL    HW126150   3.510   0.548   8.333  1.4139  0.2187 -1.4402
 4897SOL    HW226151   3.435   0.501   8.218  1.9780  0.0380 -0.0059
 4898SOL     OW26152   4.597   2.963  11.569 -0.0949 -0.1132 -0.0100
 4898SOL    HW126153   4.596   2.926  11.481  1.1050 -0.5303  0.1470
 4898SOL    HW226154   4.548   3.045  11.564 -1.2213 -0.6920  1.6679
 4899SOL     OW26155   3.549   4.109   4.100 -0.2669 -0.1967 -0.5254
 4899SOL    HW126156   3.623   4.111   4.039  1.5636  3.0709  1.8443
 4899SOL    HW226157   3.488   4.175   4.065  0.2295  1.2157  1.2818
 4900SOL     OW26158   2.186   3.264   5.715  0.4627  0.1078 -0.1655
 4900SOL    HW126159   2.226   3.232   5.796  1.2002  0.1775 -0.5045
 4900SOL    HW226160   2.212   3.356   5.714 -0.9463  0.5088 -0.0228
 4901SOL     OW26161   3.821   3.305   5.825  0.6219 -0.1578 -0.1567
 4901SOL    HW126162   3.784   3.393   5.836 -1.4873 -1.2756  1.6559
 4901SOL    HW226163   3.847   3.301   5.917 -1.1647 -1.0736  0.3052
 4902SOL     OW26164   2.562   2.421   5.009 -0.2502  0.1757 -0.5811
 4902SOL    HW126165   2.543   2.337   5.051  2.0913  1.1121  2.3916
 4902SOL    HW226166   2.521   2.426   4.923 -0.3453 -2.1861 -0.6593
 4903SOL     OW26167   2.565   0.074   4.141 -0.2408  0.5414  0.0605
 4903SOL    HW126168   2.583   0.162   4.106 -0.5037  0.7806  0.5226
 4903SOL    HW226169   2.560   0.034   4.054 -2.3439 -0.0451  0.4475
 4904SOL     OW26170   2.926   2.029  13.236  0.0428 -0.2441 -0.7520
 4904SOL    HW126171   2.882   2.100  13.189 -0.9778 -1.5975 -1.8231
 4904SOL    HW226172   2.915   2.054  13.328  0.8249  1.7082 -1.1986
 4905SOL     OW26173   3.562   0.869   3.183 -0.3560  0.0630 -0.7528
 4905SOL    HW126174   3.512   0.886   3.262 -1.0668  1.0506 -1.4153
 4905SOL    HW226175   3.542   0.947   3.131 -0.9465 -1.2009 -2.4476
 4906SOL     OW26176   1.880   2.390  14.274  0.5627 -0.2094 -0.1058
 4906SOL    HW126177   1.870   2.393  14.370  0.9454 -0.4266 -0.0614
 4906SOL    HW226178   1.973   2.370  14.263  0.2164 -1.4473 -0.7732
 4907SOL     OW26179   4.631   4.470  10.126 -0.2416 -0.4604 -0.1833
 4907SOL    HW126180   4.645   4.376  10.138 -1.7002 -0.5212  0.9948
 4907SOL    HW226181   4.649   4.484  10.033  1.1665 -1.2140 -0.0301
 4908SOL     OW26182   4.218   1.900   8.897  0.9463  0.0086  0.1164
 4908SOL    HW126183   4.165   1.970   8.935 -1.6432 -1.5667 -0.5716
 4908SOL    HW226184   4.175   1.896   8.812  1.6584 -0.1349 -0.2361
 4909SOL     OW26185   2.395   4.203   7.974 -0.3785  0.5193  0.5127
 4909SOL    HW126186   2.467   4.263   7.955  0.3862  0.1241  2.1896
 4909SOL    HW226187   2.382   4.166   7.887  2.2122 -0.6035  0.6070
 4910SOL     OW26188   0.736   0.718   9.610 -0.0848  0.3682  0.2891
 4910SOL    HW126189   0.782   0.648   9.656 -0.5278 -1.4324 -1.9625
 4910SOL    HW226190   0.649   0.720   9.651  0.0280 -3.2244  0.7434
 4911SOL     OW26191   1.969   0.674   8.982  0.4179 -0.1891 -0.3257
 4911SOL    HW126192   1.955   0.736   9.054 -0.1584 -0.9484  0.2227
 4911SOL    HW226193   2.056   0.642   9.007  1.7349  4.0389  0.5023
 4912SOL     OW26194   2.321   2.320   3.439  0.2606  0.1910 -0.1504
 4912SOL    HW126195   2.233   2.286   3.419  0.7306  0.1376 -2.1564
 4912SOL    HW226196   2.320   2.341   3.532 -2.2204 -0.2701 -0.0594
 4913SOL     OW26197   4.215   2.118   9.635 -0.2952 -0.0931 -0.1670
 4913SOL    HW126198   4.216   2.051   9.566  0.1269  0.0874 -0.3359
 4913SOL    HW226199   4.205   2.200   9.588  0.7387 -0.6640 -1.3904
 4914SOL     OW26200   3.811   4.712  17.396  0.0914  0.0512  0.1631
 4914SOL    HW126201   3.893   4.676  17.432  0.1984 -0.2587 -0.3856
 4914SOL    HW226202   3.850   0.059  17.347 -0.7171  1.3646  1.4741
 4915SOL     OW26203   4.507   0.284   2.838 -0.1728  0.6646 -0.6640
 4915SOL    HW126204   4.496   0.287   2.743 -0.3635 -1.4977 -0.7167
 4915SOL    HW226205   4.524   0.191   2.852 -0.0767  0.9987  1.4726
 4916SOL     OW26206   0.923   2.079  15.425 -0.2857 -0.1522  0.2390
 4916SOL    HW126207   0.912   2.104  15.517 -0.4742  1.2591 -0.1767
 4916SOL    HW226208   0.864   2.134  15.373 -0.8276 -2.1148 -1.2219
 4917SOL     OW26209   3.428   3.501   4.130  0.4825  0.4297  0.3478
 4917SOL    HW126210   3.382   3.499   4.214 -0.9925 -1.6536 -0.5134
 4917SOL    HW226211   3.517   3.502   4.167  0.4065 -1.2392  0.6038
 4918SOL     OW26212   2.106   3.602   2.575  0.3190 -0.5597 -0.1081
 4918SOL    HW126213   2.052   3.662   2.627 -0.1288 -1.1105  0.0597
 4918SOL    HW226214   2.186   3.652   2.560  0.4111 -1.0814 -1.2806
 4919SOL     OW26215   1.664   1.787  13.642  0.3274  0.7502 -0.1444
 4919SOL    HW126216   1.665   1.759  13.734  0.5974 -2.2545 -1.0533
 4919SOL    HW226217   1.569   1.782  13.627  0.3508  0.8195 -0.3106
 4920SOL     OW26218   4.450   4.097   5.373  0.3906  0.4146  0.1718
 4920SOL    HW126219   4.375   4.152   5.348  0.0841 -0.0111  0.1583
 4920SOL    HW226220   4.435   4.100   5.467 -2.3870  2.0317 -0.2837
 4921SOL     OW26221   0.251   3.022   8.007 -0.0316 -0.0755  0.2352
 4921SOL    HW126222   0.173   3.068   7.976  0.5841  1.5950  1.1929
 4921SOL    HW226223   0.298   3.101   8.034 -1.4327  0.3613  1.3747
 4922SOL     OW26224   1.908   3.612   9.073  0.0416  0.0202 -0.0564
 4922SOL    HW126225   1.848   3.589   9.144 -3.1375  3.0392 -1.8100
 4922SOL    HW226226   1.882   3.699   9.045  1.0141  0.9262  1.8221
 4923SOL     OW26227   1.672   4.184  13.357 -0.4492  0.1906 -0.1905
 4923SOL    HW126228   1.731   4.212  13.287 -0.3609  1.0371  0.2216
 4923SOL    HW226229   1.636   4.269  13.381 -0.2260 -0.1047  1.2157
 4924SOL     OW26230   3.559   1.948   4.740 -0.1235  0.0968 -0.2963
 4924SOL    HW126231   3.497   1.876   4.732  0.3027 -0.3512  0.3947
 4924SOL    HW226232   3.578   1.971   4.649  2.0426 -1.7833 -0.3310
 4925SOL     OW26233   2.770   2.443  17.310  0.8050 -0.0633  0.5382
 4925SOL    HW126234   2.774   2.372  17.374 -1.8122  0.0313  0.7947
 4925SOL    HW226235   2.855   2.488  17.316  0.6218 -0.3933  5.7582
 4926SOL     OW26236   4.301   3.804   3.283  0.4679 -0.1943 -1.1954
 4926SOL    HW126237   4.376   3.850   3.244  0.9239  1.7133  2.0249
 4926SOL    HW226238   4.323   3.801   3.376 -3.3382 -1.9491 -0.3496
 4927SOL     OW26239   3.584   3.935   5.379 -0.4097 -0.0340  0.4340
 4927SOL    HW126240   3.622   3.865   5.326 -0.4520 -0.5234  1.0504
 4927SOL    HW226241   3.554   3.888   5.457 -2.8046 -0.5476 -0.7859
 4928SOL     OW26242   1.386   4.150   0.633  0.0259  0.0137 -0.1720
 4928SOL    HW126243   1.383   4.202   0.552  1.6247  2.1823  1.1605
 4928SOL    HW226244   1.388   4.221   0.697 -1.7257 -0.8707  0.8460
 4929SOL     OW26245   4.197   1.992   0.855 -0.1531 -0.3265  0.8390
 4929SOL    HW126246   4.147   1.913   0.877 -0.1561 -0.5076  0.2051
 4929SOL    HW226247   4.149   2.059   0.904  0.7083 -0.9526  2.5429
 4930SOL     OW26248   1.145   3.213  10.352 -0.5140  0.2584 -0.3214
 4930SOL    HW126249   1.176   3.184  10.438 -2.5973 -3.0172 -0.6968
 4930SOL    HW226250   1.128   3.306  10.367 -1.3823  0.2041 -0.9766
 4931SOL     OW26251   1.724   0.375   3.059  0.4686  0.4174 -0.3608
 4931SOL    HW126252   1.749   0.309   2.995  1.7625  1.5767 -1.0442
 4931SOL    HW226253   1.632   0.395   3.042  0.2344  0.7914  1.2712
 4932SOL     OW26254   0.560   4.675   4.705 -0.2771  0.3903 -0.5935
 4932SOL    HW126255   0.644   4.709   4.734 -0.7055  0.9050  0.0239
 4932SOL    HW226256   0.519   0.028   4.669 -1.4910  0.4151  0.8274
 4933SOL     OW26257   3.534   3.527   8.774  0.0673 -0.5114 -0.0037
 4933SOL    HW126258   3.630   3.529   8.779  0.0847 -1.6815  0.0128
 4933SOL    HW226259   3.523   3.432   8.767  0.3687 -0.4052 -2.1679
 4934SOL     OW26260   0.719   1.057   0.679 -0.1676 -0.2548  0.0254
 4934SOL    HW126261   0.633   1.094   0.659  0.7887  1.4691 -0.8282
 4934SOL    HW226262   0.762   1.130   0.635 -0.0841  0.2239  0.8848
 4935SOL     OW26263   0.240   1.220   3.215  0.5396  0.2214  0.3538
 4935SOL    HW126264   0.176   1.290   3.227 -0.8335 -0.9152 -0.2874
 4935SOL    HW226265   0.204   1.168   3.143  1.0465  0.4026 -0.0282
 4936SOL     OW26266   2.980   2.159   5.584 -0.4115  0.2535 -0.2493
 4936SOL    HW126267   3.002   2.101   5.511 -0.6048  1.9455 -1.6368
 4936SOL    HW226268   2.949   2.094   5.647  2.3442  0.3372  1.1883
 4937SOL     OW26269   1.492   4.219  17.570  0.0493 -0.3788  0.9796
 4937SOL    HW126270   1.536   4.219  17.654 -1.6230 -0.2188  1.8519
 4937SOL    HW226271   1.560   4.245  17.507 -0.7880 -1.2587 -0.3062
 4938SOL     OW26272   4.595   0.591   3.971  0.0994 -0.3781 -0.0892
 4938SOL    HW126273   4.690   0.592   3.977  0.2344 -0.7987 -2.1688
 4938SOL    HW226274   4.577   0.678   3.938  1.4838 -0.1563 -0.2624
 4939SOL     OW26275   1.296   3.522   7.547 -0.7317  0.1772  0.4092
 4939SOL    HW126276   1.339   3.605   7.567  1.1813 -1.2008  1.9644
 4939SOL    HW226277   1.275   3.495   7.636 -0.3094  0.3374  0.5537
 4940SOL     OW26278   0.993   4.397   2.516  0.6299 -0.1051  0.0419
 4940SOL    HW126279   1.088   4.411   2.508  1.0986 -1.2837  3.6969
 4940SOL    HW226280   0.972   4.476   2.564 -0.6285 -0.7538  0.5473
 4941SOL     OW26281   1.926   3.939  17.562 -0.1454 -0.7614 -0.3234
 4941SOL    HW126282   1.839   3.912  17.533  0.8181 -4.3608  0.1968
 4941SOL    HW226283   1.966   3.968  17.480  1.9505  4.1601  2.4409
 4942SOL     OW26284   0.097   3.564   6.522  1.0582  0.2816  0.0455
 4942SOL    HW126285   0.009   3.568   6.484  0.7314  0.3929  0.8138
 4942SOL    HW226286   0.114   3.478   6.560  0.1165 -0.2174 -0.6374
 4943SOL     OW26287   1.452   4.055   7.444  0.5163 -0.3424 -0.5393
 4943SOL    HW126288   1.387   4.033   7.377  0.6395  0.5736 -0.9562
 4943SOL    HW226289   1.529   4.082   7.393  0.8183  0.2391  0.2274
 4944SOL     OW26290   1.220   2.006   9.700 -0.4735 -0.4342 -0.3221
 4944SOL    HW126291   1.137   2.015   9.747 -0.5285  0.7165 -0.6557
 4944SOL    HW226292   1.233   1.915   9.726 -0.8623  0.0117  1.4124
 4945SOL     OW26293   1.423   3.536   4.109 -0.3686 -0.0236  0.0289
 4945SOL    HW126294   1.405   3.510   4.019  1.2197 -0.5331 -0.1279
 4945SOL    HW226295   1.372   3.617   4.114 -1.8994 -0.8931 -1.7255
 4946SOL     OW26296   4.526   1.908   5.151  0.9755 -0.5150 -0.6128
 4946SOL    HW126297   4.431   1.901   5.159  0.8640  0.0601 -1.4486
 4946SOL    HW226298   4.553   1.818   5.135  0.9169 -0.5485 -0.5238
 4947SOL     OW26299   0.969   0.159   2.542 -0.2445 -0.4950 -0.2421
 4947SOL    HW126300   0.947   0.238   2.591  2.7865 -0.8213  1.6591
 4947SOL    HW226301   0.994   0.184   2.453 -0.6710 -0.2684 -0.2993
 4948SOL     OW26302   0.430   3.825   6.164 -0.4048  0.2898 -0.3445
 4948SOL    HW126303   0.382   3.883   6.223 -0.6229 -0.3841  0.1407
 4948SOL    HW226304   0.461   3.898   6.110 -1.9921  1.6994  0.6260
 4949SOL     OW26305   4.240   1.132  10.851 -0.3859 -0.5261  0.2496
 4949SOL    HW126306   4.201   1.215  10.879 -0.1627  0.1450 -1.4201
 4949SOL    HW226307   4.179   1.067  10.886 -0.2773 -0.1966  1.0413
 4950SOL     OW26308   1.514   3.228   9.674 -0.3427  0.5172  0.0412
 4950SOL    HW126309   1.585   3.172   9.705  1.5643  1.6328 -2.2707
 4950SOL    HW226310   1.565   3.293   9.626  1.8351 -0.1326  1.5042
 4951SOL     OW26311   2.106   4.103  15.353 -0.2111  0.4060  0.4163
 4951SOL    HW126312   2.167   4.165  15.392 -1.4851 -0.2414  3.4550
 4951SOL    HW226313   2.029   4.155  15.375 -1.4421 -0.5136 -1.7061
 4952SOL     OW26314   0.298   0.824  16.177  0.5696 -0.2902 -0.1392
 4952SOL    HW126315   0.304   0.775  16.094 -1.4479 -0.8911  0.0802
 4952SOL    HW226316   0.357   0.899  16.170 -0.0169  0.2548  0.8292
 4953SOL     OW26317   4.606   2.539   4.035  0.0152  0.1176  0.1662
 4953SOL    HW126318   4.576   2.603   3.971 -1.3275 -1.8923 -1.2128
 4953SOL    HW226319   4.656   2.485   3.974 -0.3173  0.4600 -0.4085
 4954SOL     OW26320   4.413   2.466   3.725 -0.0845 -0.2794  0.2189
 4954SOL    HW126321   4.433   2.557   3.702 -0.4514 -0.1285  0.5016
 4954SOL    HW226322   4.318   2.470   3.736 -0.3283 -0.6457 -1.8352
 4955SOL     OW26323   1.335   3.917   9.777  0.3416 -0.6728 -0.2299
 4955SOL    HW126324   1.382   3.943   9.698  2.0458 -1.3965  0.5363
 4955SOL    HW226325   1.307   3.827   9.761  0.8732 -1.0957  1.2272
 4956SOL     OW26326   1.074   0.622  11.627  0.6430 -0.5654 -0.3857
 4956SOL    HW126327   1.026   0.668  11.695  0.3185 -0.6101 -0.5852
 4956SOL    HW226328   1.072   0.538  11.671 -0.0854 -0.4549 -0.2217
 4957SOL     OW26329   4.581   0.703   1.227 -0.0641  0.1200  0.0487
 4957SOL    HW126330   4.636   0.625   1.233  3.1134  2.3404  0.1147
 4957SOL    HW226331   4.574   0.733   1.318 -1.3216  1.3457 -0.4462
 4958SOL     OW26332   2.750   4.377  13.209 -0.4400  0.1358  0.0062
 4958SOL    HW126333   2.776   4.446  13.147  0.0043  0.8790  1.0246
 4958SOL    HW226334   2.768   4.426  13.289 -0.4918 -1.0719  0.7522
 4959SOL     OW26335   1.722   2.198  14.079 -0.7922  0.3032 -0.2518
 4959SOL    HW126336   1.683   2.262  14.020 -2.3719 -0.3670  0.0757
 4959SOL    HW226337   1.766   2.249  14.148 -1.4652  1.9072 -1.0292
 4960SOL     OW26338   1.788   4.599  16.344 -0.0794  0.1997 -0.3478
 4960SOL    HW126339   1.714   4.613  16.285 -2.1945 -0.2679  2.2017
 4960SOL    HW226340   1.855   4.556  16.290 -0.5360 -3.5372  2.0796
 4961SOL     OW26341   2.708   2.222   0.984 -0.2421 -0.2262 -0.5586
 4961SOL    HW126342   2.720   2.241   1.077  0.5245  0.8111 -0.8681
 4961SOL    HW226343   2.785   2.267   0.948  0.8672 -1.1761  0.6464
 4962SOL     OW26344   0.116   3.759   8.306  0.0820 -0.0605  0.2293
 4962SOL    HW126345   0.131   3.832   8.246 -0.6965  1.5495  1.9972
 4962SOL    HW226346   0.027   3.784   8.330 -0.2413 -0.6839 -0.3272
 4963SOL     OW26347   1.161   3.056   8.073  0.5839 -0.1911  0.5467
 4963SOL    HW126348   1.122   3.100   8.149 -1.5060 -0.6230 -0.2848
 4963SOL    HW226349   1.129   2.966   8.080  3.9487 -1.3713  0.8037
 4964SOL     OW26350   0.153   1.431   3.059  0.3418 -0.1171 -0.0938
 4964SOL    HW126351   0.228   1.485   3.032  0.1513 -0.7598 -1.9400
 4964SOL    HW226352   0.082   1.495   3.054  1.2845  0.8961 -0.6741
 4965SOL     OW26353   4.452   1.087  11.011 -0.3666  0.4946 -0.4307
 4965SOL    HW126354   4.381   1.113  10.953 -1.6974  1.8404  1.7799
 4965SOL    HW226355   4.417   1.094  11.100 -1.3275 -0.1605 -0.7586
 4966SOL     OW26356   1.506   2.613  10.788  0.1011 -0.9864 -0.2166
 4966SOL    HW126357   1.519   2.578  10.700  0.7719  0.7120 -0.8079
 4966SOL    HW226358   1.411   2.622  10.779  0.2366  0.4069 -0.2533
 4967SOL     OW26359   3.399   3.763   5.173  0.4019 -0.0130  0.5710
 4967SOL    HW126360   3.488   3.746   5.202  0.7139  0.8765  0.1235
 4967SOL    HW226361   3.424   3.815   5.096  1.5612 -1.8033 -0.2487
 4968SOL     OW26362   2.593   0.780   8.439 -0.0419  0.2858  0.4383
 4968SOL    HW126363   2.637   0.695   8.444 -0.1323 -0.0080 -3.7566
 4968SOL    HW226364   2.506   0.758   8.405 -0.0328  0.2195  0.4584
 4969SOL     OW26365   1.180   2.137   3.808 -0.0146 -0.1649  0.6298
 4969SOL    HW126366   1.206   2.202   3.874 -0.0677 -0.3744  0.8560
 4969SOL    HW226367   1.213   2.172   3.725  2.6787  0.7595  2.0923
 4970SOL     OW26368   0.310   0.285  15.127  0.2663  0.0617  0.1196
 4970SOL    HW126369   0.390   0.294  15.179  0.4410  0.4822 -0.2271
 4970SOL    HW226370   0.265   0.369  15.138 -0.4785 -0.0315 -2.2641
 4971SOL     OW26371   1.553   0.885   5.584  0.2719 -0.2974  0.1755
 4971SOL    HW126372   1.489   0.920   5.646  1.6688  1.5600  0.5668
 4971SOL    HW226373   1.503   0.805   5.565  1.4647 -1.6213  2.7068
 4972SOL     OW26374   1.635   3.526   7.672 -0.2782  0.0882 -0.7781
 4972SOL    HW126375   1.670   3.458   7.615 -0.0085  0.3462 -0.9193
 4972SOL    HW226376   1.635   3.610   7.626 -1.5392  1.0829  1.0545
 4973SOL     OW26377   1.199   0.606   3.418  0.4065 -0.2738  0.3370
 4973SOL    HW126378   1.226   0.607   3.326 -3.5359 -0.8372 -0.8473
 4973SOL    HW226379   1.247   0.528   3.446  0.2407  0.2808  2.1354
 4974SOL     OW26380   0.920   0.674   4.148  0.1583  0.1873  0.4403
 4974SOL    HW126381   0.907   0.761   4.110  0.1806  0.1113  0.2627
 4974SOL    HW226382   0.940   0.693   4.240 -0.5578 -0.4873  0.7296
 4975SOL     OW26383   2.373   2.762   6.701  0.1443  0.0438 -0.3891
 4975SOL    HW126384   2.458   2.722   6.681  0.0524 -0.1799 -0.3380
 4975SOL    HW226385   2.317   2.713   6.640  1.3886 -0.4295 -1.1543
 4976SOL     OW26386   4.548   1.041  12.909 -1.1425  0.4803  0.4373
 4976SOL    HW126387   4.501   0.985  12.970 -0.7281 -0.2952  0.0419
 4976SOL    HW226388   4.487   1.043  12.834 -0.0222  2.1382 -0.4192
 4977SOL     OW26389   2.266   3.198  16.272  0.1067  0.1649  0.2607
 4977SOL    HW126390   2.193   3.249  16.237  0.8309  0.7264 -0.4140
 4977SOL    HW226391   2.222   3.128  16.320  2.0542  1.4957  4.0285
 4978SOL     OW26392   0.737   2.204  10.974  0.3312  0.4206 -0.7052
 4978SOL    HW126393   0.796   2.135  11.003 -0.7683 -0.7676 -1.3091
 4978SOL    HW226394   0.787   2.278  11.010 -0.8343 -0.3379  2.4532
 4979SOL     OW26395   0.698   0.522   3.782 -1.1759 -0.4174  0.4962
 4979SOL    HW126396   0.763   0.518   3.712 -1.6883 -1.3082  0.0619
 4979SOL    HW226397   0.660   0.607   3.760 -1.1674 -0.3346  0.7997
 4980SOL     OW26398   2.039   3.303  16.142  0.3118 -0.0433  0.0127
 4980SOL    HW126399   1.946   3.282  16.135  0.5512 -0.8822 -0.7395
 4980SOL    HW226400   2.045   3.352  16.060 -0.1284 -0.6648 -0.3911
 4981SOL     OW26401   1.488   1.192   6.854  0.3387 -0.1829  0.3365
 4981SOL    HW126402   1.395   1.171   6.866  0.5114 -1.9268 -1.4458
 4981SOL    HW226403   1.521   1.124   6.796 -2.7198  0.2750 -1.9223
 4982SOL     OW26404   1.913   2.275   4.324 -0.4151  0.0356  0.1401
 4982SOL    HW126405   1.948   2.286   4.412 -0.8943  1.0037  0.2069
 4982SOL    HW226406   1.820   2.265   4.345  0.0072 -1.5863  1.2300
 4983SOL     OW26407   1.311   4.206   6.388  0.4810  0.3495  0.4366
 4983SOL    HW126408   1.269   4.289   6.414  1.5006 -0.5529  4.9552
 4983SOL    HW226409   1.287   4.148   6.460 -0.9784  2.0434  1.3152
 4984SOL     OW26410   2.416   4.126   0.195 -0.0465 -0.1578  0.3626
 4984SOL    HW126411   2.343   4.094   0.142 -0.4659 -0.1773  0.9540
 4984SOL    HW226412   2.485   4.066   0.165  0.3067  0.2444  0.3685
 4985SOL     OW26413   1.659   1.385   6.808 -0.3145  0.4254 -0.1824
 4985SOL    HW126414   1.731   1.330   6.839 -1.4474 -0.7618  0.3426
 4985SOL    HW226415   1.582   1.343   6.846  0.0317 -1.0761 -1.1565
 4986SOL     OW26416   3.889   1.883  10.353 -0.4398  0.1233 -0.5739
 4986SOL    HW126417   3.878   1.794  10.321 -2.1225 -0.8584  2.7968
 4986SOL    HW226418   3.928   1.917  10.272 -0.3141 -1.0783 -1.0222
 4987SOL     OW26419   2.062   1.196   1.610 -0.7701  1.2955 -0.3401
 4987SOL    HW126420   2.139   1.247   1.582 -0.8576 -0.2544 -3.4498
 4987SOL    HW226421   2.033   1.244   1.687 -3.0386  1.7335 -1.4905
 4988SOL     OW26422   0.500   4.305   5.321  0.9507 -0.4204 -0.1462
 4988SOL    HW126423   0.542   4.272   5.400  1.6605  2.6514  0.7790
 4988SOL    HW226424   0.574   4.320   5.263  0.6289  0.8428 -0.2339
 4989SOL     OW26425   2.373   3.158   8.963  0.1555  0.7466 -0.6938
 4989SOL    HW126426   2.412   3.140   8.877  1.5352 -1.0994  0.3165
 4989SOL    HW226427   2.415   3.242   8.983 -0.5299  0.5716  1.4363
 4990SOL     OW26428   3.408   3.065   2.821 -0.3267 -0.3727  0.1535
 4990SOL    HW126429   3.478   3.094   2.763 -0.7529 -0.7975 -0.5844
 4990SOL    HW226430   3.334   3.060   2.760  1.0007 -2.6782 -1.2505
 4991SOL     OW26431   2.247   2.742  14.207  0.4210  0.1078 -0.4129
 4991SOL    HW126432   2.264   2.764  14.115 -0.6263  2.3772 -0.0388
 4991SOL    HW226433   2.320   2.681  14.219  0.2061 -0.1287 -0.3088
 4992SOL     OW26434   0.547   2.405   3.234 -0.0571 -0.0044  0.2229
 4992SOL    HW126435   0.565   2.341   3.165  1.8180  1.9832 -1.1195
 4992SOL    HW226436   0.545   2.350   3.312 -1.4327 -0.8940 -0.4356
 4993SOL     OW26437   4.630   2.001   5.407  0.5817 -0.3201  0.3629
 4993SOL    HW126438   4.622   1.971   5.316 -1.0276  0.1517  0.3564
 4993SOL    HW226439   4.537   2.005   5.426  0.0806 -1.3833 -1.8541
 4994SOL     OW26440   1.218   3.675   8.585  0.0434  0.0951 -0.3078
 4994SOL    HW126441   1.177   3.718   8.510 -0.4906 -1.5048 -0.9346
 4994SOL    HW226442   1.273   3.745   8.620  0.3502 -0.2973 -0.0201
 4995SOL     OW26443   1.432   0.506   1.000  0.5562 -0.5349 -0.1345
 4995SOL    HW126444   1.367   0.515   1.069  3.2627  1.9999  2.1059
 4995SOL    HW226445   1.507   0.484   1.057  0.3144  0.1568  0.4491
 4996SOL     OW26446   0.574   0.904  13.934 -0.0242 -0.2481 -0.2822
 4996SOL    HW126447   0.517   0.935  13.864 -1.7004 -2.3453  0.1659
 4996SOL    HW226448   0.623   0.833  13.893  1.6010  0.3106  0.6885
 4997SOL     OW26449   3.948   1.924  12.187  0.0122 -0.1757 -0.0287
 4997SOL    HW126450   4.021   1.865  12.172 -0.3728 -0.1115 -2.0501
 4997SOL    HW226451   3.975   1.993  12.248  2.3551 -2.4663  1.4926
 4998SOL     OW26452   2.846   4.396   7.339 -0.1644  0.2018  0.1172
 4998SOL    HW126453   2.872   4.356   7.422  1.2635  1.2808  0.1873
 4998SOL    HW226454   2.900   4.365   7.266 -1.6513 -2.4960  0.1450
 4999SOL     OW26455   3.552   0.553   9.838 -0.1205 -0.0032 -0.6433
 4999SOL    HW126456   3.474   0.603   9.816 -0.3576  0.2670  0.8370
 4999SOL    HW226457   3.549   0.481   9.774 -0.3840 -0.2928 -0.3076
 5000SOL     OW26458   3.886   3.453  16.321  0.5719  0.2114  0.5697
 5000SOL    HW126459   3.969   3.496  16.342  0.4712 -0.2788  1.9719
 5000SOL    HW226460   3.910   3.389  16.254 -1.5650  1.0892 -1.0244
 5001SOL     OW26461   2.247   4.483   7.854  0.2922  0.1756 -0.7497
 5001SOL    HW126462   2.180   4.506   7.790 -1.8360 -0.5747  1.1975
 5001SOL    HW226463   2.318   4.526   7.806 -0.9587 -0.1046 -2.8554
 5002SOL     OW26464   4.272   0.269   7.206  0.1268 -0.2573  0.5698
 5002SOL    HW126465   4.362   0.238   7.213  0.0868 -0.1183  1.6678
 5002SOL    HW226466   4.233   0.191   7.165 -0.6188 -0.1549  1.0832
 5003SOL     OW26467   0.532   0.348  12.226  0.2302  0.3826  0.0590
 5003SOL    HW126468   0.613   0.387  12.193  0.8746 -2.3297 -1.5916
 5003SOL    HW226469   0.553   0.255  12.214  0.8442  0.4267  0.7870
 5004SOL     OW26470   3.221   2.832   2.451  0.2956  0.0979 -0.1028
 5004SOL    HW126471   3.230   2.738   2.463 -4.2892 -0.4685 -1.0388
 5004SOL    HW226472   3.300   2.842   2.399  0.6987 -1.4201  0.2255
 5005SOL     OW26473   3.127   4.344  15.927  0.4786  0.2548 -0.5500
 5005SOL    HW126474   3.165   4.261  15.896 -0.5006 -1.8506  3.9625
 5005SOL    HW226475   3.068   4.353  15.852 -0.1852 -0.3001 -0.0987
 5006SOL     OW26476   2.450   4.565   3.430 -0.4579  0.1245 -0.3169
 5006SOL    HW126477   2.481   4.647   3.469 -0.7521 -0.3013  0.8390
 5006SOL    HW226478   2.524   4.508   3.450  0.0528  0.7178 -0.5284
 5007SOL     OW26479   4.218   0.831  15.331 -0.3437 -0.0883 -0.6298
 5007SOL    HW126480   4.208   0.922  15.359 -1.4870 -0.6571  0.8269
 5007SOL    HW226481   4.133   0.798  15.363 -0.5582 -0.0502 -1.1616
 5008SOL     OW26482   2.738   0.030  13.131 -0.7352  0.3807  0.9348
 5008SOL    HW126483   2.646   0.009  13.115  0.0738 -2.2159 -0.2374
 5008SOL    HW226484   2.737   0.009  13.224  0.9486 -0.0382  0.8531
 5009SOL     OW26485   4.519   3.772   0.525  0.0922 -0.5974  0.5666
 5009SOL    HW126486   4.602   3.744   0.486 -0.6783  0.3610 -1.7711
 5009SOL    HW226487   4.480   3.691   0.557  0.3767 -0.8080  0.3865
 5010SOL     OW26488   4.279   4.675  10.650 -0.1037 -0.1783 -0.0518
 5010SOL    HW126489   4.209   0.014  10.665  1.0209  1.6198 -2.4984
 5010SOL    HW226490   4.331   4.677  10.730  0.5414 -1.2164 -0.4542
 5011SOL     OW26491   0.001   0.751  10.249 -0.5297 -0.1053 -0.2253
 5011SOL    HW126492   0.001   0.797  10.165  0.7246 -0.2458 -0.3008
 5011SOL    HW226493   4.721   0.663  10.213 -0.4796 -0.3135  0.2783
 5012SOL     OW26494   1.252   1.457   6.759 -0.2633  0.9524 -0.3857
 5012SOL    HW126495   1.333   1.506   6.773  0.3372 -0.0482 -0.4326
 5012SOL    HW226496   1.283   1.384   6.706  1.0038  0.2429  1.3753
 5013SOL     OW26497   0.691   0.634   7.858 -0.5980  0.3871 -0.1512
 5013SOL    HW126498   0.598   0.644   7.837 -1.1478 -1.1425  1.4893
 5013SOL    HW226499   0.730   0.631   7.771  2.2773  2.4288  1.0589
 5014SOL     OW26500   0.843   1.642   4.205  0.3989  0.2454 -0.3291
 5014SOL    HW126501   0.938   1.645   4.209  0.4969 -2.8298 -0.5370
 5014SOL    HW226502   0.817   1.609   4.291 -2.3511  2.4474 -0.3100
 5015SOL     OW26503   0.097   3.311  10.726 -0.5202  0.7254  1.0320
 5015SOL    HW126504   0.191   3.294  10.726 -0.6856 -0.1338 -0.8860
 5015SOL    HW226505   0.077   3.262  10.646 -0.6872 -0.9439  2.0901
 5016SOL     OW26506   1.141   3.501  10.352 -0.1497 -0.4860 -0.0857
 5016SOL    HW126507   1.158   3.592  10.327  0.8650 -0.5502  0.3491
 5016SOL    HW226508   1.133   3.516  10.446  0.9142  0.0670 -0.0778
 5017SOL     OW26509   2.170   3.379  17.336  0.1712  0.8498  0.1634
 5017SOL    HW126510   2.258   3.375  17.372  0.6169  0.4707 -0.9477
 5017SOL    HW226511   2.161   3.462  17.288  2.3515  2.0036  1.7846
 5018SOL     OW26512   0.879   4.440   2.965 -0.0472 -0.9277  0.2738
 5018SOL    HW126513   0.936   4.517   2.961 -0.8610 -0.3035  0.6120
 5018SOL    HW226514   0.944   4.371   2.977  0.4983 -0.0524  2.4447
 5019SOL     OW26515   0.738   1.916   7.331 -0.5127  0.0772  0.1187
 5019SOL    HW126516   0.781   1.986   7.380  0.6432 -0.0608 -0.6890
 5019SOL    HW226517   0.649   1.923   7.366 -0.4823 -0.9250  0.3846
 5020SOL     OW26518   2.731   1.820   3.444 -1.0906  0.2347  0.0201
 5020SOL    HW126519   2.731   1.902   3.492 -0.4643 -0.5910  1.4444
 5020SOL    HW226520   2.779   1.853   3.369  0.4275 -0.8570  0.5159
 5021SOL     OW26521   3.312   2.040   1.526 -0.4848 -0.0894 -0.9694
 5021SOL    HW126522   3.360   2.030   1.608 -2.5961  1.7407  0.5059
 5021SOL    HW226523   3.365   1.987   1.466 -0.7680  0.1031 -1.3979
 5022SOL     OW26524   3.283   4.725   6.302 -0.3115  0.0512  0.1731
 5022SOL    HW126525   3.222   0.048   6.247  0.2854  1.1169  0.4497
 5022SOL    HW226526   3.260   4.636   6.276  3.0406 -1.3118  1.9299
 5023SOL     OW26527   2.793   4.457  15.344 -0.2629 -0.0894 -0.5400
 5023SOL    HW126528   2.749   4.372  15.343 -0.2598 -0.0786 -1.5048
 5023SOL    HW226529   2.880   4.425  15.319  0.2729  0.0034  1.1653
 5024SOL     OW26530   4.529   2.094   3.429 -0.9475  0.0434 -0.4290
 5024SOL    HW126531   4.570   2.134   3.506 -0.4544 -0.7211 -0.2909
 5024SOL    HW226532   4.562   2.005   3.441 -2.8690 -0.6507 -0.2756
 5025SOL     OW26533   2.161   3.378   6.066  0.6083 -0.6538  0.4674
 5025SOL    HW126534   2.189   3.395   6.157 -1.7756 -2.8446  1.6132
 5025SOL    HW226535   2.176   3.466   6.032 -1.9310 -0.3026  0.2694
 5026SOL     OW26536   4.293   1.930   7.244 -0.7517  0.1911  0.3536
 5026SOL    HW126537   4.319   2.021   7.256 -0.5569  0.5240 -2.6944
 5026SOL    HW226538   4.205   1.938   7.281 -0.2008  0.6096  1.5769
 5027SOL     OW26539   2.056   3.474  13.118  0.3043  0.5251  0.2371
 5027SOL    HW126540   1.992   3.455  13.186 -0.4472 -1.4637 -1.0099
 5027SOL    HW226541   2.132   3.501  13.170 -0.0540  1.3783  0.3229
 5028SOL     OW26542   3.449   1.376   4.252  0.1733 -0.4020  0.0350
 5028SOL    HW126543   3.501   1.296   4.240  1.6616  0.9318 -2.3634
 5028SOL    HW226544   3.485   1.419   4.175 -0.8000 -2.0932 -1.3809
 5029SOL     OW26545   3.975   3.767   1.555  0.0447 -0.0055 -0.6939
 5029SOL    HW126546   3.905   3.724   1.506  1.6307 -2.4723 -0.8178
 5029SOL    HW226547   4.036   3.775   1.481  1.2403 -0.4493  0.2485
 5030SOL     OW26548   4.664   4.606   2.989 -0.2062  0.3747  0.2511
 5030SOL    HW126549   4.638   4.662   2.915  0.0086  0.7235  0.4371
 5030SOL    HW226550   0.015   4.557   2.960 -0.3082  0.4459 -0.1326
 5031SOL     OW26551   1.032   3.768   8.836 -0.1651  0.6895  0.1805
 5031SOL    HW126552   1.089   3.809   8.900 -2.0767  1.9003  1.1148
 5031SOL    HW226553   1.054   3.823   8.761  0.3417 -0.3296 -0.4286
 5032SOL     OW26554   0.664   2.414   1.954  0.0303  0.1215  0.1583
 5032SOL    HW126555   0.719   2.474   2.004 -0.8785  0.2076  1.0569
 5032SOL    HW226556   0.620   2.371   2.028 -1.6211 -0.5243 -1.2034
 5033SOL     OW26557   3.728   4.501   0.057  0.1213  0.0872  0.3502
 5033SOL    HW126558   3.731   4.597   0.064 -0.6248  0.0757  0.8517
 5033SOL    HW226559   3.634   4.493   0.041 -0.0148  3.4775 -0.5090
 5034SOL     OW26560   0.062   1.636  17.144  0.1833 -0.3215 -0.6049
 5034SOL    HW126561   0.024   1.724  17.146 -0.8566 -0.7616 -0.7322
 5034SOL    HW226562   0.010   1.611  17.067  2.1057  2.0009 -2.6300
 5035SOL     OW26563   1.317   0.721   4.988  0.1451 -0.3369  0.5908
 5035SOL    HW126564   1.379   0.660   5.028 -0.4281 -1.9460 -0.9728
 5035SOL    HW226565   1.267   0.658   4.936 -0.2117  0.6102 -0.2021
 5036SOL     OW26566   3.859   1.160  16.463 -0.2201 -0.1908 -0.2038
 5036SOL    HW126567   3.889   1.102  16.393 -0.8381 -1.2777  0.4399
 5036SOL    HW226568   3.934   1.162  16.523 -0.4216  4.3734 -0.0890
 5037SOL     OW26569   2.894   3.560   7.665  0.0862  0.6950  0.0601
 5037SOL    HW126570   2.916   3.469   7.644 -0.1180  0.6966 -0.1589
 5037SOL    HW226571   2.801   3.559   7.687 -0.1784  0.5566 -1.0571
 5038SOL     OW26572   3.833   2.368   2.128 -0.3397  0.2784 -0.0789
 5038SOL    HW126573   3.920   2.384   2.091 -1.2715 -0.1954 -2.5084
 5038SOL    HW226574   3.786   2.346   2.047 -0.4588  0.4141 -0.0451
 5039SOL     OW26575   1.019   2.588   6.254 -0.1015  0.3895  0.3344
 5039SOL    HW126576   0.950   2.636   6.209 -0.5395  0.1742  0.7668
 5039SOL    HW226577   1.010   2.505   6.206  2.7860  0.5361 -0.4805
 5040SOL     OW26578   1.235   4.338   4.849 -0.9318 -0.0703 -1.1356
 5040SOL    HW126579   1.140   4.349   4.843 -0.9185 -0.0394 -1.2928
 5040SOL    HW226580   1.261   4.431   4.851 -2.0226  0.2800 -2.9095
 5041SOL     OW26581   3.544   3.336  14.741 -0.5053  0.4689  0.0780
 5041SOL    HW126582   3.585   3.369  14.821 -0.7136  1.7086 -0.3276
 5041SOL    HW226583   3.619   3.330  14.682  1.5343  0.6275  2.6706
 5042SOL     OW26584   0.988   2.101   3.350 -0.1423 -0.1602  0.1725
 5042SOL    HW126585   0.977   2.175   3.410  2.5682  0.4845 -0.1528
 5042SOL    HW226586   0.932   2.128   3.277  0.3263 -0.9069 -0.4572
 5043SOL     OW26587   1.750   1.812   6.048 -0.6613 -0.2936  0.0009
 5043SOL    HW126588   1.690   1.783   5.980 -0.8018 -2.5189  1.0688
 5043SOL    HW226589   1.694   1.818   6.126  0.1215 -0.3782  0.5754
 5044SOL     OW26590   4.628   0.204   6.853  0.1150 -0.2143 -0.0093
 5044SOL    HW126591   4.606   0.291   6.819  0.7354  0.7396  1.9978
 5044SOL    HW226592   4.643   0.157   6.771  3.3120  0.6870  0.0797
 5045SOL     OW26593   0.479   2.925   4.230  0.0291 -0.0414 -0.3187
 5045SOL    HW126594   0.489   2.834   4.203  0.5466 -0.1614  0.3038
 5045SOL    HW226595   0.385   2.940   4.223  0.2487  0.0396 -3.4234
 5046SOL     OW26596   2.543   3.616   5.830  0.1554 -0.1306  0.2175
 5046SOL    HW126597   2.511   3.532   5.798 -0.3045  0.2525 -0.3354
 5046SOL    HW226598   2.570   3.587   5.917 -1.9126 -1.1766  0.5175
 5047SOL     OW26599   2.675   0.434  15.062  0.3276 -0.0123  0.3216
 5047SOL    HW126600   2.622   0.422  15.141 -2.2680 -0.9751 -1.5716
 5047SOL    HW226601   2.670   0.347  15.023 -0.3840  1.1677 -2.2156
 5048SOL     OW26602   2.765   4.264   1.679  0.1644 -0.1303  0.0787
 5048SOL    HW126603   2.701   4.284   1.746  1.3760  0.6058  1.0191
 5048SOL    HW226604   2.710   4.265   1.601 -0.5024  0.0055  0.5549
 5049SOL     OW26605   1.067   0.748   5.409  0.2180  0.3287 -0.0288
 5049SOL    HW126606   1.076   0.840   5.434 -0.6489 -0.0970  1.9047
 5049SOL    HW226607   0.983   0.755   5.364  0.6009 -0.3621 -0.8473
 5050SOL     OW26608   2.844   3.419   5.169 -0.1088  0.3983  0.2345
 5050SOL    HW126609   2.899   3.494   5.148  0.1292  0.1106 -0.1785
 5050SOL    HW226610   2.818   3.401   5.078 -0.6502  4.2603 -0.3838
 5051SOL     OW26611   0.403   0.922   1.162  0.1904  0.1735  0.3898
 5051SOL    HW126612   0.390   0.830   1.184 -0.8095  0.2683  0.2115
 5051SOL    HW226613   0.453   0.958   1.235 -0.5136 -1.3610  1.6202
 5052SOL     OW26614   0.201   1.751   5.013  0.1737 -0.5156  0.2645
 5052SOL    HW126615   0.198   1.813   4.939  1.1840 -0.9751 -0.1625
 5052SOL    HW226616   0.177   1.805   5.088 -0.1429  0.7831 -0.7537
 5053SOL     OW26617   2.421   2.315   2.516 -0.7543  0.2413  0.0597
 5053SOL    HW126618   2.506   2.354   2.495  0.9107 -2.9976  0.7951
 5053SOL    HW226619   2.447   2.223   2.525 -0.0481  0.2489 -1.8416
 5054SOL     OW26620   2.712   3.064   8.285  0.1278  0.3055  0.4066
 5054SOL    HW126621   2.727   3.133   8.221  1.5053  0.4936  0.9344
 5054SOL    HW226622   2.798   3.067   8.326  0.1906 -0.9077  0.3499
 5055SOL     OW26623   4.278   1.204   4.006  0.4988  0.7465  0.1081
 5055SOL    HW126624   4.197   1.243   4.040  0.8774  0.0925  1.7551
 5055SOL    HW226625   4.266   1.109   4.008  0.7149  0.7666  2.4491
 5056SOL     OW26626   4.331   2.774   3.994 -0.9381  0.2120  0.1586
 5056SOL    HW126627   4.307   2.686   4.023  1.8319 -0.5435  0.1958
 5056SOL    HW226628   4.396   2.749   3.928  1.6970 -0.8682  3.1479
 5057SOL     OW26629   1.028   4.564  14.979  0.3590  0.0069 -0.4587
 5057SOL    HW126630   0.953   4.584  15.035  2.3379  0.5889  1.9572
 5057SOL    HW226631   1.097   4.539  15.040 -2.2219 -2.0617  1.6013
 5058SOL     OW26632   2.619   3.621   3.404  0.2833 -0.1603  0.3726
 5058SOL    HW126633   2.714   3.632   3.400  0.1937  0.3200 -0.2939
 5058SOL    HW226634   2.605   3.558   3.334  1.6359  0.4308 -0.4469
 5059SOL     OW26635   0.830   2.092   7.520 -0.1573  0.2169 -0.1670
 5059SOL    HW126636   0.817   2.062   7.610  0.7444  0.8763  0.1926
 5059SOL    HW226637   0.778   2.173   7.521  0.4583  0.5969  1.2586
 5060SOL     OW26638   2.938   3.155   9.428 -0.2321 -0.3599 -0.1192
 5060SOL    HW126639   2.989   3.113   9.497  0.7464  4.3237  1.9466
 5060SOL    HW226640   2.872   3.086   9.420  0.4624 -0.9539 -0.8872
 5061SOL     OW26641   0.766   1.984   4.928  0.0042  0.1010 -0.2058
 5061SOL    HW126642   0.835   2.050   4.932  0.0668  0.0580 -0.5699
 5061SOL    HW226643   0.802   1.906   4.970 -0.1738 -0.0294 -0.2925
 5062SOL     OW26644   4.003   1.672  11.107 -0.1425 -0.3874 -0.8524
 5062SOL    HW126645   4.099   1.676  11.113 -0.1665  0.9305 -1.4338
 5062SOL    HW226646   3.982   1.696  11.197  2.4680  0.4158 -0.4479
 5063SOL     OW26647   3.196   1.200   7.574 -0.2659  0.1507 -0.2794
 5063SOL    HW126648   3.109   1.187   7.535 -0.5190  1.4610 -0.1704
 5063SOL    HW226649   3.255   1.128   7.551 -1.2365 -0.6623 -0.2188
 5064SOL     OW26650   3.584   1.782  16.954 -0.3066 -0.4570  0.4657
 5064SOL    HW126651   3.639   1.856  16.980 -0.2692 -0.5351  0.6067
 5064SOL    HW226652   3.565   1.757  17.044 -0.5139  0.8509  0.7818
 5065SOL     OW26653   2.970   0.026   4.000 -0.5034 -0.2618  0.1112
 5065SOL    HW126654   3.025   0.038   3.923 -1.2069  0.4718 -0.2861
 5065SOL    HW226655   2.995   0.102   4.052  0.0690  0.6004 -1.4543
 5066SOL     OW26656   2.848   4.412   6.665  0.5014 -0.1964  0.3294
 5066SOL    HW126657   2.822   4.461   6.743  1.5908  1.6033 -0.4572
 5066SOL    HW226658   2.766   4.418   6.616 -0.2388 -1.9269  1.3589
 5067SOL     OW26659   4.129   3.441   4.248 -0.0442  0.2373  0.2522
 5067SOL    HW126660   4.127   3.402   4.160  1.0404  0.5029  0.1005
 5067SOL    HW226661   4.048   3.413   4.290 -1.6760  0.6895 -2.6214
 5068SOL     OW26662   0.108   2.312   5.699 -0.0276  0.0578  0.1438
 5068SOL    HW126663   0.132   2.247   5.633 -0.6338 -0.3893  0.3648
 5068SOL    HW226664   0.140   2.391   5.655 -0.2081 -0.3204 -0.6726
 5069SOL     OW26665   2.256   2.311  15.434 -0.1439 -0.0581 -0.6066
 5069SOL    HW126666   2.222   2.223  15.445  1.4886 -0.5324  0.6394
 5069SOL    HW226667   2.292   2.323  15.522 -0.9165  1.4626 -0.4869
 5070SOL     OW26668   3.955   4.602   2.349 -0.1814  0.3222  0.0389
 5070SOL    HW126669   3.970   4.515   2.386 -1.9917 -0.5723 -1.3669
 5070SOL    HW226670   4.032   4.623   2.296  1.9738 -2.4506  2.0430
 5071SOL     OW26671   2.280   3.313   6.546 -0.3159 -0.0461 -0.0869
 5071SOL    HW126672   2.206   3.294   6.603 -0.7331  0.2085 -0.5348
 5071SOL    HW226673   2.337   3.238   6.563 -1.1035 -0.0440  2.5172
 5072SOL     OW26674   0.490   1.226   1.214 -0.0618  0.0561  0.7014
 5072SOL    HW126675   0.536   1.177   1.145 -2.1429 -0.1988 -0.4911
 5072SOL    HW226676   0.455   1.154   1.267 -0.4647 -0.4654 -0.2556
 5073SOL     OW26677   2.627   3.483  12.369  0.0698  0.8577  0.7345
 5073SOL    HW126678   2.623   3.577  12.350 -1.6994  0.2194 -2.0770
 5073SOL    HW226679   2.704   3.450  12.323 -1.1021  2.6435 -2.5498
 5074SOL     OW26680   3.594   2.169   1.733 -0.3991  0.2877 -0.0658
 5074SOL    HW126681   3.553   2.093   1.774  0.7894 -1.5179 -2.2836
 5074SOL    HW226682   3.683   2.134   1.729  0.2708  1.8211  1.2114
 5075SOL     OW26683   1.545   3.115  16.270 -0.1583  0.7168  0.0969
 5075SOL    HW126684   1.514   3.181  16.208 -1.0659 -0.2543 -0.4920
 5075SOL    HW226685   1.626   3.155  16.301 -0.0989  0.4597  0.2773
 5076SOL     OW26686   3.510   2.113  15.758  0.2118 -0.0944  0.1031
 5076SOL    HW126687   3.448   2.180  15.730  0.6627 -0.0057 -0.7005
 5076SOL    HW226688   3.516   2.125  15.853  1.2261 -1.4437  0.2169
 5077SOL     OW26689   3.747   1.418  13.305 -0.0015  0.2115  0.3176
 5077SOL    HW126690   3.813   1.484  13.282  1.1956 -0.3785  2.0019
 5077SOL    HW226691   3.800   1.338  13.306  0.0530  0.2664  2.4806
 5078SOL     OW26692   0.719   1.123  15.407 -0.2516  0.3350  0.2197
 5078SOL    HW126693   0.804   1.112  15.363  0.0262  1.9263  0.3599
 5078SOL    HW226694   0.718   1.217  15.425 -0.6356  0.1799  1.0001
 5079SOL     OW26695   3.578   1.991   0.295  0.1078  0.0348 -0.0548
 5079SOL    HW126696   3.565   2.071   0.244  0.7042  0.1365 -0.0523
 5079SOL    HW226697   3.524   2.003   0.372 -0.0688 -2.1108  0.1412
 5080SOL     OW26698   1.023   4.643   7.709  0.4709  0.3640  0.5534
 5080SOL    HW126699   1.096   4.637   7.648 -0.4945  1.1293 -0.6905
 5080SOL    HW226700   1.016   0.013   7.714 -0.7964  0.1914  2.0453
 5081SOL     OW26701   1.520   2.445   3.304  0.2380 -0.1668 -0.2845
 5081SOL    HW126702   1.537   2.401   3.220  3.9453  2.1930 -0.7747
 5081SOL    HW226703   1.566   2.401   3.375  0.8351  0.6971 -0.1325
 5082SOL     OW26704   0.058   0.032   7.428 -0.2029 -0.1142 -0.6234
 5082SOL    HW126705   0.034   0.035   7.335 -0.7426 -0.0347 -0.4841
 5082SOL    HW226706   4.711   0.076   7.472 -1.8456  1.5940 -5.0318
 5083SOL     OW26707   0.525   2.094   5.592 -0.0959 -0.3719  0.2727
 5083SOL    HW126708   0.517   2.051   5.507 -0.7875 -0.4656  0.3887
 5083SOL    HW226709   0.452   2.062   5.645 -1.7497  2.2538 -0.4087
 5084SOL     OW26710   2.657   4.358   7.954 -0.2472 -0.4391 -0.6212
 5084SOL    HW126711   2.610   4.441   7.952 -0.1328 -0.4018 -1.5653
 5084SOL    HW226712   2.706   4.347   8.036  1.7842  0.9404 -1.6300
 5085SOL     OW26713   3.764   1.483   3.361 -0.4687 -0.9206  0.5602
 5085SOL    HW126714   3.711   1.540   3.305  0.8417 -0.6879 -0.4299
 5085SOL    HW226715   3.790   1.411   3.303 -0.5281 -0.4191 -0.0899
 5086SOL     OW26716   4.175   2.329   4.513 -0.0668 -0.0571 -0.0324
 5086SOL    HW126717   4.118   2.274   4.460  0.0802  0.8068 -1.0856
 5086SOL    HW226718   4.147   2.417   4.487 -0.6708 -0.3521 -0.3811
 5087SOL     OW26719   3.884   1.697  14.395 -0.8736  0.1865 -0.2128
 5087SOL    HW126720   3.936   1.726  14.321  2.2111 -1.9427  1.1360
 5087SOL    HW226721   3.829   1.775  14.397 -1.1517 -0.0163  0.2761
 5088SOL     OW26722   3.739   0.527   7.939 -0.4849  0.4038  0.1878
 5088SOL    HW126723   3.812   0.577   7.902 -0.5794  0.4045  0.0033
 5088SOL    HW226724   3.775   0.485   8.017  2.2710 -0.9600 -1.8245
 5089SOL     OW26725   3.448   2.968   5.067 -0.2599  0.0620 -0.1609
 5089SOL    HW126726   3.490   3.037   5.120  0.3729  0.5376 -1.2759
 5089SOL    HW226727   3.433   2.900   5.133 -0.0807 -0.5131 -0.7170
 5090SOL     OW26728   2.229   1.886   8.051  0.3900 -0.5953  0.2138
 5090SOL    HW126729   2.170   1.913   7.981  0.2910 -1.0020  0.1436
 5090SOL    HW226730   2.286   1.960   8.074 -2.2907  1.1046  1.4587
 5091SOL     OW26731   2.523   4.063  17.575  0.1858 -0.2990 -0.2621
 5091SOL    HW126732   2.527   4.142  17.629 -1.4618  0.9623 -2.0124
 5091SOL    HW226733   2.436   4.074  17.537 -1.0152 -1.1048  2.2037
 5092SOL     OW26734   0.947   0.032   5.724  0.7749  0.1945  0.2909
 5092SOL    HW126735   0.971   0.123   5.703  0.2999  0.2507  0.0016
 5092SOL    HW226736   0.926   0.053   5.815  0.3692  0.9757  0.0177
 5093SOL     OW26737   3.094   2.740   3.170  0.2779  0.2159  0.4521
 5093SOL    HW126738   3.149   2.819   3.177 -0.5570  0.9699 -1.4194
 5093SOL    HW226739   3.046   2.752   3.088  0.2389  0.6476  0.5340
 5094SOL     OW26740   3.875   2.008   1.231 -0.0639  0.7183  0.6722
 5094SOL    HW126741   3.932   1.990   1.306  1.9348 -1.5552 -1.4104
 5094SOL    HW226742   3.832   2.083   1.272 -0.8326 -0.2540  1.6553
 5095SOL     OW26743   3.570   2.483  16.073 -0.2289 -0.2948 -0.1767
 5095SOL    HW126744   3.633   2.521  16.135  1.5233 -0.0502 -2.1190
 5095SOL    HW226745   3.612   2.501  15.990  0.8060 -0.1042  0.3917
 5096SOL     OW26746   1.849   3.662   3.759  0.1468  0.2922  0.2757
 5096SOL    HW126747   1.797   3.732   3.719 -1.1123  0.7276  2.7108
 5096SOL    HW226748   1.777   3.611   3.797  1.3932 -1.1254  0.7278
 5097SOL     OW26749   1.438   0.771  10.147  0.0456  0.0090 -0.2712
 5097SOL    HW126750   1.461   0.702  10.084 -1.0511 -1.2856  0.7551
 5097SOL    HW226751   1.517   0.824  10.149 -0.8560  1.3497 -0.3094
 5098SOL     OW26752   1.517   1.804   7.613  0.1373 -0.4612  0.1520
 5098SOL    HW126753   1.538   1.710   7.616 -1.1602 -0.7242  1.0456
 5098SOL    HW226754   1.505   1.821   7.706  1.2381 -1.9903  0.5811
 5099SOL     OW26755   0.313   0.215   8.492 -0.6914 -0.2743 -0.0196
 5099SOL    HW126756   0.336   0.241   8.403  0.6812  0.1636  0.4562
 5099SOL    HW226757   0.392   0.255   8.530 -0.9480  0.2294 -0.0208
 5100SOL     OW26758   1.006   0.858  12.142 -0.6973 -0.2495 -0.4342
 5100SOL    HW126759   0.963   0.943  12.136 -0.0528  0.1071 -0.0185
 5100SOL    HW226760   1.093   0.895  12.157 -0.8057  0.2889 -1.1225
 5101SOL     OW26761   3.457   4.663  16.343  0.4453  0.5698 -0.6472
 5101SOL    HW126762   3.449   4.611  16.263 -1.1534 -1.9202  1.1533
 5101SOL    HW226763   3.493   0.017  16.303  0.1067  2.5966  3.0748
 5102SOL     OW26764   4.640   1.969   6.574  0.5199 -0.6839 -0.0903
 5102SOL    HW126765   0.009   1.956   6.583  0.0474 -4.1618 -0.2106
 5102SOL    HW226766   4.636   2.055   6.532  2.1334 -0.6366 -0.1658
 5103SOL     OW26767   4.369   3.347   7.928 -0.8135  0.4149  0.3922
 5103SOL    HW126768   4.279   3.368   7.954 -1.8257 -1.1576 -1.8202
 5103SOL    HW226769   4.413   3.343   8.013 -0.9947  0.9284  0.5135
 5104SOL     OW26770   0.625   4.092  14.557  0.0558 -0.1454  0.2339
 5104SOL    HW126771   0.665   4.090  14.470  1.4900 -1.6904  0.9268
 5104SOL    HW226772   0.598   4.184  14.564  0.7854  0.1315 -0.4592
 5105SOL     OW26773   4.279   1.389   6.637  0.3625  0.2035 -0.5001
 5105SOL    HW126774   4.258   1.463   6.580 -0.0841  0.6816  0.2923
 5105SOL    HW226775   4.257   1.317   6.578 -1.3473  2.3166 -2.4464
 5106SOL     OW26776   2.974   1.340   6.693 -0.2292 -0.1987  0.0808
 5106SOL    HW126777   2.949   1.386   6.774 -2.2181 -0.0267 -0.6111
 5106SOL    HW226778   2.892   1.334   6.643 -1.7908  1.3901  2.3996
 5107SOL     OW26779   2.491   4.219   4.077 -0.1282 -0.1108  0.5550
 5107SOL    HW126780   2.583   4.245   4.078  0.3360 -1.6088 -1.0335
 5107SOL    HW226781   2.492   4.170   3.994 -1.1703  0.6105  0.1087
 5108SOL     OW26782   4.414   3.173  11.570 -0.1475 -0.3207 -0.1088
 5108SOL    HW126783   4.443   3.255  11.529 -1.1837 -0.4698 -1.1500
 5108SOL    HW226784   4.324   3.170  11.536  0.1544  1.2527 -1.0648
 5109SOL     OW26785   0.088   4.317   9.844  0.2845  0.3734 -0.3190
 5109SOL    HW126786   0.125   4.334   9.930  0.2749 -1.2327  0.0181
 5109SOL    HW226787   0.030   4.393   9.843 -1.8325 -1.2544 -4.0933
 5110SOL     OW26788   4.632   2.399   2.824 -0.1951 -0.3115 -0.0487
 5110SOL    HW126789   4.646   2.337   2.752  1.4790  2.5493 -2.1980
 5110SOL    HW226790   4.590   2.343   2.890 -1.9148  2.1207  0.9011
 5111SOL     OW26791   3.965   4.337  16.223  0.5215  0.0883  0.2686
 5111SOL    HW126792   3.960   4.410  16.284  1.1398  1.4508 -1.3137
 5111SOL    HW226793   4.023   4.373  16.156  2.2981  1.2053  2.4377
 5112SOL     OW26794   4.463   2.330  10.336  0.1725  0.4959 -0.1318
 5112SOL    HW126795   4.476   2.285  10.253  0.8962  2.2341 -0.9442
 5112SOL    HW226796   4.503   2.415  10.321  0.1600  0.6202  0.5450
 5113SOL     OW26797   1.813   3.840   8.925 -0.0067  0.1761  0.1128
 5113SOL    HW126798   1.894   3.890   8.933  0.4732 -0.9259  2.2458
 5113SOL    HW226799   1.759   3.910   8.888  0.1136  0.7426  1.0082
 5114SOL     OW26800   3.539   3.596  14.909  0.1401 -0.0477 -0.3467
 5114SOL    HW126801   3.625   3.600  14.953  0.4262 -1.4012 -0.7859
 5114SOL    HW226802   3.573   3.598  14.820  0.1237  1.0586 -0.3214
 5115SOL     OW26803   1.750   2.483   9.946  0.3840  0.2093 -0.2122
 5115SOL    HW126804   1.724   2.479  10.038  0.0686  2.8420 -0.1831
 5115SOL    HW226805   1.747   2.388   9.942  1.2720  0.1509  0.5562
 5116SOL     OW26806   4.183   3.491   4.896 -0.1159  0.4150 -0.5311
 5116SOL    HW126807   4.252   3.557   4.905 -0.4343  0.7118 -0.2247
 5116SOL    HW226808   4.111   3.538   4.939  1.4131  1.5743  0.7493
 5117SOL     OW26809   1.305   0.165   2.127  0.0094  0.1858 -0.1605
 5117SOL    HW126810   1.322   0.072   2.119  1.1390  0.5570 -2.0709
 5117SOL    HW226811   1.394   0.199   2.141  1.3594 -3.9075  1.1528
 5118SOL     OW26812   3.284   4.378  14.012  1.1443  0.4709  0.1794
 5118SOL    HW126813   3.301   4.332  14.094 -1.7909  1.3993  1.3251
 5118SOL    HW226814   3.301   4.306  13.950 -0.3884  0.0511  0.2427
 5119SOL     OW26815   1.341   1.494   3.048 -0.6076 -0.2089  0.2962
 5119SOL    HW126816   1.360   1.502   3.141  1.3897 -0.8479 -0.0655
 5119SOL    HW226817   1.288   1.574   3.050  0.7405  0.6470  1.5917
 5120SOL     OW26818   0.607   1.800   2.267 -0.2293  0.3618 -0.2914
 5120SOL    HW126819   0.565   1.745   2.200  0.1937  1.3964 -1.4105
 5120SOL    HW226820   0.584   1.888   2.238  0.6482  0.8978  0.6338
 5121SOL     OW26821   0.908   3.837  11.297 -0.2952  0.3826  0.3004
 5121SOL    HW126822   0.998   3.857  11.323 -0.6907  0.0307  1.8855
 5121SOL    HW226823   0.887   3.886  11.217  3.2482  0.4334 -0.5923
 5122SOL     OW26824   0.708   3.292  14.727  0.0832  0.0970 -0.2110
 5122SOL    HW126825   0.757   3.357  14.676  1.0388 -1.0426 -0.7395
 5122SOL    HW226826   0.756   3.213  14.701  0.1479  0.7848 -2.1830
 5123SOL     OW26827   2.651   3.943  14.113 -0.1623  0.4365  1.0109
 5123SOL    HW126828   2.717   3.876  14.093 -1.0771  0.1432 -1.0186
 5123SOL    HW226829   2.569   3.900  14.090  1.2396 -1.9540  0.5580
 5124SOL     OW26830   0.215   3.440   9.628 -0.7289  0.5194 -0.1112
 5124SOL    HW126831   0.173   3.508   9.681 -1.1096 -0.1945  0.5011
 5124SOL    HW226832   0.246   3.378   9.693 -0.8924  0.5780  0.0229
 5125SOL     OW26833   0.072   1.191   7.597  0.4226 -0.6260  0.1161
 5125SOL    HW126834   4.722   1.150   7.638  0.0718 -1.0299 -0.9379
 5125SOL    HW226835   0.087   1.132   7.523 -2.1917  1.9676 -2.4969
 5126SOL     OW26836   3.842   4.075   5.861  0.0816  0.5310 -0.1627
 5126SOL    HW126837   3.850   4.060   5.767  0.5178  2.3427 -0.4194
 5126SOL    HW226838   3.910   4.014   5.891 -0.2136 -0.2786 -1.1601
 5127SOL     OW26839   1.690   3.522  10.388 -0.4654 -0.6986  0.3576
 5127SOL    HW126840   1.729   3.456  10.446  2.3873  0.9816  0.3439
 5127SOL    HW226841   1.598   3.515  10.416 -0.6186  0.6003  0.1498
 5128SOL     OW26842   4.432   2.008  16.404  0.6906 -0.3413 -0.1783
 5128SOL    HW126843   4.383   2.087  16.384  1.5530 -0.0851 -1.3226
 5128SOL    HW226844   4.454   1.971  16.318  2.0675 -0.9096  0.4076
 5129SOL     OW26845   1.222   4.237   4.154 -0.7306  0.0164 -0.6336
 5129SOL    HW126846   1.177   4.153   4.143 -1.3905  0.6071 -2.3889
 5129SOL    HW226847   1.144   4.292   4.164 -0.0558  0.5920  1.5148
 5130SOL     OW26848   3.595   3.471   7.882  0.1565  0.2443 -0.1184
 5130SOL    HW126849   3.612   3.561   7.855 -0.1009  0.3754  0.1608
 5130SOL    HW226850   3.553   3.491   7.966  1.8218 -1.2243  1.0759
 5131SOL     OW26851   1.027   2.731   6.510  0.0077 -0.2409  0.0087
 5131SOL    HW126852   1.027   2.708   6.417  1.0607 -1.2955  0.2596
 5131SOL    HW226853   1.120   2.753   6.521  0.0221 -0.8682  1.1304
 5132SOL     OW26854   0.879   1.983   5.875 -0.5440  0.5539 -0.1775
 5132SOL    HW126855   0.952   1.960   5.818 -0.1690  1.6484 -0.1372
 5132SOL    HW226856   0.867   1.908   5.934  0.0052 -0.6600 -1.6028
 5133SOL     OW26857   2.074   3.160  10.582  0.0544 -0.4583  0.1784
 5133SOL    HW126858   2.090   3.080  10.533  4.5044  2.3398 -2.8777
 5133SOL    HW226859   2.108   3.124  10.664 -0.2813  2.0209  1.4071
 5134SOL     OW26860   0.748   3.734   7.446 -0.2272  0.3527 -0.3949
 5134SOL    HW126861   0.715   3.678   7.376 -0.4157  1.0175 -0.8381
 5134SOL    HW226862   0.825   3.681   7.465 -1.5241 -1.4570 -0.2598
 5135SOL     OW26863   1.320   0.154  10.762  0.0222  0.2025 -0.1803
 5135SOL    HW126864   1.378   0.192  10.828 -1.3824 -1.2703  1.9100
 5135SOL    HW226865   1.318   0.068  10.805 -0.1249  0.5218  0.4484
 5136SOL     OW26866   3.852   2.987   8.768 -0.4237  0.2637  0.1748
 5136SOL    HW126867   3.816   2.915   8.820  1.2767 -1.6557 -1.2691
 5136SOL    HW226868   3.930   2.943   8.732 -0.3063 -0.7762  1.7087
 5137SOL     OW26869   3.208   0.570  15.994 -0.0596 -0.2840  0.0379
 5137SOL    HW126870   3.146   0.508  15.955  1.4714 -0.5635 -1.9166
 5137SOL    HW226871   3.189   0.587  16.087  1.5608  0.0473  0.2930
 5138SOL     OW26872   3.071   3.583   5.433  0.3761 -0.1735  0.2901
 5138SOL    HW126873   3.065   3.539   5.518 -0.6766 -1.3291 -0.3753
 5138SOL    HW226874   3.120   3.663   5.453  1.7057 -0.8647 -0.2052
 5139SOL     OW26875   4.225   3.966   6.859  0.4113  0.1823 -0.7801
 5139SOL    HW126876   4.152   3.999   6.912  0.3268  1.4363 -1.6939
 5139SOL    HW226877   4.181   3.913   6.792 -0.7623  3.0141 -2.2257
 5140SOL     OW26878   2.571   1.573   4.242  0.1838  0.3829  0.3965
 5140SOL    HW126879   2.632   1.533   4.304 -1.0643  0.2975  1.5699
 5140SOL    HW226880   2.608   1.658   4.218  0.6329 -0.7246 -2.7920
 5141SOL     OW26881   0.510   3.606   2.449  0.1167 -0.7081 -0.4467
 5141SOL    HW126882   0.547   3.645   2.370 -2.6740  0.6849 -1.0430
 5141SOL    HW226883   0.485   3.692   2.484 -0.8575 -0.7115 -1.1340
 5142SOL     OW26884   4.565   4.342   7.939 -0.6289  0.1733 -0.8869
 5142SOL    HW126885   4.519   4.415   7.899  1.0799  2.2964  1.0655
 5142SOL    HW226886   4.652   4.348   7.899 -0.7223  0.5247 -1.0299
 5143SOL     OW26887   0.532   1.090   9.153 -0.1023  0.0936  0.1683
 5143SOL    HW126888   0.437   1.097   9.162 -0.5688 -3.3005 -2.2864
 5143SOL    HW226889   0.567   1.135   9.230 -0.5360  0.1417  0.3381
 5144SOL     OW26890   0.352   3.953   8.498 -0.1125  0.1844 -0.5680
 5144SOL    HW126891   0.391   4.014   8.435 -0.2342  1.3964  0.5314
 5144SOL    HW226892   0.264   3.970   8.463 -0.3624 -1.3910 -0.7065
 5145SOL     OW26893   1.583   0.186  10.149  0.3788 -0.1087  0.7849
 5145SOL    HW126894   1.666   0.138  10.151 -0.0372 -0.9158 -1.0829
 5145SOL    HW226895   1.615   0.277  10.149  1.3286 -0.4412 -1.7038
 5146SOL     OW26896   1.664   1.475   2.641 -0.7810  0.1440  0.1221
 5146SOL    HW126897   1.717   1.552   2.618  1.7441 -1.5434  0.2096
 5146SOL    HW226898   1.681   1.418   2.567  4.2761 -0.5446  1.7993
 5147SOL     OW26899   2.905   1.741   8.903 -0.1450 -0.1247  0.2832
 5147SOL    HW126900   2.940   1.776   8.985  0.5095  2.2221 -1.0073
 5147SOL    HW226901   2.880   1.823   8.859  1.8006  0.7036  0.7235
 5148SOL     OW26902   0.228   4.301   5.166  0.1464 -0.1031 -0.4364
 5148SOL    HW126903   0.298   4.320   5.229  0.0397  3.1398 -1.3439
 5148SOL    HW226904   0.287   4.287   5.092  0.4935  2.6690 -0.6830
 5149SOL     OW26905   1.012   2.437  10.423  0.1648  0.4085  0.1144
 5149SOL    HW126906   1.051   2.444  10.510  0.6483 -0.0735 -0.0616
 5149SOL    HW226907   1.010   2.342  10.409 -0.8287  0.7745 -2.2521
 5150SOL     OW26908   3.236   3.900   7.599 -0.3055 -0.1640 -0.1853
 5150SOL    HW126909   3.209   3.822   7.648  0.2512  1.0585  2.0647
 5150SOL    HW226910   3.160   3.958   7.604 -0.9736 -1.1345  0.9221
 5151SOL     OW26911   0.835   1.219   4.853  0.0786 -0.1206  0.0743
 5151SOL    HW126912   0.911   1.173   4.889 -0.0606  0.9831  1.8112
 5151SOL    HW226913   0.775   1.147   4.873  0.3888 -0.5919 -0.6888
 5152SOL     OW26914   3.657   4.302   1.247  0.0633  0.2579 -0.0768
 5152SOL    HW126915   3.617   4.299   1.160  2.4837 -2.1987 -1.1217
 5152SOL    HW226916   3.594   4.253   1.301  0.6002  0.1393  0.4424
 5153SOL     OW26917   3.990   0.443   5.048 -0.3585  0.3267 -0.1731
 5153SOL    HW126918   3.952   0.531   5.043 -0.3826  0.3107 -0.2903
 5153SOL    HW226919   4.076   0.452   5.007 -0.7652 -0.7050 -1.2717
 5154SOL     OW26920   3.009   1.255   4.896  0.4111  0.3180 -0.2096
 5154SOL    HW126921   2.928   1.208   4.877 -0.7284  1.6920  1.2582
 5154SOL    HW226922   3.061   1.179   4.919 -0.3349  1.0228  3.7429
 5155SOL     OW26923   3.533   0.786  10.846 -0.1412 -0.0607  0.1136
 5155SOL    HW126924   3.493   0.874  10.845  0.8412  0.3660 -1.8885
 5155SOL    HW226925   3.454   0.737  10.869 -1.3449  1.6661 -0.3227
 5156SOL     OW26926   1.929   2.928   2.830  0.2677  0.2890  0.0463
 5156SOL    HW126927   2.005   2.987   2.831  0.1001  0.4931  0.6543
 5156SOL    HW226928   1.937   2.896   2.740  2.0528  0.2607  0.2099
 5157SOL     OW26929   3.224   0.495   0.683  0.3365 -0.0308  0.6842
 5157SOL    HW126930   3.155   0.462   0.740 -0.3843 -1.2135 -0.8542
 5157SOL    HW226931   3.239   0.420   0.625  3.0939  0.7927  0.3140
 5158SOL     OW26932   2.367   1.394   6.336 -0.0986  0.0151  0.0880
 5158SOL    HW126933   2.371   1.342   6.417 -1.3022 -0.2491 -0.0321
 5158SOL    HW226934   2.419   1.472   6.356  1.3949 -1.0483  0.4194
 5159SOL     OW26935   0.587   0.750   4.672  0.3626  0.5651 -0.6598
 5159SOL    HW126936   0.578   0.697   4.593 -2.2377  0.5880 -0.3775
 5159SOL    HW226937   0.621   0.687   4.735  1.5296  1.5809 -0.2734
 5160SOL     OW26938   4.444   0.912  10.103  0.0726  0.0911 -0.1523
 5160SOL    HW126939   4.530   0.922  10.062  0.5405 -0.9272  0.5807
 5160SOL    HW226940   4.400   0.992  10.075 -1.1490 -0.1075  1.2233
 5161SOL     OW26941   0.853   0.733   2.551 -0.1369 -0.4435  0.1717
 5161SOL    HW126942   0.828   0.685   2.630 -0.9474  3.3709  2.2601
 5161SOL    HW226943   0.942   0.752   2.580  0.7843 -1.3559 -2.0842
 5162SOL     OW26944   3.676   1.773   5.259 -0.2186  0.2941  0.2218
 5162SOL    HW126945   3.580   1.784   5.260 -0.3062 -0.5387  0.7443
 5162SOL    HW226946   3.692   1.693   5.309 -1.9049  1.0442  2.0016
 5163SOL     OW26947   4.543   0.914   3.389 -0.2895  0.5221  0.1494
 5163SOL    HW126948   4.455   0.948   3.403 -0.2515  0.4596  0.5273
 5163SOL    HW226949   4.558   0.886   3.479  1.7185  1.2663  0.0616
 5164SOL     OW26950   3.080   2.421   7.014  0.3434  0.4686  0.0448
 5164SOL    HW126951   3.127   2.477   7.074 -1.1194  2.1215 -0.3591
 5164SOL    HW226952   3.073   2.335   7.056 -0.1388 -0.9454 -2.8700
 5165SOL     OW26953   1.648   0.220   4.715 -0.1782 -0.6701  0.0596
 5165SOL    HW126954   1.712   0.148   4.721 -0.9174 -1.5003 -1.9522
 5165SOL    HW226955   1.689   0.268   4.643 -1.2557 -2.1551 -1.5356
 5166SOL     OW26956   4.399   2.869   2.399  0.4704 -0.7398 -0.7170
 5166SOL    HW126957   4.334   2.931   2.431 -0.3944 -0.2842 -3.3988
 5166SOL    HW226958   4.353   2.785   2.390  0.2398 -0.5808 -0.9978
 5167SOL     OW26959   2.626   1.773   7.919 -0.2407 -0.3214 -0.2059
 5167SOL    HW126960   2.670   1.854   7.946 -0.3148 -1.1916  2.5047
 5167SOL    HW226961   2.550   1.816   7.879 -0.0475  2.0317  1.9490
 5168SOL     OW26962   3.730   4.364   3.618  0.3871  0.1415  0.3448
 5168SOL    HW126963   3.750   4.306   3.692  0.6569 -1.1699 -0.7479
 5168SOL    HW226964   3.693   4.304   3.552  1.8969 -0.4362  0.0249
 5169SOL     OW26965   0.652   4.305   7.130  0.4371 -0.8939 -0.0510
 5169SOL    HW126966   0.656   4.391   7.173 -0.6499 -1.4834  1.2226
 5169SOL    HW226967   0.618   4.242   7.193 -0.6389 -1.8957 -1.6381
 5170SOL     OW26968   1.107   0.062  14.356 -0.5848 -0.2445  0.2812
 5170SOL    HW126969   1.085   0.149  14.389  3.2998  0.8383 -0.0422
 5170SOL    HW226970   1.115   0.094  14.266 -0.4365 -1.0447  0.0086
 5171SOL     OW26971   0.791   2.830   7.030 -0.3605 -0.5655 -0.2454
 5171SOL    HW126972   0.702   2.850   7.001 -0.6229  0.7840  1.4510
 5171SOL    HW226973   0.794   2.735   7.024  0.7540 -0.5711  0.3214
 5172SOL     OW26974   2.919   4.599  16.976  0.1206  0.3446  0.0636
 5172SOL    HW126975   2.928   4.541  17.051  0.2490  1.4588  0.9076
 5172SOL    HW226976   2.830   4.631  16.958  1.0448  2.8057 -0.1030
 5173SOL     OW26977   2.295   4.262   3.342  0.1282  0.6739 -0.2873
 5173SOL    HW126978   2.244   4.288   3.419  0.1089  0.2862 -0.1686
 5173SOL    HW226979   2.380   4.290   3.376  0.2195  0.3223 -0.2224
 5174SOL     OW26980   2.504   0.002   5.710 -0.1012 -0.2787 -0.1756
 5174SOL    HW126981   2.524   0.089   5.676  0.3202 -1.2837 -2.4810
 5174SOL    HW226982   2.591   4.689   5.726 -0.5551 -1.5138 -0.6606
 5175SOL     OW26983   3.239   3.256  14.993 -0.2666  0.0934 -0.2878
 5175SOL    HW126984   3.327   3.295  14.993 -0.4898  0.6148 -1.7208
 5175SOL    HW226985   3.180   3.331  15.001  0.0709  0.3099  0.1558
 5176SOL     OW26986   1.924   2.053   9.981 -0.1153  0.0377 -0.1817
 5176SOL    HW126987   1.985   2.031   9.911 -2.0424 -3.3995 -0.7739
 5176SOL    HW226988   1.943   1.996  10.055  1.1937 -0.3646 -0.8388
 5177SOL     OW26989   1.745   4.365   2.616 -0.5263  0.0322  0.2424
 5177SOL    HW126990   1.776   4.431   2.677 -0.2310 -1.1424  1.3743
 5177SOL    HW226991   1.753   4.408   2.531 -1.1364 -1.3834 -0.5475
 5178SOL     OW26992   0.802   3.170  16.224  0.2341  0.7093  0.0871
 5178SOL    HW126993   0.790   3.084  16.266 -2.2927  1.1807  0.3685
 5178SOL    HW226994   0.873   3.201  16.280  1.6516 -1.8271 -0.2588
 5179SOL     OW26995   0.456   2.975   2.682 -0.0914  0.2278  0.6691
 5179SOL    HW126996   0.361   2.991   2.684  0.2002  1.8258  1.3815
 5179SOL    HW226997   0.466   2.905   2.747 -1.3749 -0.0227  0.6046
 5180SOL     OW26998   0.279   0.579   5.233 -0.4584 -0.3497 -0.5463
 5180SOL    HW126999   0.302   0.491   5.205  1.2729 -0.7158  2.0626
 5180SOL    HW227000   0.234   0.612   5.156  1.1388  0.7783 -1.0009
 5181SOL     OW27001   3.108   2.704  10.005 -0.1644  0.5063 -0.1958
 5181SOL    HW127002   3.154   2.726  10.087 -0.7889  0.4418  0.1756
 5181SOL    HW227003   3.043   2.651  10.052  2.4503 -1.8905  0.6951
 5182SOL     OW27004   1.043   3.423   6.191  0.0730 -0.0649 -0.1341
 5182SOL    HW127005   1.000   3.395   6.109 -0.5882  0.1072  0.1542
 5182SOL    HW227006   1.132   3.403   6.164 -0.1894 -1.5192  0.0730
 5183SOL     OW27007   2.859   3.345  16.399  0.4935 -0.3124  0.3767
 5183SOL    HW127008   2.857   3.372  16.491  2.6317  0.8687  0.0655
 5183SOL    HW227009   2.812   3.422  16.368 -2.3853 -2.7682 -1.3662
 5184SOL     OW27010   2.265   3.730   9.201  0.4782 -0.2382 -0.6631
 5184SOL    HW127011   2.215   3.764   9.275 -0.9205 -0.4634 -1.5027
 5184SOL    HW227012   2.267   3.805   9.141 -1.7692 -1.1260 -1.8505
 5185SOL     OW27013   1.586   3.933   6.073 -0.0510 -0.7938 -0.3348
 5185SOL    HW127014   1.675   3.959   6.048  0.0493 -0.6674  0.1607
 5185SOL    HW227015   1.595   3.838   6.075 -0.6785 -0.8368  0.8031
 5186SOL     OW27016   2.068   4.088   3.684 -0.2825 -0.0666  0.3102
 5186SOL    HW127017   2.090   4.062   3.773 -0.8102 -3.8288 -0.6570
 5186SOL    HW227018   2.107   4.023   3.626 -1.5305  0.7053 -1.3906
 5187SOL     OW27019   0.789   2.983   0.982 -0.2934  0.4239 -0.3714
 5187SOL    HW127020   0.874   3.010   0.946  0.0629 -1.0078 -0.5854
 5187SOL    HW227021   0.828   2.928   1.050  0.3147  0.1678 -0.9258
 5188SOL     OW27022   2.265   4.498   8.382 -0.0210  0.5776  0.7112
 5188SOL    HW127023   2.238   4.449   8.459 -0.1310 -0.0793  0.2542
 5188SOL    HW227024   2.224   4.585   8.384 -0.3190  0.4632 -0.3053
 5189SOL     OW27025   2.391   3.853  14.102 -0.0893  0.0487 -0.2940
 5189SOL    HW127026   2.361   3.901  14.179  1.2892  0.5027 -0.0453
 5189SOL    HW227027   2.310   3.860  14.052 -1.1306  0.3186  1.4497
 5190SOL     OW27028   4.562   2.180  11.030  0.2067  0.7042 -0.0845
 5190SOL    HW127029   4.642   2.155  10.982 -0.7097 -2.5000  0.0474
 5190SOL    HW227030   4.524   2.245  10.971  0.9708  0.9288 -0.3387
 5191SOL     OW27031   4.651   4.123  17.123 -0.3530 -0.0284  0.3546
 5191SOL    HW127032   4.621   4.070  17.050 -0.4489  0.9792 -0.3237
 5191SOL    HW227033   0.018   4.097  17.120 -0.5109 -0.3475 -1.6608
 5192SOL     OW27034   3.167   2.824   4.353  0.5849 -0.1761 -0.2895
 5192SOL    HW127035   3.081   2.782   4.354  0.3862  0.2574  1.0350
 5192SOL    HW227036   3.175   2.830   4.448 -0.8539  0.0454 -0.1901
 5193SOL     OW27037   4.406   0.265   8.082 -0.2550  0.6272 -0.3162
 5193SOL    HW127038   4.391   0.185   8.132 -1.2772  0.7071 -0.4881
 5193SOL    HW227039   4.399   0.330   8.153 -0.7661 -0.9000  1.0374
 5194SOL     OW27040   2.019   4.466   2.788  0.5549 -0.2908  0.2070
 5194SOL    HW127041   2.101   4.499   2.823  0.1583  2.6609 -1.6373
 5194SOL    HW227042   1.969   4.475   2.869 -0.4672  0.7780 -0.5339
 5195SOL     OW27043   2.345   3.426   0.737  0.0212  0.5948 -0.2772
 5195SOL    HW127044   2.389   3.370   0.801 -2.3316 -1.4696 -0.4710
 5195SOL    HW227045   2.354   3.381   0.653  0.9775  1.6924 -0.7722
 5196SOL     OW27046   3.810   4.171   4.830  0.1121  0.2503 -0.1968
 5196SOL    HW127047   3.781   4.080   4.819  1.3812 -0.1970  0.1308
 5196SOL    HW227048   3.729   4.221   4.838 -0.9159 -1.5877  1.0016
 5197SOL     OW27049   0.860   2.138   4.623 -0.0771 -0.2396  0.1310
 5197SOL    HW127050   0.792   2.206   4.621 -1.2232 -1.3892 -0.1286
 5197SOL    HW227051   0.827   2.078   4.690 -0.7601  1.5572  1.3875
 5198SOL     OW27052   0.489   0.986  15.354 -0.3110  0.1603  0.1378
 5198SOL    HW127053   0.517   0.913  15.410  2.2463  0.7858 -0.3171
 5198SOL    HW227054   0.568   1.039  15.344  0.1547 -0.6404 -0.4001
 5199SOL     OW27055   1.220   0.283  13.494 -0.6905 -0.2731 -0.2764
 5199SOL    HW127056   1.218   0.370  13.454  1.0581 -0.3719 -0.5721
 5199SOL    HW227057   1.140   0.282  13.547  0.0970 -3.2882  0.8621
 5200SOL     OW27058   0.629   1.288   6.218 -0.7329 -0.9266 -0.4158
 5200SOL    HW127059   0.579   1.286   6.136 -0.3048 -0.6899 -0.6774
 5200SOL    HW227060   0.590   1.213   6.264  1.1781 -1.3022  0.5913
 5201SOL     OW27061   0.416   0.463   1.770 -0.2954 -0.0988  0.0834
 5201SOL    HW127062   0.389   0.518   1.843 -1.6564  0.0578 -0.5273
 5201SOL    HW227063   0.334   0.414   1.771 -0.0012 -0.5830  0.1411
 5202SOL     OW27064   3.390   1.219   2.091  0.3690  0.4929 -0.0988
 5202SOL    HW127065   3.366   1.238   2.000 -1.4869  0.1322  0.3150
 5202SOL    HW227066   3.320   1.264   2.139 -0.4841  1.8908 -2.6441
 5203SOL     OW27067   4.059   3.419   7.067 -0.0906  0.5298 -0.1995
 5203SOL    HW127068   4.153   3.409   7.057 -0.0034 -1.0876  2.3584
 5203SOL    HW227069   4.048   3.507   7.104 -0.8451 -0.4281  1.8195
 5204SOL     OW27070   3.222   2.254   8.548  0.6961 -0.3308 -0.4538
 5204SOL    HW127071   3.273   2.317   8.599  2.6173 -3.9221  2.1197
 5204SOL    HW227072   3.207   2.191   8.619 -2.7376  0.9177 -0.0493
 5205SOL     OW27073   1.451   1.470   4.597 -0.4242  0.0984  0.1120
 5205SOL    HW127074   1.529   1.422   4.625 -0.9519 -1.6683 -1.4824
 5205SOL    HW227075   1.464   1.551   4.646 -0.7784  0.4503 -0.3720
 5206SOL     OW27076   1.678   0.703   5.276  0.2217 -0.4600  0.2294
 5206SOL    HW127077   1.770   0.720   5.298  0.5638 -1.1091 -0.7049
 5206SOL    HW227078   1.656   0.778   5.221 -1.7646 -0.4972  0.9605
 5207SOL     OW27079   0.324   3.543  10.149  0.0905  0.1440  0.2154
 5207SOL    HW127080   0.270   3.515  10.224  0.3380 -0.7666  0.0571
 5207SOL    HW227081   0.260   3.545  10.077  0.0136 -0.0864  0.2761
 5208SOL     OW27082   4.469   1.990   6.162 -0.6892 -0.4781  0.0513
 5208SOL    HW127083   4.414   2.068   6.158 -1.1291 -0.7772  0.2101
 5208SOL    HW227084   4.435   1.948   6.241 -1.0801 -1.2276 -0.5136
 5209SOL     OW27085   4.027   1.363   3.966  0.1836 -0.6738 -0.2031
 5209SOL    HW127086   4.042   1.279   3.922  2.1841 -0.7922  0.7133
 5209SOL    HW227087   3.950   1.340   4.018  0.0736 -0.8181 -0.4277
 5210SOL     OW27088   0.304   2.476  11.517 -0.1231  0.0362 -0.1836
 5210SOL    HW127089   0.290   2.511  11.430  0.8096  1.8426  0.3881
 5210SOL    HW227090   0.219   2.436  11.538 -0.0443  0.7870  1.5606
 5211SOL     OW27091   0.806   1.491   4.451  0.2098 -0.0113 -0.0195
 5211SOL    HW127092   0.735   1.544   4.487  0.8729  0.0668  1.1834
 5211SOL    HW227093   0.786   1.413   4.504 -1.4466  1.0792  0.9598
 5212SOL     OW27094   4.086   2.093   2.321  0.1866  0.0536  0.1792
 5212SOL    HW127095   4.169   2.097   2.274 -0.3852 -2.0287 -0.9831
 5212SOL    HW227096   4.107   2.135   2.405 -0.7458  1.6177 -0.3890
 5213SOL     OW27097   3.834   0.961   2.192  0.0473 -0.5026 -0.2801
 5213SOL    HW127098   3.806   0.980   2.103  1.2881 -1.6331 -0.9161
 5213SOL    HW227099   3.778   0.890   2.224 -0.6239  0.0465 -0.2628
 5214SOL     OW27100   1.938   0.016  15.569 -0.1829 -0.3797 -0.5228
 5214SOL    HW127101   2.005   4.708  15.629  0.1335 -3.4301 -2.5375
 5214SOL    HW227102   1.952   4.698  15.485  0.6393 -1.1849  0.0265
 5215SOL     OW27103   1.094   1.683   6.810 -0.4776  0.6943  0.1882
 5215SOL    HW127104   1.152   1.612   6.782 -0.7417  0.3205  0.5912
 5215SOL    HW227105   1.148   1.758   6.782 -1.9540  1.5532 -0.3564
 5216SOL     OW27106   1.673   3.475   1.190  0.3280 -0.2717 -0.5552
 5216SOL    HW127107   1.636   3.405   1.136 -0.1873  1.6528 -2.6729
 5216SOL    HW227108   1.687   3.436   1.277  1.2866 -1.9631 -1.4608
 5217SOL     OW27109   1.592   1.053  14.689  0.3625 -0.7505  0.7271
 5217SOL    HW127110   1.609   0.988  14.758  1.3572 -2.5354 -1.2060
 5217SOL    HW227111   1.499   1.039  14.672  0.6833 -2.7248  0.5529
 5218SOL     OW27112   1.863   2.223  10.978  0.2153 -0.3044  0.7482
 5218SOL    HW127113   1.909   2.145  10.947  0.1688  0.2400 -0.6466
 5218SOL    HW227114   1.841   2.195  11.067  1.8531  1.7995  1.8107
 5219SOL     OW27115   3.837   3.329   7.260 -0.4279 -0.1872 -0.8537
 5219SOL    HW127116   3.840   3.295   7.350  0.1517  1.0717 -0.3838
 5219SOL    HW227117   3.925   3.361   7.242 -0.6557  0.9983  0.0569
 5220SOL     OW27118   0.733   2.006   3.489  0.0568  0.4073  0.2369
 5220SOL    HW127119   0.738   1.988   3.583  0.1833 -4.4948 -0.6887
 5220SOL    HW227120   0.828   2.012   3.479  0.0399 -0.7048 -0.6164
 5221SOL     OW27121   0.711   1.230   8.045  0.1828 -0.3972 -0.1544
 5221SOL    HW127122   0.788   1.174   8.047  1.1981  1.0677  1.6093
 5221SOL    HW227123   0.769   1.303   8.068  0.1366 -0.9930  1.8901
 5222SOL     OW27124   2.215   3.175  15.931  0.0167 -0.0783  0.6762
 5222SOL    HW127125   2.173   3.149  15.849  0.9889  1.0010 -0.1607
 5222SOL    HW227126   2.145   3.222  15.977  2.0489  2.2549  1.3840
 5223SOL     OW27127   1.978   0.651   0.315 -0.2904  0.5620  0.2213
 5223SOL    HW127128   1.971   0.707   0.238  1.8554  1.7434  0.8900
 5223SOL    HW227129   2.010   0.710   0.383  0.7742 -0.5624  0.6863
 5224SOL     OW27130   0.130   2.361   7.741 -0.3325  0.3754 -0.1681
 5224SOL    HW127131   0.115   2.421   7.667  0.3439  1.1792  0.3556
 5224SOL    HW227132   0.054   2.303   7.730 -0.8527  1.2226 -1.0728
 5225SOL     OW27133   3.206   2.992   3.949 -0.1565  0.8050 -0.3341
 5225SOL    HW127134   3.212   2.982   3.854  1.5969  2.3082 -0.3745
 5225SOL    HW227135   3.299   2.978   3.965 -0.5824 -2.6332 -0.8869
 5226SOL     OW27136   3.828   1.307   3.177 -0.3390  0.6247  0.0042
 5226SOL    HW127137   3.824   1.217   3.146  1.7781  0.9657 -1.2911
 5226SOL    HW227138   3.913   1.313   3.132 -0.5728  1.7314 -0.2988
 5227SOL     OW27139   1.429   4.246  10.979  0.2965 -0.5874  0.0559
 5227SOL    HW127140   1.517   4.283  10.982  0.1035 -0.1313 -0.0314
 5227SOL    HW227141   1.415   4.243  10.884  0.4095 -0.3667  0.0334
 5228SOL     OW27142   1.614   3.033   3.866  0.1164  0.0155 -0.0362
 5228SOL    HW127143   1.597   3.098   3.934 -0.3389  1.1015 -1.1811
 5228SOL    HW227144   1.705   3.044   3.838 -0.0393  2.1189  0.2376
 5229SOL     OW27145   4.283   4.252   4.966  0.0425  1.2349 -0.1028
 5229SOL    HW127146   4.285   4.157   4.959  1.3363  1.2736 -0.1379
 5229SOL    HW227147   4.212   4.259   4.902  1.9317 -0.3117 -2.3876
 5230SOL     OW27148   0.222   3.420   6.735 -0.1798  0.6722 -0.3269
 5230SOL    HW127149   0.285   3.364   6.780 -0.3742  0.7982  0.1050
 5230SOL    HW227150   0.162   3.448   6.804 -0.4872  0.8433 -0.6681
 5231SOL     OW27151   3.900   0.017  16.618 -0.2990  0.7389  0.0425
 5231SOL    HW127152   3.832   4.676  16.610  0.0936  0.5390 -1.5621
 5231SOL    HW227153   3.850   0.095  16.592 -2.1521 -0.6923 -0.6301
 5232SOL     OW27154   0.300   3.823   4.721  0.5712  0.2472  0.1361
 5232SOL    HW127155   0.340   3.737   4.732 -0.6038 -0.1711  1.1861
 5232SOL    HW227156   0.280   3.829   4.627  0.0077 -1.3213  0.1561
 5233SOL     OW27157   1.601   3.674   5.080  0.4503 -0.0206 -0.8504
 5233SOL    HW127158   1.511   3.661   5.108  0.8092 -1.5202 -0.3593
 5233SOL    HW227159   1.648   3.685   5.163  0.3702  0.4021 -0.8640
 5234SOL     OW27160   1.014   0.563   4.663 -0.2718  0.3669 -0.1241
 5234SOL    HW127161   0.962   0.486   4.637  0.1237 -0.8134  2.5656
 5234SOL    HW227162   1.081   0.530   4.723  0.9103  3.1538  0.0510
 5235SOL     OW27163   2.265   4.677  13.429  0.3299  0.6971 -0.1245
 5235SOL    HW127164   2.229   0.004  13.501  1.1532  0.0740  0.7357
 5235SOL    HW227165   2.179   4.646  13.401  0.8132  1.5775 -2.6019
 5236SOL     OW27166   0.503   4.204   4.861 -0.2758  0.2883  0.5692
 5236SOL    HW127167   0.412   4.235   4.865 -1.5772 -3.5162  0.7183
 5236SOL    HW227168   0.520   4.204   4.767  0.4893 -1.4786  0.7050
 5237SOL     OW27169   1.383   1.641   3.634 -0.4747 -0.3958  0.2361
 5237SOL    HW127170   1.407   1.570   3.693 -1.6783 -0.5377  0.5606
 5237SOL    HW227171   1.458   1.700   3.642  0.8714 -1.8450 -1.7708
 5238SOL     OW27172   4.266   1.547   7.417  0.4629 -0.5765  0.3822
 5238SOL    HW127173   4.341   1.576   7.469  0.0200 -1.3850  1.4742
 5238SOL    HW227174   4.255   1.455   7.442  0.8268 -0.9164 -0.6936
 5239SOL     OW27175   0.831   3.601  10.645  0.3534 -0.3589  0.1521
 5239SOL    HW127176   0.773   3.586  10.571 -0.1893  1.0987  0.2693
 5239SOL    HW227177   0.783   3.671  10.689  0.3163  0.0621 -0.5538
 5240SOL     OW27178   2.917   4.713   2.155 -0.5329  0.0666  0.1851
 5240SOL    HW127179   2.877   4.630   2.182  1.3068  0.3114  3.6059
 5240SOL    HW227180   3.002   4.677   2.128 -1.1032  0.9400 -2.7408
 5241SOL     OW27181   1.142   3.941  17.454 -0.2036  0.1863 -0.3282
 5241SOL    HW127182   1.112   3.981  17.535  1.7676  0.1240  0.4447
 5241SOL    HW227183   1.055   3.914  17.426 -0.5782  3.2060 -2.1411
 5242SOL     OW27184   3.720   1.694   6.664 -0.2240  0.2454 -0.3926
 5242SOL    HW127185   3.679   1.664   6.744  0.3415 -0.6037 -0.4128
 5242SOL    HW227186   3.772   1.769   6.694 -0.4734  0.0901  0.4106
 5243SOL     OW27187   3.259   2.214  10.313 -0.1969 -0.4411 -0.2719
 5243SOL    HW127188   3.249   2.138  10.256  0.6325 -0.9042  0.1854
 5243SOL    HW227189   3.201   2.281  10.276 -1.0561 -0.6137  0.7550
 5244SOL     OW27190   4.434   1.759   4.158 -0.4737  0.0153  0.1579
 5244SOL    HW127191   4.438   1.730   4.067  0.4777 -0.4309  0.3495
 5244SOL    HW227192   4.512   1.813   4.147 -1.1933  1.0850  0.3240
 5245SOL     OW27193   1.307   3.466   6.808 -0.3683  0.3571  0.1413
 5245SOL    HW127194   1.285   3.557   6.789  0.8569  0.2923 -1.5844
 5245SOL    HW227195   1.237   3.427   6.757 -0.3867  1.4023 -0.6286
 5246SOL     OW27196   0.359   3.574  10.551 -0.1412  0.2151 -0.3177
 5246SOL    HW127197   0.342   3.667  10.537 -0.3887  0.3628  0.9770
 5246SOL    HW227198   0.309   3.529  10.483  0.5767  0.6524 -1.1435
 5247SOL     OW27199   2.547   3.399  10.696  0.4469 -0.4298 -0.1862
 5247SOL    HW127200   2.571   3.426  10.607 -1.5967  1.8500 -0.0257
 5247SOL    HW227201   2.561   3.476  10.752  1.5464 -1.2099  0.6177
 5248SOL     OW27202   3.080   2.232   3.682 -0.1343 -0.8500  0.1540
 5248SOL    HW127203   3.032   2.303   3.640 -1.6520 -2.2276 -0.4392
 5248SOL    HW227204   3.058   2.151   3.637 -0.1089 -0.7866  0.0283
 5249SOL     OW27205   1.008   0.266  11.007  0.0445  0.3715 -0.3794
 5249SOL    HW127206   1.073   0.317  11.055 -2.1187 -0.4133  3.3721
 5249SOL    HW227207   1.045   0.283  10.920 -0.8920  1.1168 -0.6260
 5250SOL     OW27208   0.936   3.843   1.843  0.7131 -0.3311  0.0815
 5250SOL    HW127209   0.946   3.903   1.769 -0.2628  0.0367  0.2473
 5250SOL    HW227210   0.982   3.894   1.910 -0.1979  1.4726 -0.6562
 5251SOL     OW27211   2.326   3.733   5.333 -0.6222  0.0765  0.1488
 5251SOL    HW127212   2.417   3.763   5.331 -0.4944 -0.4413 -1.9885
 5251SOL    HW227213   2.292   3.777   5.412 -0.2168  0.5956  0.0368
 5252SOL     OW27214   4.045   4.390  12.726  0.2644  0.2880  0.5120
 5252SOL    HW127215   4.016   4.479  12.742 -2.4859 -0.6772  0.8552
 5252SOL    HW227216   4.132   4.410  12.692  0.1385  1.2443  0.7591
 5253SOL     OW27217   1.957   3.353  16.502 -0.3157  0.0654 -0.1514
 5253SOL    HW127218   1.888   3.365  16.436 -1.8234  0.4248  1.5005
 5253SOL    HW227219   1.932   3.275  16.551  0.9413  0.3795  0.9904
 5254SOL     OW27220   3.026   2.253  16.135  0.4057  0.3143 -0.3995
 5254SOL    HW127221   3.113   2.245  16.097  1.7435  0.1790  2.7178
 5254SOL    HW227222   3.032   2.319  16.204  0.1260 -0.3985  0.3136
 5255SOL     OW27223   0.337   0.506  17.042  0.8419 -0.5932 -0.5911
 5255SOL    HW127224   0.347   0.459  17.125 -0.9397 -1.5816 -0.9317
 5255SOL    HW227225   0.299   0.445  16.978 -2.1450  0.7853 -0.1522
 5256SOL     OW27226   3.769   0.696   2.311 -0.5997  0.1241  0.0237
 5256SOL    HW127227   3.689   0.645   2.322 -0.0891  0.0788  3.2371
 5256SOL    HW227228   3.813   0.674   2.392  0.6259 -0.7247 -0.8806
 5257SOL     OW27229   1.661   3.914  17.463 -0.0074 -0.5353 -0.0823
 5257SOL    HW127230   1.708   3.978  17.410  3.2278 -2.8556 -0.0268
 5257SOL    HW227231   1.573   3.935  17.432  0.4843  1.9839  0.1954
 5258SOL     OW27232   1.540   3.255  14.782 -0.0661 -0.2457  0.0801
 5258SOL    HW127233   1.542   3.160  14.791 -1.1504 -0.3114 -0.3703
 5258SOL    HW227234   1.508   3.272  14.693 -1.5160  0.3519  0.7154
 5259SOL     OW27235   4.599   2.684  17.036  0.3315  0.0015 -0.1219
 5259SOL    HW127236   4.575   2.698  16.944 -1.3691  0.3193  0.3887
 5259SOL    HW227237   4.693   2.674  17.020 -0.0682 -0.7126 -2.0806
 5260SOL     OW27238   4.562   1.255   8.817  0.1167 -0.1073 -0.2711
 5260SOL    HW127239   4.645   1.255   8.863  0.2602 -0.1875 -0.5309
 5260SOL    HW227240   4.602   1.246   8.730  1.3784  1.1839  0.1850
 5261SOL     OW27241   3.800   4.181   0.568 -0.0953  0.1295  0.3858
 5261SOL    HW127242   3.820   4.123   0.494  0.5960  1.4374 -0.4572
 5261SOL    HW227243   3.823   4.129   0.645 -3.2000 -1.7336  0.0604
 5262SOL     OW27244   4.307   1.809   2.017  0.4575 -0.1971  0.1413
 5262SOL    HW127245   4.309   1.881   1.954 -0.7293 -1.2103 -1.0411
 5262SOL    HW227246   4.257   1.739   1.975 -1.9900  0.5926  1.7590
 5263SOL     OW27247   3.178   3.491  16.931  0.4727  0.0728  0.1973
 5263SOL    HW127248   3.155   3.558  16.996  0.1778  0.6244 -0.4868
 5263SOL    HW227249   3.143   3.522  16.848 -0.0850  0.0895  0.4405
 5264SOL     OW27250   3.428   2.407   7.852  0.4120 -0.8548 -0.5832
 5264SOL    HW127251   3.478   2.332   7.883  1.1456 -0.3337 -0.5114
 5264SOL    HW227252   3.498   2.467   7.826  0.4022  0.3829  2.3405
 5265SOL     OW27253   4.218   2.470   5.569  0.4984  0.0861 -0.1415
 5265SOL    HW127254   4.245   2.409   5.638  0.9707  0.3084 -0.1292
 5265SOL    HW227255   4.144   2.506   5.619 -1.4318 -2.1396 -1.4261
 5266SOL     OW27256   3.122   2.858  15.905  0.3729  0.1680 -0.2342
 5266SOL    HW127257   3.123   2.841  15.811  2.7528  0.4014 -0.2351
 5266SOL    HW227258   3.028   2.860  15.926  0.6302  1.6188  0.7402
 5267SOL     OW27259   1.337   4.037   2.514 -0.0818  0.2354 -0.0875
 5267SOL    HW127260   1.317   4.121   2.555  1.6507  0.1421  0.9416
 5267SOL    HW227261   1.408   4.022   2.576 -0.4624  0.8105  0.4860
 5268SOL     OW27262   1.205   2.438   8.327  0.4723  0.2738 -1.2589
 5268SOL    HW127263   1.199   2.460   8.234  1.5846 -0.7475 -1.5765
 5268SOL    HW227264   1.114   2.416   8.347 -0.2847  2.1786 -2.5751
 5269SOL     OW27265   3.366   2.344  10.547 -0.0610 -0.6665  0.0472
 5269SOL    HW127266   3.440   2.317  10.602 -0.7198  2.2923  2.3774
 5269SOL    HW227267   3.381   2.288  10.470 -0.3145 -2.5287  1.3518
 5270SOL     OW27268   0.323   2.176   4.725  0.4330 -0.4328 -0.0237
 5270SOL    HW127269   0.328   2.271   4.714  1.0586 -0.5316 -0.6548
 5270SOL    HW227270   0.401   2.173   4.780  0.3583 -0.7615  0.0599
 5271SOL     OW27271   4.547   0.915  10.682  0.3414  0.6141 -0.4837
 5271SOL    HW127272   4.580   0.836  10.639  0.8247 -0.6059  2.0865
 5271SOL    HW227273   4.484   0.872  10.739  0.8248  0.1852 -0.2685
 5272SOL     OW27274   1.901   4.494   3.054 -0.1127  0.5182  0.2242
 5272SOL    HW127275   1.947   4.461   3.131 -0.9017 -0.0600  0.4386
 5272SOL    HW227276   1.888   4.589   3.062 -0.1367  0.8028 -3.3200
 5273SOL     OW27277   4.494   3.037   4.635 -0.2875 -0.1233 -0.3183
 5273SOL    HW127278   4.518   3.016   4.545  0.7712  3.0317 -0.7955
 5273SOL    HW227279   4.577   3.006   4.673 -0.6273  0.1986  0.6889
 5274SOL     OW27280   1.274   1.239   6.605  0.3532  0.2528  0.3132
 5274SOL    HW127281   1.197   1.278   6.563  1.4414 -0.4386 -2.3579
 5274SOL    HW227282   1.262   1.145   6.602  3.0013 -0.0805  0.2027
 5275SOL     OW27283   2.550   3.045   7.485 -0.3963  0.6364 -0.1903
 5275SOL    HW127284   2.468   3.042   7.534  0.1515  1.0887  0.7578
 5275SOL    HW227285   2.607   2.998   7.547  0.8228  2.1614 -0.1450
 5276SOL     OW27286   0.891   1.032   0.951 -0.2965  0.2982 -0.0065
 5276SOL    HW127287   0.914   1.057   0.862 -0.3206 -0.6912 -0.2854
 5276SOL    HW227288   0.972   1.049   0.999 -2.2000  0.6770  3.1308
 5277SOL     OW27289   4.159   2.212   8.754 -0.1822  0.3063  0.0146
 5277SOL    HW127290   4.132   2.156   8.682 -0.6734  1.3419 -0.6021
 5277SOL    HW227291   4.119   2.180   8.836 -2.5911 -0.6342 -1.5327
 5278SOL     OW27292   2.616   4.370   8.526  0.4200  0.2142 -0.0635
 5278SOL    HW127293   2.601   4.339   8.437  0.0942 -1.6243  0.6169
 5278SOL    HW227294   2.702   4.412   8.527 -0.4506  1.9439  3.2525
 5279SOL     OW27295   1.308   4.520   6.151  0.7152  0.0475  0.1971
 5279SOL    HW127296   1.362   4.525   6.231 -2.3738  4.2515  2.0404
 5279SOL    HW227297   1.232   4.576   6.166  0.3738  0.2471 -2.3822
 5280SOL     OW27298   1.253   3.060   4.803 -0.0070  0.1531 -0.1041
 5280SOL    HW127299   1.300   2.981   4.829 -0.4365  0.1220  0.5801
 5280SOL    HW227300   1.287   3.118   4.871 -0.6119  1.7950 -1.1795
 5281SOL     OW27301   4.298   1.666  11.889 -0.7467 -0.3154 -0.5792
 5281SOL    HW127302   4.210   1.657  11.924  0.4369  1.0305  2.6580
 5281SOL    HW227303   4.332   1.750  11.919  1.9844 -2.0036  1.0397
 5282SOL     OW27304   1.793   3.933   6.574 -0.1110 -0.2231  0.9463
 5282SOL    HW127305   1.806   3.966   6.485 -1.5500  1.1280  1.2208
 5282SOL    HW227306   1.821   3.843   6.561  2.4647  0.4926  1.5461
 5283SOL     OW27307   0.317   4.153   0.881  0.2200  0.2884 -0.3964
 5283SOL    HW127308   0.234   4.153   0.928 -0.5415  0.6710 -1.7713
 5283SOL    HW227309   0.377   4.202   0.938  0.0573  0.7024 -0.5821
 5284SOL     OW27310   4.642   2.556  11.443  0.6874 -0.1821  0.1068
 5284SOL    HW127311   4.700   2.630  11.460  1.5580 -0.9289  0.4427
 5284SOL    HW227312   4.693   2.481  11.474 -0.5088 -1.8588 -1.9346
 5285SOL     OW27313   2.939   0.909   3.450 -0.5862  0.2843 -0.1457
 5285SOL    HW127314   2.864   0.915   3.510  0.4875  0.4160  1.2024
 5285SOL    HW227315   2.920   0.990   3.402 -0.7427  1.1421  1.3583
 5286SOL     OW27316   0.885   3.261   7.214 -0.0961 -0.3672 -0.1332
 5286SOL    HW127317   0.953   3.204   7.249 -0.7798 -0.2993  1.3178
 5286SOL    HW227318   0.901   3.258   7.120  0.1685 -1.1144 -0.0623
 5287SOL     OW27319   3.073   4.183  16.633 -0.1948  0.1350 -0.2108
 5287SOL    HW127320   3.160   4.182  16.593  0.0638  1.8995  0.3394
 5287SOL    HW227321   3.090   4.248  16.701 -0.7639  1.9752 -1.8334
 5288SOL     OW27322   1.012   2.512   6.707  0.8834 -0.2101  0.9374
 5288SOL    HW127323   1.025   2.538   6.798  0.4800  0.1002  0.9057
 5288SOL    HW227324   1.004   2.596   6.662  3.6846  0.2287  1.2517
 5289SOL     OW27325   2.640   0.381  10.245 -0.2593  0.6061 -0.3175
 5289SOL    HW127326   2.545   0.368  10.249 -0.2388  0.4394 -0.3449
 5289SOL    HW227327   2.655   0.305  10.303 -1.2758 -0.1294 -1.0108
 5290SOL     OW27328   0.939   4.512   8.769 -0.2537  0.4417  0.7986
 5290SOL    HW127329   0.955   4.496   8.862 -0.3982 -1.3979  0.5198
 5290SOL    HW227330   0.942   4.607   8.760  0.0443  0.2389 -1.3052
 5291SOL     OW27331   2.472   1.228   4.016  0.4183 -0.1694  0.1073
 5291SOL    HW127332   2.396   1.231   3.958  0.4301 -1.1187  0.0510
 5291SOL    HW227333   2.424   1.207   4.096  1.9709 -2.2258  0.4916
 5292SOL     OW27334   2.729   1.328   3.955  0.3727 -0.3477  0.0338
 5292SOL    HW127335   2.723   1.412   4.000 -0.3339 -1.4426  1.9757
 5292SOL    HW227336   2.638   1.302   3.943 -0.0109  0.5066  1.0686
 5293SOL     OW27337   3.209   1.759   8.092 -0.7501 -0.1286 -0.1764
 5293SOL    HW127338   3.151   1.685   8.105 -0.5919 -0.0935  0.7518
 5293SOL    HW227339   3.149   1.833   8.102 -0.2476  0.3077 -0.3584
 5294SOL     OW27340   0.231   1.840  10.290  0.2717 -0.4244 -0.0421
 5294SOL    HW127341   0.142   1.821  10.320 -0.7489  3.2921 -0.6201
 5294SOL    HW227342   0.284   1.793  10.354  0.0621 -0.5239  0.0574
 5295SOL     OW27343   4.419   1.604   2.165  0.4315  0.3508 -0.0644
 5295SOL    HW127344   4.395   1.675   2.106  0.5139  1.1871  0.9012
 5295SOL    HW227345   4.514   1.594   2.158  0.5045  0.2745  0.9813
 5296SOL     OW27346   4.027   1.494   6.966  0.1413 -0.4437  0.5321
 5296SOL    HW127347   4.038   1.549   7.043 -0.2007  1.6170 -0.9187
 5296SOL    HW227348   3.934   1.472   6.971 -0.2485  1.0498 -0.4940
 5297SOL     OW27349   1.192   3.377   3.922  0.3568 -0.4912  0.5289
 5297SOL    HW127350   1.127   3.332   3.869  0.9388  0.5202 -1.0282
 5297SOL    HW227351   1.181   3.326   4.003 -0.4899  0.5567  1.0801
 5298SOL     OW27352   0.411   1.351  15.803  0.6522  0.1475 -0.0884
 5298SOL    HW127353   0.373   1.438  15.794 -2.4305 -1.0834  1.1160
 5298SOL    HW227354   0.412   1.320  15.713  3.5313  1.4843 -0.5111
 5299SOL     OW27355   4.462   1.941   3.851 -0.2013 -0.5041  0.0087
 5299SOL    HW127356   4.370   1.924   3.830  0.3212 -3.1620 -0.0970
 5299SOL    HW227357   4.487   1.851   3.871  0.6007 -0.7250 -1.9897
 5300SOL     OW27358   0.044   1.327   5.138 -0.2561  0.4297  0.3346
 5300SOL    HW127359   4.683   1.369   5.144  0.6351  1.9930  2.4833
 5300SOL    HW227360   0.054   1.304   5.230  0.9674 -0.4771 -0.0326
 5301SOL     OW27361   1.679   2.043   6.314 -0.0769 -0.0316  0.2734
 5301SOL    HW127362   1.609   2.029   6.250 -0.2669  0.5496  0.3536
 5301SOL    HW227363   1.681   1.952   6.343 -2.8256  0.5034  2.1187
 5302SOL     OW27364   0.997   0.539   5.580 -0.1627  0.4188  0.3797
 5302SOL    HW127365   0.979   0.488   5.501  0.4334  1.5407 -0.4895
 5302SOL    HW227366   1.032   0.614   5.532  2.2368 -1.2096 -0.4005
 5303SOL     OW27367   4.327   4.667   5.589  0.2588 -0.3513  0.3553
 5303SOL    HW127368   4.368   4.581   5.575 -2.7267 -1.7343  0.1282
 5303SOL    HW227369   4.237   4.643   5.566 -0.3880  2.9987 -0.5356
 5304SOL     OW27370   3.672   0.039  17.642  0.0298  0.7093 -0.0518
 5304SOL    HW127371   3.714   0.033  17.557 -0.2058 -0.3244 -0.0995
 5304SOL    HW227372   3.688   0.132  17.653 -0.5840  0.5787  1.9991
 5305SOL     OW27373   4.226   4.699   5.071 -0.5846  0.1861 -0.2022
 5305SOL    HW127374   4.148   4.700   5.016 -0.1256 -0.6496 -0.8768
 5305SOL    HW227375   4.202   0.043   5.132 -0.8502 -1.2207  1.3072
 5306SOL     OW27376   2.363   4.052   6.327  0.5907 -0.1206 -0.5411
 5306SOL    HW127377   2.413   4.045   6.408  0.8579  0.6638 -0.6330
 5306SOL    HW227378   2.350   4.146   6.318 -2.2508 -0.3764  0.9457
 5307SOL     OW27379   2.395   3.507   0.229  0.1789  0.1118 -0.3865
 5307SOL    HW127380   2.410   3.452   0.152  2.9431  0.5221 -0.1424
 5307SOL    HW227381   2.454   3.579   0.206  1.0500 -0.8696 -1.2420
 5308SOL     OW27382   1.864   4.158  16.756 -0.0695 -0.0258  0.5191
 5308SOL    HW127383   1.877   4.240  16.709 -0.4459 -0.9400 -1.1682
 5308SOL    HW227384   1.863   4.093  16.686 -5.6421  1.0547 -0.3813
 5309SOL     OW27385   4.590   0.533  16.985 -0.0164  0.2224  0.6838
 5309SOL    HW127386   4.505   0.534  17.028 -0.6500 -0.1639 -0.5626
 5309SOL    HW227387   4.622   0.450  17.020 -0.6198 -1.7704 -3.4838
 5310SOL     OW27388   0.053   2.871   6.360 -0.4852 -0.6724 -0.5174
 5310SOL    HW127389   0.141   2.887   6.327 -1.4624  1.9367 -1.8757
 5310SOL    HW227390   0.013   2.920   6.288  0.0726 -0.2845 -0.5664
 5311SOL     OW27391   1.682   4.530   0.067 -0.1835  0.1611 -0.3335
 5311SOL    HW127392   1.663   4.492   0.153 -1.3761  0.4177 -0.4774
 5311SOL    HW227393   1.599   4.517   0.019  0.0860 -1.3833 -0.3934
 5312SOL     OW27394   2.429   0.634   3.050 -0.2177  0.2667  0.5923
 5312SOL    HW127395   2.501   0.696   3.062  1.1292 -0.8572 -1.8071
 5312SOL    HW227396   2.458   0.562   2.994  0.7548  1.2160 -0.1361
 5313SOL     OW27397   0.401   1.672  10.380 -0.4102  0.1157 -0.1561
 5313SOL    HW127398   0.334   1.618  10.339 -1.2136  0.0439  1.2655
 5313SOL    HW227399   0.479   1.648  10.329  0.2348 -0.7474  1.2524
 5314SOL     OW27400   0.929   3.674   9.303  0.1840  0.1050  0.1886
 5314SOL    HW127401   0.995   3.661   9.236  0.1993  2.6264 -0.2953
 5314SOL    HW227402   0.952   3.596   9.353  0.0159 -0.0583  0.0116
 5315SOL     OW27403   4.411   2.219  15.402  0.0119 -0.1009  0.3517
 5315SOL    HW127404   4.449   2.140  15.363  0.5983 -0.0506  0.8179
 5315SOL    HW227405   4.322   2.186  15.405  0.8054 -2.3751 -1.3814
 5316SOL     OW27406   0.823   1.490   2.102  0.2074 -0.0916  0.1920
 5316SOL    HW127407   0.736   1.496   2.062  0.8016 -1.9046 -1.3582
 5316SOL    HW227408   0.866   1.574   2.084 -0.0626  0.5271  2.4025
 5317SOL     OW27409   4.712   2.861  10.985  0.5932  0.1435 -1.0192
 5317SOL    HW127410   0.059   2.828  10.933  1.1767 -0.0215 -0.1079
 5317SOL    HW227411   4.662   2.779  10.985  0.1669  0.4133  1.7845
 5318SOL     OW27412   3.667   3.116   7.812 -0.1053 -0.5845  0.1678
 5318SOL    HW127413   3.594   3.156   7.765  1.6634  1.1818 -1.0580
 5318SOL    HW227414   3.627   3.029   7.818  0.5913 -0.8798  0.5078
 5319SOL     OW27415   1.886   3.415   6.125  0.2860 -0.5472  0.3421
 5319SOL    HW127416   1.813   3.370   6.084 -0.7694  0.0514  1.5660
 5319SOL    HW227417   1.946   3.374   6.063  0.5098 -0.7260  0.6791
 5320SOL     OW27418   1.785   3.172   2.422  0.1982  0.0065 -0.7829
 5320SOL    HW127419   1.794   3.174   2.326 -0.6689 -0.9151 -0.8865
 5320SOL    HW227420   1.851   3.236   2.448 -1.5367  1.9170 -1.1487
 5321SOL     OW27421   1.140   1.347   6.374  0.0703  0.1723  0.0904
 5321SOL    HW127422   1.190   1.427   6.391  2.6838 -1.6227  0.9564
 5321SOL    HW227423   1.175   1.307   6.295 -0.2471 -1.4547  0.7685
 5322SOL     OW27424   1.736   3.138   4.531  0.2465 -0.1202  0.4148
 5322SOL    HW127425   1.668   3.085   4.573  1.0219 -1.0107  0.5514
 5322SOL    HW227426   1.695   3.225   4.532  0.7102  0.0936  0.6184
 5323SOL     OW27427   2.099   4.343   7.528  0.1884  0.3496  0.4541
 5323SOL    HW127428   2.133   4.289   7.600 -0.6762  1.2882  1.5766
 5323SOL    HW227429   2.042   4.408   7.570  0.0234  1.8680 -2.1531
 5324SOL     OW27430   0.899   2.404   7.890 -0.4530  0.1154 -0.5732
 5324SOL    HW127431   0.805   2.385   7.886 -0.7539  1.5099 -0.3171
 5324SOL    HW227432   0.908   2.465   7.817 -0.4862  1.3028  0.3884
 5325SOL     OW27433   4.215   2.796   2.697 -0.2085  0.5277 -0.0439
 5325SOL    HW127434   4.168   2.844   2.628  1.4667  2.5230  0.1953
 5325SOL    HW227435   4.170   2.711   2.702 -0.7515  0.8926  1.2998
 5326SOL     OW27436   0.731   1.932   7.047  0.0155  0.5991 -0.0212
 5326SOL    HW127437   0.824   1.937   7.025 -0.2038  1.4738 -0.7213
 5326SOL    HW227438   0.731   1.935   7.143 -0.2560  2.0512 -0.0692
 5327SOL     OW27439   2.061   0.300   4.296  0.1501 -0.0582  0.0337
 5327SOL    HW127440   2.066   0.215   4.254  2.2291  0.1199 -0.0778
 5327SOL    HW227441   2.075   0.354   4.218  0.3034  0.5364  0.4708
 5328SOL     OW27442   2.763   2.528  15.803 -0.0795 -0.3912 -0.0865
 5328SOL    HW127443   2.766   2.454  15.743 -0.6542  1.4593 -2.4289
 5328SOL    HW227444   2.699   2.501  15.868  0.0689 -0.9260 -0.1673
 5329SOL     OW27445   3.700   0.288   2.220  0.5123  0.0535 -0.0284
 5329SOL    HW127446   3.775   0.298   2.161  0.4955 -0.9544 -0.2218
 5329SOL    HW227447   3.708   0.193   2.230  0.7768  0.5019  3.9840
 5330SOL     OW27448   4.659   1.967   2.373 -0.2951 -0.1385  0.3346
 5330SOL    HW127449   4.587   1.923   2.327  0.1718 -0.3758 -0.1658
 5330SOL    HW227450   4.707   1.893   2.410 -0.3782  0.4962  1.6910
 5331SOL     OW27451   2.728   3.769   4.829 -0.2501 -0.9368  0.2786
 5331SOL    HW127452   2.790   3.707   4.789 -0.0826 -1.3989  1.2602
 5331SOL    HW227453   2.670   3.779   4.753 -0.3922 -1.2943  0.3416
 5332SOL     OW27454   3.359   3.912   1.183  0.0084 -0.0090 -0.2570
 5332SOL    HW127455   3.327   4.001   1.170 -0.9587 -0.2941  0.1400
 5332SOL    HW227456   3.453   3.918   1.165  0.0887 -1.2660 -0.2617
 5333SOL     OW27457   0.800   0.335   7.391 -0.0292  0.1215  0.3237
 5333SOL    HW127458   0.811   0.331   7.296 -1.6116 -0.9510  0.1840
 5333SOL    HW227459   0.706   0.339   7.405 -0.5524 -0.4783 -2.9625
 5334SOL     OW27460   0.029   3.906  16.093 -0.1380 -0.4063  0.0735
 5334SOL    HW127461   0.027   3.848  16.169  0.2760  0.2643  0.6004
 5334SOL    HW227462   4.674   3.884  16.048  0.6204 -1.9105 -0.5349
 5335SOL     OW27463   2.838   0.303  12.414 -0.4069 -0.1076 -0.3553
 5335SOL    HW127464   2.898   0.256  12.356 -1.4799 -1.2882 -0.4917
 5335SOL    HW227465   2.751   0.284  12.380 -0.5901  0.9375 -0.4866
 5336SOL     OW27466   1.890   3.648   5.892  0.6643 -0.4588  0.4232
 5336SOL    HW127467   1.802   3.617   5.914 -0.0060  1.3503  0.3562
 5336SOL    HW227468   1.866   3.734   5.858  2.3651 -0.5115 -0.8489
 5337SOL     OW27469   0.007   3.906   9.807 -0.9788  0.6932  0.0061
 5337SOL    HW127470   0.077   3.946   9.756 -1.4103  1.2069 -0.1780
 5337SOL    HW227471   0.022   3.811   9.807  0.9172  0.9894  1.7128
 5338SOL     OW27472   2.776   4.260   2.029 -0.2795  0.0347  0.6562
 5338SOL    HW127473   2.704   4.256   1.966  0.0921 -0.0493  0.2339
 5338SOL    HW227474   2.830   4.190   1.993  0.3832  0.5392  0.6727
 5339SOL     OW27475   0.053   1.572   5.640 -0.0466  0.1700 -0.3105
 5339SOL    HW127476   0.068   1.659   5.676 -0.2412  0.3519 -0.6600
 5339SOL    HW227477   0.029   1.525   5.720 -0.0894 -1.9898 -1.5820
 5340SOL     OW27478   1.234   4.352   1.291 -0.3086 -0.5694 -0.3546
 5340SOL    HW127479   1.272   4.440   1.292 -2.0186  0.1814 -2.1065
 5340SOL    HW227480   1.173   4.370   1.362 -0.4706  1.4072 -0.9878
 5341SOL     OW27481   2.220   3.178  11.550 -0.3416  0.0834 -0.6028
 5341SOL    HW127482   2.178   3.099  11.585 -0.2610  1.5155  2.7226
 5341SOL    HW227483   2.246   3.154  11.460  1.4468  1.4543 -0.4419
 5342SOL     OW27484   2.162   3.660  15.119 -0.2751 -0.3209  0.5480
 5342SOL    HW127485   2.192   3.751  15.124 -2.1167  0.1786  2.4365
 5342SOL    HW227486   2.188   3.630  15.206  2.2720 -1.3751 -0.5988
 5343SOL     OW27487   3.844   0.498   3.294  0.8907  0.5982  0.1943
 5343SOL    HW127488   3.868   0.410   3.323  0.1529  0.7830  1.3313
 5343SOL    HW227489   3.785   0.522   3.365  0.2342 -1.9127  0.4955
 5344SOL     OW27490   1.872   3.126  10.010 -0.0439  0.3879 -0.2329
 5344SOL    HW127491   1.875   3.082  10.095  1.8771 -0.8002 -0.9129
 5344SOL    HW227492   1.967   3.130   9.996 -0.3461 -0.9348 -2.5745
 5345SOL     OW27493   3.302   2.561   0.837 -0.0883  0.1282 -0.1201
 5345SOL    HW127494   3.283   2.486   0.781 -1.0070  0.3422 -0.1013
 5345SOL    HW227495   3.271   2.638   0.789 -0.0840 -0.5113 -1.1424
 5346SOL     OW27496   1.192   2.861  10.010  0.2109 -0.6541 -0.4082
 5346SOL    HW127497   1.136   2.911   9.950  1.9798  0.2403 -1.3188
 5346SOL    HW227498   1.158   2.881  10.097 -1.0368  0.0880 -1.0680
 5347SOL     OW27499   1.855   4.087  10.853 -0.3564  0.1801  0.5564
 5347SOL    HW127500   1.797   4.139  10.798  0.2221 -0.9939 -1.1687
 5347SOL    HW227501   1.888   4.151  10.916  0.9038  1.2247 -1.1587
 5348SOL     OW27502   1.102   2.194  14.827  0.4732 -0.2668  0.0437
 5348SOL    HW127503   1.117   2.201  14.921 -1.1337  1.0714  0.2131
 5348SOL    HW227504   1.180   2.244  14.804 -0.7915  1.1351 -1.1637
 5349SOL     OW27505   0.847   1.011   7.778 -0.1673  0.6097 -0.4142
 5349SOL    HW127506   0.893   1.078   7.829  1.9319  0.7766 -2.5498
 5349SOL    HW227507   0.784   0.993   7.848 -0.5620  0.9639 -0.6792
 5350SOL     OW27508   0.408   1.514   8.547  0.0618  0.1125 -0.2221
 5350SOL    HW127509   0.473   1.534   8.615 -0.9411  1.8337  0.2435
 5350SOL    HW227510   0.388   1.601   8.511  0.9211  1.0188  1.4648
 5351SOL     OW27511   4.449   2.690   2.785  0.0191 -0.5256 -1.2136
 5351SOL    HW127512   4.480   2.705   2.874  1.4021 -2.4618 -1.3742
 5351SOL    HW227513   4.375   2.750   2.777 -0.3589 -0.7166  0.8872
 5352SOL     OW27514   4.085   3.920   7.671  0.1678 -0.0672  0.5245
 5352SOL    HW127515   4.065   3.877   7.754  1.1089 -0.4056  0.5746
 5352SOL    HW227516   4.167   3.873   7.654 -2.0683 -3.3942 -1.1066
 5353SOL     OW27517   3.399   0.132   0.016  0.1745  0.4640 -0.1157
 5353SOL    HW127518   3.395   0.161  17.628 -0.3881  0.7428 -0.0034
 5353SOL    HW227519   3.479   0.081   0.003  0.0143 -0.2389  1.6791
 5354SOL     OW27520   0.671   4.488  15.830 -0.1909 -0.0284 -0.4519
 5354SOL    HW127521   0.673   4.582  15.813  3.2717  0.1918  1.0122
 5354SOL    HW227522   0.689   4.451  15.744  1.6257  0.9431 -0.5158
 5355SOL     OW27523   3.687   0.754   7.149  0.0912  0.1817 -0.1058
 5355SOL    HW127524   3.629   0.818   7.108  1.1579  0.7963 -0.6646
 5355SOL    HW227525   3.662   0.675   7.103  0.8146  0.0439 -0.2657
 5356SOL     OW27526   4.564   0.697   8.580 -0.0150 -0.5260 -0.2471
 5356SOL    HW127527   4.551   0.678   8.487 -1.6680 -1.5980  0.2167
 5356SOL    HW227528   4.594   0.611   8.609 -1.0113 -0.6877  0.3119
 5357SOL     OW27529   2.545   1.000   4.360 -0.5970  0.2298  0.0160
 5357SOL    HW127530   2.529   1.094   4.350  4.9821  1.2813  0.6203
 5357SOL    HW227531   2.634   1.003   4.394 -0.5067 -0.7143 -0.1351
 5358SOL     OW27532   1.382   3.500   3.385  0.6252 -0.0021  0.2291
 5358SOL    HW127533   1.312   3.452   3.340 -0.4851  0.7624  1.1526
 5358SOL    HW227534   1.461   3.451   3.362 -0.2169 -0.1474 -2.3820
 5359SOL     OW27535   1.550   2.242   7.425  0.0021 -0.4376 -0.4967
 5359SOL    HW127536   1.629   2.296   7.424  0.9497 -1.7998  1.3442
 5359SOL    HW227537   1.578   2.169   7.480  1.0876 -0.6218 -1.2856
 5360SOL     OW27538   1.598   3.806   1.105 -0.4681  0.2672  0.0049
 5360SOL    HW127539   1.534   3.796   1.036 -1.1000  0.2546  0.5909
 5360SOL    HW227540   1.533   3.830   1.171 -0.6517  1.2239 -0.5285
 5361SOL     OW27541   1.664   3.924   9.148 -0.2913  0.2735  0.1791
 5361SOL    HW127542   1.660   3.886   9.060 -0.5074  0.4746  0.1008
 5361SOL    HW227543   1.726   3.995   9.132  1.7959 -1.5040  0.5228
 5362SOL     OW27544   2.570   4.661   4.364 -0.2576 -0.2488 -0.2603
 5362SOL    HW127545   2.573   4.703   4.278 -1.6492  0.1326 -0.1174
 5362SOL    HW227546   2.492   4.686   4.414  0.4009 -2.7432  2.0324
 5363SOL     OW27547   3.380   3.498  14.228  0.1397  0.2630 -0.1132
 5363SOL    HW127548   3.433   3.559  14.280 -0.2838 -0.2439  0.9105
 5363SOL    HW227549   3.378   3.430  14.296 -0.5702 -0.2861 -0.6846
 5364SOL     OW27550   2.320   0.080   3.890 -0.3553  0.0753  0.2576
 5364SOL    HW127551   2.399   0.026   3.901 -0.2829  0.5662  2.0295
 5364SOL    HW227552   2.349   0.141   3.822  2.8808 -1.6455  0.0855
 5365SOL     OW27553   2.741   3.513   1.595 -0.0680  0.0608 -0.4924
 5365SOL    HW127554   2.744   3.418   1.584 -0.3684  0.1927 -1.7752
 5365SOL    HW227555   2.827   3.536   1.561 -0.5349 -0.4939 -2.0417
 5366SOL     OW27556   0.656   0.312  15.628 -0.1884 -0.2560  0.0733
 5366SOL    HW127557   0.739   0.265  15.639  1.0911  2.0255  0.0943
 5366SOL    HW227558   0.596   0.243  15.600 -0.8980 -0.1760  1.4125
 5367SOL     OW27559   1.417   3.335   7.380  0.5202 -0.0926  0.0371
 5367SOL    HW127560   1.500   3.324   7.427  1.3670 -1.8648 -1.8650
 5367SOL    HW227561   1.378   3.404   7.434 -2.5730 -1.9609  0.1952
 5368SOL     OW27562   0.035   3.724  16.292 -0.1712  0.1523  0.0108
 5368SOL    HW127563   0.104   3.670  16.329 -1.7379 -0.2187  2.4269
 5368SOL    HW227564   4.708   3.657  16.247 -1.1489  0.5769  0.5017
 5369SOL     OW27565   3.980   0.753  15.382  0.0514  0.7500  0.2434
 5369SOL    HW127566   3.947   0.735  15.294  0.2097  0.1221  0.3121
 5369SOL    HW227567   3.908   0.713  15.430  0.6618  0.5667  1.0060
 5370SOL     OW27568   3.401   4.342  14.652 -0.9208 -0.0488 -0.1464
 5370SOL    HW127569   3.492   4.366  14.663 -0.5880 -0.4477 -1.9090
 5370SOL    HW227570   3.393   4.260  14.700 -0.1798 -0.8261 -1.3383
 5371SOL     OW27571   0.687   1.354  16.712  0.0426  0.5414  0.3429
 5371SOL    HW127572   0.636   1.282  16.677  0.1511  1.7687 -2.3148
 5371SOL    HW227573   0.641   1.379  16.792  1.2748 -0.0717  1.2478
 5372SOL     OW27574   4.418   3.809   7.917  0.0392 -0.3184  0.6724
 5372SOL    HW127575   4.496   3.760   7.892  0.6502  0.4148  1.1258
 5372SOL    HW227576   4.450   3.896   7.892 -1.7029 -0.6155 -2.6038
 5373SOL     OW27577   3.271   4.079   3.469 -0.0882  0.2441  0.6912
 5373SOL    HW127578   3.241   4.161   3.509 -0.6240 -0.9279  2.6957
 5373SOL    HW227579   3.260   4.010   3.534 -1.9447 -0.1710 -0.0630
 5374SOL     OW27580   2.389   0.979   8.756  0.2784 -0.4210 -0.4101
 5374SOL    HW127581   2.334   0.956   8.831  1.1576 -0.2889  0.2689
 5374SOL    HW227582   2.320   0.959   8.693  2.6889  2.0695 -3.8434
 5375SOL     OW27583   0.785   4.210   7.893  0.0369 -0.2971  0.5012
 5375SOL    HW127584   0.837   4.290   7.905  1.2716 -0.9872 -0.3338
 5375SOL    HW227585   0.755   4.197   7.983  0.4517 -1.6302  0.4487
 5376SOL     OW27586   3.215   4.496  12.361 -0.3374 -0.1471 -0.0667
 5376SOL    HW127587   3.284   4.436  12.389  0.3725  0.1188 -1.2422
 5376SOL    HW227588   3.171   4.491  12.446  0.6393 -0.8604  0.3980
 5377SOL     OW27589   0.421   3.292   6.909 -0.0014 -0.0339  0.1461
 5377SOL    HW127590   0.452   3.337   6.989  0.0212  0.6523 -0.2430
 5377SOL    HW227591   0.457   3.204   6.920  0.4779  0.0926 -0.3711
 5378SOL     OW27592   1.578   1.790   0.194 -0.0977  0.0048 -0.6369
 5378SOL    HW127593   1.560   1.697   0.180 -0.3948 -0.2041  1.1854
 5378SOL    HW227594   1.527   1.832   0.124 -0.7590  2.7889  1.5307
 5379SOL     OW27595   0.099   0.966   5.464  0.2034  0.1603  0.2248
 5379SOL    HW127596   0.081   0.877   5.435  0.4198  0.5820 -1.1926
 5379SOL    HW227597   0.064   0.962   5.553  1.6286 -0.9841  0.7314
 5380SOL     OW27598   0.040   2.988   2.072  0.1916 -0.0914  0.2045
 5380SOL    HW127599   0.016   3.038   1.994  0.1197 -1.5257 -0.7049
 5380SOL    HW227600   4.692   2.928   2.061 -0.5334  1.0755 -1.1763
 5381SOL     OW27601   0.911   1.943   4.444 -0.6799  0.2833 -0.1492
 5381SOL    HW127602   0.825   1.941   4.402 -1.4355  1.3139  1.3153
 5381SOL    HW227603   0.899   2.013   4.508  0.2441 -0.6343  1.0371
 5382SOL     OW27604   0.447   2.482   4.984 -0.2856  0.4157  0.1783
 5382SOL    HW127605   0.404   2.551   5.034  1.2190  2.1764 -0.9485
 5382SOL    HW227606   0.472   2.427   5.058  0.8550 -0.0096 -0.5109
 5383SOL     OW27607   3.297   1.062   4.082  0.0452  0.7098 -0.0919
 5383SOL    HW127608   3.225   1.000   4.078 -1.0030  1.9676 -0.9454
 5383SOL    HW227609   3.368   1.019   4.034 -0.8771 -0.0483 -0.7702
 5384SOL     OW27610   3.961   4.345   2.462 -0.3684 -0.0885 -0.4959
 5384SOL    HW127611   4.016   4.284   2.413 -1.5608 -0.5023 -1.2887
 5384SOL    HW227612   3.926   4.289   2.532  0.0017  0.2589 -0.0277
 5385SOL     OW27613   2.905   2.617   2.593  0.4320 -0.8302 -0.1069
 5385SOL    HW127614   2.955   2.544   2.627  0.3799 -0.8015  0.0316
 5385SOL    HW227615   2.834   2.632   2.655  1.4155  1.8244  0.3881
 5386SOL     OW27616   2.102   4.145  13.074 -0.0392  0.4944  0.4457
 5386SOL    HW127617   2.076   4.056  13.052  0.0546  0.9102 -1.3326
 5386SOL    HW227618   2.183   4.156  13.024 -1.4815  0.0670 -2.0053
 5387SOL     OW27619   0.120   0.050   3.361  0.4032 -0.4023  0.9916
 5387SOL    HW127620   0.167   0.132   3.345 -0.5331 -0.7592 -3.6058
 5387SOL    HW227621   0.186   4.711   3.386  0.6389 -0.2978  0.6554
 5388SOL     OW27622   3.792   1.112   7.068 -0.1199  0.0697 -0.2138
 5388SOL    HW127623   3.740   1.036   7.039 -0.3553 -0.2789  1.1412
 5388SOL    HW227624   3.748   1.135   7.150 -0.2123 -2.3421  0.4243
 5389SOL     OW27625   2.977   1.225  14.429 -0.7873  0.0182  0.1746
 5389SOL    HW127626   3.010   1.180  14.351  0.3001  2.1956 -0.6039
 5389SOL    HW227627   3.051   1.227  14.489 -1.0822 -3.7619  0.6841
 5390SOL     OW27628   2.574   3.519   7.356  0.2622  0.7801  0.6723
 5390SOL    HW127629   2.556   3.605   7.317  0.6364  1.0678  1.1331
 5390SOL    HW227630   2.648   3.479   7.311 -0.2609  0.4217  0.1419
 5391SOL     OW27631   1.906   3.383  10.601  0.6111 -0.0348  0.0843
 5391SOL    HW127632   1.843   3.342  10.660 -0.3960  1.2719 -0.0729
 5391SOL    HW227633   1.955   3.304  10.579  2.2928  0.9682  0.1619
 5392SOL     OW27634   4.045   1.024   5.593 -0.0446 -0.1906  0.1799
 5392SOL    HW127635   3.987   1.048   5.665 -1.8069 -0.5039 -1.1230
 5392SOL    HW227636   4.131   1.030   5.633 -0.3859 -4.6309  1.5430
 5393SOL     OW27637   3.235   0.701   6.171  0.1560 -0.6297 -0.3375
 5393SOL    HW127638   3.149   0.707   6.129  0.5600  0.4724 -0.9967
 5393SOL    HW227639   3.288   0.687   6.093 -1.2500  0.5101 -1.5049
 5394SOL     OW27640   4.664   0.243   3.787  0.5327  0.1723 -0.5375
 5394SOL    HW127641   4.617   0.209   3.864  0.9630  1.8494  0.4630
 5394SOL    HW227642   4.615   0.196   3.719 -0.6603 -0.3025  0.6404
 5395SOL     OW27643   0.256   2.549   5.635 -0.2746  0.2719  0.2326
 5395SOL    HW127644   0.311   2.626   5.648  1.7300 -0.9016 -1.2258
 5395SOL    HW227645   0.309   2.505   5.569  0.1204 -1.8343  1.9220
 5396SOL     OW27646   1.305   0.457   3.193  0.0985  0.6172  0.4894
 5396SOL    HW127647   1.345   0.374   3.220  0.9807  1.1528  0.8382
 5396SOL    HW227648   1.213   0.439   3.176  0.5259  1.6821 -3.1052
 5397SOL     OW27649   2.218   3.853  17.457  0.3755  0.5221 -0.4166
 5397SOL    HW127650   2.240   3.940  17.492 -2.0961  1.2469 -0.6732
 5397SOL    HW227651   2.150   3.874  17.393  0.3277 -2.8836 -1.4808
 5398SOL     OW27652   4.647   2.262   9.506  0.4277 -0.1321 -0.1937
 5398SOL    HW127653   4.646   2.176   9.465  1.0717 -1.0265  1.6532
 5398SOL    HW227654   4.605   2.315   9.439 -1.3260 -1.7696 -0.3884
 5399SOL     OW27655   3.272   3.162   5.691  0.0101  0.4068 -0.1001
 5399SOL    HW127656   3.276   3.250   5.653  0.0611 -0.5903 -2.3957
 5399SOL    HW227657   3.199   3.169   5.752  0.0378 -0.5643  0.0430
 5400SOL     OW27658   4.056   3.420   8.024 -0.3989 -0.0959 -0.3406
 5400SOL    HW127659   4.032   3.468   8.103 -0.2498  0.0345 -0.3765
 5400SOL    HW227660   3.986   3.354   8.018  0.5059 -1.1498  0.5512
 5401SOL     OW27661   0.311   1.871   9.189 -0.1134 -0.3522 -0.1577
 5401SOL    HW127662   0.234   1.846   9.138  0.4909  0.1721 -1.3117
 5401SOL    HW227663   0.305   1.965   9.172  2.3683 -0.4661 -1.6155
 5402SOL     OW27664   0.481   3.001   9.551  0.1697  0.3645  0.0651
 5402SOL    HW127665   0.409   2.994   9.489  0.1883  1.6442 -0.1065
 5402SOL    HW227666   0.548   2.938   9.523 -1.0736 -0.2414 -1.5753
 5403SOL     OW27667   1.636   0.635   7.937 -0.0385  0.2193  0.2955
 5403SOL    HW127668   1.661   0.554   7.982 -1.0817  0.5240  1.4376
 5403SOL    HW227669   1.715   0.688   7.943  0.4075 -0.5663  1.2615
 5404SOL     OW27670   0.924   3.433   8.612  0.5164 -0.6622  0.3509
 5404SOL    HW127671   0.905   3.462   8.523 -1.3467 -1.9523  0.3247
 5404SOL    HW227672   0.840   3.441   8.656  1.2153  0.6749  1.4536
 5405SOL     OW27673   4.567   2.714   8.247 -0.4554  0.3150  0.3055
 5405SOL    HW127674   4.639   2.764   8.210 -0.1373 -0.0758  0.3915
 5405SOL    HW227675   4.546   2.641   8.189 -0.8099  1.8164 -1.4504
 5406SOL     OW27676   0.420   2.572  12.647  0.2348 -0.0132  0.6614
 5406SOL    HW127677   0.329   2.583  12.676  0.0490  1.2888 -0.3906
 5406SOL    HW227678   0.424   2.581  12.552  1.1670 -0.3810  0.6622
 5407SOL     OW27679   2.139   0.019  17.546  0.3808  0.6135  0.5080
 5407SOL    HW127680   2.096   4.710  17.624 -1.2211  0.2344 -0.5320
 5407SOL    HW227681   2.150   4.662  17.498  2.4556  0.6306  0.9813
 5408SOL     OW27682   0.804   1.306   5.380 -0.2387  0.7096 -0.3129
 5408SOL    HW127683   0.727   1.255   5.403  1.7743 -1.6283  1.2648
 5408SOL    HW227684   0.790   1.297   5.286 -1.1762 -0.0133 -0.1074
 5409SOL     OW27685   1.868   0.394   0.300 -0.2026  0.0202  0.3296
 5409SOL    HW127686   1.908   0.481   0.301  3.0806 -1.4613 -0.9019
 5409SOL    HW227687   1.887   0.359   0.213  0.3465 -0.4593  0.6429
 5410SOL     OW27688   4.014   2.666   9.029 -0.0679 -0.1513  0.0925
 5410SOL    HW127689   4.056   2.580   9.030 -0.0296 -0.1154  1.4735
 5410SOL    HW227690   3.989   2.675   8.937  1.4786 -0.7647 -0.3838
 5411SOL     OW27691   1.499   0.239   0.161 -0.1014  0.0739 -0.2302
 5411SOL    HW127692   1.534   0.243   0.250  0.1508  0.8614 -0.3660
 5411SOL    HW227693   1.564   0.183   0.117  0.3738 -0.8054  1.6149
 5412SOL     OW27694   2.153   3.536   2.173 -0.3319  0.3402 -0.6576
 5412SOL    HW127695   2.199   3.606   2.126 -0.7383  1.0559  0.0139
 5412SOL    HW227696   2.226   3.474   2.175 -1.7281 -1.4481 -4.1418
 5413SOL     OW27697   1.267   2.855   7.317  0.2058 -0.3296 -0.6079
 5413SOL    HW127698   1.321   2.876   7.393  0.3289 -2.2299 -0.1619
 5413SOL    HW227699   1.286   2.931   7.263 -3.4668  1.7844  1.0522
 5414SOL     OW27700   4.683   0.489   5.465  0.4474 -0.3675 -0.1328
 5414SOL    HW127701   4.605   0.457   5.420 -0.0819  1.6044 -0.6209
 5414SOL    HW227702   4.715   0.417   5.519 -0.0251 -0.0261  0.6110
 5415SOL     OW27703   0.742   4.072   3.162 -0.3892  0.1753  0.2930
 5415SOL    HW127704   0.791   4.107   3.087 -0.4628  1.1833  0.7071
 5415SOL    HW227705   0.784   3.986   3.167 -2.1709 -0.5668  2.5539
 5416SOL     OW27706   0.116   3.560  11.422  1.0625  0.0594 -0.2972
 5416SOL    HW127707   0.084   3.568  11.332  1.4494  1.5920 -0.2872
 5416SOL    HW227708   0.208   3.587  11.412  2.0319 -2.7635  0.8317
 5417SOL     OW27709   2.223   2.546   4.143 -0.1465 -0.3649 -0.4525
 5417SOL    HW127710   2.273   2.473   4.180 -2.1198  0.2638  3.4555
 5417SOL    HW227711   2.233   2.607   4.216 -0.8663 -0.6229 -0.1407
 5418SOL     OW27712   2.030   3.969  17.295  0.1279  0.0163 -0.5844
 5418SOL    HW127713   2.053   4.032  17.227  0.7874 -0.6737 -1.0154
 5418SOL    HW227714   1.951   3.927  17.261 -0.7570  0.5743  0.8360
 5419SOL     OW27715   3.313   4.163   1.090  0.0898 -0.1551 -0.0882
 5419SOL    HW127716   3.396   4.211   1.083 -0.4947  0.6349 -1.5776
 5419SOL    HW227717   3.302   4.121   1.005 -1.8305  1.9966 -0.8980
 5420SOL     OW27718   4.403   1.025   2.752  0.3760  0.1419  0.1669
 5420SOL    HW127719   4.354   0.943   2.751  1.9001 -0.7542 -0.3536
 5420SOL    HW227720   4.475   0.991   2.805 -0.3409 -1.3662  0.1896
 5421SOL     OW27721   1.582   0.872   3.326  0.1347  0.3355  0.0935
 5421SOL    HW127722   1.617   0.942   3.271  2.4441 -0.2536  0.8197
 5421SOL    HW227723   1.494   0.907   3.343  0.2600  1.9030 -2.5366
 5422SOL     OW27724   1.777   1.590   4.096  0.3462 -0.4180  0.7380
 5422SOL    HW127725   1.775   1.502   4.059  2.0018 -0.7588  1.4414
 5422SOL    HW227726   1.787   1.641   4.015  2.1681 -0.8476  0.6913
 5423SOL     OW27727   2.139   0.715   3.128  0.4577 -0.7818  0.3049
 5423SOL    HW127728   2.065   0.654   3.132  0.1879 -0.3116  2.2561
 5423SOL    HW227729   2.187   0.677   3.054  0.4903  2.5426 -1.3802
 5424SOL     OW27730   1.874   2.716   8.535  0.0144  0.4146  0.3606
 5424SOL    HW127731   1.864   2.640   8.592 -1.4099 -0.9439 -1.6852
 5424SOL    HW227732   1.789   2.717   8.491 -0.5614  0.2984  1.4472
 5425SOL     OW27733   3.617   1.215   7.563 -0.1909  0.0606 -0.1036
 5425SOL    HW127734   3.647   1.148   7.624  3.2923  0.9745 -0.7720
 5425SOL    HW227735   3.522   1.218   7.576 -0.1536 -0.3058  0.2567
 5426SOL     OW27736   0.557   4.180   6.154  0.3048 -0.0717  0.2693
 5426SOL    HW127737   0.584   4.130   6.077 -0.7037 -1.9493  1.1310
 5426SOL    HW227738   0.464   4.161   6.169 -0.2308  0.6877 -2.0757
 5427SOL     OW27739   3.656   0.531   5.385 -0.3005 -0.3736  0.3344
 5427SOL    HW127740   3.611   0.591   5.326 -2.8078 -2.5903 -0.0164
 5427SOL    HW227741   3.700   0.472   5.324 -1.1202  2.4767 -2.9976
 5428SOL     OW27742   3.379   4.274  12.422  0.3879 -0.2523  0.1443
 5428SOL    HW127743   3.397   4.193  12.375  1.2784  0.5806 -0.9348
 5428SOL    HW227744   3.449   4.280  12.487  0.5128  0.0745 -0.0198
 5429SOL     OW27745   3.921   2.825  10.051 -0.4168  0.5407 -0.4958
 5429SOL    HW127746   3.876   2.801   9.970  1.5372 -0.3801 -1.2994
 5429SOL    HW227747   3.856   2.872  10.103 -1.5518 -2.9224  1.2165
 5430SOL     OW27748   3.368   3.577   2.155  0.5092 -0.0860 -0.0711
 5430SOL    HW127749   3.337   3.659   2.194 -0.5303  0.3056 -1.7618
 5430SOL    HW227750   3.289   3.555   2.107 -0.9877  2.1403  1.3699
 5431SOL     OW27751   3.929   2.769   8.530  0.1586 -0.0867  0.3174
 5431SOL    HW127752   3.857   2.830   8.525 -1.1113 -1.6335 -0.2587
 5431SOL    HW227753   3.913   2.719   8.449 -1.5903  0.9196  0.0623
 5432SOL     OW27754   2.445   0.851   7.320 -0.1003 -0.4868  0.6039
 5432SOL    HW127755   2.433   0.945   7.304 -0.5394 -0.8309 -1.0930
 5432SOL    HW227756   2.391   0.828   7.396  0.3748 -1.6622  0.5779
 5433SOL     OW27757   0.883   0.741  10.906 -0.6473 -0.0433  0.4708
 5433SOL    HW127758   0.909   0.832  10.893 -1.3878  0.1861  0.5756
 5433SOL    HW227759   0.838   0.717  10.825 -0.6863  1.8928 -0.0790
 5434SOL     OW27760   1.975   4.440  17.088  0.5856  0.0762 -0.4395
 5434SOL    HW127761   1.947   4.350  17.070 -0.6432  0.6040 -1.1871
 5434SOL    HW227762   1.977   4.455  17.182  2.5909  2.1453 -0.8068
 5435SOL     OW27763   0.929   2.531   2.658 -0.1987  0.6468 -0.5864
 5435SOL    HW127764   0.966   2.444   2.642 -0.4272  0.1012  1.8143
 5435SOL    HW227765   0.842   2.527   2.619 -1.2471  2.8421  1.5116
 5436SOL     OW27766   0.938   0.304   3.626  0.3185 -0.4164 -0.5584
 5436SOL    HW127767   0.981   0.303   3.712  0.6897 -1.3750 -0.7501
 5436SOL    HW227768   0.936   0.397   3.607  0.8758 -0.5813 -1.3924
 5437SOL     OW27769   0.563   1.436  16.936  0.9807  0.3092  0.0774
 5437SOL    HW127770   0.481   1.477  16.965 -0.4660 -2.6249  0.1487
 5437SOL    HW227771   0.612   1.443  17.018  2.1031 -1.2948 -0.4611
 5438SOL     OW27772   0.411   0.659   9.582 -0.2118 -0.2721 -0.2081
 5438SOL    HW127773   0.316   0.644   9.581 -0.6750  2.3530  2.9316
 5438SOL    HW227774   0.443   0.572   9.603  1.5741 -0.0019 -1.8245
 5439SOL     OW27775   3.890   3.279   6.876 -1.1425  0.1316 -0.3885
 5439SOL    HW127776   3.947   3.339   6.924  0.6968 -0.3739 -1.9356
 5439SOL    HW227777   3.889   3.331   6.795  1.9737 -0.7514 -0.9857
 5440SOL     OW27778   0.816   0.384   4.660  0.0830 -0.3119 -0.1515
 5440SOL    HW127779   0.735   0.401   4.708 -0.0716 -0.9273 -0.1875
 5440SOL    HW227780   0.837   0.296   4.691  1.6202  0.4944  1.1040
 5441SOL     OW27781   4.422   0.678  15.442 -0.2868 -0.1594 -0.2518
 5441SOL    HW127782   4.380   0.592  15.440  0.4119 -0.5152  0.2099
 5441SOL    HW227783   4.348   0.737  15.429  0.3882  0.7129 -0.1591
 5442SOL     OW27784   1.339   2.279   7.262  0.2903  0.2248 -0.0340
 5442SOL    HW127785   1.276   2.283   7.333 -1.4927  1.6234 -1.6901
 5442SOL    HW227786   1.424   2.284   7.306  0.3436 -2.4063  0.1465
 5443SOL     OW27787   2.971   3.499   4.328  0.2849  0.7110 -0.5908
 5443SOL    HW127788   2.921   3.581   4.320 -0.9768 -0.2185 -1.9930
 5443SOL    HW227789   2.996   3.494   4.236 -1.9615 -3.2515 -0.9587
 5444SOL     OW27790   1.929   0.223   0.501 -0.4927 -0.1253 -0.0714
 5444SOL    HW127791   1.916   0.292   0.436 -1.4057 -1.3433 -1.1916
 5444SOL    HW227792   2.007   0.181   0.466  0.4513  1.2931  0.3630
 5445SOL     OW27793   2.570   2.995   3.702  0.0905  0.0338  0.6817
 5445SOL    HW127794   2.479   2.967   3.696 -0.5403  2.2191  0.1231
 5445SOL    HW227795   2.614   2.932   3.760 -2.6111 -0.2871  2.4085
 5446SOL     OW27796   4.067   1.300   2.175  0.4393 -0.5892 -0.1064
 5446SOL    HW127797   4.076   1.274   2.083  0.1397 -0.8047 -0.0757
 5446SOL    HW227798   3.978   1.269   2.193  0.2967 -2.0255 -3.3056
 5447SOL     OW27799   3.688   1.303   1.993  0.1322  0.4029 -0.4124
 5447SOL    HW127800   3.752   1.372   1.979  1.4031 -0.9861 -1.3448
 5447SOL    HW227801   3.632   1.301   1.915  2.4867 -0.6290 -2.0852
 5448SOL     OW27802   2.671   2.191   5.410 -0.2751  0.1129 -0.2597
 5448SOL    HW127803   2.634   2.219   5.326  1.0712 -0.3958 -1.0197
 5448SOL    HW227804   2.757   2.231   5.396 -0.1114 -0.4044 -0.7111
 5449SOL     OW27805   2.917   0.468   3.925 -0.1398 -0.8354 -0.3748
 5449SOL    HW127806   2.881   0.544   3.879 -0.9960 -0.9035  0.1785
 5449SOL    HW227807   3.003   0.456   3.884 -0.0719 -1.9635  0.0980
 5450SOL     OW27808   4.094   0.299  11.590 -0.1648  0.4069 -0.1001
 5450SOL    HW127809   4.176   0.322  11.634 -0.6416  0.0988  0.9538
 5450SOL    HW227810   4.098   0.336  11.502 -3.3326 -0.0702 -0.4325
 5451SOL     OW27811   3.866   1.093   4.811 -0.0849 -0.3597  0.2254
 5451SOL    HW127812   3.848   1.060   4.723  0.4361 -0.2801  0.0916
 5451SOL    HW227813   3.945   1.043   4.831 -0.0454  0.3997  1.9193
 5452SOL     OW27814   2.599   4.251   5.317 -0.1102 -0.2228 -0.5890
 5452SOL    HW127815   2.664   4.221   5.379 -1.2344 -0.8513  0.2801
 5452SOL    HW227816   2.642   4.246   5.231  2.3115  0.1483  0.6120
 5453SOL     OW27817   1.213   4.028  13.181  0.4955 -0.2212  0.0359
 5453SOL    HW127818   1.120   4.006  13.187  0.7187 -1.1814 -0.1904
 5453SOL    HW227819   1.244   3.990  13.100  1.1947 -0.6429  0.5022
 5454SOL     OW27820   1.883   3.010  12.605 -0.1494 -0.3265  0.1832
 5454SOL    HW127821   1.880   2.938  12.542  0.6416  0.6030 -0.8981
 5454SOL    HW227822   1.954   2.978  12.661 -0.1136  0.8781  0.8162
 5455SOL     OW27823   2.788   3.855   3.634  0.6945  0.7383 -0.0585
 5455SOL    HW127824   2.869   3.886   3.675  1.8238 -1.3866 -0.6744
 5455SOL    HW227825   2.793   3.759   3.636 -3.0410  0.5069 -1.8988
 5456SOL     OW27826   2.119   0.346   5.081 -0.4040 -0.0122 -0.0017
 5456SOL    HW127827   2.114   0.332   5.176  0.1934 -2.0774 -0.2715
 5456SOL    HW227828   2.135   0.440   5.080  0.6739 -0.1762  2.5610
 5457SOL     OW27829   1.797   1.115   7.713  0.2235 -0.1364  0.0003
 5457SOL    HW127830   1.791   1.028   7.673 -0.9800 -0.3995  0.7479
 5457SOL    HW227831   1.827   1.076   7.795 -0.5200 -0.9099 -0.0924
 5458SOL     OW27832   1.855   3.353   3.032 -0.0576 -0.1706 -0.0407
 5458SOL    HW127833   1.838   3.447   3.033 -0.4727 -0.2364 -0.8232
 5458SOL    HW227834   1.766   3.323   3.014  0.3144 -1.6344  0.5592
 5459SOL     OW27835   4.340   2.760   7.564 -0.1902  0.5246 -0.1536
 5459SOL    HW127836   4.247   2.771   7.547 -0.7517 -2.0312  1.2573
 5459SOL    HW227837   4.363   2.778   7.655  1.0087 -2.8795  0.2308
 5460SOL     OW27838   4.261   4.319   3.782 -0.0502 -0.5264  0.4401
 5460SOL    HW127839   4.317   4.243   3.796  0.0070 -0.6453 -0.3899
 5460SOL    HW227840   4.312   4.359   3.712  0.1480  0.4725  1.1619
 5461SOL     OW27841   4.640   0.652   9.903  0.2127 -0.2825 -0.0850
 5461SOL    HW127842   4.648   0.735   9.951 -0.6313 -0.3138  0.1161
 5461SOL    HW227843   4.613   0.690   9.819 -1.8079 -1.4103  0.0674
 5462SOL     OW27844   0.270   4.006   4.211 -0.2653 -0.5027 -0.2688
 5462SOL    HW127845   0.282   4.028   4.304  3.0639  2.2796 -1.3647
 5462SOL    HW227846   0.301   3.916   4.217 -0.5371 -0.6261 -0.7921
 5463SOL     OW27847   2.368   2.955  15.962 -0.2524 -0.1113 -0.0056
 5463SOL    HW127848   2.285   2.909  15.954 -1.7847  2.3405  1.9916
 5463SOL    HW227849   2.342   3.045  15.944 -1.5323 -0.1681  1.5686
 5464SOL     OW27850   4.631   0.695  10.522 -0.3006 -0.3575  0.7379
 5464SOL    HW127851   4.725   0.711  10.514 -0.1139 -1.6590  0.3758
 5464SOL    HW227852   4.618   0.638  10.446 -1.4363  1.7093 -0.6232
 5465SOL     OW27853   4.540   1.810   7.254  0.1206 -0.4978 -0.5681
 5465SOL    HW127854   4.599   1.882   7.276 -1.1768 -0.1000  1.5835
 5465SOL    HW227855   4.457   1.857   7.245  0.5653  0.2121 -0.9918
 5466SOL     OW27856   1.907   4.387   7.149  0.5482 -0.2986  0.0005
 5466SOL    HW127857   1.962   4.465   7.158  0.5312 -0.4149  1.1063
 5466SOL    HW227858   1.965   4.312   7.141 -0.8684 -1.3773 -0.0814
 5467SOL     OW27859   4.706   1.476   1.041  0.0612  0.2738 -0.2929
 5467SOL    HW127860   0.038   1.401   1.062  0.0691  0.4094  0.1614
 5467SOL    HW227861   4.630   1.434   1.002 -0.2877  2.9869 -2.5015
 5468SOL     OW27862   4.509   2.711   2.181  0.4691 -0.6042  0.0628
 5468SOL    HW127863   4.487   2.755   2.264  3.1284 -0.5497  0.7154
 5468SOL    HW227864   4.590   2.668   2.207  0.0314 -1.7551 -0.4541
 5469SOL     OW27865   1.399   0.273   4.385 -0.5227 -0.1953  0.2473
 5469SOL    HW127866   1.447   0.355   4.375 -1.4109  0.0599 -1.8328
 5469SOL    HW227867   1.320   0.298   4.432 -1.3090 -1.0018 -0.6431
 5470SOL     OW27868   2.432   2.921   4.776  0.1825 -0.0871  0.3204
 5470SOL    HW127869   2.352   2.951   4.733  0.0219  0.3289  0.9170
 5470SOL    HW227870   2.482   3.001   4.761 -0.6437  0.1371 -1.2031
 5471SOL     OW27871   0.109   4.000   1.446  0.5679 -0.4645 -0.2978
 5471SOL    HW127872   0.140   4.046   1.368 -0.5652 -1.1505 -1.1560
 5471SOL    HW227873   0.014   4.013   1.442  0.3300 -2.0061  0.2605
 5472SOL     OW27874   3.750   4.079   3.938 -0.3565  0.0282 -0.8230
 5472SOL    HW127875   3.836   4.119   3.932 -0.2769  0.0628  0.5461
 5472SOL    HW227876   3.717   4.060   3.850 -2.4893  1.7081 -0.3994
 5473SOL     OW27877   2.818   2.963   4.612 -0.0854 -0.7481  0.3442
 5473SOL    HW127878   2.745   3.006   4.655  0.8158  0.3772  0.7494
 5473SOL    HW227879   2.873   2.932   4.685  0.6320 -0.6176 -0.1379
 5474SOL     OW27880   4.251   2.373   9.402  0.0850 -0.1104 -0.4244
 5474SOL    HW127881   4.310   2.424   9.346  3.5992 -2.9619  0.6609
 5474SOL    HW227882   4.185   2.439   9.422  0.4640  0.4942 -1.1634
 5475SOL     OW27883   3.596   2.845   6.409 -0.4944  0.0474 -0.1678
 5475SOL    HW127884   3.666   2.820   6.348 -1.4982 -0.6801 -1.0389
 5475SOL    HW227885   3.518   2.827   6.356  0.3990  1.3577 -1.9555
 5476SOL     OW27886   1.381   3.602  13.876  0.1033  0.2043 -0.3826
 5476SOL    HW127887   1.399   3.671  13.812 -3.2014  1.6100  0.1694
 5476SOL    HW227888   1.360   3.655  13.953 -0.5450 -0.4499 -0.1116
 5477SOL     OW27889   1.677   2.297   3.106 -0.5654 -0.4889 -0.3332
 5477SOL    HW127890   1.666   2.328   3.017  2.2156 -1.6654 -1.1085
 5477SOL    HW227891   1.628   2.215   3.105 -1.5301  0.0477  2.3298
 5478SOL     OW27892   1.699   1.342   4.900  0.0590  0.2242 -1.1126
 5478SOL    HW127893   1.711   1.356   4.806  1.6563 -1.8091 -1.2115
 5478SOL    HW227894   1.653   1.423   4.919  1.1430  0.6350 -0.2498
 5479SOL     OW27895   0.516   4.601   7.703 -0.2767  0.6015 -0.6755
 5479SOL    HW127896   0.544   4.655   7.629  1.7591 -0.0527 -0.3742
 5479SOL    HW227897   0.514   4.671   7.768  0.8264 -1.0480  1.1583
 5480SOL     OW27898   0.015   0.788   2.392  0.1851 -0.9468 -0.1293
 5480SOL    HW127899   0.062   0.790   2.475  1.0588  0.9743 -0.6782
 5480SOL    HW227900   0.034   0.700   2.359  2.5965 -0.9923  1.3611
 5481SOL     OW27901   3.296   3.616   8.845  0.0412  0.4380  0.2103
 5481SOL    HW127902   3.267   3.551   8.910 -0.6266  0.2018 -0.3292
 5481SOL    HW227903   3.388   3.589   8.847 -0.0074  0.2846  0.5925
 5482SOL     OW27904   0.269   2.161   9.783 -0.8429  0.1607  0.1998
 5482SOL    HW127905   0.283   2.069   9.806 -0.3880  0.9478  3.0297
 5482SOL    HW227906   0.273   2.158   9.687 -1.2901 -0.3571  0.1963
 5483SOL     OW27907   4.301   2.828   8.892 -0.1078 -0.0785 -0.2954
 5483SOL    HW127908   4.352   2.752   8.921 -0.3196 -0.1276 -0.0574
 5483SOL    HW227909   4.261   2.783   8.817  1.5620  0.0040 -1.2259
 5484SOL     OW27910   2.932   3.350  15.416  0.1609 -0.0791 -0.4986
 5484SOL    HW127911   2.932   3.298  15.335  0.6469 -2.0221  0.7471
 5484SOL    HW227912   3.016   3.326  15.456 -0.5670 -0.9547  0.4795
 5485SOL     OW27913   1.288   2.692  12.369 -0.3711 -0.3308 -0.5453
 5485SOL    HW127914   1.343   2.704  12.446 -0.9663  1.8411 -0.4541
 5485SOL    HW227915   1.243   2.776  12.361 -0.3209 -0.0976  1.6761
 5486SOL     OW27916   2.928   0.968   4.247  0.4375  0.2751 -0.1801
 5486SOL    HW127917   2.901   1.058   4.261  3.3252  1.2726 -0.9350
 5486SOL    HW227918   3.005   0.971   4.303  0.7514 -0.9798 -0.5270
 5487SOL     OW27919   0.978   0.806  11.866  0.1135  0.2871 -0.3284
 5487SOL    HW127920   1.039   0.853  11.808  0.3996 -0.3399 -0.5311
 5487SOL    HW227921   0.988   0.846  11.952 -0.3750 -0.7764  0.2143
 5488SOL     OW27922   2.789   1.741  12.334  0.1844  0.0402  0.2830
 5488SOL    HW127923   2.734   1.675  12.376 -0.2687 -0.3871 -1.0153
 5488SOL    HW227924   2.871   1.725  12.381  0.4486  1.5581  0.3402
 5489SOL     OW27925   1.030   1.052   2.466  0.0318  0.5736 -0.1918
 5489SOL    HW127926   1.020   1.147   2.480  1.3003  0.8707 -1.3035
 5489SOL    HW227927   1.088   1.046   2.391 -3.6929  1.8331 -3.1658
 5490SOL     OW27928   3.002   0.644   6.377  0.0899  0.1252 -0.1595
 5490SOL    HW127929   3.068   0.607   6.437  0.2751 -2.3007 -1.8263
 5490SOL    HW227930   3.050   0.621   6.297 -0.1232  2.5291 -0.9722
 5491SOL     OW27931   2.817   1.554   6.328  0.2474  0.1927 -0.1419
 5491SOL    HW127932   2.831   1.644   6.299  2.5666 -0.1941 -0.2575
 5491SOL    HW227933   2.856   1.497   6.262  2.1884 -0.1791  1.3279
 5492SOL     OW27934   2.334   0.510  17.676 -0.2382 -0.1036  0.2339
 5492SOL    HW127935   2.325   0.583  17.615  0.8038  0.3650  0.6357
 5492SOL    HW227936   2.403   0.540   0.033 -0.2426  0.1238  0.1251
 5493SOL     OW27937   0.039   1.469   6.311  0.1582  0.4648  0.1837
 5493SOL    HW127938   0.061   1.416   6.388  0.5561 -0.7899 -0.8002
 5493SOL    HW227939   0.056   1.556   6.346  2.9752 -0.0618  0.1025
 5494SOL     OW27940   4.465   3.542   5.738  0.2255 -0.2355 -0.3080
 5494SOL    HW127941   4.538   3.488   5.766 -0.5399 -2.7457 -3.1077
 5494SOL    HW227942   4.477   3.616   5.798  1.3441 -0.1417 -0.6396
 5495SOL     OW27943   4.388   4.514   7.833  0.3185 -0.3597 -0.2312
 5495SOL    HW127944   4.326   4.579   7.800 -0.9155 -0.8297  1.1888
 5495SOL    HW227945   4.471   4.552   7.803 -0.4072  0.3704 -1.3038
 5496SOL     OW27946   3.774   0.072   5.147  0.1123  0.4106 -0.2444
 5496SOL    HW127947   3.809   0.040   5.230 -1.0254  0.7541  0.3679
 5496SOL    HW227948   3.843   0.044   5.086 -2.3473 -0.7822 -2.4831
 5497SOL     OW27949   3.291   4.296   2.167 -0.3739  1.1156  0.5032
 5497SOL    HW127950   3.257   4.354   2.235  0.1599  0.7573  1.0692
 5497SOL    HW227951   3.343   4.354   2.111 -1.8149  1.7489 -0.1744
 5498SOL     OW27952   2.097   1.146   3.635 -0.4477 -0.0530  0.3368
 5498SOL    HW127953   2.144   1.183   3.710 -1.5997 -0.9894  1.5301
 5498SOL    HW227954   2.090   1.054   3.662  0.8248 -0.5436 -1.0034
 5499SOL     OW27955   4.536   0.573   7.660  0.0354 -0.3627 -0.3124
 5499SOL    HW127956   4.503   0.494   7.702  0.2883 -0.4039 -0.1926
 5499SOL    HW227957   4.567   0.520   7.586 -1.6332 -1.1666 -0.4440
 5500SOL     OW27958   0.822   0.651  13.440 -0.4372  0.5686  0.0699
 5500SOL    HW127959   0.766   0.607  13.376 -0.4250  0.8001 -0.1016
 5500SOL    HW227960   0.811   0.740  13.405  0.2868  1.2710  1.6215
 5501SOL     OW27961   2.263   0.778   4.655 -0.1329 -0.3697 -0.0836
 5501SOL    HW127962   2.321   0.718   4.701  2.1932  1.9028 -0.0800
 5501SOL    HW227963   2.185   0.779   4.711  0.3010  1.2640  0.5045
 5502SOL     OW27964   2.927   0.665   2.035 -0.3092 -0.4115 -0.2571
 5502SOL    HW127965   2.845   0.631   1.997 -0.3963 -1.2015  0.6436
 5502SOL    HW227966   2.962   0.727   1.971 -0.8027  1.0578  0.9244
 5503SOL     OW27967   2.847   2.096   4.867 -0.1498  0.3332  0.2819
 5503SOL    HW127968   2.888   2.048   4.939  0.6385  0.0007 -0.3942
 5503SOL    HW227969   2.789   2.025   4.840  1.3103  0.5183 -3.2927
 5504SOL     OW27970   3.599   1.496   4.068  0.5367 -0.2124 -0.1304
 5504SOL    HW127971   3.596   1.589   4.091  2.1175 -0.5196  1.3354
 5504SOL    HW227972   3.669   1.497   4.002 -0.4172  0.5073 -1.1222
 5505SOL     OW27973   2.675   0.488   6.125 -0.3888 -0.1417  0.4900
 5505SOL    HW127974   2.692   0.544   6.200 -0.0924  0.4171  0.0109
 5505SOL    HW227975   2.716   0.536   6.053 -0.8096  2.8122  2.2208
 5506SOL     OW27976   3.503   0.981   2.084  0.1440  0.4079 -0.0363
 5506SOL    HW127977   3.447   0.931   2.143 -1.8244  2.4442 -0.1960
 5506SOL    HW227978   3.453   1.059   2.064  0.5923  1.1946  1.9339
 5507SOL     OW27979   1.057   2.850   8.250 -0.0006  0.0607  0.0239
 5507SOL    HW127980   1.013   2.770   8.280  0.7392 -0.0109  0.9190
 5507SOL    HW227981   1.033   2.911   8.320 -0.6188  1.1690 -1.1621
 5508SOL     OW27982   3.133   0.057  16.776  0.5972 -0.1815 -0.3935
 5508SOL    HW127983   3.214   0.014  16.747  0.9385 -1.4180  2.4105
 5508SOL    HW227984   3.158   0.115  16.848 -0.5657 -1.4161  0.9988
 5509SOL     OW27985   3.284   3.652  14.822  0.2699  0.3810  0.6053
 5509SOL    HW127986   3.370   3.619  14.847 -0.7200 -1.9678  0.9223
 5509SOL    HW227987   3.280   3.735  14.870 -0.5293  0.0974  1.0424
 5510SOL     OW27988   0.495   4.218   3.216 -0.0570  0.5990 -0.2051
 5510SOL    HW127989   0.567   4.157   3.200 -0.3447  0.2091 -0.0027
 5510SOL    HW227990   0.524   4.284   3.153  0.8034 -1.1699 -1.6788
 5511SOL     OW27991   3.857   1.135   2.623 -0.6832  0.0135  0.2717
 5511SOL    HW127992   3.799   1.204   2.656  0.1482  1.7046 -1.8439
 5511SOL    HW227993   3.922   1.184   2.574 -0.6928 -0.2668 -0.0168
 5512SOL     OW27994   1.790   3.968   7.051  0.4225 -0.1344 -0.1742
 5512SOL    HW127995   1.741   3.886   7.057  0.5123  0.0994  3.4227
 5512SOL    HW227996   1.724   4.022   7.008 -0.3279 -0.4739  0.5587
 5513SOL     OW27997   4.296   2.949   5.893 -0.3057 -0.0009  0.2753
 5513SOL    HW127998   4.280   2.952   5.987  2.3582  1.9082  0.6684
 5513SOL    HW227999   4.364   3.017   5.888  0.1964 -0.6178 -1.3279
 5514SOL     OW28000   1.251   3.469   4.717  0.2482 -0.0900  0.0792
 5514SOL    HW128001   1.344   3.473   4.693 -0.0485 -1.5370 -1.3365
 5514SOL    HW228002   1.232   3.544   4.773  1.0799  0.2832 -0.1202
 5515SOL     OW28003   2.511   3.065   3.432 -0.0644  0.3441 -0.1919
 5515SOL    HW128004   2.504   3.034   3.522  3.1612 -0.4251 -0.1769
 5515SOL    HW228005   2.540   3.155   3.443 -1.3558  0.6632  0.5698
 5516SOL     OW28006   2.685   4.081   2.988  0.0476 -0.3675  0.1422
 5516SOL    HW128007   2.666   4.084   3.082 -1.0677  0.7912 -0.1280
 5516SOL    HW228008   2.729   3.996   2.981  1.2746  0.3708 -0.8574
 5517SOL     OW28009   3.741   0.206   3.634 -0.2072  0.2074  0.1032
 5517SOL    HW128010   3.787   0.288   3.618 -0.2962  0.2456  0.0468
 5517SOL    HW228011   3.721   0.191   3.542 -0.4128 -0.1002  0.1980
 5518SOL     OW28012   2.438   4.301   2.244  0.6245 -0.4464  0.1195
 5518SOL    HW128013   2.358   4.308   2.193  1.6483  0.2009 -1.3901
 5518SOL    HW228014   2.460   4.393   2.259  0.4035 -0.0575 -2.0303
 5519SOL     OW28015   3.276   0.661  10.824 -0.1772  0.2292 -0.2286
 5519SOL    HW128016   3.228   0.668  10.907  2.5764  0.5601  1.3400
 5519SOL    HW228017   3.250   0.750  10.799  0.8758  0.8830  1.0290
 5520SOL     OW28018   1.079   0.941   4.072  0.1045 -0.1682  0.1489
 5520SOL    HW128019   1.123   1.009   4.123 -0.1911  0.7079 -0.7617
 5520SOL    HW228020   1.006   0.994   4.041  0.9289 -0.1149 -1.7213
 5521SOL     OW28021   1.483   3.445   3.851 -0.0642  0.8968 -0.3238
 5521SOL    HW128022   1.496   3.500   3.774 -1.4170  1.8107  0.1024
 5521SOL    HW228023   1.429   3.380   3.805  0.4219  1.2757 -1.4227
 5522SOL     OW28024   2.716   0.909  13.405  0.1176  0.2077 -0.0694
 5522SOL    HW128025   2.767   0.982  13.440  1.1645 -0.1508 -0.8587
 5522SOL    HW228026   2.628   0.946  13.408  0.2984  0.6040  0.2717
 5523SOL     OW28027   1.898   0.419   2.730 -0.2099 -0.2760 -0.1570
 5523SOL    HW128028   1.927   0.350   2.671 -0.9804 -0.3528 -0.4376
 5523SOL    HW228029   1.879   0.369   2.810  1.6833 -1.7365 -0.6105
 5524SOL     OW28030   0.649   2.678   8.417  0.2924 -0.4788  0.4113
 5524SOL    HW128031   0.590   2.752   8.409 -2.0364 -2.2496  1.1748
 5524SOL    HW228032   0.588   2.604   8.419 -0.5966  0.2686  1.2682
 5525SOL     OW28033   1.628   0.402   5.293  0.1323  0.2385 -0.4067
 5525SOL    HW128034   1.668   0.488   5.281 -3.5971  1.9022 -1.0545
 5525SOL    HW228035   1.700   0.340   5.290  0.2211  0.3946 -1.6483
 5526SOL     OW28036   4.198   0.538  17.099 -0.1159  0.4150  0.2723
 5526SOL    HW128037   4.215   0.540  17.005  0.3102  1.2780  0.3748
 5526SOL    HW228038   4.276   0.491  17.127 -0.6231  1.1189  2.8724
 5527SOL     OW28039   1.339   3.097   7.232  0.0813 -0.1000  0.0677
 5527SOL    HW128040   1.370   3.161   7.296 -1.8889 -0.4653  1.3638
 5527SOL    HW228041   1.314   3.153   7.158 -4.2940 -1.2893  0.6336
 5528SOL     OW28042   0.046   0.335   3.552 -0.0103  0.2619 -0.3616
 5528SOL    HW128043   0.025   0.249   3.588  0.7141  0.1473 -0.2109
 5528SOL    HW228044   4.698   0.387   3.585 -0.2913  1.4746 -2.8536
 5529SOL     OW28045   0.911   3.652  15.253  0.7147  0.0645  0.6026
 5529SOL    HW128046   0.922   3.575  15.196  0.5387  0.2146  0.3641
 5529SOL    HW228047   0.817   3.662  15.241  0.4569 -3.0411  0.0957
 5530SOL     OW28048   2.648   1.506  15.733 -0.5996  0.5243  0.6149
 5530SOL    HW128049   2.660   1.511  15.639 -1.1895 -0.0761  0.5135
 5530SOL    HW228050   2.711   1.576  15.752  1.9241 -0.9349 -2.4023
 5531SOL     OW28051   1.647   0.838  16.958 -0.1396  0.2553  0.7205
 5531SOL    HW128052   1.705   0.915  16.965 -0.8806  0.9806 -1.0973
 5531SOL    HW228053   1.560   0.867  16.985 -0.6614  0.9576 -1.7117
 5532SOL     OW28054   0.407   0.524  12.416  0.6399  0.8552 -0.0215
 5532SOL    HW128055   0.413   0.466  12.492 -0.8399 -0.8657 -1.2344
 5532SOL    HW228056   0.457   0.475  12.350 -0.0993  0.8597 -0.5814
 5533SOL     OW28057   1.210   4.438  17.240 -0.3814  0.0766  0.2686
 5533SOL    HW128058   1.192   4.390  17.321 -1.9155  0.5659  0.2279
 5533SOL    HW228059   1.147   4.399  17.180  2.1195 -1.6355 -1.2495
 5534SOL     OW28060   4.713   3.898   7.556 -1.1729  0.9525 -0.5301
 5534SOL    HW128061   4.649   3.952   7.601 -1.1892 -0.5476  1.2593
 5534SOL    HW228062   0.012   3.959   7.487  1.1277 -0.2950 -0.8388
 5535SOL     OW28063   1.295   3.215  15.808 -0.4413 -0.3084 -0.0425
 5535SOL    HW128064   1.225   3.182  15.752 -0.7555 -0.9781  0.7540
 5535SOL    HW228065   1.306   3.310  15.796 -1.0203 -0.2271  0.1034
 5536SOL     OW28066   0.373   4.175  10.928 -0.0323  0.0998  0.0788
 5536SOL    HW128067   0.297   4.118  10.917 -1.6895  1.5751  4.0603
 5536SOL    HW228068   0.349   4.262  10.958  0.6987 -0.0330  1.0333
 5537SOL     OW28069   2.022   1.100   3.224 -0.1738 -0.0714 -0.5700
 5537SOL    HW128070   2.095   1.116   3.164  0.0121 -0.6064 -0.4937
 5537SOL    HW228071   1.961   1.162   3.186  1.2071  1.1969 -0.7318
 5538SOL     OW28072   2.772   2.271  17.509 -0.2254  0.3039  0.3529
 5538SOL    HW128073   2.749   2.182  17.481 -0.0001 -0.1207  1.5279
 5538SOL    HW228074   2.828   2.266  17.586 -0.2907 -3.2166  0.2154
 5539SOL     OW28075   0.413   4.719  13.948  0.9780  0.2039 -0.2084
 5539SOL    HW128076   0.373   0.055  13.887 -2.2547 -0.7216  0.9778
 5539SOL    HW228077   0.435   0.052  14.020 -1.9034 -0.4165  1.1820
 5540SOL     OW28078   1.858   2.102  16.436 -0.5377  0.2916  0.4168
 5540SOL    HW128079   1.787   2.038  16.422 -0.5275 -0.0433  1.8885
 5540SOL    HW228080   1.812   2.185  16.447 -2.6206 -0.8745  0.5665
 5541SOL     OW28081   2.187   1.251   7.801  0.2498 -0.5230  0.0209
 5541SOL    HW128082   2.144   1.293   7.727  1.9586  0.8371 -0.1991
 5541SOL    HW228083   2.218   1.327   7.851  0.9427 -0.0673 -1.0893
 5542SOL     OW28084   3.955   2.336   7.512 -0.1539 -0.0911 -0.4887
 5542SOL    HW128085   3.926   2.339   7.603 -1.3648 -0.7437 -0.8590
 5542SOL    HW228086   4.038   2.288   7.521  0.0594  0.1693 -1.0168
 5543SOL     OW28087   0.473   2.558  10.391  0.2071 -0.5101  0.3967
 5543SOL    HW128088   0.543   2.495  10.407 -0.4942 -1.0281  1.4712
 5543SOL    HW228089   0.510   2.607  10.318  0.7048 -1.2873  0.1282
 5544SOL     OW28090   1.019   3.662   3.451  0.4290 -0.1230 -0.1764
 5544SOL    HW128091   1.099   3.638   3.498  0.4516 -0.3872 -0.3464
 5544SOL    HW228092   0.998   3.582   3.402  0.2763 -1.0654  1.4370
 5545SOL     OW28093   4.631   1.731  16.257  0.3543  0.2102  0.0584
 5545SOL    HW128094   4.723   1.741  16.230  0.0903 -0.4188 -1.0585
 5545SOL    HW228095   4.638   1.765  16.346 -0.9787  0.8407 -0.0843
 5546SOL     OW28096   3.229   4.537   5.518  0.1237  0.0313 -0.0320
 5546SOL    HW128097   3.288   4.509   5.448  0.6320 -2.0733  1.2362
 5546SOL    HW228098   3.294   4.534   5.588  0.6700 -3.0685 -0.6400
 5547SOL     OW28099   1.336   3.168  16.556 -0.4297 -0.5147  0.1286
 5547SOL    HW128100   1.290   3.189  16.474 -2.3456 -0.5737  1.1838
 5547SOL    HW228101   1.323   3.074  16.564 -1.8096 -0.3083  0.4407
 5548SOL     OW28102   0.264   3.850   2.949 -0.4474 -0.5709  0.5142
 5548SOL    HW128103   0.295   3.782   2.889 -1.1838 -0.4971  0.0544
 5548SOL    HW228104   0.277   3.928   2.895 -0.1967 -1.2146 -0.3492
 5549SOL     OW28105   1.772   0.031   4.361  0.2921 -0.2088  0.3677
 5549SOL    HW128106   1.791   0.087   4.285  0.0742 -1.8795 -0.9023
 5549SOL    HW228107   1.677   0.044   4.369 -0.0425 -0.1413 -3.5192
 5550SOL     OW28108   3.059   3.454  15.098 -0.4125  0.0427 -0.7493
 5550SOL    HW128109   3.007   3.527  15.130  1.0759  1.0200 -0.5724
 5550SOL    HW228110   3.124   3.448  15.168 -0.2663  1.7766 -0.7384
 5551SOL     OW28111   0.825   2.275   2.935  0.9574  0.0408  0.1142
 5551SOL    HW128112   0.905   2.326   2.940  1.9533 -1.5947  0.7069
 5551SOL    HW228113   0.850   2.193   2.977  1.6124  1.4274  2.4230
 5552SOL     OW28114   1.896   2.161  16.764  0.1199 -0.0613 -0.2181
 5552SOL    HW128115   1.865   2.235  16.712  0.0085  1.3383  1.8308
 5552SOL    HW228116   1.882   2.176  16.857 -1.9956 -0.6508 -0.4629
 5553SOL     OW28117   0.026   2.628   2.316  0.7777 -0.0114 -0.0991
 5553SOL    HW128118   4.698   2.631   2.396  0.2592 -0.5162 -0.4275
 5553SOL    HW228119   0.078   2.708   2.327 -0.5634  1.1362 -1.9822
 5554SOL     OW28120   4.636   3.084   3.405 -0.1165  0.2579 -0.1641
 5554SOL    HW128121   4.609   3.065   3.315  0.1848  2.6426 -0.7576
 5554SOL    HW228122   4.705   3.017   3.410  0.6380  0.9975 -0.7131
 5555SOL     OW28123   2.411   2.728  16.749 -0.1846 -0.1903 -0.0191
 5555SOL    HW128124   2.412   2.748  16.843  0.5424  1.3954 -0.3715
 5555SOL    HW228125   2.503   2.747  16.730 -0.3374  1.4879  0.9040
 5556SOL     OW28126   1.466   1.617   2.410  0.4290  0.2115 -0.2996
 5556SOL    HW128127   1.455   1.590   2.502  2.3963  0.6186  0.0547
 5556SOL    HW228128   1.542   1.564   2.385 -0.3301  0.9287 -4.0594
 5557SOL     OW28129   1.309   1.065   2.296 -0.0440 -0.4296 -0.1844
 5557SOL    HW128130   1.349   0.980   2.317  2.1512  0.9259  1.2299
 5557SOL    HW228131   1.374   1.117   2.344  0.1559  0.1172 -1.0567
 5558SOL     OW28132   0.029   0.722   0.041 -0.0163 -0.2876  0.0835
 5558SOL    HW128133   0.121   0.706   0.061 -0.3635 -1.2725  0.8555
 5558SOL    HW228134   4.715   0.638   0.017  1.0102 -1.1796  1.5281
 5559SOL     OW28135   2.897   2.767  11.077 -0.3017 -0.4234  0.4748
 5559SOL    HW128136   2.886   2.678  11.110  1.3966 -0.3722  1.2186
 5559SOL    HW228137   2.834   2.768  11.006  0.1305  0.3445  0.0980
 5560SOL     OW28138   3.815   3.816  14.305  0.3981  0.4898 -0.3908
 5560SOL    HW128139   3.790   3.733  14.265 -0.3361 -0.5975  2.3312
 5560SOL    HW228140   3.899   3.792  14.344  0.4503 -0.1909 -0.9223
 5561SOL     OW28141   3.172   3.668   6.710  0.0935  0.1900  0.0293
 5561SOL    HW128142   3.137   3.604   6.772 -0.7754  1.1569  0.5210
 5561SOL    HW228143   3.097   3.727   6.707  0.4358  0.7118  1.9428
 5562SOL     OW28144   0.430   2.480   8.402  0.1085  0.2479 -0.6987
 5562SOL    HW128145   0.457   2.437   8.321 -0.1807  0.6208 -0.9964
 5562SOL    HW228146   0.346   2.523   8.387  0.7095  1.0889 -1.6452
 5563SOL     OW28147   0.531   3.966  12.985  0.6653  0.0103 -0.2172
 5563SOL    HW128148   0.598   3.901  13.007  0.9802 -0.6353 -3.0873
 5563SOL    HW228149   0.481   3.980  13.065 -1.0559  1.2997 -1.5287
 5564SOL     OW28150   3.367   2.015   2.503  0.0522 -0.2684  0.0217
 5564SOL    HW128151   3.450   2.021   2.455  0.0497 -2.0014 -0.2184
 5564SOL    HW228152   3.316   2.041   2.427 -0.2944  2.0390  1.0439
 5565SOL     OW28153   2.508   4.547  17.530  0.0060 -0.3531 -0.1407
 5565SOL    HW128154   2.595   4.532  17.493 -0.4699  1.8472 -2.1983
 5565SOL    HW228155   2.494   4.483  17.600 -0.4187 -0.0704  0.0341
 5566SOL     OW28156   0.196   3.220   3.804  0.3105 -0.0412  0.6309
 5566SOL    HW128157   0.142   3.299   3.794  2.0007  0.7451 -2.0395
 5566SOL    HW228158   0.280   3.265   3.807 -0.1907  0.9077  0.4766
 5567SOL     OW28159   4.006   4.108   8.257  0.2486  0.1533  0.0283
 5567SOL    HW128160   4.032   4.189   8.302  0.7430  0.7178 -1.2661
 5567SOL    HW228161   3.953   4.074   8.329 -1.1660 -1.7978 -1.9377
 5568SOL     OW28162   0.771   2.855  11.896  0.2380 -0.4050 -0.1836
 5568SOL    HW128163   0.790   2.902  11.815  2.6587  0.3430  0.8389
 5568SOL    HW228164   0.861   2.862  11.928  0.0136 -0.6640  0.5127
 5569SOL     OW28165   2.527   4.569   8.282 -0.4949 -0.0707  0.0915
 5569SOL    HW128166   2.441   4.545   8.317 -0.3981 -0.3888  0.1135
 5569SOL    HW228167   2.566   4.486   8.257  0.2565 -0.5447  2.8961
 5570SOL     OW28168   4.222   0.200   4.083  0.1013  0.0650 -0.1623
 5570SOL    HW128169   4.171   0.270   4.123  0.4706 -1.3461  2.7502
 5570SOL    HW228170   4.308   0.204   4.125  1.1285 -4.3404 -1.8003
 5571SOL     OW28171   1.150   4.298   8.267 -0.1874 -1.0652 -0.0447
 5571SOL    HW128172   1.110   4.358   8.330 -2.8111 -3.3008  0.3774
 5571SOL    HW228173   1.136   4.350   8.188  1.1694  1.1373  1.1390
 5572SOL     OW28174   1.803   2.367   5.056 -0.1589  0.6418  0.0467
 5572SOL    HW128175   1.756   2.318   4.988 -1.2172  1.7775 -0.0454
 5572SOL    HW228176   1.776   2.459   5.049  1.3954  1.0205 -1.0226
 5573SOL     OW28177   1.123   1.929   8.038 -0.2718  0.1335 -0.1266
 5573SOL    HW128178   1.167   1.918   8.123 -0.4235  1.2303  0.0855
 5573SOL    HW228179   1.166   2.005   8.000 -0.9272  0.9608  0.7983
 5574SOL     OW28180   4.075   4.267  11.845 -0.2700 -0.2419  0.1077
 5574SOL    HW128181   4.150   4.216  11.874  1.5358  1.6247 -1.3108
 5574SOL    HW228182   4.106   4.266  11.755  0.1343 -0.3437  0.2493
 5575SOL     OW28183   3.751   3.504   7.516  0.0653 -0.1490 -0.3289
 5575SOL    HW128184   3.669   3.471   7.553 -0.2141  1.6458  0.6515
 5575SOL    HW228185   3.818   3.460   7.569  0.1955 -0.0287 -0.3924
 5576SOL     OW28186   0.399   2.771   3.610 -0.2921  0.2737 -0.1875
 5576SOL    HW128187   0.363   2.758   3.522  1.8041  2.3091 -1.3266
 5576SOL    HW228188   0.492   2.766   3.588  0.6712 -0.6035  4.0579
 5577SOL     OW28189   4.591   0.165   7.589  0.4025  0.6358 -0.0326
 5577SOL    HW128190   4.533   0.181   7.663  0.0226 -0.8616 -0.0218
 5577SOL    HW228191   4.541   0.219   7.528 -0.4445  0.0813  0.1774
 5578SOL     OW28192   0.512   1.681   8.227  0.2060  0.0178 -0.1970
 5578SOL    HW128193   0.505   1.737   8.150  0.6616 -0.7184 -0.7757
 5578SOL    HW228194   0.605   1.686   8.246  0.3379  0.7136 -1.0723
 5579SOL     OW28195   1.596   3.410   2.303 -0.7421 -0.3623  0.4547
 5579SOL    HW128196   1.651   3.460   2.364  0.5377 -1.2187  0.0016
 5579SOL    HW228197   1.506   3.444   2.301 -0.8334 -0.6955 -1.4049
 5580SOL     OW28198   1.570   2.469   5.251  0.8012 -0.1178 -0.1318
 5580SOL    HW128199   1.601   2.438   5.336 -1.1921 -1.3375  0.1527
 5580SOL    HW228200   1.631   2.540   5.229  0.8397  0.0673  0.5933
 5581SOL     OW28201   2.399   2.070   7.086 -0.1698 -0.7362 -0.1235
 5581SOL    HW128202   2.478   2.118   7.112 -1.3735  2.1640 -1.7793
 5581SOL    HW228203   2.439   1.983   7.081 -2.3400 -1.7449 -0.0288
 5582SOL     OW28204   3.092   0.909   6.403 -0.0911 -0.4469 -0.1999
 5582SOL    HW128205   3.184   0.904   6.375  0.3469  0.8744  1.0129
 5582SOL    HW228206   3.057   0.825   6.374 -1.4155  0.2980 -0.7734
 5583SOL     OW28207   2.735   3.400   6.612 -0.1061 -0.3523 -1.1479
 5583SOL    HW128208   2.752   3.494   6.608  1.2111 -0.5570 -0.3293
 5583SOL    HW228209   2.817   3.370   6.574  0.7466  0.5582 -0.0062
 5584SOL     OW28210   4.375   0.457   6.714 -0.1543 -0.1353 -0.2019
 5584SOL    HW128211   4.325   0.538   6.727  0.5272  0.4790 -1.4321
 5584SOL    HW228212   4.314   0.388   6.740  1.4827 -1.5149 -0.0211
 5585SOL     OW28213   2.439   4.716  13.808 -0.2541 -0.3823  0.7292
 5585SOL    HW128214   2.366   4.662  13.838  0.2276 -1.1260  0.5534
 5585SOL    HW228215   2.408   0.079  13.828 -0.6175 -0.0307 -1.4030
 5586SOL     OW28216   3.019   4.453   7.973 -0.1620 -0.2505  0.3904
 5586SOL    HW128217   3.002   4.515   7.903 -0.7820 -0.9244 -0.0539
 5586SOL    HW228218   3.004   4.374   7.921 -0.9707 -0.6464  1.2159
 5587SOL     OW28219   1.224   2.430   8.031  0.3662  0.4481 -0.2906
 5587SOL    HW128220   1.266   2.509   8.063 -0.2722  0.4919  0.4288
 5587SOL    HW228221   1.184   2.472   7.955 -0.9734  0.1627  0.2425
 5588SOL     OW28222   2.076   2.064   7.523  0.3413  0.6609 -0.2347
 5588SOL    HW128223   2.160   2.038   7.483 -0.4738 -2.4460  0.1253
 5588SOL    HW228224   2.084   2.135   7.587  2.4716 -0.5182  0.8207
 5589SOL     OW28225   2.232   4.290  13.978 -0.0503  0.3511  0.5902
 5589SOL    HW128226   2.161   4.330  14.028  0.8240  1.3669  1.0491
 5589SOL    HW228227   2.268   4.237  14.049 -1.5602  0.1852  1.2147
 5590SOL     OW28228   0.438   2.291  12.766 -0.3261 -0.2103  0.1089
 5590SOL    HW128229   0.483   2.346  12.702 -0.0406 -0.4759  0.0835
 5590SOL    HW228230   0.446   2.345  12.845  0.6356 -0.1932  0.0046
 5591SOL     OW28231   1.682   0.144   6.243 -0.5454  0.4696  0.2636
 5591SOL    HW128232   1.752   0.150   6.178 -2.0638  2.2694 -1.2187
 5591SOL    HW228233   1.602   0.131   6.191  1.3498 -0.8986 -2.3189
 5592SOL     OW28234   4.512   3.490   2.206 -0.0409  0.1288  0.1245
 5592SOL    HW128235   4.563   3.549   2.151 -0.6432 -0.3532 -0.9389
 5592SOL    HW228236   4.436   3.478   2.150  0.2844  2.8259 -0.8942
 5593SOL     OW28237   3.186   4.658   2.464  0.2768 -0.1752  0.0379
 5593SOL    HW128238   3.124   4.587   2.445  0.6919 -0.9418  1.5955
 5593SOL    HW228239   3.154   0.008   2.414 -1.4043 -1.0680 -0.2482
 5594SOL     OW28240   1.757   4.230  11.946 -0.7428  0.1929  0.4483
 5594SOL    HW128241   1.663   4.214  11.933 -0.9898  2.2215 -0.2820
 5594SOL    HW228242   1.788   4.201  11.860 -0.8101  0.6549  0.2664
 5595SOL     OW28243   2.033   0.968   5.924 -0.1394 -0.5208  0.1687
 5595SOL    HW128244   1.987   0.885   5.910 -2.2057  0.3262  1.7839
 5595SOL    HW228245   1.971   1.021   5.874  0.7921  0.7423  0.3413
 5596SOL     OW28246   4.695   2.650   7.897  0.0702 -0.4606  0.0534
 5596SOL    HW128247   4.678   2.628   7.988  2.0777  0.9244  0.7755
 5596SOL    HW228248   0.004   2.572   7.853 -1.3799 -1.8091  1.3248
 5597SOL     OW28249   3.415   0.889   6.623 -0.0748  0.3057  0.2137
 5597SOL    HW128250   3.416   0.872   6.528 -0.4423 -1.7625  0.5908
 5597SOL    HW228251   3.451   0.803   6.645 -0.1329  0.1079 -0.4423
 5598SOL     OW28252   4.152   2.524  10.704 -0.1843 -0.3260 -0.0100
 5598SOL    HW128253   4.142   2.553  10.794  0.3685 -0.5756  0.1330
 5598SOL    HW228254   4.212   2.449  10.705  0.4765  0.1924 -0.6219
 5599SOL     OW28255   4.213   0.664   6.699  0.0658  0.0348  0.1795
 5599SOL    HW128256   4.128   0.632   6.728 -0.5301 -0.9798 -2.6924
 5599SOL    HW228257   4.202   0.739   6.641 -1.0501 -0.2918 -0.0136
 5600SOL     OW28258   4.172   0.133   3.822 -0.0724 -0.1963 -0.0970
 5600SOL    HW128259   4.206   0.139   3.911 -0.5342  2.1675 -0.0927
 5600SOL    HW228260   4.171   0.040   3.797 -1.6642 -0.1097 -0.3868
 5601SOL     OW28261   3.881   2.404   9.726 -0.4402 -0.5569  0.3740
 5601SOL    HW128262   3.798   2.452   9.730  0.2992  0.9621 -2.4657
 5601SOL    HW228263   3.867   2.358   9.809 -1.1823 -2.4708 -0.8174
 5602SOL     OW28264   4.695   2.892  13.524 -0.8535  0.5721  0.1006
 5602SOL    HW128265   4.638   2.948  13.576 -0.7083  0.5870  0.2422
 5602SOL    HW228266   4.641   2.877  13.446 -0.4943  1.6271 -0.3498
 5603SOL     OW28267   0.384   3.788  10.027  0.2859  0.3258 -0.0275
 5603SOL    HW128268   0.355   3.849  10.095 -0.7563  0.6830 -0.7869
 5603SOL    HW228269   0.372   3.701  10.067  0.1896 -0.6630 -2.2203
 5604SOL     OW28270   4.353   0.648  14.387  0.0928 -0.4146 -0.3367
 5604SOL    HW128271   4.341   0.571  14.332  2.0329  0.0183 -1.3637
 5604SOL    HW228272   4.305   0.613  14.462  0.6139  2.1692  1.2284
 5605SOL     OW28273   1.252   0.047   0.349  0.2937 -0.1756 -0.2566
 5605SOL    HW128274   1.295   0.123   0.309  1.1429 -0.2297  0.5469
 5605SOL    HW228275   1.246   0.086   0.436 -1.0454  0.6249 -0.7138
 5606SOL     OW28276   0.714   3.616  17.654  0.2717  0.1538 -0.3956
 5606SOL    HW128277   0.726   3.544  17.593 -2.1445 -1.0506  0.5556
 5606SOL    HW228278   0.661   3.578   0.021  0.6543 -0.4604 -0.4418
 5607SOL     OW28279   1.486   1.445   5.157  0.0012  0.3309 -0.1751
 5607SOL    HW128280   1.568   1.452   5.207 -0.7242 -0.0201  1.0641
 5607SOL    HW228281   1.500   1.509   5.088  1.3421  1.3723  1.0657
 5608SOL     OW28282   2.506   3.663  11.550  0.5943  0.7225  0.0813
 5608SOL    HW128283   2.454   3.594  11.509 -0.4063  2.7062 -1.9790
 5608SOL    HW228284   2.436   3.708  11.595  1.1269 -0.4077  2.0332
 5609SOL     OW28285   1.652   2.543   3.695 -0.4538  0.0159  0.3409
 5609SOL    HW128286   1.599   2.464   3.688  0.4329 -0.5575  0.1205
 5609SOL    HW228287   1.609   2.596   3.627 -0.5853 -2.8919 -1.8315
 5610SOL     OW28288   0.247   3.857  11.918  0.3173  0.5219  0.1546
 5610SOL    HW128289   0.216   3.917  11.849  0.9940  0.5962 -0.0822
 5610SOL    HW228290   0.296   3.798  11.862 -0.6576 -0.5981  0.4918
 5611SOL     OW28291   1.737   1.034   4.019  0.1200 -0.3854 -1.1086
 5611SOL    HW128292   1.753   1.094   3.947 -2.3257  2.0389  0.3738
 5611SOL    HW228293   1.674   0.974   3.979  0.6850 -0.0219 -2.5158
 5612SOL     OW28294   2.341   4.526   1.149 -0.1136  0.4012 -0.5430
 5612SOL    HW128295   2.282   4.546   1.077 -1.3629  0.6837  0.5550
 5612SOL    HW228296   2.389   4.609   1.155 -0.4340  0.6156 -0.9461
 5613SOL     OW28297   1.417   1.086   0.836 -0.7176  0.1498  0.0656
 5613SOL    HW128298   1.326   1.074   0.862 -0.1571 -1.7463  1.1091
 5613SOL    HW228299   1.454   1.132   0.911 -0.4358  0.4918 -0.2791
 5614SOL     OW28300   0.818   4.348   5.948 -0.1389 -0.0235 -0.1482
 5614SOL    HW128301   0.863   4.298   6.017  1.3510 -2.7690 -3.0830
 5614SOL    HW228302   0.880   4.420   5.943 -3.5819  2.9729  0.6004
 5615SOL     OW28303   4.179   3.819   3.792 -0.0320  0.6378 -0.6187
 5615SOL    HW128304   4.222   3.852   3.871  2.3957 -0.8640 -1.3219
 5615SOL    HW228305   4.123   3.748   3.827  1.7342 -0.7212 -0.5591
 5616SOL     OW28306   1.084   3.402   2.241  0.4373  0.1166  0.4171
 5616SOL    HW128307   1.079   3.333   2.175 -0.1814  1.1312 -0.5978
 5616SOL    HW228308   0.997   3.395   2.279  0.5070  0.2167  0.5945
 5617SOL     OW28309   0.845   1.546  14.853 -0.7418  0.0192  0.2755
 5617SOL    HW128310   0.936   1.545  14.824 -1.0264 -1.4213 -0.5983
 5617SOL    HW228311   0.855   1.623  14.908 -0.6912 -0.7054  1.2803
 5618SOL     OW28312   2.293   2.029  12.598 -0.2604 -0.4591  0.2674
 5618SOL    HW128313   2.266   1.994  12.513 -0.3842 -1.2644  0.6400
 5618SOL    HW228314   2.247   2.113  12.601  1.7530  0.7879 -3.5802
 5619SOL     OW28315   0.458   0.618   7.713  0.3397  0.0942  0.5668
 5619SOL    HW128316   0.385   0.677   7.731  2.8861  3.8942 -1.5867
 5619SOL    HW228317   0.478   0.649   7.625  0.0857  1.1231  0.8807
 5620SOL     OW28318   3.448   3.664   8.315 -0.4502 -0.6222 -0.0161
 5620SOL    HW128319   3.477   3.574   8.309 -1.9809 -1.0090 -1.8308
 5620SOL    HW228320   3.516   3.711   8.266 -0.3400 -0.9158 -0.1427
 5621SOL     OW28321   2.615   1.081   6.717  0.4545 -0.2064 -0.0746
 5621SOL    HW128322   2.522   1.068   6.732 -0.2746  3.5522 -1.3682
 5621SOL    HW228323   2.630   0.996   6.676 -0.9019  0.5140 -2.0233
 5622SOL     OW28324   4.587   4.286   7.043 -0.5963 -0.2045  0.0425
 5622SOL    HW128325   4.527   4.291   7.118  1.1777  0.4300  1.4041
 5622SOL    HW228326   4.534   4.323   6.972  1.6123  1.7630 -0.5631
 5623SOL     OW28327   1.601   1.334   4.231  0.6252  0.2971 -0.1118
 5623SOL    HW128328   1.576   1.356   4.141 -1.4967  2.7434  1.0955
 5623SOL    HW228329   1.516   1.343   4.275  1.2219 -1.4477  1.4045
 5624SOL     OW28330   2.483   2.788   5.343  0.4894 -0.1491 -0.0431
 5624SOL    HW128331   2.491   2.864   5.400 -2.4599 -1.3603  2.0170
 5624SOL    HW228332   2.437   2.823   5.267 -1.5513 -0.4404  1.0497
 5625SOL     OW28333   2.308   4.693  12.030  0.1871  0.3046 -0.0687
 5625SOL    HW128334   2.330   4.665  11.941  1.0384  0.2224  0.1734
 5625SOL    HW228335   2.348   4.626  12.084  1.1075  1.4554  0.6700
 5626SOL     OW28336   3.197   4.020   0.572  0.1154 -0.0291 -0.3307
 5626SOL    HW128337   3.112   4.056   0.547  1.5023  1.7633 -2.4333
 5626SOL    HW228338   3.165   3.944   0.620  2.3122 -0.7918 -0.0992
 5627SOL     OW28339   3.794   1.824  10.585 -0.3482 -0.3211  0.5139
 5627SOL    HW128340   3.833   1.834  10.498 -0.4432 -0.1075  0.4943
 5627SOL    HW228341   3.715   1.774  10.565 -0.1999 -0.0161 -0.8060
 5628SOL     OW28342   0.105   4.134   6.388 -0.3191  0.0855  0.2581
 5628SOL    HW128343   0.094   4.065   6.453  0.6469  0.0441  0.3856
 5628SOL    HW228344   0.037   4.114   6.323  0.0733 -2.2179  0.5482
 5629SOL     OW28345   0.979   1.055  15.711  0.2313  0.3332 -0.2785
 5629SOL    HW128346   0.968   0.966  15.677 -1.3867 -0.1990  1.6482
 5629SOL    HW228347   0.967   1.104  15.630  1.8326  0.4646 -0.4298
 5630SOL     OW28348   0.738   2.589   5.174  0.1658 -0.1007 -0.2398
 5630SOL    HW128349   0.816   2.634   5.208 -0.0611 -0.2126  0.4334
 5630SOL    HW228350   0.713   2.652   5.107 -0.1621 -0.2810 -0.2846
 5631SOL     OW28351   3.924   0.608   9.579 -0.1577  0.2320  0.0831
 5631SOL    HW128352   3.958   0.658   9.653  1.4556  0.2615 -0.6831
 5631SOL    HW228353   3.972   0.526   9.586  0.7993  0.6916 -1.2738
 5632SOL     OW28354   2.033   0.034   3.768  0.4358  0.8214 -0.2602
 5632SOL    HW128355   2.011   0.091   3.694 -1.6800 -1.4688 -1.4018
 5632SOL    HW228356   2.123   0.014   3.743  0.0993 -2.1068  0.8819
 5633SOL     OW28357   1.706   2.534   8.874  0.4102  0.1893 -0.4943
 5633SOL    HW128358   1.674   2.583   8.949  2.2646  0.5847  0.0335
 5633SOL    HW228359   1.631   2.555   8.819 -1.4527 -2.0606  1.1882
 5634SOL     OW28360   1.432   0.494   3.906 -0.1578  0.4796  0.8609
 5634SOL    HW128361   1.369   0.534   3.966  0.4705  1.5113  0.8287
 5634SOL    HW228362   1.462   0.426   3.966 -1.8459  0.6248  1.8779
 5635SOL     OW28363   1.832   4.258   4.363  0.3107 -0.0253  0.1163
 5635SOL    HW128364   1.800   4.170   4.382  1.6856 -0.5223  0.1451
 5635SOL    HW228365   1.920   4.251   4.400  0.6245 -0.2438 -0.6727
 5636SOL     OW28366   3.148   1.301   2.204  0.3002 -0.4069 -0.0836
 5636SOL    HW128367   3.112   1.352   2.131  0.8060 -0.0043 -0.0548
 5636SOL    HW228368   3.129   1.366   2.272 -2.6182 -2.6758  1.2806
 5637SOL     OW28369   2.310   0.096   2.038 -0.4168  0.4666  0.5111
 5637SOL    HW128370   2.373   0.141   1.983  0.5051  0.3905  1.5052
 5637SOL    HW228371   2.234   0.150   2.016 -0.3319  1.1656  1.9616
 5638SOL     OW28372   3.368   2.719  17.285  0.0501 -0.0809  0.2617
 5638SOL    HW128373   3.357   2.759  17.198 -0.3481 -0.2377  0.2377
 5638SOL    HW228374   3.319   2.639  17.268 -2.6714  1.5790  0.2423
 5639SOL     OW28375   3.341   0.234   5.356 -0.0863  0.2134  0.2687
 5639SOL    HW128376   3.397   0.157   5.364 -1.0761 -0.7427 -2.1542
 5639SOL    HW228377   3.390   0.287   5.294 -0.8129 -1.4003 -1.6835
 5640SOL     OW28378   3.183   1.869   4.789  0.0601 -0.4026 -0.1825
 5640SOL    HW128379   3.254   1.861   4.725  2.8671  0.6811  2.7757
 5640SOL    HW228380   3.232   1.839   4.866  2.3350  1.0137 -1.0821
 5641SOL     OW28381   1.882   3.673   6.557 -0.2081  0.4925  0.3146
 5641SOL    HW128382   1.888   3.624   6.640 -0.0103  0.5952  0.3606
 5641SOL    HW228383   1.870   3.603   6.493 -2.6818 -0.6890  2.0522
 5642SOL     OW28384   2.829   4.265   2.465 -0.1815  0.3484 -0.6072
 5642SOL    HW128385   2.892   4.211   2.417  0.4302 -0.0546  0.6430
 5642SOL    HW228386   2.750   4.230   2.425  1.1803 -1.2415 -1.9424
 5643SOL     OW28387   1.685   4.209  14.337 -0.0081 -0.1894 -0.4196
 5643SOL    HW128388   1.744   4.138  14.312 -0.6178 -0.3897 -1.2855
 5643SOL    HW228389   1.621   4.172  14.398 -2.4795 -0.0802 -2.9362
 5644SOL     OW28390   3.015   0.707   0.693 -0.7731 -0.1599 -0.3691
 5644SOL    HW128391   3.004   0.800   0.672  0.3492 -0.1973 -1.1331
 5644SOL    HW228392   3.072   0.717   0.769 -0.1077  0.1687 -0.9081
 5645SOL     OW28393   0.571   4.142   5.531  0.0212  0.1066 -0.0896
 5645SOL    HW128394   0.538   4.075   5.471 -0.4107  1.4576 -1.3635
 5645SOL    HW228395   0.498   4.152   5.592 -0.4041 -1.0353 -0.4139
 5646SOL     OW28396   3.793   3.667   1.378 -0.1047  0.2445  0.0884
 5646SOL    HW128397   3.785   3.703   1.290  0.1758  0.1397  0.0202
 5646SOL    HW228398   3.703   3.677   1.409  0.2857  0.3001  1.2346
 5647SOL     OW28399   2.792   0.514   7.589 -0.3105 -0.1320  0.2447
 5647SOL    HW128400   2.809   0.423   7.566  0.7263 -0.0281  0.5881
 5647SOL    HW228401   2.825   0.522   7.679 -0.0984 -1.6148  0.3023
 5648SOL     OW28402   0.327   1.611  11.221  0.7256 -0.1203  0.3832
 5648SOL    HW128403   0.328   1.680  11.287  1.0134 -0.1058  0.3636
 5648SOL    HW228404   0.372   1.641  11.142 -1.0169 -1.0267 -0.9618
 5649SOL     OW28405   1.845   0.543  14.883 -0.5629 -0.2602 -0.4964
 5649SOL    HW128406   1.884   0.538  14.970 -1.0702  1.3657 -0.1605
 5649SOL    HW228407   1.808   0.455  14.882  0.1045 -0.5421  0.0055
 5650SOL     OW28408   1.352   1.338  10.155 -0.3704  0.0248  0.2645
 5650SOL    HW128409   1.261   1.309  10.163 -0.3782  0.3471  1.4860
 5650SOL    HW228410   1.390   1.278  10.220  0.8649  1.8837  1.2743
 5651SOL     OW28411   2.370   0.479   4.258  0.4922  0.0095  0.2094
 5651SOL    HW128412   2.364   0.574   4.265 -3.1897 -0.0787 -1.7034
 5651SOL    HW228413   2.417   0.470   4.175  0.7830 -0.0103  0.3780
 5652SOL     OW28414   3.199   0.131   2.847  0.1220  0.0902 -0.3683
 5652SOL    HW128415   3.257   0.055   2.857 -1.4423 -0.9621  0.6693
 5652SOL    HW228416   3.188   0.150   2.940 -0.2318 -3.6038  0.3796
 5653SOL     OW28417   2.696   1.304  13.452  0.0869  0.0632 -0.0695
 5653SOL    HW128418   2.653   1.263  13.376  2.1482 -1.0941 -0.6019
 5653SOL    HW228419   2.772   1.246  13.449 -0.9423 -1.3012  0.7351
 5654SOL     OW28420   3.231   3.774  14.285 -0.1971 -0.1541  0.2470
 5654SOL    HW128421   3.293   3.777  14.357  0.8840  0.2368 -0.7008
 5654SOL    HW228422   3.187   3.690  14.299 -2.6417  1.3651  1.6528
 5655SOL     OW28423   3.572   1.734   2.013 -0.2050 -0.3156  0.3605
 5655SOL    HW128424   3.578   1.651   1.966 -2.0248  0.6869 -1.6082
 5655SOL    HW228425   3.478   1.750   2.005 -0.1433  1.9123  3.7685
 5656SOL     OW28426   0.454   4.575   0.399  0.5832  0.1492 -0.2926
 5656SOL    HW128427   0.527   4.588   0.459 -0.5852  0.2683  1.1089
 5656SOL    HW228428   0.421   4.665   0.397 -2.9650 -1.2080 -2.0986
 5657SOL     OW28429   4.200   0.651   3.447  0.1702  0.5384 -0.0586
 5657SOL    HW128430   4.153   0.630   3.366  1.1676  0.3461 -0.5908
 5657SOL    HW228431   4.253   0.726   3.420 -0.8019  1.2501  0.0204
 5658SOL     OW28432   0.680   1.325   4.097 -0.3691 -0.2356 -0.0530
 5658SOL    HW128433   0.587   1.328   4.074 -0.7778 -0.1888  1.6222
 5658SOL    HW228434   0.708   1.236   4.074 -0.0895  0.3978 -2.1961
 5659SOL     OW28435   2.628   1.037  10.490  0.5518 -0.1676 -0.3616
 5659SOL    HW128436   2.667   1.052  10.404 -1.3336  1.9631 -0.8241
 5659SOL    HW228437   2.625   1.123  10.532 -1.2999 -0.4350  0.0307
 5660SOL     OW28438   1.913   3.101   3.142 -0.0972  0.0283  0.1554
 5660SOL    HW128439   1.950   3.186   3.116 -1.7973  0.8529  0.3964
 5660SOL    HW228440   1.963   3.040   3.088 -1.5390 -2.0008  1.1345
 5661SOL     OW28441   1.502   2.095   4.309 -0.2001 -0.3474 -0.0535
 5661SOL    HW128442   1.445   2.156   4.262  0.5404  1.6727  1.7302
 5661SOL    HW228443   1.442   2.067   4.379 -2.3129  2.2641 -0.8136
 5662SOL     OW28444   0.053   1.739   6.399 -0.6868  0.4591 -0.1204
 5662SOL    HW128445   0.130   1.795   6.407 -0.6331  0.2625  0.6748
 5662SOL    HW228446   0.014   1.775   6.319 -2.8082 -0.2562  0.5660
 5663SOL     OW28447   1.464   2.385   9.934  0.5915  0.1181  0.2646
 5663SOL    HW128448   1.554   2.379   9.965  0.9585 -0.0826 -0.8282
 5663SOL    HW228449   1.415   2.370  10.014 -1.4363  0.9465 -0.8214
 5664SOL     OW28450   3.673   2.034   9.413  0.6043  0.5814  0.6504
 5664SOL    HW128451   3.681   1.945   9.447 -1.2258 -0.6928 -2.2912
 5664SOL    HW228452   3.748   2.080   9.451  1.2407  0.3579 -0.3120
 5665SOL     OW28453   2.896   2.282  11.478 -0.1920  0.3855  0.4496
 5665SOL    HW128454   2.959   2.350  11.453 -0.7282  0.9482  0.6350
 5665SOL    HW228455   2.806   2.310  11.462 -0.5813  0.2849  2.5184
 5666SOL     OW28456   2.818   1.499   5.440  0.0859 -0.1478 -0.8572
 5666SOL    HW128457   2.742   1.452   5.474 -0.8422  1.8896 -0.1356
 5666SOL    HW228458   2.821   1.579   5.492  0.2880 -1.7845  1.6868
 5667SOL     OW28459   1.060   3.540   5.433 -0.0537  0.0218  0.1551
 5667SOL    HW128460   1.033   3.617   5.383 -2.8592 -1.5833 -0.8017
 5667SOL    HW228461   0.972   3.535   5.473  0.8058  0.5597  2.1360
 5668SOL     OW28462   0.706   2.127   6.539 -0.1114  0.3698  0.9010
 5668SOL    HW128463   0.766   2.200   6.523  0.3793 -0.3673 -0.6263
 5668SOL    HW228464   0.652   2.173   6.603 -1.2629  2.9585 -1.9495
 5669SOL     OW28465   1.542   2.118   3.853 -0.1567 -0.1950 -0.0129
 5669SOL    HW128466   1.615   2.095   3.911 -0.4806 -0.3040  0.3548
 5669SOL    HW228467   1.532   2.207   3.886 -0.9726  0.0605 -0.9592
 5670SOL     OW28468   4.213   3.131   3.065  0.7111 -0.1459 -0.1637
 5670SOL    HW128469   4.121   3.121   3.087  0.5060  1.2110 -0.4320
 5670SOL    HW228470   4.247   3.042   3.055  0.3650 -0.1310 -1.4406
 5671SOL     OW28471   2.336   0.798  10.885  0.6647  0.5650 -0.6216
 5671SOL    HW128472   2.356   0.831  10.973  1.2959  0.0982 -0.5944
 5671SOL    HW228473   2.398   0.725  10.883  0.3541  0.2883 -0.0461
 5672SOL     OW28474   3.313   3.060   7.375 -0.4588  0.5512  0.1627
 5672SOL    HW128475   3.309   2.981   7.428  2.4301  0.3184  0.0126
 5672SOL    HW228476   3.389   3.104   7.412 -1.1121  0.6594  1.3543
 5673SOL     OW28477   1.544   4.721   2.301  0.0739  0.4219 -0.1288
 5673SOL    HW128478   1.543   4.668   2.380  0.0227  0.8670  0.1688
 5673SOL    HW228479   1.475   4.680   2.247  0.8390 -1.0702  0.0357
 5674SOL     OW28480   3.693   4.061   7.088  0.3571  0.0580  0.5038
 5674SOL    HW128481   3.633   4.072   7.162 -1.4537  0.7695 -1.0518
 5674SOL    HW228482   3.766   4.011   7.125  0.6283  0.7360  0.8922
 5675SOL     OW28483   3.027   1.459   7.918 -0.2618  0.2433 -0.0020
 5675SOL    HW128484   3.077   1.464   8.000 -0.3753  0.3100  0.0629
 5675SOL    HW228485   2.960   1.527   7.927  1.8765  2.0357  2.4486
 5676SOL     OW28486   1.209   3.365   3.186  0.0295 -0.0177 -0.3121
 5676SOL    HW128487   1.181   3.391   3.098 -1.3700 -1.9424 -0.4429
 5676SOL    HW228488   1.273   3.301   3.154 -0.0432 -0.4771  0.4639
 5677SOL     OW28489   4.247   3.251  17.601  0.2125 -0.3445  0.0873
 5677SOL    HW128490   4.179   3.201  17.557  0.2080  0.3507 -0.7008
 5677SOL    HW228491   4.211   3.301  17.674 -2.1178  0.4291 -1.6053
 5678SOL     OW28492   0.536   1.228   9.388 -0.7511  0.1906 -0.4841
 5678SOL    HW128493   0.621   1.258   9.418 -0.9499 -1.0462  1.3044
 5678SOL    HW228494   0.479   1.297   9.422  0.6855  1.7277 -1.1844
 5679SOL     OW28495   3.887   4.361   4.554 -0.6425 -0.0330 -0.0272
 5679SOL    HW128496   3.810   4.415   4.533  1.2304  1.5116 -2.9778
 5679SOL    HW228497   3.960   4.423   4.553 -1.6418  1.1934  2.8880
 5680SOL     OW28498   1.998   1.682  10.580 -0.1939  0.3787  0.4297
 5680SOL    HW128499   1.949   1.762  10.598  0.8931  1.0813  0.2934
 5680SOL    HW228500   1.993   1.665  10.486  0.4539  1.2615  0.2340
 5681SOL     OW28501   1.859   4.641   0.344 -0.1503  0.2746 -0.3644
 5681SOL    HW128502   1.949   4.659   0.316 -0.3515  0.0737 -1.1581
 5681SOL    HW228503   1.841   4.563   0.291 -0.8947  1.5458 -2.0061
 5682SOL     OW28504   3.044   3.306   7.920 -0.3280 -0.1280  0.6553
 5682SOL    HW128505   3.071   3.381   7.973 -0.9983  1.6618 -1.5124
 5682SOL    HW228506   3.100   3.241   7.960 -1.3650 -0.5534  1.4196
 5683SOL     OW28507   3.317   2.389  14.185 -0.1036 -0.6032  0.4482
 5683SOL    HW128508   3.237   2.437  14.209 -2.1390 -3.5067 -0.4777
 5683SOL    HW228509   3.358   2.339  14.255  0.0345  0.4224  1.0979
 5684SOL     OW28510   1.942   2.305  17.033  0.2152 -0.3092 -0.0537
 5684SOL    HW128511   1.881   2.374  17.056 -0.6923 -1.5242  1.1326
 5684SOL    HW228512   2.022   2.351  17.007 -0.9939 -0.1359 -3.5509
 5685SOL     OW28513   0.469   4.653   6.444 -0.1521  0.0829  0.0178
 5685SOL    HW128514   0.467   0.014   6.484 -1.8746  0.1028 -0.1155
 5685SOL    HW228515   0.475   4.675   6.352 -1.1436  0.6209  0.0785
 5686SOL     OW28516   2.001   4.330  17.448  0.3379  0.4792  0.1280
 5686SOL    HW128517   1.942   4.259  17.425 -3.2948  2.8125  2.2122
 5686SOL    HW228518   2.073   4.319  17.385  0.8077  1.6246  0.4611
 5687SOL     OW28519   4.649   3.382  10.917 -0.0768  0.1346 -0.3069
 5687SOL    HW128520   4.598   3.301  10.916  1.1855 -0.6653  0.7372
 5687SOL    HW228521   4.708   3.356  10.847  1.4321 -0.1300  1.0759
 5688SOL     OW28522   2.774   2.039   2.535 -0.0357  0.0835 -0.4581
 5688SOL    HW128523   2.698   2.094   2.551 -0.0159 -0.0211 -0.0121
 5688SOL    HW228524   2.828   2.109   2.499  0.2888  0.6670  1.1948
 5689SOL     OW28525   3.305   1.275   7.903  0.4829 -0.0386  0.2888
 5689SOL    HW128526   3.284   1.223   7.981 -1.4808 -2.0243 -1.5588
 5689SOL    HW228527   3.351   1.205   7.856 -0.0124  0.4145 -0.8819
 5690SOL     OW28528   1.648   4.214   0.111  0.5196 -0.5149  0.5845
 5690SOL    HW128529   1.712   4.164   0.161  0.7910  0.1500  0.9013
 5690SOL    HW228530   1.616   4.282   0.170 -0.5857 -1.3474  0.9431
 5691SOL     OW28531   0.788   1.993   5.609  0.1130 -0.0743  0.1721
 5691SOL    HW128532   0.705   2.039   5.616  0.0772 -0.5803  3.0692
 5691SOL    HW228533   0.814   1.981   5.701  0.6836 -2.7776 -0.3199
 5692SOL     OW28534   0.006   0.866   6.293  0.0444 -0.0066 -0.5159
 5692SOL    HW128535   4.654   0.920   6.307 -0.4910 -0.3739 -2.0088
 5692SOL    HW228536   4.715   0.873   6.199 -0.4711  2.0598 -0.2628
 5693SOL     OW28537   4.724   1.240   8.614  0.0787  0.2595 -0.2229
 5693SOL    HW128538   0.051   1.304   8.566  1.3628  0.7018  1.7775
 5693SOL    HW228539   4.718   1.176   8.544  1.4374  2.0262 -1.9399
 5694SOL     OW28540   1.845   3.025   6.934 -0.1211 -0.0305  0.1545
 5694SOL    HW128541   1.788   3.094   6.898  0.0686  0.8721  1.5831
 5694SOL    HW228542   1.915   3.082   6.964 -0.2101  1.2256 -2.0015
 5695SOL     OW28543   1.418   3.635   9.102  0.3793 -0.2575 -0.2463
 5695SOL    HW128544   1.483   3.582   9.149 -1.3183 -2.2126 -0.1396
 5695SOL    HW228545   1.337   3.596   9.134  1.7896 -1.2797  2.1308
 5696SOL     OW28546   1.681   4.272  10.728 -0.7283  0.4532  0.4615
 5696SOL    HW128547   1.611   4.208  10.737 -0.1286 -0.1923  0.5402
 5696SOL    HW228548   1.657   4.336  10.795 -1.3394 -1.0326  1.6632
 5697SOL     OW28549   1.852   4.702   2.281  0.3299  0.2619  0.8917
 5697SOL    HW128550   1.917   4.717   2.349  1.4948 -1.0598  0.0541
 5697SOL    HW228551   1.827   4.618   2.320 -1.9625 -0.2381 -1.5677
 5698SOL     OW28552   1.056   2.118   0.595  0.2764  0.1706 -0.1835
 5698SOL    HW128553   1.150   2.113   0.611  0.5727  0.4517 -1.7920
 5698SOL    HW228554   1.042   2.209   0.619 -0.2028  0.3887 -1.2757
 5699SOL     OW28555   1.724   3.102   8.084  0.6963 -0.1064  0.3586
 5699SOL    HW128556   1.633   3.095   8.116 -0.4215  0.6680 -2.6637
 5699SOL    HW228557   1.760   3.171   8.140  2.2252  0.3507 -1.2042
 5700SOL     OW28558   4.394   2.888  17.233 -0.1766 -0.0164 -0.6581
 5700SOL    HW128559   4.424   2.819  17.292 -0.1486 -0.1745 -0.8578
 5700SOL    HW228560   4.460   2.875  17.165  0.6598  3.3449 -0.4703
 5701SOL     OW28561   3.803   3.535   8.787  0.3430 -0.4654  0.3002
 5701SOL    HW128562   3.880   3.557   8.735 -0.8696  0.0876 -1.2567
 5701SOL    HW228563   3.849   3.523   8.870  0.3344 -1.8632  0.1039
 5702SOL     OW28564   1.201   2.323   1.587  0.2744  0.2936  0.2505
 5702SOL    HW128565   1.179   2.296   1.676  0.0047 -2.5257 -0.6722
 5702SOL    HW228566   1.148   2.402   1.586  0.5562  0.4689 -2.0309
 5703SOL     OW28567   2.495   2.652   2.461  0.7084  0.1643  0.2319
 5703SOL    HW128568   2.402   2.661   2.438  0.5316 -1.6652  0.2145
 5703SOL    HW228569   2.521   2.589   2.394  0.4597 -1.0179  1.2455
 5704SOL     OW28570   4.115   1.884  14.658 -0.1273  0.2972 -0.0183
 5704SOL    HW128571   4.200   1.916  14.628 -0.2317  2.8832  2.4201
 5704SOL    HW228572   4.070   1.892  14.574  1.0329 -0.4602 -0.7037
 5705SOL     OW28573   2.715   0.730   6.821  0.2090  0.4155  0.3376
 5705SOL    HW128574   2.656   0.765   6.888  2.4777  0.4657  2.3188
 5705SOL    HW228575   2.787   0.791   6.839 -0.0801  0.6357  0.7429
 5706SOL     OW28576   3.424   2.694   2.171  0.1037 -0.1543 -0.2559
 5706SOL    HW128577   3.349   2.656   2.126  1.9843 -1.0398 -2.7040
 5706SOL    HW228578   3.477   2.614   2.172  0.4939  0.1004 -0.2712
 5707SOL     OW28579   1.769   4.577  13.156 -0.3692  0.0947 -0.3340
 5707SOL    HW128580   1.676   4.557  13.162 -0.7223  2.0164  0.6947
 5707SOL    HW228581   1.771   4.639  13.083  0.9514  1.0808  0.5197
 5708SOL     OW28582   3.755   2.885   9.292 -0.0032  0.3902 -0.3984
 5708SOL    HW128583   3.662   2.886   9.273  0.1724  1.3909 -1.2335
 5708SOL    HW228584   3.764   2.927   9.378 -0.2746  0.5434 -0.4460
 5709SOL     OW28585   4.371   3.448   4.066  0.5579  0.3845 -0.3276
 5709SOL    HW128586   4.420   3.519   4.025 -1.2442  0.6834 -2.0041
 5709SOL    HW228587   4.294   3.443   4.008  0.7142 -1.6779 -0.3556
 5710SOL     OW28588   2.996   2.253   3.965 -0.1828 -0.3504 -0.3374
 5710SOL    HW128589   3.032   2.323   4.020 -0.6115  0.0529 -0.5634
 5710SOL    HW228590   3.049   2.264   3.886 -0.8158  0.1401 -0.7029
 5711SOL     OW28591   2.793   2.231  13.121  0.1985 -0.0298 -0.7972
 5711SOL    HW128592   2.740   2.235  13.201 -2.0297 -0.2037 -2.2777
 5711SOL    HW228593   2.818   2.323  13.119 -1.0600  0.3160 -0.5143
 5712SOL     OW28594   0.991   3.274   3.784  0.4389  0.1100  0.0398
 5712SOL    HW128595   0.969   3.230   3.702 -2.4509 -1.1218  1.4651
 5712SOL    HW228596   0.903   3.289   3.819  1.7555  1.4486  2.7899
 5713SOL     OW28597   4.446   4.073   0.435  0.4357  0.0380 -0.4519
 5713SOL    HW128598   4.358   4.096   0.465  0.9293  3.1314 -1.3806
 5713SOL    HW228599   4.476   4.013   0.503 -0.9138 -0.2084 -0.0586
 5714SOL     OW28600   1.937   4.166   5.163  0.0378 -0.9923  0.1689
 5714SOL    HW128601   1.862   4.121   5.201  2.2019 -2.4138  2.7552
 5714SOL    HW228602   1.953   4.233   5.229 -0.3738  1.3067 -2.0873
 5715SOL     OW28603   2.989   0.858   5.707  0.4419 -0.9329  0.2942
 5715SOL    HW128604   2.906   0.834   5.666 -0.1867  0.4913  0.7533
 5715SOL    HW228605   3.048   0.792   5.670 -0.2809 -1.8323  0.7326
 5716SOL     OW28606   1.475   0.898  15.034 -0.2830 -0.2213  0.4617
 5716SOL    HW128607   1.527   0.915  15.113  0.1694  0.7472 -0.0385
 5716SOL    HW228608   1.538   0.844  14.986 -0.6234 -0.4598  0.2823
 5717SOL     OW28609   0.233   0.983   1.669 -0.0739  0.0448  0.8044
 5717SOL    HW128610   0.310   0.935   1.698 -1.0661 -0.4210  2.6226
 5717SOL    HW228611   0.270   1.069   1.649 -0.0983 -0.6044 -2.0624
 5718SOL     OW28612   0.241   3.807  15.976  0.5266  0.3076  0.3316
 5718SOL    HW128613   0.212   3.811  15.885  0.6301  1.6639  0.3617
 5718SOL    HW228614   0.157   3.819  16.021  0.0060  1.8640 -1.0200
 5719SOL     OW28615   3.766   0.852  13.433  0.0468  0.1412 -0.0658
 5719SOL    HW128616   3.696   0.817  13.489 -2.1729 -0.2027 -3.0299
 5719SOL    HW228617   3.725   0.925  13.386 -0.5391  0.3364  0.7450
 5720SOL     OW28618   1.725   3.644   8.477 -0.2882 -0.0691  0.2390
 5720SOL    HW128619   1.810   3.623   8.516 -1.5668 -1.2708  2.4234
 5720SOL    HW228620   1.705   3.557   8.445  0.2280 -0.3745  0.7372
 5721SOL     OW28621   2.104   4.673   2.473  0.0661  0.0723 -0.0141
 5721SOL    HW128622   2.100   4.578   2.471  0.5236  0.0473  0.1301
 5721SOL    HW228623   2.182   4.682   2.417 -1.6863 -0.4340 -2.5127
 5722SOL     OW28624   3.055   2.710   3.788  0.4484 -0.3088  0.5801
 5722SOL    HW128625   3.077   2.773   3.720 -1.2671 -0.5037 -0.1365
 5722SOL    HW228626   3.076   2.630   3.739  0.9939  0.6902 -0.8171
 5723SOL     OW28627   2.408   1.573   4.928  0.6353 -0.1654  0.0158
 5723SOL    HW128628   2.393   1.483   4.956  1.6216 -0.3336  0.0267
 5723SOL    HW228629   2.504   1.574   4.922  0.5973 -1.1421 -0.7927
 5724SOL     OW28630   2.044   3.024   8.286 -0.2387 -0.2253 -0.0115
 5724SOL    HW128631   1.986   2.989   8.219 -0.1526  3.8759 -2.2152
 5724SOL    HW228632   1.982   3.025   8.359 -0.8471 -0.4756 -0.5321
 5725SOL     OW28633   3.727   1.384   4.956  0.3721 -0.2054  0.0045
 5725SOL    HW128634   3.724   1.396   4.861 -2.5629  1.7274  0.3308
 5725SOL    HW228635   3.723   1.476   4.983  2.3845  0.2401 -1.2480
 5726SOL     OW28636   2.480   2.887   1.311 -0.0754  0.3208 -0.6525
 5726SOL    HW128637   2.518   2.961   1.265  1.1632  0.1746  0.1371
 5726SOL    HW228638   2.423   2.854   1.242  0.0673  0.7941 -0.9923
 5727SOL     OW28639   3.029   2.178   5.929 -0.3227 -0.3344 -0.5201
 5727SOL    HW128640   3.103   2.224   5.889 -0.1153  0.3445  0.6524
 5727SOL    HW228641   3.057   2.087   5.916 -0.9985 -0.8046  1.2920
 5728SOL     OW28642   2.543   4.558   2.324 -0.1725 -0.1581 -0.8134
 5728SOL    HW128643   2.467   4.598   2.282  0.0464 -0.5390 -1.5608
 5728SOL    HW228644   2.574   4.628   2.382  0.8594 -1.0243 -0.3416
 5729SOL     OW28645   3.330   2.597   8.060 -0.4594 -0.1828 -0.6312
 5729SOL    HW128646   3.316   2.655   7.984 -1.4495  0.0039 -0.3097
 5729SOL    HW228647   3.345   2.509   8.026  0.2647 -0.0686 -0.6085
 5730SOL     OW28648   3.867   4.233   8.009 -0.0657 -0.2996 -0.1418
 5730SOL    HW128649   3.899   4.174   7.941  0.6480 -3.9640  3.3026
 5730SOL    HW228650   3.935   4.218   8.075 -0.2076  0.2086  0.1213
 5731SOL     OW28651   2.184   1.655   7.392 -0.7711 -0.2354 -0.1755
 5731SOL    HW128652   2.164   1.736   7.345  1.1787 -0.5173 -1.4873
 5731SOL    HW228653   2.102   1.649   7.442  0.0163 -0.5286  1.0637
 5732SOL     OW28654   3.264   3.342   4.872 -0.3349 -0.5005 -0.1723
 5732SOL    HW128655   3.226   3.430   4.882 -1.4979 -0.8180 -1.8637
 5732SOL    HW228656   3.229   3.294   4.946  2.0775 -0.1422  1.2119
 5733SOL     OW28657   2.948   3.016   3.269 -0.2541  0.4541 -0.0821
 5733SOL    HW128658   3.018   2.995   3.207  1.0417  1.6192  0.9927
 5733SOL    HW228659   2.899   3.080   3.216 -0.7634  0.7286  0.7171
 5734SOL     OW28660   2.857   4.627   4.700  0.1737 -0.2412  0.1015
 5734SOL    HW128661   2.789   4.659   4.758  0.5080  0.7182 -0.0438
 5734SOL    HW228662   2.845   4.689   4.628 -1.2012 -1.0062 -0.3208
 5735SOL     OW28663   1.046   1.132   2.902  0.3048  0.1660  0.3173
 5735SOL    HW128664   1.050   1.120   2.997  1.6131 -1.2703  0.0813
 5735SOL    HW228665   0.979   1.068   2.877  0.0260  0.4404  0.3692
 5736SOL     OW28666   2.641   4.662   1.861  0.2912  0.2359 -0.2790
 5736SOL    HW128667   2.630   4.609   1.783  1.0760  0.7461 -0.7424
 5736SOL    HW228668   2.571   4.622   1.912 -0.9316 -1.7329 -3.5706
 5737SOL     OW28669   4.662   3.353   4.609 -0.5468 -0.1353 -0.0743
 5737SOL    HW128670   0.001   3.414   4.572 -1.5060  0.2908 -1.0413
 5737SOL    HW228671   4.624   3.324   4.526 -1.1978  1.4200 -0.3121
 5738SOL     OW28672   3.949   4.486   3.259  0.2164 -0.6442  0.1379
 5738SOL    HW128673   3.896   4.565   3.266 -1.2423 -1.4332 -1.8539
 5738SOL    HW228674   3.977   4.480   3.168  0.2860  0.1039  0.1107
 5739SOL     OW28675   0.551   1.326   9.010  0.3671 -0.3374 -0.3441
 5739SOL    HW128676   0.570   1.306   8.918 -0.7818 -2.3041 -0.1500
 5739SOL    HW228677   0.527   1.239   9.040  2.9108 -0.1265  2.3425
 5740SOL     OW28678   3.059   0.003   1.409 -0.3016 -0.1604 -0.7951
 5740SOL    HW128679   3.047   4.635   1.391  0.0981 -0.4657  0.5298
 5740SOL    HW228680   2.968   0.026   1.429 -0.3629 -0.7089 -0.4176
 5741SOL     OW28681   2.266   1.245   2.929  0.4250 -0.7542  0.4031
 5741SOL    HW128682   2.277   1.167   2.984 -0.6755  0.9707  3.0623
 5741SOL    HW228683   2.339   1.227   2.869 -0.2818 -1.3584 -0.2653
 5742SOL     OW28684   1.578   4.600  16.538  0.0313  0.4610  0.0973
 5742SOL    HW128685   1.531   4.683  16.529  0.4534  0.7654  0.6619
 5742SOL    HW228686   1.658   4.614  16.487  0.5577  3.1641  1.6468
 5743SOL     OW28687   2.587   3.762   1.667 -0.5627  0.1348  0.1863
 5743SOL    HW128688   2.630   3.697   1.611 -3.7079 -0.8517 -1.0987
 5743SOL    HW228689   2.601   3.723   1.753  3.9172  1.1725 -0.0833
 5744SOL     OW28690   0.820   3.319   0.880  0.3429 -0.3301 -0.1325
 5744SOL    HW128691   0.815   3.298   0.787 -0.2061 -2.2050  0.3353
 5744SOL    HW228692   0.916   3.324   0.882  0.2875  0.3021  0.9804
 5745SOL     OW28693   3.488   0.555  16.299  0.2512  0.4386  0.1612
 5745SOL    HW128694   3.468   0.648  16.290  1.2483  0.5300 -1.0430
 5745SOL    HW228695   3.449   0.537  16.385 -0.2958  1.4859  0.1334
 5746SOL     OW28696   1.215   0.246  11.632 -0.1236  0.0628  0.5818
 5746SOL    HW128697   1.145   0.307  11.653 -2.3561 -2.4231  0.4320
 5746SOL    HW228698   1.284   0.304  11.600 -0.5230  0.1416 -0.1352
 5747SOL     OW28699   1.706   2.309   2.812 -0.1948  0.1630 -0.5672
 5747SOL    HW128700   1.730   2.218   2.828  0.5436  0.7692  1.8412
 5747SOL    HW228701   1.628   2.303   2.757  0.3457  1.3253 -1.4585
 5748SOL     OW28702   3.419   4.709   2.810  0.1844 -0.1942  1.0008
 5748SOL    HW128703   3.445   4.664   2.890  0.2070 -0.9434  0.5790
 5748SOL    HW228704   3.469   4.660   2.745  0.2260 -1.7980  2.2383
 5749SOL     OW28705   1.181   0.977   6.546 -0.2082 -0.1956  0.0366
 5749SOL    HW128706   1.134   0.958   6.465  1.6285  1.0578 -1.3179
 5749SOL    HW228707   1.259   0.922   6.535  0.1594  0.6018 -1.4538
 5750SOL     OW28708   4.265   1.684   8.136  0.3291 -0.1731  0.4210
 5750SOL    HW128709   4.284   1.597   8.172  0.7615  0.4876  1.8059
 5750SOL    HW228710   4.254   1.666   8.043  1.5242  0.6764  0.1102
 5751SOL     OW28711   4.694   3.629  14.787  0.6691 -0.7438  0.1617
 5751SOL    HW128712   4.666   3.701  14.730  1.3851 -1.5096 -1.1336
 5751SOL    HW228713   0.060   3.655  14.803  0.9684 -0.1161 -2.6751
 5752SOL     OW28714   4.004   1.123   4.209  0.0513  0.6316 -0.4290
 5752SOL    HW128715   4.058   1.158   4.280 -0.0015  0.0391 -0.0980
 5752SOL    HW228716   3.918   1.123   4.250  0.8933 -1.1670  1.3652
 5753SOL     OW28717   1.327   3.610   8.860  0.3313  0.2186 -0.3747
 5753SOL    HW128718   1.383   3.665   8.806  3.3018  0.1828  2.6663
 5753SOL    HW228719   1.367   3.624   8.946  1.4290  1.9309 -1.1884
 5754SOL     OW28720   2.287   4.051   1.281 -0.1871  0.1562  0.0387
 5754SOL    HW128721   2.328   4.038   1.195  0.4209 -0.1472  0.3747
 5754SOL    HW228722   2.300   3.964   1.319 -0.5844  0.1192  0.0914
 5755SOL     OW28723   1.401   0.038   2.762  0.4735  0.1807 -0.3725
 5755SOL    HW128724   1.350   0.077   2.832  1.4949 -0.9559  1.0105
 5755SOL    HW228725   1.357   0.048   2.677 -0.2427  0.4361  0.0318
 5756SOL     OW28726   0.309   0.375   9.229  0.0534  0.0262 -0.5078
 5756SOL    HW128727   0.249   0.396   9.301  2.8708 -1.9355  2.3950
 5756SOL    HW228728   0.315   0.463   9.191  0.3135  0.7086  1.0799
 5757SOL     OW28729   1.233   1.635   1.535  0.4388  0.3281  0.2563
 5757SOL    HW128730   1.145   1.657   1.506  0.8246  1.6648  0.0860
 5757SOL    HW228731   1.212   1.571   1.603  0.7775  0.6294  0.6442
 5758SOL     OW28732   0.423   1.293   4.010 -0.2474  0.2560 -0.1444
 5758SOL    HW128733   0.401   1.297   3.917  0.1239 -0.2643 -0.2524
 5758SOL    HW228734   0.345   1.252   4.047 -0.4613 -0.3677 -1.2882
 5759SOL     OW28735   2.209   1.177  11.719  0.2333  0.3685 -0.7517
 5759SOL    HW128736   2.256   1.259  11.703  0.2842  0.2845 -1.0402
 5759SOL    HW228737   2.184   1.160  11.628 -2.3037  2.2238 -0.3906
 5760SOL     OW28738   2.908   1.100   3.283 -0.4838  0.3636 -0.2378
 5760SOL    HW128739   2.944   1.187   3.298  0.5246 -0.0496 -0.2486
 5760SOL    HW228740   2.910   1.085   3.188  0.3304 -2.8280  0.2924
 5761SOL     OW28741   1.948   0.456   9.841 -0.5363  0.4525  0.1225
 5761SOL    HW128742   1.918   0.539   9.878  0.8309  1.5168 -1.1637
 5761SOL    HW228743   1.881   0.393   9.866 -0.3279 -0.1511 -0.8360
 5762SOL     OW28744   0.790   3.745   8.033 -0.5058  0.1753 -0.4706
 5762SOL    HW128745   0.710   3.787   8.065  0.7062  3.3107 -1.6030
 5762SOL    HW228746   0.832   3.812   7.980  0.0789  2.9534  3.5103
 5763SOL     OW28747   0.240   2.054   4.486  0.6166  0.1534 -0.2336
 5763SOL    HW128748   0.191   2.137   4.485  1.5589  0.7782  3.0602
 5763SOL    HW228749   0.272   2.059   4.576 -1.7582  0.9780  0.5658
 5764SOL     OW28750   3.635   4.097  16.622  0.4233 -0.4013  0.0580
 5764SOL    HW128751   3.668   4.071  16.537  1.5853  1.0315  0.0683
 5764SOL    HW228752   3.650   4.192  16.621  1.0490 -0.5032  0.0131
 5765SOL     OW28753   2.109   0.128  16.104 -0.6715  0.4446  0.1504
 5765SOL    HW128754   2.156   0.145  16.185  1.0148  0.3163 -0.8165
 5765SOL    HW228755   2.022   0.101  16.135  0.5467 -1.0493  2.2508
 5766SOL     OW28756   3.176   1.071   2.430 -0.0872 -0.0503  0.1425
 5766SOL    HW128757   3.250   1.019   2.460 -1.0026 -1.7583 -0.4861
 5766SOL    HW228758   3.214   1.158   2.419  0.0965 -0.0004  1.1669
 5767SOL     OW28759   2.970   3.457   1.778  0.1321 -0.0928 -0.2899
 5767SOL    HW128760   2.916   3.392   1.823 -0.6714  0.2586 -0.7668
 5767SOL    HW228761   2.906   3.515   1.737 -0.6216 -1.3855 -0.9359
 5768SOL     OW28762   1.677   1.059   3.601 -0.4407  0.0009 -0.2039
 5768SOL    HW128763   1.733   0.981   3.607 -1.5512 -0.6435  1.6517
 5768SOL    HW228764   1.596   1.030   3.561  0.2446  0.6724 -2.0943
 5769SOL     OW28765   1.660   1.458   7.832  0.4215 -0.0680  0.4238
 5769SOL    HW128766   1.623   1.378   7.868  0.1643 -0.3019 -0.3655
 5769SOL    HW228767   1.738   1.480   7.883  0.4478 -1.2111  0.8907
 5770SOL     OW28768   3.611   0.351   7.775  0.0896 -0.4041  0.1870
 5770SOL    HW128769   3.659   0.423   7.815 -2.3590  0.1894  2.0866
 5770SOL    HW228770   3.670   0.281   7.803 -0.7443 -1.2815 -0.2456
 5771SOL     OW28771   1.862   0.478   0.647  0.0165  0.0332 -0.0349
 5771SOL    HW128772   1.895   0.388   0.652  4.6499  1.7240 -0.0280
 5771SOL    HW228773   1.939   0.528   0.674 -1.5553  1.6946  1.3651
 5772SOL     OW28774   1.268   3.890  12.971 -0.4671 -0.5597  0.4267
 5772SOL    HW128775   1.246   3.798  12.985 -0.5240 -0.3342  1.8036
 5772SOL    HW228776   1.254   3.905  12.877 -2.5468  0.6633  0.9469
 5773SOL     OW28777   1.685   3.117  16.926  0.4410 -0.3794 -0.1784
 5773SOL    HW128778   1.608   3.072  16.892 -1.1892  0.7339  2.0170
 5773SOL    HW228779   1.671   3.104  17.020 -1.1203  2.6287  0.0005
 5774SOL     OW28780   1.327   4.256   2.695 -0.7142  0.0161 -0.6274
 5774SOL    HW128781   1.279   4.314   2.754  1.5325  0.3874  0.8466
 5774SOL    HW228782   1.322   4.310   2.617 -0.9720 -0.1181 -0.7020
 5775SOL     OW28783   1.555   3.383   2.972  0.1669  0.0087  0.0949
 5775SOL    HW128784   1.501   3.458   2.950 -2.3201 -2.2635 -1.5808
 5775SOL    HW228785   1.523   3.325   2.902 -0.9831 -1.2737  1.6867
 5776SOL     OW28786   3.495   3.524   0.633 -0.3041  0.0452  0.3922
 5776SOL    HW128787   3.575   3.493   0.677  0.7445  1.5406 -0.4590
 5776SOL    HW228788   3.442   3.445   0.621 -0.2088 -0.1182  1.0321
 5777SOL     OW28789   2.627   1.733   8.293  0.1120  0.6989 -0.1073
 5777SOL    HW128790   2.570   1.810   8.296  3.0887  2.9431  0.0413
 5777SOL    HW228791   2.694   1.762   8.232 -0.9910  1.0514 -1.1406
 5778SOL     OW28792   1.371   1.774   5.070 -0.3538  0.3117  0.2559
 5778SOL    HW128793   1.284   1.744   5.043 -0.3847  1.0839 -0.5159
 5778SOL    HW228794   1.365   1.750   5.162 -0.3564  1.2312  0.4925
 5779SOL     OW28795   0.315   1.912   5.636  0.1666  0.3082 -0.1186
 5779SOL    HW128796   0.355   1.831   5.605  1.7768  1.2873 -0.6280
 5779SOL    HW228797   0.243   1.870   5.683 -0.1069 -0.4195 -1.1874
 5780SOL     OW28798   2.425   4.195   2.974  0.6516  0.2965  0.5090
 5780SOL    HW128799   2.513   4.159   2.966  1.2077  1.5818  0.8235
 5780SOL    HW228800   2.444   4.286   2.952  0.2795  0.2235 -0.1190
 5781SOL     OW28801   0.016   2.946   6.992  0.7943  0.4072  0.3053
 5781SOL    HW128802   0.096   2.919   6.947 -0.2033 -3.0606  0.6121
 5781SOL    HW228803   4.724   2.865   7.041  0.7546  0.5784  0.5771
 5782SOL     OW28804   3.900   2.411   0.798  0.0985 -0.6159 -0.6344
 5782SOL    HW128805   3.885   2.495   0.753 -1.9880 -1.2090 -1.0370
 5782SOL    HW228806   3.985   2.410   0.840 -0.3083  0.8249  0.2053
 5783SOL     OW28807   2.633   4.071   6.494 -0.2693  0.3057  0.4281
 5783SOL    HW128808   2.673   4.148   6.452  0.7936 -2.4968 -3.6500
 5783SOL    HW228809   2.671   4.003   6.438  0.8155  0.4403  0.9903
 5784SOL     OW28810   1.828   3.501   2.169  0.3337  0.1141 -0.2462
 5784SOL    HW128811   1.762   3.450   2.215  1.2348  0.1914  1.1213
 5784SOL    HW228812   1.772   3.568   2.130  0.0189 -1.0938 -1.9041
 5785SOL     OW28813   0.162   3.986  11.622 -0.0677 -0.1795 -0.4617
 5785SOL    HW128814   0.189   4.022  11.538 -1.0744 -2.3018 -1.6993
 5785SOL    HW228815   0.080   4.032  11.640  0.2527 -0.0735  0.7280
 5786SOL     OW28816   2.941   2.675  14.985  0.2004 -0.1238 -0.1176
 5786SOL    HW128817   3.010   2.612  14.967  2.5654  2.5495 -0.4131
 5786SOL    HW228818   2.861   2.637  14.948 -0.9120  2.2011 -0.1113
 5787SOL     OW28819   3.695   1.866   5.733  0.0249 -0.5096  0.0463
 5787SOL    HW128820   3.770   1.923   5.718 -0.7559  0.5897  0.3648
 5787SOL    HW228821   3.637   1.935   5.765  0.6265  0.2671 -0.5340
 5788SOL     OW28822   1.620   4.311   8.392  0.3098  0.9093  0.8682
 5788SOL    HW128823   1.558   4.292   8.463 -0.3023 -1.4360 -0.2776
 5788SOL    HW228824   1.579   4.303   8.306  2.0425 -1.4773  0.2536
 5789SOL     OW28825   1.319   0.007  11.991 -0.3387  0.3484 -0.3320
 5789SOL    HW128826   1.409   4.700  12.002  0.3538  2.0718 -0.9212
 5789SOL    HW228827   1.278   4.714  12.076 -4.8060  1.5914 -2.2268
 5790SOL     OW28828   0.618   3.603  10.489  0.1807 -0.2020  0.5381
 5790SOL    HW128829   0.533   3.578  10.524 -0.4653  1.0399 -0.1133
 5790SOL    HW228830   0.588   3.664  10.422  1.5870 -0.9575 -0.7713
 5791SOL     OW28831   0.640   3.834   4.800 -0.3230  0.1194  1.2006
 5791SOL    HW128832   0.648   3.756   4.855  1.7189 -0.3217  0.2643
 5791SOL    HW228833   0.627   3.899   4.870  0.1494  0.1439  1.2658
 5792SOL     OW28834   2.336   0.905   8.020 -0.7915 -0.1190  0.1880
 5792SOL    HW128835   2.403   0.967   7.992 -0.9537  1.1654  2.6810
 5792SOL    HW228836   2.299   0.949   8.096  0.8737  2.3230 -0.4281
 5793SOL     OW28837   4.203   0.086  16.226  0.3463  0.1296 -0.1633
 5793SOL    HW128838   4.158   0.136  16.159 -3.1970 -0.6436  1.6182
 5793SOL    HW228839   4.139   0.015  16.232  0.9222 -0.3066  0.7911
 5794SOL     OW28840   3.745   1.234  16.053 -0.4445  0.0922  0.1833
 5794SOL    HW128841   3.811   1.301  16.038 -0.5025  0.2186  0.5080
 5794SOL    HW228842   3.684   1.284  16.106 -0.8153  1.2896 -1.3582
 5795SOL     OW28843   2.621   2.508   2.261 -0.1810  0.3734 -0.0096
 5795SOL    HW128844   2.656   2.593   2.234  2.5569 -0.3025  1.4107
 5795SOL    HW228845   2.562   2.492   2.187  1.0833  0.8133 -1.1026
 5796SOL     OW28846   1.004   1.021   4.915 -0.1053 -0.0350 -0.0095
 5796SOL    HW128847   1.066   1.026   4.843 -0.0290 -0.7901  0.0007
 5796SOL    HW228848   0.950   0.943   4.901  0.9589 -0.7592 -0.0899
 5797SOL     OW28849   1.891   1.879   6.978  0.2057  0.1420 -0.2327
 5797SOL    HW128850   1.885   1.818   6.904  0.3304 -0.7703  0.5083
 5797SOL    HW228851   1.958   1.843   7.036  1.4937 -1.3440 -2.6445
 5798SOL     OW28852   2.215   1.256  17.649  0.1791 -0.1153  0.0864
 5798SOL    HW128853   2.197   1.192  17.580  0.5816  0.1943 -0.3057
 5798SOL    HW228854   2.268   1.325  17.609  0.2185  0.1913  0.6612
 5799SOL     OW28855   4.192   3.751   0.409 -0.6059  0.0923  0.3260
 5799SOL    HW128856   4.283   3.728   0.427 -0.8089 -0.5386  0.5567
 5799SOL    HW228857   4.151   3.727   0.492 -0.6548 -0.5534  0.1157
 5800SOL     OW28858   0.662   1.198  16.346  0.3814  0.3862  0.5474
 5800SOL    HW128859   0.599   1.158  16.285 -0.3987  0.0847  1.5429
 5800SOL    HW228860   0.649   1.148  16.427 -2.1062 -0.8114 -0.5807
 5801SOL     OW28861   2.134   2.997   4.142 -0.7114 -0.2682  0.0056
 5801SOL    HW128862   2.205   2.996   4.207 -2.0538  3.4828  1.5649
 5801SOL    HW228863   2.186   2.995   4.062  2.1215  1.0291  1.7643
 5802SOL     OW28864   3.295   4.443   6.210 -0.0886  0.2880 -0.1016
 5802SOL    HW128865   3.344   4.426   6.291 -1.7905  2.4099  1.3951
 5802SOL    HW228866   3.306   4.355   6.175 -1.2283 -0.4523  1.3520
 5803SOL     OW28867   0.814   2.374   8.564  0.2166 -0.1218  0.0557
 5803SOL    HW128868   0.828   2.420   8.647  2.0633 -4.7537  2.2773
 5803SOL    HW228869   0.720   2.362   8.577  0.1225  0.2234 -0.2881
 5804SOL     OW28870   3.466   4.595  13.933 -0.2023  0.8551  0.6958
 5804SOL    HW128871   3.400   4.531  13.959  2.4328 -1.6273  1.3376
 5804SOL    HW228872   3.413   4.641  13.868  2.1410 -0.0824 -1.9035
 5805SOL     OW28873   0.523   3.839   7.526  0.5325  0.3070  0.4317
 5805SOL    HW128874   0.609   3.796   7.516 -1.3491 -3.1414 -0.9406
 5805SOL    HW228875   0.503   3.830   7.619 -1.5066  0.4012  0.0011
 5806SOL     OW28876   2.322   2.072   5.569 -0.1820  0.3758 -0.4436
 5806SOL    HW128877   2.325   2.155   5.617 -2.0201  0.8950 -1.2603
 5806SOL    HW228878   2.263   2.091   5.496 -1.9697 -0.2612  0.8384
 5807SOL     OW28879   0.258   0.833   2.207 -0.2099  0.1927 -0.0814
 5807SOL    HW128880   0.351   0.826   2.226 -0.0597  1.7469 -0.2316
 5807SOL    HW228881   0.238   0.743   2.232  2.1598 -0.3522 -0.1782
 5808SOL     OW28882   0.888   0.260  12.791 -0.2164  0.6058  0.1526
 5808SOL    HW128883   0.846   0.262  12.877  0.4212  3.0544  0.3799
 5808SOL    HW228884   0.828   0.310  12.735  0.4779  0.8527 -0.3670
 5809SOL     OW28885   2.069   2.916  12.793  0.3168  0.3424 -0.2412
 5809SOL    HW128886   2.039   2.925  12.883 -0.0293 -1.0773 -0.2154
 5809SOL    HW228887   2.117   2.833  12.793 -0.6472 -0.2272 -2.1238
 5810SOL     OW28888   0.545   2.266   5.942 -0.0688  0.1568  0.5179
 5810SOL    HW128889   0.554   2.286   5.849 -1.3303  4.5770  1.3663
 5810SOL    HW228890   0.477   2.322   5.979 -0.5428 -0.7195  0.9773
 5811SOL     OW28891   2.689   0.574  14.042 -0.0073  0.0762  0.0487
 5811SOL    HW128892   2.642   0.652  14.072 -1.3962 -1.8335  2.8445
 5811SOL    HW228893   2.775   0.613  14.058  0.5964 -1.1729 -0.1816
 5812SOL     OW28894   3.249   2.625   5.047  0.3306  0.2592  0.2644
 5812SOL    HW128895   3.225   2.717   5.055 -0.4595  0.1320 -0.5407
 5812SOL    HW228896   3.163   2.584   5.035 -0.4989  1.8260  0.8623
 5813SOL     OW28897   1.967   0.865  13.757 -0.3452  0.2586  0.3744
 5813SOL    HW128898   1.900   0.861  13.690  0.8588 -0.0338 -0.8024
 5813SOL    HW228899   2.012   0.780  13.754  0.9024  0.8291  2.7427
 5814SOL     OW28900   2.677   3.285  12.588  0.1760  0.2621 -0.2820
 5814SOL    HW128901   2.768   3.310  12.571 -0.2405  0.8327 -1.6829
 5814SOL    HW228902   2.628   3.364  12.567 -0.4920  0.4671  2.1285
 5815SOL     OW28903   2.689   2.876  14.794 -0.9018  0.1798  0.4992
 5815SOL    HW128904   2.727   2.809  14.737 -0.1466  0.4818  0.6544
 5815SOL    HW228905   2.600   2.880  14.757 -0.1068  1.9406 -1.2033
 5816SOL     OW28906   2.222   0.904  12.192  0.1677  0.0525 -0.4608
 5816SOL    HW128907   2.243   0.928  12.102 -1.5541  0.6988 -0.6922
 5816SOL    HW228908   2.196   0.814  12.172  1.6292 -0.2418 -1.0292
 5817SOL     OW28909   1.671   0.632   3.262 -0.3651 -0.1268  0.5131
 5817SOL    HW128910   1.613   0.609   3.190 -1.8685  1.0320  1.3516
 5817SOL    HW228911   1.639   0.720   3.283 -1.1424  0.2947 -2.4286
 5818SOL     OW28912   3.626   0.549   8.485  0.4136  0.0252  0.0979
 5818SOL    HW128913   3.594   0.595   8.563  0.0035  0.5027 -0.3592
 5818SOL    HW228914   3.674   0.476   8.527  1.5866  0.7900  0.0817
 5819SOL     OW28915   2.767   3.227   8.069  0.4107  0.1361  0.0969
 5819SOL    HW128916   2.855   3.244   8.036  0.4073  0.7434  0.3879
 5819SOL    HW228917   2.720   3.225   7.986 -0.8062  0.1508  0.7818
 5820SOL     OW28918   4.090   4.660   5.860 -0.0609 -0.1523  0.3551
 5820SOL    HW128919   4.122   4.607   5.787 -0.9000 -1.4464  0.9189
 5820SOL    HW228920   3.996   4.645   5.850 -0.1692  1.3545 -0.8596
 5821SOL     OW28921   0.095   2.516   9.958 -0.7309  0.2275  0.1964
 5821SOL    HW128922   0.005   2.487   9.943 -0.8201  1.3505 -1.4349
 5821SOL    HW228923   0.146   2.442   9.990 -1.0708 -1.3531 -2.8927
 5822SOL     OW28924   3.149   0.165   4.675  0.5712  0.4380 -0.1099
 5822SOL    HW128925   3.060   0.130   4.676  1.4673 -1.8161  1.7825
 5822SOL    HW228926   3.138   0.247   4.723  0.1428 -0.1207  0.7537
 5823SOL     OW28927   0.954   3.689   5.098 -0.0157  0.6814 -0.1411
 5823SOL    HW128928   0.895   3.635   5.150 -0.2723  0.9462 -0.1619
 5823SOL    HW228929   0.974   3.765   5.153 -1.3055  0.5501  0.4960
 5824SOL     OW28930   4.485   1.057  14.300  0.2344  0.2163 -0.4026
 5824SOL    HW128931   4.536   1.131  14.334 -0.3195 -0.2423  1.4067
 5824SOL    HW228932   4.396   1.093  14.298 -0.8777 -2.6115 -1.6443
 5825SOL     OW28933   3.863   4.083   0.336 -0.3685 -0.0914 -0.0336
 5825SOL    HW128934   3.811   4.017   0.290  0.1433  0.1341 -0.9247
 5825SOL    HW228935   3.849   4.164   0.288  0.1728  0.3202  0.5058
 5826SOL     OW28936   2.580   1.160   2.257 -0.2136  0.1115  0.7634
 5826SOL    HW128937   2.505   1.219   2.255 -1.4451 -1.4641  0.5044
 5826SOL    HW228938   2.529   1.089   2.296 -1.0981 -0.1688 -0.9007
 5827SOL     OW28939   4.486   0.144   4.379  0.0565  0.3669  0.2963
 5827SOL    HW128940   4.493   0.128   4.473  0.0962 -0.9673  0.0646
 5827SOL    HW228941   4.504   0.237   4.366 -0.4286  0.4243  0.0439
 5828SOL     OW28942   4.549   4.525   9.287  0.0154  0.2517 -0.5026
 5828SOL    HW128943   4.515   4.558   9.204  1.4033  0.3553 -1.0314
 5828SOL    HW228944   4.477   4.556   9.343  2.0814  0.1019  2.2762
 5829SOL     OW28945   3.987   3.787   8.211  0.0520  0.0519 -0.1824
 5829SOL    HW128946   3.994   3.814   8.302 -0.6291  1.7309 -0.6326
 5829SOL    HW228947   4.078   3.755   8.207 -0.6952 -2.1176  0.1388
 5830SOL     OW28948   0.861   1.530   6.200 -0.5535  0.0441 -0.3021
 5830SOL    HW128949   0.807   1.461   6.163  1.4267 -1.8151  0.2695
 5830SOL    HW228950   0.873   1.505   6.292  0.9864 -0.7198 -0.7018
 5831SOL     OW28951   4.354   3.250   4.278  0.5127 -0.1629  0.5821
 5831SOL    HW128952   4.345   3.327   4.222  0.5387 -0.2665  0.4363
 5831SOL    HW228953   4.332   3.173   4.226 -1.4149 -0.7342  2.2621
 5832SOL     OW28954   1.678   4.265   6.504  0.0372  0.8563  0.2580
 5832SOL    HW128955   1.733   4.336   6.538  0.9644  1.3621 -2.3548
 5832SOL    HW228956   1.680   4.199   6.573  0.9347  0.2888 -0.3225
 5833SOL     OW28957   0.277   1.076  13.160  0.0972 -0.2500  0.3170
 5833SOL    HW128958   0.221   1.153  13.154  1.3754  0.6826  0.4469
 5833SOL    HW228959   0.307   1.071  13.069 -0.3122 -2.7473  0.3073
 5834SOL     OW28960   0.595   4.605   5.140 -0.2781 -0.1461 -0.3550
 5834SOL    HW128961   0.514   4.593   5.091 -0.1135 -1.8776 -0.2143
 5834SOL    HW228962   0.627   4.682   5.094 -0.7637 -1.2301 -2.4955
 5835SOL     OW28963   3.442   2.382   5.008 -0.8431  0.7841  0.1601
 5835SOL    HW128964   3.387   2.303   5.014  0.9080 -0.4016  0.4881
 5835SOL    HW228965   3.415   2.435   5.083 -1.0407  1.8729 -0.6752
 5836SOL     OW28966   3.174   0.693  17.232 -0.1009  0.1854  0.3734
 5836SOL    HW128967   3.254   0.733  17.266  0.2899  0.9977 -1.4725
 5836SOL    HW228968   3.129   0.777  17.216 -0.2418  0.1515  0.5995
 5837SOL     OW28969   4.100   3.888   0.836 -0.2111 -0.1348 -0.4389
 5837SOL    HW128970   4.079   3.867   0.927 -1.6633 -0.5660 -0.8669
 5837SOL    HW228971   4.173   3.949   0.834  0.9831 -1.5680 -0.7167
 5838SOL     OW28972   2.371   2.256   6.296 -0.1039  0.2411 -0.2711
 5838SOL    HW128973   2.443   2.314   6.275 -0.5080  0.1043 -2.0607
 5838SOL    HW228974   2.294   2.312   6.290  1.0037  1.8266  0.4731
 5839SOL     OW28975   1.817   3.352   3.958  0.1795 -0.1696 -0.3423
 5839SOL    HW128976   1.889   3.304   3.999  1.5060  1.4198 -0.7899
 5839SOL    HW228977   1.822   3.315   3.870 -1.1928 -2.5002  0.5590
 5840SOL     OW28978   1.634   4.263   5.133  0.2349 -0.1066  0.4131
 5840SOL    HW128979   1.626   4.339   5.075 -1.1049 -0.5742  0.0054
 5840SOL    HW228980   1.575   4.292   5.203 -0.8207  0.0426 -0.5588
 5841SOL     OW28981   4.515   0.755  14.553 -0.1084 -0.1033 -0.2457
 5841SOL    HW128982   4.587   0.694  14.566  2.0862  2.5954  0.2227
 5841SOL    HW228983   4.458   0.703  14.496  0.3119  0.0416 -0.7998
 5842SOL     OW28984   3.819   4.473   8.278 -0.0106  0.9884 -0.0846
 5842SOL    HW128985   3.913   4.464   8.294  0.2694  2.5667 -0.7770
 5842SOL    HW228986   3.777   4.476   8.364  1.3000 -3.2753  0.7158
 5843SOL     OW28987   1.876   2.471   1.436 -0.3079  0.1887 -0.5536
 5843SOL    HW128988   1.788   2.463   1.398 -0.1055 -0.3924 -0.9042
 5843SOL    HW228989   1.907   2.560   1.421 -0.7940  0.6328  1.0078
 5844SOL     OW28990   1.871   0.801   7.970  0.5605  0.1649 -0.0623
 5844SOL    HW128991   1.927   0.836   8.040  1.3366  0.2932 -0.7378
 5844SOL    HW228992   1.881   0.874   7.909  0.1381 -0.5174 -0.9437
 5845SOL     OW28993   3.860   3.228   7.984 -0.6877 -0.2449  0.2736
 5845SOL    HW128994   3.827   3.175   8.055 -0.5652  0.3352  0.7629
 5845SOL    HW228995   3.797   3.194   7.920 -1.4608  1.0973  0.3170
 5846SOL     OW28996   3.281   2.757   6.414  0.2026  0.1315 -0.6032
 5846SOL    HW128997   3.214   2.707   6.461  1.5719 -0.0079  1.2328
 5846SOL    HW228998   3.233   2.836   6.388 -0.1516  0.0645 -0.1519
 5847SOL     OW28999   2.845   1.167  12.878 -0.1310  0.0044 -0.0448
 5847SOL    HW129000   2.778   1.210  12.931 -0.0213  2.0329 -1.5590
 5847SOL    HW229001   2.920   1.227  12.875 -0.5352  0.3919 -1.9471
 5848SOL     OW29002   1.678   2.127   0.545  0.0961  0.0401  0.3535
 5848SOL    HW129003   1.773   2.134   0.534 -0.0743 -0.4393 -1.4498
 5848SOL    HW229004   1.645   2.058   0.487  0.2857 -0.9628  1.4470
 5849SOL     OW29005   0.164   1.983  16.627 -0.1836  0.4998  0.2295
 5849SOL    HW129006   0.186   1.949  16.713 -0.1229  1.2180  0.4976
 5849SOL    HW229007   0.071   1.962  16.625 -0.1856  0.7037 -1.7966
 5850SOL     OW29008   2.579   1.434   9.790  0.5196  0.0263  0.2197
 5850SOL    HW129009   2.577   1.423   9.695  2.2070 -1.3585  0.3405
 5850SOL    HW229010   2.634   1.363   9.825 -0.9692 -0.5777  1.3318
 5851SOL     OW29011   3.383   0.433   3.618  0.0000  0.0077  0.8095
 5851SOL    HW129012   3.426   0.404   3.699  0.2758  0.3891  0.7951
 5851SOL    HW229013   3.345   0.517   3.644  0.5545  0.2691  0.7672
 5852SOL     OW29014   3.494   3.289   9.113 -0.2426  0.4243  0.1900
 5852SOL    HW129015   3.570   3.346   9.124 -1.8516  2.0755  2.7262
 5852SOL    HW229016   3.524   3.220   9.055 -2.7599 -0.7719  0.3412
 5853SOL     OW29017   1.998   2.562   2.791 -0.0919 -0.4478  0.1607
 5853SOL    HW129018   1.985   2.478   2.836 -0.3629 -0.2889  0.3816
 5853SOL    HW229019   1.978   2.543   2.700 -0.7695 -0.4948  0.3191
 5854SOL     OW29020   4.495   4.408   3.081 -0.1649 -0.1442  0.6502
 5854SOL    HW129021   4.532   4.490   3.048  2.2693 -0.9226  1.4663
 5854SOL    HW229022   4.400   4.420   3.074 -0.5263 -3.3328 -0.1075
 5855SOL     OW29023   3.448   3.953  15.286 -0.3541  0.4903  0.1552
 5855SOL    HW129024   3.456   3.954  15.381 -1.4133 -1.3638  0.2715
 5855SOL    HW229025   3.353   3.942  15.282 -0.5317  1.9990  0.1215
 5856SOL     OW29026   1.203   2.784  10.817  0.0548  0.0875 -0.1737
 5856SOL    HW129027   1.249   2.798  10.900  0.0932  0.3775 -0.2461
 5856SOL    HW229028   1.112   2.778  10.846 -0.7602 -2.0947 -3.1654
 5857SOL     OW29029   2.035   0.247   9.464  0.6574  0.0594  0.0716
 5857SOL    HW129030   1.955   0.270   9.512  0.3240 -1.8996  0.4549
 5857SOL    HW229031   2.109   0.294   9.503  1.9965 -0.3375 -2.0337
 5858SOL     OW29032   2.836   0.152  11.857 -0.3243 -0.6252  0.6810
 5858SOL    HW129033   2.902   0.221  11.847 -1.2419 -0.0259 -1.1421
 5858SOL    HW229034   2.782   0.185  11.929 -2.3905 -1.6006 -0.4222
 5859SOL     OW29035   3.270   4.104   0.837  0.2957 -0.1195 -0.3583
 5859SOL    HW129036   3.233   4.192   0.836 -3.9090 -1.9176 -1.0041
 5859SOL    HW229037   3.255   4.074   0.748 -0.7777 -1.5946  0.3181
 5860SOL     OW29038   3.863   2.810  15.290  0.3365  0.5456  0.1797
 5860SOL    HW129039   3.824   2.743  15.346  0.0716 -1.5735 -2.5655
 5860SOL    HW229040   3.807   2.886  15.302  0.7422  1.0087 -0.8422
 5861SOL     OW29041   0.290   3.437   2.721 -0.0856  0.1657 -1.0509
 5861SOL    HW129042   0.299   3.431   2.626  1.7164  0.7128 -0.9111
 5861SOL    HW229043   0.372   3.394   2.748 -1.3177 -1.5692 -0.0667
 5862SOL     OW29044   3.717   3.734   8.215 -0.1084  0.3864  0.3645
 5862SOL    HW129045   3.650   3.778   8.163  0.3725  1.1635  0.3976
 5862SOL    HW229046   3.796   3.756   8.165 -0.7904  0.2816 -0.7475
 5863SOL     OW29047   2.299   4.558   8.851 -0.0814  0.2819 -0.1071
 5863SOL    HW129048   2.339   4.475   8.826 -1.0845 -0.4037  0.5492
 5863SOL    HW229049   2.211   4.537   8.883  0.7571 -1.6111  0.9559
 5864SOL     OW29050   3.110   0.408   5.063  0.1619 -0.0222  0.5346
 5864SOL    HW129051   3.031   0.456   5.036  1.2603  2.0172  0.9152
 5864SOL    HW229052   3.134   0.476   5.126 -0.6819 -0.3576  1.2083
 5865SOL     OW29053   0.256   0.485   0.755  0.0542 -0.6506 -0.6163
 5865SOL    HW129054   0.272   0.450   0.843  2.3769  1.3899 -0.2093
 5865SOL    HW229055   0.279   0.573   0.785  2.0133 -2.0011  1.8466
 5866SOL     OW29056   0.514   3.656   2.784  0.0274 -0.5601 -0.1805
 5866SOL    HW129057   0.557   3.589   2.836  1.0105  0.1810 -0.0287
 5866SOL    HW229058   0.548   3.738   2.822 -1.4114 -0.5131  1.0109
 5867SOL     OW29059   2.291   2.385   8.800 -0.0939 -0.5178 -0.1231
 5867SOL    HW129060   2.255   2.442   8.732  2.5780 -1.1719 -2.1209
 5867SOL    HW229061   2.216   2.365   8.856 -1.2662 -1.5217 -2.0476
 5868SOL     OW29062   0.984   3.263   6.971 -0.0478  0.0061 -0.2613
 5868SOL    HW129063   1.005   3.356   6.960 -1.4529  0.2444 -1.0436
 5868SOL    HW229064   1.073   3.231   6.976 -0.1946 -0.1010  1.6117
 5869SOL     OW29065   4.482   4.565  10.386  0.0120 -0.3716  0.1081
 5869SOL    HW129066   4.563   4.566  10.336  1.0847  1.7605  1.8773
 5869SOL    HW229067   4.441   4.483  10.357 -0.0333 -1.4958  3.3144
 5870SOL     OW29068   1.243   0.585   9.296  0.2267 -0.6719  0.0466
 5870SOL    HW129069   1.169   0.540   9.338  0.1641 -1.6818 -1.1846
 5870SOL    HW229070   1.251   0.540   9.212  3.3234 -0.4737  0.2532
 5871SOL     OW29071   2.448   2.499   6.880 -0.0935 -0.1802  0.5548
 5871SOL    HW129072   2.475   2.584   6.847 -2.5061  0.6929  0.8766
 5871SOL    HW229073   2.488   2.499   6.967  2.4232 -0.0253 -0.5905
 5872SOL     OW29074   3.892   0.755   1.441 -0.3416  0.0042 -0.1646
 5872SOL    HW129075   3.922   0.685   1.499 -2.8258 -2.2872 -1.6473
 5872SOL    HW229076   3.960   0.821   1.456  0.5215 -0.3392 -2.5585
 5873SOL     OW29077   1.901   4.279  13.218 -0.6124  0.4852 -0.3009
 5873SOL    HW129078   1.879   4.370  13.196 -2.9589 -0.3754 -1.5276
 5873SOL    HW229079   1.947   4.244  13.142 -0.4142 -0.6363  0.3320
 5874SOL     OW29080   4.277   4.133   1.270  0.1099 -0.7940 -0.1442
 5874SOL    HW129081   4.239   4.153   1.184  2.1573 -2.2063 -1.4098
 5874SOL    HW229082   4.249   4.210   1.318 -1.7433 -1.7482  0.3064
 5875SOL     OW29083   0.181   3.373   7.341  0.3400  0.0371 -0.4874
 5875SOL    HW129084   0.267   3.362   7.301  0.6097  0.9570 -0.1643
 5875SOL    HW229085   0.158   3.281   7.350  1.2056 -0.1753 -0.4870
 5876SOL     OW29086   1.344   2.756   4.519  0.4083  0.0352 -0.0047
 5876SOL    HW129087   1.434   2.784   4.531  0.1746  1.8363 -2.3802
 5876SOL    HW229088   1.302   2.835   4.485 -1.4353 -0.7521  0.4522
 5877SOL     OW29089   0.812   3.470   4.223 -0.0656 -0.6051 -0.1438
 5877SOL    HW129090   0.794   3.494   4.133 -0.0848  1.5031  0.4267
 5877SOL    HW229091   0.907   3.467   4.237 -0.1380  2.6494  1.0697
 5878SOL     OW29092   4.167   0.222   0.537  0.4994 -0.0037  0.4025
 5878SOL    HW129093   4.207   0.153   0.484 -2.7816 -1.9769  0.4821
 5878SOL    HW229094   4.131   0.181   0.616 -1.5618  1.4609  0.2253
 5879SOL     OW29095   1.045   1.339   3.798 -0.3297 -0.0268 -0.0950
 5879SOL    HW129096   1.114   1.326   3.733 -2.1252 -0.8977 -1.8594
 5879SOL    HW229097   0.967   1.332   3.743 -1.1973  1.4303  0.9617
 5880SOL     OW29098   3.202   0.955  17.389  0.4361  0.3670  0.4012
 5880SOL    HW129099   3.174   1.044  17.367  1.7901  0.8542  0.6433
 5880SOL    HW229100   3.158   0.954  17.474  1.5297 -0.2380  0.9674
 5881SOL     OW29101   0.456   1.177  17.053 -0.5384  0.4932 -0.2673
 5881SOL    HW129102   0.457   1.137  17.140  1.4043  0.2583 -0.3959
 5881SOL    HW229103   0.505   1.260  17.051 -0.4318  0.4526  0.5264
 5882SOL     OW29104   1.015   1.106  15.431 -0.5126 -0.1121  0.2340
 5882SOL    HW129105   1.038   1.050  15.357  0.6857  0.5122  0.1363
 5882SOL    HW229106   1.016   1.196  15.399  0.9015  1.0012  3.4331
 5883SOL     OW29107   1.536   0.699   7.676  0.2086  0.1892 -0.3400
 5883SOL    HW129108   1.446   0.694   7.708  0.9126 -1.8946  1.3705
 5883SOL    HW229109   1.583   0.683   7.758  0.5706  2.4937 -0.0863
 5884SOL     OW29110   2.001   4.527   7.730  0.7634 -0.0128  0.0144
 5884SOL    HW129111   1.952   4.581   7.792 -2.0024  0.9941 -3.0192
 5884SOL    HW229112   1.944   4.451   7.743  3.2935 -2.2274 -2.1657
 5885SOL     OW29113   3.053   3.408   4.570  0.2445  0.2787 -0.2371
 5885SOL    HW129114   3.048   3.316   4.544  2.8132 -0.0349  0.3113
 5885SOL    HW229115   3.021   3.461   4.497 -0.1141  0.0716 -0.2250
 5886SOL     OW29116   0.182   3.195   9.078 -0.3283 -0.1758 -0.7150
 5886SOL    HW129117   0.142   3.114   9.045 -0.4922 -0.1306 -0.6234
 5886SOL    HW229118   0.262   3.155   9.112 -1.9949 -1.4168  1.7585
 5887SOL     OW29119   1.192   1.147   1.014  0.3737  0.1782 -0.1147
 5887SOL    HW129120   1.177   1.240   1.029  0.9338  0.5395 -1.7581
 5887SOL    HW229121   1.218   1.124   1.103  3.2569  1.8240 -0.5325
 5888SOL     OW29122   2.274   0.274   0.124 -0.3845 -0.3485 -0.1528
 5888SOL    HW129123   2.310   0.208   0.065 -0.4556 -2.0019  1.6762
 5888SOL    HW229124   2.282   0.358   0.078  0.3345  1.2879  2.9853
 5889SOL     OW29125   2.466   3.543  15.447  0.3849 -0.4541  0.2524
 5889SOL    HW129126   2.536   3.598  15.414 -0.4061  0.1011 -0.5076
 5889SOL    HW229127   2.517   3.491  15.509  2.1378  2.1661  0.9663
 5890SOL     OW29128   3.979   2.782   6.573 -0.4308  0.0605 -0.0303
 5890SOL    HW129129   3.972   2.850   6.640 -1.0930  0.3675 -0.4141
 5890SOL    HW229130   3.892   2.742   6.583 -0.2137 -0.1796  0.9870
 5891SOL     OW29131   1.507   2.043   6.127  0.9481 -0.2525 -0.1038
 5891SOL    HW129132   1.492   2.024   6.034 -0.2244  1.2507 -0.2196
 5891SOL    HW229133   1.438   1.992   6.170  0.6849 -0.9670 -1.3613
 5892SOL     OW29134   1.016   2.883   4.675 -0.1065  0.5610  0.4143
 5892SOL    HW129135   1.003   2.896   4.581 -1.1478  1.1237  0.6387
 5892SOL    HW229136   0.979   2.967   4.704 -2.9249  0.3157 -2.5534
 5893SOL     OW29137   0.016   3.785   9.228  0.0849  0.2922  0.2655
 5893SOL    HW129138   4.676   3.830   9.176 -0.9659 -1.2828  0.2410
 5893SOL    HW229139   4.695   3.762   9.308 -1.2584  1.0093 -0.3146
 5894SOL     OW29140   1.372   1.301   8.239  0.2974  0.8014 -0.4554
 5894SOL    HW129141   1.366   1.245   8.317  0.5897  1.2606 -0.0998
 5894SOL    HW229142   1.335   1.247   8.170 -1.9548  1.1672  0.4887
 5895SOL     OW29143   0.172   4.406   4.228 -0.6814  0.4954  0.3328
 5895SOL    HW129144   0.085   4.375   4.253  0.4606 -1.4224  1.9726
 5895SOL    HW229145   0.244   4.342   4.232 -1.1777 -0.1008 -0.1963
 5896SOL     OW29146   2.860   4.520   4.046 -0.3379 -0.5794  0.0311
 5896SOL    HW129147   2.870   4.612   4.025 -3.2974  0.2020  2.0758
 5896SOL    HW229148   2.830   4.481   3.964 -1.0209 -0.2484  0.1286
 5897SOL     OW29149   0.172   4.020   5.775  0.9589 -0.0407 -0.2874
 5897SOL    HW129150   0.100   4.006   5.713 -0.7005  1.2855  1.3463
 5897SOL    HW229151   0.141   3.972   5.851 -1.8712 -0.1150 -1.4834
 5898SOL     OW29152   1.336   3.485   2.730 -0.5396 -0.2271  0.1792
 5898SOL    HW129153   1.374   3.573   2.726 -0.3137 -0.4269 -2.2256
 5898SOL    HW229154   1.269   3.492   2.662 -0.4157 -0.8167 -0.0064
 5899SOL     OW29155   0.883   2.527   7.005  0.6669 -0.4555  0.2154
 5899SOL    HW129156   0.958   2.468   7.013 -0.9897 -2.5889  0.2833
 5899SOL    HW229157   0.835   2.504   7.085 -0.2676  1.1216  0.1116
 5900SOL     OW29158   1.244   2.993   4.421  0.0454  0.1767  0.4555
 5900SOL    HW129159   1.295   3.052   4.476 -1.7334  0.9712  1.2498
 5900SOL    HW229160   1.282   3.011   4.335  4.0092 -1.8768  1.7895
 5901SOL     OW29161   0.109   2.783  11.554  0.2330 -0.4031 -0.2043
 5901SOL    HW129162   0.147   2.826  11.477  0.7529  2.1791  1.4842
 5901SOL    HW229163   0.044   2.845  11.588 -1.7342 -2.3625 -0.4120
 5902SOL     OW29164   3.791   1.961  17.075  0.0241  0.1301  0.2049
 5902SOL    HW129165   3.775   2.024  17.146  2.1650 -0.9604  1.6358
 5902SOL    HW229166   3.806   2.022  17.003 -2.6720  2.0766  1.3080
 5903SOL     OW29167   3.256   1.628   4.479 -0.7399 -0.2175  0.0876
 5903SOL    HW129168   3.314   1.613   4.405  2.2586  1.8123  1.9995
 5903SOL    HW229169   3.230   1.716   4.450 -1.2683 -0.5636 -0.4862
 5904SOL     OW29170   2.487   3.939   1.979  0.1568 -0.8704  0.1804
 5904SOL    HW129171   2.485   3.958   1.886 -0.2648  2.4896  0.8596
 5904SOL    HW229172   2.394   3.944   2.002  0.0647 -0.3859 -0.3084
 5905SOL     OW29173   0.192   1.456   9.174 -0.1753  0.6079 -0.4119
 5905SOL    HW129174   0.140   1.410   9.240 -1.7299 -1.2460 -2.9269
 5905SOL    HW229175   0.201   1.383   9.112 -1.0471 -0.2191  0.4252
 5906SOL     OW29176   2.611   2.510   4.460 -0.4620  0.1218 -0.5101
 5906SOL    HW129177   2.646   2.540   4.543  0.2031 -1.7475 -0.1072
 5906SOL    HW229178   2.678   2.446   4.434  0.4014  0.0749  1.8583
 5907SOL     OW29179   2.482   2.707   5.976  0.1706 -0.2461  0.3821
 5907SOL    HW129180   2.469   2.662   5.892 -0.2915 -1.7453  1.2473
 5907SOL    HW229181   2.487   2.796   5.943 -1.4114 -0.9390 -1.7665
 5908SOL     OW29182   0.132   4.165   3.456  0.1156  0.0056  0.3727
 5908SOL    HW129183   0.186   4.090   3.428 -0.6464 -1.7283  3.5490
 5908SOL    HW229184   0.047   4.140   3.419 -0.2187  1.6723  0.0504
 5909SOL     OW29185   0.142   1.286  13.110 -0.1952  0.3254 -0.4641
 5909SOL    HW129186   0.077   1.272  13.041  0.6102  0.6099 -1.2805
 5909SOL    HW229187   0.201   1.357  13.084 -1.8659  1.6861 -0.5753
 5910SOL     OW29188   0.515   1.104  14.891 -0.2964 -0.0083  0.0930
 5910SOL    HW129189   0.454   1.070  14.955 -0.3907  0.4844  0.2621
 5910SOL    HW229190   0.505   1.041  14.819 -0.2070  0.0304  0.0465
 5911SOL     OW29191   2.071   0.988   5.227 -0.1955  0.1635  0.3052
 5911SOL    HW129192   2.020   1.059   5.267 -0.2950  0.3809 -0.2131
 5911SOL    HW229193   2.157   1.002   5.268 -0.7466 -1.4324  2.0266
 5912SOL     OW29194   2.175   0.022  10.662  0.4400  0.5331 -0.0400
 5912SOL    HW129195   2.239   0.082  10.624 -0.8945  2.1787  0.3156
 5912SOL    HW229196   2.120   0.006  10.585  1.0975 -3.4376  0.3214
 5913SOL     OW29197   0.401   1.652   7.231 -0.0135 -0.1240  0.9956
 5913SOL    HW129198   0.386   1.695   7.147  1.0448  2.3787  2.0928
 5913SOL    HW229199   0.317   1.606   7.219 -0.1912  0.4425  0.0571
 5914SOL     OW29200   2.495   3.271  15.959  0.4548  0.5604 -0.2970
 5914SOL    HW129201   2.541   3.207  15.905  0.8592  0.3042  0.3652
 5914SOL    HW229202   2.408   3.231  15.951 -0.1056  1.4574  1.4046
 5915SOL     OW29203   3.334   3.839   8.484  0.0635 -0.6961 -0.3704
 5915SOL    HW129204   3.382   3.781   8.424 -1.0171  0.3024 -2.2180
 5915SOL    HW229205   3.375   3.808   8.564 -1.8537 -3.8844 -0.6311
 5916SOL     OW29206   3.940   3.243   8.898 -0.6488  0.6749 -0.4144
 5916SOL    HW129207   4.031   3.250   8.867 -0.6826 -0.2276 -0.7248
 5916SOL    HW229208   3.922   3.150   8.884 -2.5189  0.9686  0.0567
 5917SOL     OW29209   3.360   3.957   0.393 -0.4654  0.5857 -0.0634
 5917SOL    HW129210   3.368   4.052   0.386 -1.8512  0.5877 -1.5192
 5917SOL    HW229211   3.301   3.951   0.468 -3.4344  1.6535 -2.3439
 5918SOL     OW29212   3.073   2.338   4.372 -0.2716 -0.0306 -0.3654
 5918SOL    HW129213   3.055   2.417   4.423  2.5131 -0.4292  1.2572
 5918SOL    HW229214   3.168   2.353   4.374 -0.3007  0.1478 -0.3638
 5919SOL     OW29215   0.757   0.183   1.535  0.1701 -0.0947 -0.5365
 5919SOL    HW129216   0.807   0.246   1.587  0.0920 -1.4493  1.2095
 5919SOL    HW229217   0.674   0.176   1.582  0.6459  0.0914  0.3345
 5920SOL     OW29218   2.921   2.079  10.079  0.4439 -0.1723  0.6380
 5920SOL    HW129219   2.913   2.074   9.983  0.7115 -0.5449  0.6348
 5920SOL    HW229220   3.005   2.035  10.092 -1.1243 -3.8313 -1.6561
 5921SOL     OW29221   4.306   4.066   0.800 -0.4008  0.1557 -0.5479
 5921SOL    HW129222   4.292   4.120   0.721 -1.0308  0.9373  0.1008
 5921SOL    HW229223   4.392   4.032   0.777 -0.5578 -0.2894 -0.4761
 5922SOL     OW29224   3.290   1.515   6.955  0.1451 -0.2591  0.2539
 5922SOL    HW129225   3.309   1.533   7.047 -1.8762 -0.1312  0.6297
 5922SOL    HW229226   3.219   1.452   6.967  0.8355 -0.9349  0.8174
 5923SOL     OW29227   3.197   0.825   5.152  0.4643 -0.1419  0.0261
 5923SOL    HW129228   3.282   0.854   5.185  0.8578 -1.2878 -0.0035
 5923SOL    HW229229   3.134   0.850   5.220 -0.7154  0.2343 -1.2000
 5924SOL     OW29230   0.435   3.506   8.775 -0.3421 -0.0070 -0.4249
 5924SOL    HW129231   0.354   3.487   8.823 -0.4015 -0.2166 -0.6083
 5924SOL    HW229232   0.432   3.600   8.755  1.6627  0.8025  3.1696
 5925SOL     OW29233   1.020   0.453   2.633  0.3924 -0.3590 -0.1788
 5925SOL    HW129234   1.076   0.457   2.556  0.6103  0.2777  0.0206
 5925SOL    HW229235   1.084   0.417   2.694 -2.0733 -2.0087  1.4130
 5926SOL     OW29236   1.921   3.242   7.080  0.1316 -0.2804  0.0798
 5926SOL    HW129237   1.830   3.269   7.073 -0.2726 -1.9059 -0.8270
 5926SOL    HW229238   1.958   3.298   7.012 -0.6676 -0.5465 -0.5692
 5927SOL     OW29239   4.350   1.711   5.576 -0.7495  0.2087 -0.0829
 5927SOL    HW129240   4.313   1.723   5.488  1.5765  0.2728 -1.0563
 5927SOL    HW229241   4.428   1.658   5.559 -1.2453  0.2344 -2.5165
 5928SOL     OW29242   2.661   1.877   4.583  0.2891 -0.2326  0.0290
 5928SOL    HW129243   2.659   1.839   4.670  3.6923 -0.0168  0.2031
 5928SOL    HW229244   2.749   1.914   4.575 -0.1224  0.5608 -0.8435
 5929SOL     OW29245   1.337   3.377   2.023  0.1805 -0.5289 -0.4143
 5929SOL    HW129246   1.263   3.317   2.028  0.9045 -1.2628  1.3513
 5929SOL    HW229247   1.406   3.341   2.079  1.1883  1.0463 -0.6281
 5930SOL     OW29248   1.148   1.662   4.974  0.4574  0.3734  0.7687
 5930SOL    HW129249   1.160   1.656   4.879 -0.1855 -0.1820  0.7209
 5930SOL    HW229250   1.094   1.586   4.997  2.3128 -0.8009  1.2239
 5931SOL     OW29251   2.608   2.791  13.924 -0.3620  0.4226 -0.4303
 5931SOL    HW129252   2.682   2.748  13.882  0.5000  1.9390 -0.4789
 5931SOL    HW229253   2.550   2.772  13.851 -0.1825 -4.0808  0.6163
 5932SOL     OW29254   3.528   1.340  14.012  0.0281 -0.0409 -0.4904
 5932SOL    HW129255   3.564   1.255  14.035  0.0644 -0.1031 -0.7754
 5932SOL    HW229256   3.609   1.390  14.010 -0.0707  0.2482  2.2890
 5933SOL     OW29257   2.756   2.708   2.129 -0.3865 -1.0285  0.3455
 5933SOL    HW129258   2.836   2.698   2.180  0.2963 -0.7458 -0.6759
 5933SOL    HW229259   2.727   2.798   2.141 -2.2758 -1.5089 -0.5081
 5934SOL     OW29260   4.080   2.565   9.586 -0.1357 -0.0547  0.0208
 5934SOL    HW129261   4.014   2.517   9.637  0.2533  0.2740  0.8175
 5934SOL    HW229262   4.028   2.632   9.542  0.8798  1.3887  1.0294
 5935SOL     OW29263   1.134   3.542   9.128 -0.8479  0.3248 -0.5564
 5935SOL    HW129264   1.175   3.467   9.170 -1.8842  0.3593  0.5091
 5935SOL    HW229265   1.128   3.516   9.036  1.4028  0.3183 -0.7046
 5936SOL     OW29266   2.743   4.612   2.728  0.1213  0.1844  0.4359
 5936SOL    HW129267   2.674   4.670   2.759 -1.0910 -1.1581  0.2362
 5936SOL    HW229268   2.791   4.671   2.669 -2.5042  1.3679 -0.5290
 5937SOL     OW29269   4.376   4.414   5.506 -0.2150  0.0533  0.4666
 5937SOL    HW129270   4.307   4.363   5.464 -0.5318  0.9512 -0.1122
 5937SOL    HW229271   4.415   4.446   5.424  0.1461  0.8892  0.9607
 5938SOL     OW29272   1.816   2.592   8.015 -0.3439  0.0012 -0.0641
 5938SOL    HW129273   1.873   2.534   8.066 -2.2867 -1.0462  0.8720
 5938SOL    HW229274   1.750   2.530   7.986 -0.8016  1.1097 -1.4214
 5939SOL     OW29275   1.225   2.376   2.089 -0.2891 -0.1529  0.6984
 5939SOL    HW129276   1.169   2.319   2.141 -0.5424 -0.6139 -0.0837
 5939SOL    HW229277   1.284   2.415   2.154  2.1467 -3.1547  0.2851
 5940SOL     OW29278   0.893   0.834   8.899 -0.0760 -0.0540  0.0040
 5940SOL    HW129279   0.956   0.807   8.966 -0.1089 -2.6040 -1.0027
 5940SOL    HW229280   0.822   0.847   8.961  0.0461  2.0901 -0.3120
 5941SOL     OW29281   3.465   2.848   9.511  0.2335 -0.2490 -0.2655
 5941SOL    HW129282   3.376   2.870   9.484  1.1794  0.3115 -2.9457
 5941SOL    HW229283   3.450   2.769   9.563  0.9822  0.2253  0.6628
 5942SOL     OW29284   1.582   3.970  11.739  0.3267  0.0155  0.4962
 5942SOL    HW129285   1.571   4.063  11.759  0.8533 -0.5426  3.4649
 5942SOL    HW229286   1.605   3.977  11.647 -1.0671 -2.0424  0.0011
 5943SOL     OW29287   1.056   1.277   5.851 -0.0141 -0.0894 -0.1675
 5943SOL    HW129288   1.037   1.365   5.819 -1.1088  0.0528  0.8906
 5943SOL    HW229289   1.014   1.227   5.781  0.4889 -0.1683 -0.4145
 5944SOL     OW29290   1.361   1.076  13.771 -0.3652 -1.2412 -0.3123
 5944SOL    HW129291   1.358   1.076  13.866  0.0021 -0.2327 -0.3010
 5944SOL    HW229292   1.372   1.170  13.755 -1.2991 -0.9261  0.9704
 5945SOL     OW29293   2.146   2.593   7.888 -0.1671 -0.1176 -0.0428
 5945SOL    HW129294   2.072   2.577   7.830  0.7498 -1.4660 -0.8347
 5945SOL    HW229295   2.198   2.651   7.832 -1.9334  1.4294 -0.0774
 5946SOL     OW29296   0.954   3.347   6.451 -0.6054 -0.0793  0.4592
 5946SOL    HW129297   0.996   3.401   6.384 -2.5430  0.8218 -0.0508
 5946SOL    HW229298   1.009   3.269   6.449 -0.1364  0.3025 -2.3867
 5947SOL     OW29299   3.085   2.919   3.595  0.7324  0.1274  0.2454
 5947SOL    HW129300   3.009   2.959   3.553 -0.6060 -1.4372  1.2095
 5947SOL    HW229301   3.163   2.972   3.576  0.6819  0.4366  0.8935
 5948SOL     OW29302   2.896   3.455  16.630  0.2289  0.1617 -0.2074
 5948SOL    HW129303   2.873   3.441  16.722 -0.3322 -0.5558 -0.4547
 5948SOL    HW229304   2.984   3.489  16.646  0.1415  0.1814  0.2268
 5949SOL     OW29305   1.241   2.133   8.642  0.0985 -0.2577 -0.3366
 5949SOL    HW129306   1.263   2.053   8.690  1.4836  0.1906 -0.2329
 5949SOL    HW229307   1.163   2.165   8.688 -0.6368 -1.5479 -0.6619
 5950SOL     OW29308   0.861   2.861  13.051 -0.0742 -0.1044 -0.1872
 5950SOL    HW129309   0.932   2.844  13.113 -0.6619 -1.2256  0.1722
 5950SOL    HW229310   0.826   2.944  13.085  1.2130  0.7499 -0.9283
 5951SOL     OW29311   2.068   1.937   1.799 -0.5847 -0.1916  0.8731
 5951SOL    HW129312   1.987   1.956   1.847 -1.7659 -0.0855 -1.1416
 5951SOL    HW229313   2.035   1.865   1.745  3.6128 -0.4373 -1.3595
 5952SOL     OW29314   2.682   2.882   0.192 -0.0528  0.0907 -0.5212
 5952SOL    HW129315   2.749   2.847   0.134  1.7323  2.5687  0.0455
 5952SOL    HW229316   2.653   2.809   0.246  0.5730  0.4928  0.3683
 5953SOL     OW29317   1.899   1.143  10.136 -0.4622 -0.2559  0.4852
 5953SOL    HW129318   1.877   1.223  10.090 -3.1673 -1.1316  0.2259
 5953SOL    HW229319   1.822   1.126  10.190 -2.0876 -0.5349 -1.9252
 5954SOL     OW29320   0.200   0.516   4.392 -0.4320 -0.2451  0.0195
 5954SOL    HW129321   0.275   0.536   4.337 -0.9552 -0.5134 -0.7815
 5954SOL    HW229322   0.181   0.608   4.410 -1.4311 -0.4905  0.1944
 5955SOL     OW29323   0.177   1.957  14.617 -0.2960 -0.5366  0.2103
 5955SOL    HW129324   0.118   1.951  14.692  0.3637 -1.0393  0.6907
 5955SOL    HW229325   0.254   1.995  14.659 -0.2478  0.6375 -0.9671
 5956SOL     OW29326   1.295   2.947   2.691 -0.2755  0.3562 -0.6560
 5956SOL    HW129327   1.350   2.870   2.700 -0.0912  0.2275 -2.8037
 5956SOL    HW229328   1.301   2.965   2.597 -1.8589 -0.1017 -0.8486
 5957SOL     OW29329   4.129   0.197   3.234  0.0723 -0.2518  0.4888
 5957SOL    HW129330   4.223   0.209   3.249  0.3264 -0.6518 -0.7852
 5957SOL    HW229331   4.136   0.106   3.206 -1.3543 -0.1798 -0.0727
 5958SOL     OW29332   1.986   2.883  15.732 -0.1474 -0.3251 -0.1805
 5958SOL    HW129333   1.953   2.823  15.665  0.2213  0.7858 -1.3647
 5958SOL    HW229334   1.932   2.864  15.809  1.0123  0.8752  0.9349
 5959SOL     OW29335   4.178   2.959   4.557 -0.1293 -0.4064 -0.3931
 5959SOL    HW129336   4.272   2.956   4.539 -0.3029 -1.8710 -1.0786
 5959SOL    HW229337   4.164   3.031   4.619  2.6932  0.2727 -0.5524
 5960SOL     OW29338   1.705   2.460   4.679  0.6902  0.1122  0.5371
 5960SOL    HW129339   1.662   2.402   4.616 -0.3980  1.6521 -0.1242
 5960SOL    HW229340   1.777   2.400   4.701 -1.0551 -1.3723  2.2913
 5961SOL     OW29341   1.091   2.188  15.208 -0.1495 -0.0847  0.0073
 5961SOL    HW129342   1.021   2.201  15.143 -0.9379 -0.3622  0.7970
 5961SOL    HW229343   1.057   2.111  15.254 -3.7540  0.7271 -1.2440
 5962SOL     OW29344   3.254   1.564   6.394  0.1996 -0.1756  0.0712
 5962SOL    HW129345   3.283   1.648   6.429 -0.1278  0.3320 -0.8781
 5962SOL    HW229346   3.255   1.589   6.302 -0.3297 -1.3984 -0.2642
 5963SOL     OW29347   0.729   3.595   7.195 -0.0579  0.4834  0.4570
 5963SOL    HW129348   0.822   3.586   7.216  0.1784  1.4410 -0.1787
 5963SOL    HW229349   0.730   3.673   7.139  0.4400  0.3546  0.2881
 5964SOL     OW29350   0.173   1.294   6.954 -0.5359  0.3691  0.4255
 5964SOL    HW129351   0.245   1.355   6.942  1.7165 -2.5899 -0.9957
 5964SOL    HW229352   0.125   1.317   6.874  1.0712  0.0140 -0.6497
 5965SOL     OW29353   2.102   2.600   6.724  0.1474 -0.1080  0.1833
 5965SOL    HW129354   2.104   2.586   6.819  0.5239  1.2236  0.3765
 5965SOL    HW229355   2.171   2.542   6.693 -1.7893 -1.0505 -2.3034
 5966SOL     OW29356   4.089   4.575   4.765 -0.3213 -0.2320 -0.4469
 5966SOL    HW129357   4.184   4.566   4.761 -0.5821 -1.3368 -4.0759
 5966SOL    HW229358   4.067   4.482   4.759 -0.2701 -0.3421  1.0535
 5967SOL     OW29359   3.737   1.039   3.005 -0.9626 -0.1999  0.1292
 5967SOL    HW129360   3.675   1.096   3.051 -3.0471 -2.7859  0.5553
 5967SOL    HW229361   3.699   1.027   2.918 -0.3357  0.2700 -0.2132
 5968SOL     OW29362   1.599   0.047   7.818  0.2810 -0.0364  0.3199
 5968SOL    HW129363   1.556   0.121   7.776  1.4255  1.4397  1.7369
 5968SOL    HW229364   1.525   4.720   7.846 -0.6133  1.3947  0.6077
 5969SOL     OW29365   4.507   0.348   4.641 -0.0340  0.1443  0.2263
 5969SOL    HW129366   4.456   0.268   4.627 -2.1870  1.3578  1.2004
 5969SOL    HW229367   4.579   0.340   4.578 -0.8334 -1.4034 -0.4838
 5970SOL     OW29368   2.967   1.204   0.317 -0.2262 -0.0113 -0.1345
 5970SOL    HW129369   2.920   1.156   0.384 -0.6521 -0.4499 -0.7461
 5970SOL    HW229370   3.035   1.139   0.297 -0.1833 -0.4138  1.3143
 5971SOL     OW29371   3.747   2.382   7.093 -0.5068  0.4539 -0.1914
 5971SOL    HW129372   3.661   2.403   7.129 -0.8366  0.5149 -1.0191
 5971SOL    HW229373   3.780   2.467   7.064  1.4912 -1.2678 -3.0152
 5972SOL     OW29374   0.957   1.878   7.728 -0.3168 -0.2542 -0.6747
 5972SOL    HW129375   0.970   1.973   7.731 -2.3766  0.0737 -1.9592
 5972SOL    HW229376   1.042   1.850   7.695 -0.8326 -0.2586 -1.9911
 5973SOL     OW29377   3.944   3.501   8.266 -0.4948 -0.2363 -0.0639
 5973SOL    HW129378   3.935   3.595   8.248 -0.7656 -0.2723 -0.1167
 5973SOL    HW229379   3.898   3.493   8.349  1.8702 -0.3315  1.2482
 5974SOL     OW29380   0.526   3.771   0.924 -0.3522  0.1530  0.0521
 5974SOL    HW129381   0.552   3.818   1.004 -2.1137  0.2332  0.5816
 5974SOL    HW229382   0.591   3.701   0.926  1.7043  2.0868  0.8387
 5975SOL     OW29383   4.424   4.681   1.755 -0.0128  0.1556  0.5767
 5975SOL    HW129384   4.360   4.644   1.816 -0.3229  0.3643  0.3770
 5975SOL    HW229385   4.490   4.725   1.809  0.3473  0.2301  0.0710
 5976SOL     OW29386   1.287   1.539   9.140 -0.4273  0.5829 -0.0370
 5976SOL    HW129387   1.296   1.605   9.071  0.0302 -0.0308 -0.5630
 5976SOL    HW229388   1.207   1.568   9.184 -0.5629 -1.4933  1.0926
 5977SOL     OW29389   2.824   4.176   5.437  0.4233  0.2989  0.0579
 5977SOL    HW129390   2.887   4.215   5.498  0.0624 -0.2200  0.7535
 5977SOL    HW229391   2.885   4.128   5.381 -1.2460 -0.8254 -0.7964
 5978SOL     OW29392   2.540   0.402   9.416  0.2813 -0.0982  0.0848
 5978SOL    HW129393   2.618   0.349   9.432  2.1997  1.9429 -2.4882
 5978SOL    HW229394   2.462   0.352   9.439 -0.8834  1.5448 -0.3254
 5979SOL     OW29395   0.706   4.178   8.138  0.2058 -0.2889  0.2547
 5979SOL    HW129396   0.629   4.234   8.147 -0.8826 -1.6201 -0.8683
 5979SOL    HW229397   0.729   4.164   8.230  2.1221  1.7263  0.0885
 5980SOL     OW29398   3.099   0.830  12.074 -0.1209  0.2349 -0.1409
 5980SOL    HW129399   3.114   0.750  12.023  1.0202  0.8278 -0.7465
 5980SOL    HW229400   3.183   0.874  12.062 -0.8229  2.3528  2.9928
 5981SOL     OW29401   1.220   1.744   8.571 -0.1471  0.3403  0.1266
 5981SOL    HW129402   1.286   1.809   8.546  0.1386 -0.2932 -0.7754
 5981SOL    HW229403   1.263   1.675   8.521  0.3280  1.9897 -1.7669
 5982SOL     OW29404   2.995   1.344  13.212  0.2000 -0.4163  0.2236
 5982SOL    HW129405   2.937   1.276  13.176  0.8545 -0.5270 -0.6155
 5982SOL    HW229406   3.008   1.303  13.297 -1.2492 -1.8294 -0.2270
 5983SOL     OW29407   0.500   2.839  11.945 -0.0242  0.1678  0.2152
 5983SOL    HW129408   0.462   2.905  11.886 -0.0358 -1.6993 -1.8531
 5983SOL    HW229409   0.593   2.841  11.924  0.4198  2.5187  2.2950
 5984SOL     OW29410   4.558   0.638   9.623 -0.1832 -0.3062 -0.5074
 5984SOL    HW129411   4.492   0.597   9.680 -0.2927  2.1980  1.1847
 5984SOL    HW229412   4.510   0.634   9.540  0.9158 -0.8203 -1.1098
 5985SOL     OW29413   3.650   1.921  14.639  0.2402 -0.5683  0.1414
 5985SOL    HW129414   3.716   1.861  14.672 -0.4810 -1.3142  0.2139
 5985SOL    HW229415   3.690   1.951  14.557  0.9209  1.0605  1.0683
 5986SOL     OW29416   1.524   3.362   6.614  0.0755  0.1356  0.3428
 5986SOL    HW129417   1.471   3.414   6.675 -0.4022  0.8699 -0.6965
 5986SOL    HW229418   1.551   3.432   6.554  0.5618 -1.9572 -1.8506
 5987SOL     OW29419   0.602   2.831   5.808 -0.1400  0.1505 -0.0469
 5987SOL    HW129420   0.572   2.922   5.796 -1.6215 -0.1485  1.4497
 5987SOL    HW229421   0.657   2.839   5.886 -0.1214 -1.3237  0.0773
 5988SOL     OW29422   1.619   4.503   1.811 -0.5946 -0.7784 -0.3133
 5988SOL    HW129423   1.648   4.412   1.803  0.6161 -0.6528  2.6155
 5988SOL    HW229424   1.662   4.547   1.739  0.5933  0.9446  1.4565
 5989SOL     OW29425   3.546   0.957  14.612 -0.2752  0.0919 -0.1336
 5989SOL    HW129426   3.591   0.878  14.642  2.1958  0.4406 -2.8951
 5989SOL    HW229427   3.581   0.965  14.523  0.2810 -0.7002  0.0085
 5990SOL     OW29428   3.977   1.344   2.469 -0.7124  0.0648  0.4501
 5990SOL    HW129429   3.962   1.314   2.380  1.6017  1.8901 -0.5467
 5990SOL    HW229430   3.957   1.437   2.461  0.6866  0.4506  1.3369
 5991SOL     OW29431   0.033   1.832  14.072  0.6598 -0.3131  0.4956
 5991SOL    HW129432   4.678   1.830  14.124 -0.6870  0.8366 -1.4962
 5991SOL    HW229433   0.101   1.802  14.132 -0.6802  1.3339  2.8232
 5992SOL     OW29434   2.224   0.380   1.446  0.2075  0.4640  0.3145
 5992SOL    HW129435   2.151   0.388   1.507 -1.7184 -0.4134 -1.8747
 5992SOL    HW229436   2.302   0.396   1.500  1.0163 -1.4679 -0.2850
 5993SOL     OW29437   3.407   1.901   3.131  0.0967 -0.7226  0.2720
 5993SOL    HW129438   3.429   1.970   3.069 -1.0030 -0.2533  0.4068
 5993SOL    HW229439   3.476   1.839   3.106  0.3577  0.1751 -1.2500
 5994SOL     OW29440   4.458   1.915   9.401  0.3114  0.6764  0.3306
 5994SOL    HW129441   4.464   1.864   9.321 -2.6386  1.3181 -0.3020
 5994SOL    HW229442   4.363   1.928   9.403 -0.1012 -2.0605 -2.4221
 5995SOL     OW29443   2.281   4.146  14.975  0.2592  0.3508  0.8811
 5995SOL    HW129444   2.242   4.085  14.912 -0.6279  2.0127 -0.1659
 5995SOL    HW229445   2.253   4.227  14.932  0.3275  0.9958  2.0505
 5996SOL     OW29446   3.617   2.229  17.102  0.2055 -0.5261  0.0327
 5996SOL    HW129447   3.611   2.308  17.048  1.5094 -0.4546  0.0047
 5996SOL    HW229448   3.611   2.159  17.036 -0.5361 -0.7079  0.2967
 5997SOL     OW29449   3.012   0.423   2.105  0.1503  0.2168 -0.0785
 5997SOL    HW129450   2.977   0.512   2.097 -2.0895 -0.7230 -0.7379
 5997SOL    HW229451   2.955   0.383   2.170 -2.3537  2.3018 -0.9837
 5998SOL     OW29452   1.926   4.235   4.121  0.2935  0.5735  0.2575
 5998SOL    HW129453   1.886   4.260   4.204 -0.8286 -0.8872  0.1446
 5998SOL    HW229454   2.019   4.223   4.141  0.8047 -0.4480 -2.6945
 5999SOL     OW29455   1.936   1.861   5.698 -0.5025  0.3309 -0.3098
 5999SOL    HW129456   1.857   1.869   5.645 -0.8796 -0.7660  0.0661
 5999SOL    HW229457   1.964   1.771   5.680  1.2395  0.9589 -0.6936
 6000SOL     OW29458   1.306   2.950   3.286  0.1829 -0.2121 -0.0467
 6000SOL    HW129459   1.360   2.880   3.249 -0.2712 -0.4593 -0.2483
 6000SOL    HW229460   1.222   2.920   3.251 -0.6852 -0.4025  2.2385
 6001SOL     OW29461   3.819   1.227   2.275 -0.0694  0.2797 -0.1789
 6001SOL    HW129462   3.811   1.132   2.275  2.1063  0.1106 -0.7976
 6001SOL    HW229463   3.733   1.249   2.240 -0.5474 -0.5785  0.4523
 6002SOL     OW29464   2.317   1.456  16.369 -0.1912 -0.5479  0.1256
 6002SOL    HW129465   2.305   1.485  16.279  0.9843  0.7713  0.4010
 6002SOL    HW229466   2.227   1.433  16.392  0.7384 -2.2129  2.1030
 6003SOL     OW29467   2.233   4.047   3.182 -0.6091  0.3768  0.4965
 6003SOL    HW129468   2.236   4.094   3.265  0.0754  0.8941  0.1887
 6003SOL    HW229469   2.300   4.097   3.134  0.1929 -0.3929  0.8094
 6004SOL     OW29470   2.254   3.510  11.458  0.1929  0.0196  0.1638
 6004SOL    HW129471   2.282   3.441  11.399  0.6027  1.3415 -1.2020
 6004SOL    HW229472   2.221   3.453  11.527 -0.1924 -1.3742 -1.1823
 6005SOL     OW29473   2.082   3.943   8.924  0.1786 -0.4157 -0.2116
 6005SOL    HW129474   2.114   3.993   8.849  0.7810  1.2207  1.1623
 6005SOL    HW229475   2.158   3.957   8.980  0.9731  0.1257 -1.4267
 6006SOL     OW29476   4.418   4.716   8.244  0.3232  0.0701  0.1300
 6006SOL    HW129477   4.431   0.016   8.335 -3.6058 -1.7292  1.1998
 6006SOL    HW229478   4.476   4.639   8.241  1.1714  0.6919  0.4908
 6007SOL     OW29479   2.685   1.581   6.000 -0.4348 -0.4061  0.1986
 6007SOL    HW129480   2.618   1.629   6.049 -0.5612  1.0922 -1.4623
 6007SOL    HW229481   2.741   1.648   5.961 -2.6798  0.5151 -1.3895
 6008SOL     OW29482   3.384   4.695   4.151 -0.0015  0.4923  0.4477
 6008SOL    HW129483   3.370   4.669   4.242 -1.5926  2.0636  0.6581
 6008SOL    HW229484   3.457   0.030   4.163  1.2131 -0.8807  0.0035
 6009SOL     OW29485   4.695   4.337   6.570  0.4087 -0.0723  0.1072
 6009SOL    HW129486   0.033   4.296   6.512 -1.7113 -2.5372 -0.4507
 6009SOL    HW229487   4.618   4.302   6.525 -1.2247  1.6761  1.5156
 6010SOL     OW29488   0.769   3.416  10.063 -0.0703 -0.2896  0.0935
 6010SOL    HW129489   0.786   3.453   9.976  0.5051 -0.7762 -0.0027
 6010SOL    HW229490   0.789   3.492  10.117  0.1835 -0.3686  0.1117
 6011SOL     OW29491   2.944   0.765   9.768  0.5860  0.4634  0.2247
 6011SOL    HW129492   2.965   0.742   9.859  0.5202 -1.9645 -0.3784
 6011SOL    HW229493   2.849   0.768   9.775  0.5324  1.5600 -0.9797
 6012SOL     OW29494   0.238   0.810   3.004  0.2884  0.7114  0.5887
 6012SOL    HW129495   0.171   0.747   2.977  1.6223 -1.1378  1.6260
 6012SOL    HW229496   0.201   0.843   3.085  1.4407  0.8261  1.0742
 6013SOL     OW29497   2.069   0.621  13.730  0.1470  0.0658  0.1904
 6013SOL    HW129498   2.029   0.546  13.775 -1.9505  0.4447 -1.0769
 6013SOL    HW229499   2.120   0.574  13.664 -0.0306  0.0423  0.0707
 6014SOL     OW29500   0.209   1.244  17.197 -0.2888 -0.1210 -0.0665
 6014SOL    HW129501   0.247   1.173  17.249 -1.2581  2.2836  3.8478
 6014SOL    HW229502   0.231   1.222  17.106  1.1640  3.2278 -0.5261
 6015SOL     OW29503   3.514   1.305  13.221  0.3253 -0.0591  0.2818
 6015SOL    HW129504   3.535   1.280  13.131  0.4023  1.9041 -0.2517
 6015SOL    HW229505   3.589   1.359  13.248  0.3439 -0.4993  1.0940
 6016SOL     OW29506   3.541   2.123  12.286 -0.0006 -0.4779 -0.1881
 6016SOL    HW129507   3.456   2.164  12.271  0.1603 -0.5621 -1.3370
 6016SOL    HW229508   3.571   2.160  12.369 -0.9039 -1.7577  0.7085
 6017SOL     OW29509   4.711   0.165   0.516 -0.1301  0.0842 -0.6347
 6017SOL    HW129510   0.059   0.214   0.552 -1.5044  2.4406 -1.0190
 6017SOL    HW229511   0.011   0.162   0.424  2.8950  1.0796  0.1543
 6018SOL     OW29512   0.160   0.432  17.690  1.1656  0.5642  0.1916
 6018SOL    HW129513   0.206   0.468   0.063  1.5637 -0.2107  0.3127
 6018SOL    HW229514   0.191   0.342  17.684  2.2876  1.0515 -1.1817
 6019SOL     OW29515   2.102   1.271  16.218 -0.3906 -0.3272 -0.7764
 6019SOL    HW129516   2.184   1.222  16.226 -0.7373 -0.7789  0.0084
 6019SOL    HW229517   2.070   1.258  16.307  0.3237  1.4411 -0.2565
 6020SOL     OW29518   0.244   4.668   1.682 -0.0513  0.5573 -0.7493
 6020SOL    HW129519   0.329   4.645   1.644  0.4645  1.4778 -0.1502
 6020SOL    HW229520   0.179   4.647   1.615 -2.1153 -0.8236  1.6966
 6021SOL     OW29521   2.675   1.867   4.883 -0.1864 -0.3672 -0.4263
 6021SOL    HW129522   2.743   1.800   4.894  1.1920  1.5467  2.6689
 6021SOL    HW229523   2.622   1.848   4.961 -0.5063 -0.4434 -0.6643
 6022SOL     OW29524   0.401   1.679   6.568 -0.3512  0.3463  0.0537
 6022SOL    HW129525   0.463   1.721   6.628 -0.6348  1.4490 -0.4347
 6022SOL    HW229526   0.374   1.756   6.519 -2.5682 -1.4179 -1.4567
 6023SOL     OW29527   2.469   0.128   4.545  0.2292 -0.1545 -0.4941
 6023SOL    HW129528   2.499   0.151   4.457 -0.2487  0.6952 -0.4221
 6023SOL    HW229529   2.552   0.113   4.591  0.3038 -0.2811 -0.6714
 6024SOL     OW29530   2.531   0.137   5.346 -0.0350 -1.0751  0.1949
 6024SOL    HW129531   2.503   0.048   5.368 -0.5950 -0.9992 -0.1941
 6024SOL    HW229532   2.614   0.139   5.393 -0.0897  0.3574  0.2341
 6025SOL     OW29533   0.281   2.981   9.384 -0.0560  0.6215  0.5134
 6025SOL    HW129534   0.263   2.894   9.419 -0.3838 -0.0468 -1.2905
 6025SOL    HW229535   0.347   2.973   9.315 -3.0521 -0.4897 -2.2556
 6026SOL     OW29536   4.432   4.477   3.615 -0.2097 -0.8535  0.3528
 6026SOL    HW129537   4.464   4.442   3.531  1.4545 -1.0430  1.0835
 6026SOL    HW229538   4.515   4.486   3.660 -0.0431  2.4502 -0.6132
 6027SOL     OW29539   2.389   3.817   3.910 -0.4910  0.6521 -0.5528
 6027SOL    HW129540   2.388   3.738   3.855  0.4703 -0.3463  0.8440
 6027SOL    HW229541   2.384   3.777   3.997 -1.1003 -2.8779 -2.2108
 6028SOL     OW29542   0.755   2.297   2.263 -1.2277 -0.0981  0.1083
 6028SOL    HW129543   0.768   2.375   2.209 -1.5105 -0.1062  0.0296
 6028SOL    HW229544   0.666   2.275   2.236 -1.9695  0.7941  1.8153
 6029SOL     OW29545   2.325   3.367   1.871 -0.0710 -0.5805  0.4886
 6029SOL    HW129546   2.303   3.377   1.779  0.2349  0.7785  0.5586
 6029SOL    HW229547   2.236   3.364   1.907 -0.3548  0.6899 -0.1047
 6030SOL     OW29548   2.507   3.205   4.469  0.7381  0.3313 -0.5332
 6030SOL    HW129549   2.413   3.219   4.460  0.8716  0.9299 -0.9806
 6030SOL    HW229550   2.538   3.277   4.413  1.0800  0.9618  0.4546
 6031SOL     OW29551   0.285   3.731   7.415  0.3895 -0.0369 -0.2976
 6031SOL    HW129552   0.258   3.802   7.357  4.4819  1.0125 -0.9712
 6031SOL    HW229553   0.337   3.783   7.476 -2.9757  3.9002 -0.8504
 6032SOL     OW29554   2.658   4.692  17.230 -0.7533  0.0383  0.2328
 6032SOL    HW129555   2.708   0.018  17.293 -4.3291  1.8821  1.5623
 6032SOL    HW229556   2.572   4.711  17.269  0.1073  1.1431  1.5774
 6033SOL     OW29557   1.213   1.576   0.062 -0.1518  0.0082 -0.1944
 6033SOL    HW129558   1.178   1.514   0.125  3.5579 -1.8202  0.1075
 6033SOL    HW229559   1.297   1.533   0.048  0.2094  0.8771 -0.7419
 6034SOL     OW29560   2.955   0.425   8.015 -0.1575  0.3891 -0.1621
 6034SOL    HW129561   2.895   0.355   8.041  2.3370 -1.1743  1.3737
 6034SOL    HW229562   3.037   0.376   8.019 -0.1383  0.4127 -0.2576
 6035SOL     OW29563   1.823   1.541   5.670  0.4968  0.1943 -0.4803
 6035SOL    HW129564   1.838   1.518   5.578 -0.3206 -0.1680 -0.5223
 6035SOL    HW229565   1.913   1.564   5.692  0.9423  0.0451 -2.1565
 6036SOL     OW29566   4.191   1.792  12.209  0.0989 -0.0773  0.1941
 6036SOL    HW129567   4.187   1.814  12.302  0.6383 -1.3409  0.5096
 6036SOL    HW229568   4.258   1.851  12.175  3.2066 -2.9984  1.2958
 6037SOL     OW29569   1.987   4.626  13.333 -0.5733  0.0881 -0.0347
 6037SOL    HW129570   2.006   4.710  13.291 -1.5307  0.6074  0.5565
 6037SOL    HW229571   1.908   4.604  13.283 -0.2695  1.5245 -1.1454
 6038SOL     OW29572   1.899   0.519   3.211 -0.0982  0.0015 -0.5520
 6038SOL    HW129573   1.852   0.470   3.143 -1.5120 -0.4793  0.7672
 6038SOL    HW229574   1.839   0.593   3.224 -0.0176 -0.0183 -0.0878
 6039SOL     OW29575   3.254   4.060  15.860 -0.6876 -0.3401  0.3570
 6039SOL    HW129576   3.337   4.080  15.905  0.8615  0.4292 -2.8407
 6039SOL    HW229577   3.250   3.966  15.847 -0.8937 -0.5813  2.2324
 6040SOL     OW29578   0.257   4.430  10.080  0.2074 -0.4260 -0.0638
 6040SOL    HW129579   0.302   4.427  10.164 -1.0952 -0.7506  0.6193
 6040SOL    HW229580   0.261   4.519  10.043 -0.1484 -0.1334  0.6168
 6041SOL     OW29581   3.235   3.336   0.604 -0.3153  0.0937  0.2737
 6041SOL    HW129582   3.302   3.318   0.538 -0.7986  0.7214 -0.3801
 6041SOL    HW229583   3.220   3.429   0.587 -0.3040  0.4340  2.1137
 6042SOL     OW29584   0.974   4.424   4.807  0.5446  0.4366  0.4257
 6042SOL    HW129585   0.889   4.394   4.840  1.5837 -3.3170 -0.3536
 6042SOL    HW229586   0.994   4.505   4.855 -1.1530  0.5365  0.9843
 6043SOL     OW29587   3.687   3.975   1.359  0.7575  0.0392 -0.2650
 6043SOL    HW129588   3.726   3.983   1.446 -2.7330  0.5013  1.2581
 6043SOL    HW229589   3.612   4.033   1.372  0.1631 -1.2370  1.9744
 6044SOL     OW29590   3.962   0.361   4.356  0.2883  0.1985  0.3463
 6044SOL    HW129591   4.047   0.406   4.361  0.0877  0.6610 -0.5006
 6044SOL    HW229592   3.965   0.352   4.261  1.4209 -0.3503  0.4356
 6045SOL     OW29593   1.740   0.523  15.925 -0.5056  0.2547 -0.0432
 6045SOL    HW129594   1.770   0.603  15.882 -0.2594  0.3060  0.2221
 6045SOL    HW229595   1.666   0.508  15.866 -0.2822  0.1378 -0.2927
 6046SOL     OW29596   1.655   4.204   4.587  0.2932 -0.2193  0.5298
 6046SOL    HW129597   1.702   4.271   4.538  0.3468  0.3228  1.3272
 6046SOL    HW229598   1.690   4.223   4.674  0.0794 -0.3043  0.6362
 6047SOL     OW29599   1.985   3.958  12.908  0.4822 -0.3094  0.5875
 6047SOL    HW129600   1.968   4.043  12.867 -0.2372  1.1450  3.8969
 6047SOL    HW229601   1.908   3.920  12.951  0.3364  0.1040  0.6954
 6048SOL     OW29602   2.801   3.803   7.312 -0.1611  0.5616 -0.2179
 6048SOL    HW129603   2.875   3.752   7.344  0.4583  1.3149 -0.4467
 6048SOL    HW229604   2.746   3.739   7.266 -2.5115  3.5180 -1.5461
 6049SOL     OW29605   0.557   3.221   9.355  0.4243  0.0041  0.7226
 6049SOL    HW129606   0.537   3.309   9.388  0.3951 -0.1331  1.0760
 6049SOL    HW229607   0.503   3.173   9.418  0.9486 -0.6530  0.6714
 6050SOL     OW29608   3.039   1.469  13.642 -0.7186  0.4020  0.3316
 6050SOL    HW129609   2.980   1.522  13.588 -1.3353 -1.8340 -1.2161
 6050SOL    HW229610   3.039   1.385  13.595  0.5796  0.4447  0.2518
 6051SOL     OW29611   2.208   1.559   8.998 -0.0339  0.2387 -0.2667
 6051SOL    HW129612   2.299   1.577   9.025 -0.0873 -1.5150  1.0516
 6051SOL    HW229613   2.180   1.489   9.056  1.0980  1.2918  1.5737
 6052SOL     OW29614   3.789   4.329   9.333  0.3306 -0.2262  0.5317
 6052SOL    HW129615   3.821   4.403   9.283 -0.2554  1.2302  2.3219
 6052SOL    HW229616   3.793   4.247   9.283 -1.1215  0.1108 -0.1038
 6053SOL     OW29617   0.255   0.991   0.101  0.3159 -0.8037  0.3312
 6053SOL    HW129618   0.235   0.898   0.096 -0.0924 -0.7422  0.8352
 6053SOL    HW229619   0.170   1.024   0.070 -0.2138 -0.1464  2.5229
 6054SOL     OW29620   3.724   0.507   4.445 -0.0747 -0.1571  0.3379
 6054SOL    HW129621   3.647   0.453   4.427 -2.3546  2.8303  1.1546
 6054SOL    HW229622   3.788   0.445   4.409  1.7327  0.9290  1.6765
 6055SOL     OW29623   4.289   2.805   2.035  0.0037 -0.2123  0.2168
 6055SOL    HW129624   4.246   2.865   2.096 -4.1534 -3.2990  0.3014
 6055SOL    HW229625   4.370   2.780   2.080 -0.1040 -2.4902 -0.8928
 6056SOL     OW29626   3.928   3.001  11.335  0.3646  0.4546  0.5035
 6056SOL    HW129627   3.943   2.910  11.314  1.0093  0.5257  0.6654
 6056SOL    HW229628   3.834   2.994  11.355  0.3673  0.6551  0.5953
 6057SOL     OW29629   2.055   4.319   1.481 -0.1505 -0.2201 -0.1462
 6057SOL    HW129630   2.098   4.326   1.395 -0.7404 -0.4481 -0.4583
 6057SOL    HW229631   1.967   4.308   1.445 -0.0723 -1.5740  0.0733
 6058SOL     OW29632   4.421   1.907   4.404 -0.2139  0.3343  0.6117
 6058SOL    HW129633   4.335   1.948   4.389  0.3273  0.6650 -1.6442
 6058SOL    HW229634   4.416   1.851   4.327  0.5386  1.5391 -0.3257
 6059SOL     OW29635   2.535   3.146  15.724  0.0540  0.0286 -0.2702
 6059SOL    HW129636   2.623   3.141  15.687  0.4094  0.8206  0.4653
 6059SOL    HW229637   2.515   3.055  15.702  0.1657 -0.0112 -0.2069
 6060SOL     OW29638   3.338   2.060  12.596  0.5310  0.2033  0.7131
 6060SOL    HW129639   3.367   2.151  12.585  1.7363 -0.3224 -0.4353
 6060SOL    HW229640   3.269   2.072  12.661 -0.4993  0.1746 -0.3769
 6061SOL     OW29641   4.250   2.447   9.788  0.1301  0.3796  0.2676
 6061SOL    HW129642   4.223   2.504   9.716 -0.1609  0.6939  0.6250
 6061SOL    HW229643   4.193   2.479   9.858 -1.3345 -0.2463 -0.6321
 6062SOL     OW29644   1.399   4.062   4.299 -0.1756 -0.2201 -0.2575
 6062SOL    HW129645   1.344   4.138   4.276  0.8459  0.6265  0.1439
 6062SOL    HW229646   1.374   4.053   4.390 -1.0654  3.1420 -0.1539
 6063SOL     OW29647   0.318   2.746   4.724 -0.0618  0.5279  0.1673
 6063SOL    HW129648   0.295   2.774   4.812  1.1715  0.8398  0.3946
 6063SOL    HW229649   0.393   2.801   4.703  0.6702 -0.2828  0.6186
 6064SOL     OW29650   2.211   4.355   7.254  0.9778  0.6067 -0.5319
 6064SOL    HW129651   2.267   4.432   7.267  2.0169 -0.1468 -0.5720
 6064SOL    HW229652   2.164   4.343   7.337 -0.3748  0.8764 -1.2587
 6065SOL     OW29653   1.592   4.630  16.132  0.2095 -0.7592  0.3111
 6065SOL    HW129654   1.604   4.604  16.041 -1.4032 -2.4737  0.5749
 6065SOL    HW229655   1.504   4.664  16.118  1.1769  1.9595  0.9448
 6066SOL     OW29656   0.187   0.423   5.787  0.2932  0.1461  0.2966
 6066SOL    HW129657   0.253   0.466   5.842  1.8119 -2.2489  0.3297
 6066SOL    HW229658   0.238   0.346   5.761  0.6300  0.3346  0.4010
 6067SOL     OW29659   2.278   4.646  14.540 -0.1491  0.0960  0.1818
 6067SOL    HW129660   2.199   4.698  14.555  0.1472  0.4138  0.6061
 6067SOL    HW229661   2.281   4.584  14.613 -0.0037  0.6268  0.6293
 6068SOL     OW29662   0.667   0.381   8.290 -0.0463 -0.2192 -0.2383
 6068SOL    HW129663   0.750   0.333   8.281  1.3926  1.7618  2.4051
 6068SOL    HW229664   0.705   0.464   8.263  1.1412 -0.2038  1.4638
 6069SOL     OW29665   0.931   4.458   8.201 -0.4087  0.1233  0.4012
 6069SOL    HW129666   0.967   4.543   8.176 -3.3474  0.9396 -0.9846
 6069SOL    HW229667   0.876   4.430   8.128 -1.3102  1.4553  0.5684
 6070SOL     OW29668   0.252   2.163   3.755 -0.0101  0.3355  0.1803
 6070SOL    HW129669   0.217   2.217   3.684 -2.1093 -1.8029 -0.4181
 6070SOL    HW229670   0.266   2.082   3.705  1.3832  1.6122 -1.5007
 6071SOL     OW29671   2.986   2.734   4.769  0.2368  0.0181 -0.2550
 6071SOL    HW129672   2.926   2.672   4.812  1.9872 -1.9064 -0.5729
 6071SOL    HW229673   3.037   2.751   4.848  0.0195 -4.3602  0.8303
 6072SOL     OW29674   1.125   2.933   1.911 -0.2608  0.2601 -0.1881
 6072SOL    HW129675   1.137   2.937   2.006 -1.3332  1.5469 -0.0935
 6072SOL    HW229676   1.084   3.019   1.898  0.1816  0.5302  0.2037
 6073SOL     OW29677   1.155   1.018  11.791 -0.2101 -0.1184  0.4379
 6073SOL    HW129678   1.161   1.064  11.875 -2.6370 -0.7216  0.9654
 6073SOL    HW229679   1.246   1.000  11.768 -0.4001 -0.0136 -0.3917
 6074SOL     OW29680   3.092   0.190   7.862  0.6897  0.3772 -0.9143
 6074SOL    HW129681   3.030   0.241   7.811  0.2308  2.0702  1.3579
 6074SOL    HW229682   3.081   0.098   7.836  1.4990 -0.3132  1.1620
 6075SOL     OW29683   3.961   1.025   7.414  0.0957 -0.3257 -0.1177
 6075SOL    HW129684   4.033   1.030   7.351  0.0783  2.4705  0.0699
 6075SOL    HW229685   3.961   1.113   7.451 -0.8482  0.4199 -1.8778
 6076SOL     OW29686   0.347   3.845   4.424  0.0393  0.8574 -0.4785
 6076SOL    HW129687   0.428   3.887   4.454 -1.0342  0.4252  2.9445
 6076SOL    HW229688   0.370   3.755   4.400  3.1218  1.9172 -1.4328
 6077SOL     OW29689   3.825   2.396   5.700 -0.2266 -0.5169 -0.3876
 6077SOL    HW129690   3.879   2.474   5.697  0.8210 -1.2677 -1.0479
 6077SOL    HW229691   3.895   2.333   5.684 -0.6973 -1.5885  1.7799
 6078SOL     OW29692   4.576   1.290   7.165  0.1865  0.1843 -0.0221
 6078SOL    HW129693   4.483   1.306   7.182  0.1449  1.1635 -1.1696
 6078SOL    HW229694   4.614   1.377   7.171  3.3857 -1.1746 -0.4762
 6079SOL     OW29695   3.009   0.726  12.352 -0.2927 -0.0396 -0.0674
 6079SOL    HW129696   2.951   0.677  12.410 -2.4256  1.9304 -0.5428
 6079SOL    HW229697   2.949   0.755  12.284  0.0733 -1.1055 -0.8426
 6080SOL     OW29698   0.638   1.869   8.663  0.6417  0.0869  0.0902
 6080SOL    HW129699   0.567   1.896   8.721  0.7737  2.5110 -0.8811
 6080SOL    HW229700   0.650   1.778   8.689  2.6316  0.3638  0.1810
 6081SOL     OW29701   0.661   0.814  12.121  0.0088  0.1618 -0.6055
 6081SOL    HW129702   0.666   0.903  12.156  1.8939 -0.2228  0.1157
 6081SOL    HW229703   0.691   0.763  12.197  2.0725  0.7093 -1.0517
 6082SOL     OW29704   0.788   3.667   9.876  0.6253  0.2459 -0.0421
 6082SOL    HW129705   0.712   3.685   9.931  0.2527 -1.5013  0.0028
 6082SOL    HW229706   0.856   3.642   9.940  2.7611  1.5857 -1.7732
 6083SOL     OW29707   0.889   3.800   5.954  0.0110 -0.2751 -0.0103
 6083SOL    HW129708   0.982   3.786   5.935 -0.0456 -0.3611 -0.2148
 6083SOL    HW229709   0.899   3.794   6.049 -0.4729  0.2133  0.0701
 6084SOL     OW29710   2.401   0.466   6.139  0.1849  0.1780 -0.0293
 6084SOL    HW129711   2.488   0.501   6.159  0.3135  0.5988 -1.3403
 6084SOL    HW229712   2.364   0.484   6.225  2.8724 -1.5644  1.4942
 6085SOL     OW29713   3.318   3.867  14.989  0.1555  0.4184 -0.2997
 6085SOL    HW129714   3.413   3.867  14.994  0.1119  0.1401  0.5725
 6085SOL    HW229715   3.284   3.956  15.004  2.7748  1.7254 -2.2009
 6086SOL     OW29716   2.465   1.478   4.510  0.3526  0.7168 -0.2686
 6086SOL    HW129717   2.419   1.559   4.489  1.0280  1.5628  1.4722
 6086SOL    HW229718   2.559   1.491   4.493  0.2276  1.0919 -0.6552
 6087SOL     OW29719   3.848   4.701   3.431 -0.8838 -0.8531 -0.3005
 6087SOL    HW129720   3.882   4.686   3.520  1.2745  3.6514 -0.3773
 6087SOL    HW229721   3.899   0.053   3.407 -0.4129 -0.6187  1.4550
 6088SOL     OW29722   2.115   1.081   8.880 -0.5046 -0.0670  0.1545
 6088SOL    HW129723   2.159   1.022   8.942 -2.1973 -0.7066  0.7293
 6088SOL    HW229724   2.042   1.028   8.847 -0.7860  0.1255  0.4740
 6089SOL     OW29725   2.536   4.668   6.552  0.0627 -0.1649 -0.3427
 6089SOL    HW129726   2.565   0.032   6.534  2.4871 -0.9322 -0.2632
 6089SOL    HW229727   2.443   4.678   6.531 -0.0555  0.7433  0.6021
 6090SOL     OW29728   0.514   0.390  16.366  0.0239 -0.2350  0.6977
 6090SOL    HW129729   0.445   0.391  16.432 -0.0346 -0.2689  0.6375
 6090SOL    HW229730   0.502   0.475  16.325 -3.3825 -1.6864 -1.3343
 6091SOL     OW29731   2.898   4.155   5.065  0.8047  0.2434 -0.0387
 6091SOL    HW129732   2.879   4.098   5.140 -0.9586 -0.9188 -1.3524
 6091SOL    HW229733   2.811   4.184   5.039  0.2292 -3.5880 -2.4538
 6092SOL     OW29734   2.498   1.457   7.774 -0.2487 -0.6856 -0.3129
 6092SOL    HW129735   2.472   1.487   7.861 -2.4620 -0.9997 -0.8784
 6092SOL    HW229736   2.446   1.521   7.726  0.1556 -0.6676 -0.7284
 6093SOL     OW29737   4.535   0.547  11.279  0.3446  0.3281 -0.4875
 6093SOL    HW129738   4.590   0.509  11.210  0.9791  0.4409 -0.0404
 6093SOL    HW229739   4.561   0.639  11.274 -0.5956  0.6361  0.3352
 6094SOL     OW29740   1.531   2.737   6.496  0.3452  0.0530 -0.1126
 6094SOL    HW129741   1.618   2.734   6.454 -0.4130 -0.4042 -1.6551
 6094SOL    HW229742   1.551   2.783   6.577 -0.4123  1.1811 -0.5683
 6095SOL     OW29743   3.090   2.094   4.186 -0.1798 -0.3638 -0.2123
 6095SOL    HW129744   3.083   2.178   4.231 -2.4335  0.3887 -1.9370
 6095SOL    HW229745   3.075   2.114   4.093  1.9365 -2.1244 -0.9338
 6096SOL     OW29746   1.609   0.762   4.202  0.0341  0.2498 -0.1011
 6096SOL    HW129747   1.598   0.802   4.117  0.2445 -1.3844 -0.8998
 6096SOL    HW229748   1.694   0.722   4.180  0.0145  0.7732 -1.0814
 6097SOL     OW29749   2.904   4.017   5.715 -0.3504  0.3362  0.1712
 6097SOL    HW129750   2.989   4.029   5.757  0.3929 -1.2352 -0.8760
 6097SOL    HW229751   2.879   4.097   5.668 -1.2123 -0.3267 -0.5003
 6098SOL     OW29752   1.331   1.338   6.164  0.5962 -0.0412 -0.0003
 6098SOL    HW129753   1.403   1.398   6.184  0.0108  1.1809 -1.5075
 6098SOL    HW229754   1.380   1.259   6.185  0.5135 -0.9976 -3.3960
 6099SOL     OW29755   2.591   1.514   2.370 -0.9907  0.1652 -0.1731
 6099SOL    HW129756   2.660   1.449   2.354 -1.1963 -0.1043  0.0477
 6099SOL    HW229757   2.588   1.561   2.286 -0.5039  0.8215  0.1723
 6100SOL     OW29758   2.345   1.335   0.422 -0.0928 -0.2735  0.1354
 6100SOL    HW129759   2.321   1.425   0.397 -1.5164 -1.1494 -1.6989
 6100SOL    HW229760   2.438   1.339   0.442  0.1085 -1.0897 -0.6714
 6101SOL     OW29761   1.749   4.121   2.503 -0.4172 -0.4870  0.4758
 6101SOL    HW129762   1.831   4.098   2.548  0.5666  1.5073 -0.2908
 6101SOL    HW229763   1.744   4.214   2.527 -2.2164 -0.0162 -1.7750
 6102SOL     OW29764   2.137   2.631  11.539  0.0672  0.4626  0.3999
 6102SOL    HW129765   2.063   2.610  11.481 -0.7649 -2.3182  2.4828
 6102SOL    HW229766   2.181   2.546  11.546 -0.6394 -0.0586 -1.3946
 6103SOL     OW29767   3.133   4.634   6.669 -0.2583 -0.5608 -0.3150
 6103SOL    HW129768   3.161   4.543   6.680  2.2507  0.3014  0.2114
 6103SOL    HW229769   3.166   4.681   6.745  2.1404 -1.6193 -0.7162
 6104SOL     OW29770   2.685   3.249   7.804  0.2728 -0.3333  0.3689
 6104SOL    HW129771   2.612   3.189   7.790 -0.0238  0.2211 -0.4753
 6104SOL    HW229772   2.711   3.248   7.712  0.6500  2.7273  0.4413
 6105SOL     OW29773   4.559   2.527  17.539 -0.6924  0.2321  0.0482
 6105SOL    HW129774   4.578   2.615  17.506 -0.7838  0.3404  0.2793
 6105SOL    HW229775   4.473   2.530  17.498  0.5521  0.9917 -2.5274
 6106SOL     OW29776   0.438   0.324   0.112 -0.1136 -0.4511 -0.4520
 6106SOL    HW129777   0.377   0.259   0.077 -0.6611  0.0132 -0.3533
 6106SOL    HW229778   0.384   0.400   0.133  0.5751 -0.8112  2.7322
 6107SOL     OW29779   3.696   3.062   3.603 -0.6612 -0.0188  0.5047
 6107SOL    HW129780   3.726   3.145   3.565 -0.0208  0.5214  2.2047
 6107SOL    HW229781   3.605   3.088   3.615 -0.2314  1.4880  0.4326
 6108SOL     OW29782   0.695   2.729   6.542 -0.4440 -0.4109  0.1689
 6108SOL    HW129783   0.634   2.768   6.604  1.4515  1.0397  1.1025
 6108SOL    HW229784   0.766   2.792   6.544 -2.2160  1.6627 -2.7380
 6109SOL     OW29785   3.912   0.828   3.098  0.1057 -0.5211 -0.1077
 6109SOL    HW129786   3.885   0.913   3.066  2.1917 -0.1005 -0.7324
 6109SOL    HW229787   3.837   0.772   3.078 -1.5960  0.9905  2.0198
 6110SOL     OW29788   4.542   1.223   1.657  0.1641 -0.1648 -0.1129
 6110SOL    HW129789   4.498   1.304   1.679  1.0005  0.5279 -0.9868
 6110SOL    HW229790   4.525   1.213   1.563  1.0131 -0.2437 -0.2632
 6111SOL     OW29791   0.488   1.928   7.446  0.1503  0.0255 -0.1266
 6111SOL    HW129792   0.438   2.004   7.418 -1.1239 -0.8426 -0.1921
 6111SOL    HW229793   0.438   1.852   7.418  0.5152  0.1608 -1.1506
 6112SOL     OW29794   1.719   0.490  16.580 -0.0273  0.1411  0.1914
 6112SOL    HW129795   1.630   0.465  16.604 -0.6943  1.1770 -1.2277
 6112SOL    HW229796   1.737   0.548  16.654 -1.4175  0.4877  0.2481
 6113SOL     OW29797   1.607   4.611   1.017 -0.0192 -0.8953  0.1785
 6113SOL    HW129798   1.679   4.560   1.055  0.7334  0.1566  0.1798
 6113SOL    HW229799   1.648   4.697   1.015 -1.5119 -0.1258  2.0834
 6114SOL     OW29800   0.925   2.422  15.447 -0.0576 -0.4134  0.5994
 6114SOL    HW129801   0.962   2.506  15.473  2.2172 -0.7044 -1.6717
 6114SOL    HW229802   0.835   2.441  15.422 -0.5707 -2.6835  0.6992
 6115SOL     OW29803   0.479   3.023   5.290 -0.1099 -0.5134 -0.3912
 6115SOL    HW129804   0.431   3.104   5.270 -1.1239 -0.9949  0.1155
 6115SOL    HW229805   0.409   2.960   5.305  0.8661 -1.1391  1.4180
 6116SOL     OW29806   1.483   0.176  16.467  0.0291  0.1310  0.2851
 6116SOL    HW129807   1.414   0.173  16.533 -0.5503 -1.2593 -0.3967
 6116SOL    HW229808   1.441   0.237  16.407  1.5759  1.5488  0.6390
 6117SOL     OW29809   3.213   1.431  13.829 -0.0997  0.0845 -0.2405
 6117SOL    HW129810   3.273   1.505  13.828  0.0689 -0.0540 -0.5391
 6117SOL    HW229811   3.153   1.449  13.756 -0.1586  3.9416  0.7652
 6118SOL     OW29812   3.409   2.813   7.108 -0.2092 -0.0776 -0.0034
 6118SOL    HW129813   3.381   2.897   7.072 -0.1989 -0.1687 -0.2262
 6118SOL    HW229814   3.459   2.843   7.183 -1.9062 -1.5943  1.7276
 6119SOL     OW29815   2.162   2.333   2.348 -0.5698  0.2145  0.0844
 6119SOL    HW129816   2.183   2.418   2.309  0.5148  0.1964  0.6207
 6119SOL    HW229817   2.244   2.315   2.395  0.8743 -0.6913 -2.7645
 6120SOL     OW29818   1.139   1.228  11.967 -0.2328  0.0261 -0.0187
 6120SOL    HW129819   1.057   1.268  11.939  1.0529  1.1702 -2.1642
 6120SOL    HW229820   1.117   1.221  12.060  1.1980  2.7030  0.5439
 6121SOL     OW29821   1.214   2.310   6.063 -0.5863 -0.7051 -0.7917
 6121SOL    HW129822   1.120   2.325   6.079 -0.2837  0.3905 -0.0420
 6121SOL    HW229823   1.218   2.222   6.101  0.7401  0.0609  0.8171
 6122SOL     OW29824   4.672   3.585   6.162  0.5205  0.1086  0.4808
 6122SOL    HW129825   4.632   3.554   6.244 -1.5458 -0.5732 -0.7853
 6122SOL    HW229826   0.015   3.522   6.139  1.9375  2.4843 -1.8093
 6123SOL     OW29827   0.113   2.589   6.387 -0.0121 -0.1047  0.8635
 6123SOL    HW129828   0.087   2.681   6.398  2.1661  0.3992  1.8116
 6123SOL    HW229829   0.118   2.602   6.293  0.8696 -1.2801  0.7583
 6124SOL     OW29830   0.029   0.394   7.360 -0.3666 -0.4309 -0.1523
 6124SOL    HW129831   4.703   0.437   7.291  0.6832 -1.7615 -1.7584
 6124SOL    HW229832   0.022   0.302   7.334 -1.9047 -0.8647  1.8617
 6125SOL     OW29833   4.242   3.512   3.447 -0.2690 -0.2722  0.1241
 6125SOL    HW129834   4.223   3.462   3.527 -2.4904  1.3859  0.6370
 6125SOL    HW229835   4.213   3.450   3.381  2.8696 -0.2924 -1.2029
 6126SOL     OW29836   1.419   0.357   8.676  0.1526 -0.0246  0.1031
 6126SOL    HW129837   1.504   0.387   8.644  0.2729 -0.4829 -0.0054
 6126SOL    HW229838   1.419   0.273   8.630 -0.9961  0.6652 -1.1685
 6127SOL     OW29839   2.816   0.577  10.526 -0.4059 -0.6361  0.4577
 6127SOL    HW129840   2.837   0.618  10.610  0.6602 -0.8049  0.2713
 6127SOL    HW229841   2.750   0.512  10.551 -0.3993 -0.4735  0.8937
 6128SOL     OW29842   2.360   0.568   6.920 -0.3131  0.2098 -0.2856
 6128SOL    HW129843   2.362   0.600   7.010 -0.2128 -1.3497  0.2770
 6128SOL    HW229844   2.390   0.478   6.936  0.4932  0.4351 -0.5442
 6129SOL     OW29845   2.895   2.756   8.314 -0.0639  0.6621  0.2268
 6129SOL    HW129846   2.892   2.849   8.334 -2.0915  0.5897  0.2538
 6129SOL    HW229847   2.813   2.723   8.350 -0.8397  2.8922  0.4744
 6130SOL     OW29848   0.764   3.205   4.281  0.2558  0.1646  0.8979
 6130SOL    HW129849   0.776   3.299   4.269 -1.6199  0.1008 -1.5418
 6130SOL    HW229850   0.801   3.199   4.369  0.6689  1.2347  0.7903
 6131SOL     OW29851   0.040   1.095   2.316 -0.2105 -0.1549  0.4381
 6131SOL    HW129852   4.713   1.104   2.395 -1.4281  0.3451 -0.4337
 6131SOL    HW229853   0.032   1.175   2.265 -0.3165 -0.8428 -0.6147
 6132SOL     OW29854   4.447   4.320  10.815 -0.1956  0.0812 -0.7295
 6132SOL    HW129855   4.380   4.277  10.867 -0.6014  1.6719  0.0588
 6132SOL    HW229856   4.393   4.358  10.746 -0.0098  0.8003 -0.4776
 6133SOL     OW29857   2.335   3.453  15.774  0.2295  0.1643 -0.2689
 6133SOL    HW129858   2.307   3.411  15.693  1.2292 -1.9870  0.4929
 6133SOL    HW229859   2.426   3.427  15.788 -0.2761 -0.6682  1.4797
 6134SOL     OW29860   3.437   3.307  14.463 -0.3378  0.3016 -0.4350
 6134SOL    HW129861   3.513   3.354  14.428  0.9827 -0.7018  1.0978
 6134SOL    HW229862   3.470   3.281  14.549  0.3197  0.1734 -0.7205
 6135SOL     OW29863   2.506   1.720   6.155 -0.0540  0.1597 -0.1660
 6135SOL    HW129864   2.503   1.813   6.177 -0.6499  0.3809 -1.1736
 6135SOL    HW229865   2.413   1.711   6.133  0.0050 -1.1660  0.1327
 6136SOL     OW29866   0.911   1.723   3.155  0.1679 -0.1934  0.2950
 6136SOL    HW129867   0.860   1.700   3.076  0.1734 -2.1118  0.8504
 6136SOL    HW229868   0.848   1.759   3.217 -0.0351 -1.9074  1.0923
 6137SOL     OW29869   0.024   4.210   5.520 -0.1882 -0.4198 -0.0346
 6137SOL    HW129870   4.678   4.237   5.578  1.0939  0.4992  1.1082
 6137SOL    HW229871   0.018   4.121   5.557  0.9773 -0.2792  0.5053
 6138SOL     OW29872   1.072   4.491   9.338  0.3296  0.3455  0.6992
 6138SOL    HW129873   1.042   4.562   9.394 -5.2531 -0.6397 -1.0308
 6138SOL    HW229874   1.162   4.484   9.371  0.5793  0.1756  0.0006
 6139SOL     OW29875   0.913   4.674   1.542  0.1733  0.0814 -0.2267
 6139SOL    HW129876   0.850   0.021   1.541 -0.4113 -0.4060  2.7669
 6139SOL    HW229877   0.991   0.001   1.522  0.4204 -0.1722  0.0616
 6140SOL     OW29878   3.783   0.804  16.484 -0.3564  0.9071  0.2012
 6140SOL    HW129879   3.826   0.848  16.410 -0.3569 -1.4981 -1.2618
 6140SOL    HW229880   3.692   0.833  16.487 -0.9270 -0.7497 -0.8701
 6141SOL     OW29881   4.557   1.715   6.571  0.0728 -0.8789 -0.1796
 6141SOL    HW129882   4.620   1.710   6.499 -0.7525 -2.9782 -0.7569
 6141SOL    HW229883   4.557   1.807   6.595  0.0950 -1.0687  0.5423
 6142SOL     OW29884   4.349   0.352   3.745  0.3711  0.6210 -0.2134
 6142SOL    HW129885   4.362   0.257   3.743 -1.3548  0.3746  0.0940
 6142SOL    HW229886   4.395   0.383   3.823 -0.4203  1.0796  0.0747
 6143SOL     OW29887   3.671   1.602   1.562  0.5902 -0.0532 -0.5438
 6143SOL    HW129888   3.738   1.542   1.530 -0.0625 -0.9136 -0.2829
 6143SOL    HW229889   3.692   1.694   1.545  0.3182  0.2469  0.6885
 6144SOL     OW29890   0.687   2.550   3.923  0.0879  0.0383  0.0639
 6144SOL    HW129891   0.718   2.478   3.978 -0.7150  0.0893  0.5859
 6144SOL    HW229892   0.757   2.547   3.858 -2.2056  2.4444 -2.4922
 6145SOL     OW29893   2.934   1.754   8.219  0.2498  0.1433  0.2593
 6145SOL    HW129894   2.949   1.697   8.294 -2.1822 -2.2174 -1.0415
 6145SOL    HW229895   2.932   1.842   8.257  3.1651  0.4437 -0.2990
 6146SOL     OW29896   2.514   2.505   5.391 -1.1378 -0.2764 -0.2073
 6146SOL    HW129897   2.487   2.597   5.398 -0.2576 -0.0659  0.4516
 6146SOL    HW229898   2.445   2.476   5.332 -0.8955 -0.4847 -0.3878
 6147SOL     OW29899   4.605   2.697   7.110 -0.4828  0.5363  0.6129
 6147SOL    HW129900   4.635   2.696   7.201  0.6639 -0.0405  0.2290
 6147SOL    HW229901   4.520   2.660   7.136  0.6418 -0.9603  2.1646
 6148SOL     OW29902   3.456   0.402   2.953 -0.2005  0.0306 -0.1034
 6148SOL    HW129903   3.409   0.414   3.035  2.3243  0.5918  1.2664
 6148SOL    HW229904   3.549   0.400   2.977  0.0135  0.1595 -0.9177
 6149SOL     OW29905   0.541   1.802  14.821 -0.0149  0.3684  0.0888
 6149SOL    HW129906   0.479   1.859  14.776 -0.0710  1.3844  1.4673
 6149SOL    HW229907   0.555   1.732  14.756 -0.7704  1.3914 -1.1673
 6150SOL     OW29908   3.593   3.742  17.196 -0.2509  0.0899 -0.1439
 6150SOL    HW129909   3.680   3.763  17.229 -0.5529 -0.2779  0.9193
 6150SOL    HW229910   3.622   3.661  17.154 -0.5219 -0.3656  0.5215
 6151SOL     OW29911   3.535   1.520   5.932  0.1921  0.1295  0.6855
 6151SOL    HW129912   3.537   1.556   5.844 -0.4066 -0.1511  0.5547
 6151SOL    HW229913   3.509   1.596   5.984 -0.7558 -0.2436  0.7569
 6152SOL     OW29914   4.708   3.174  15.533 -0.3166 -0.9848  0.5279
 6152SOL    HW129915   4.639   3.125  15.490  0.8884 -0.7924 -1.6389
 6152SOL    HW229916   0.049   3.154  15.467 -1.8774  3.5392 -2.4276
 6153SOL     OW29917   0.280   1.944   5.195  0.1244  0.3321  0.1047
 6153SOL    HW129918   0.371   1.974   5.190 -0.6604  2.5744 -0.8015
 6153SOL    HW229919   0.237   2.029   5.185  2.0745  1.1975 -0.9158
 6154SOL     OW29920   2.217   0.446  13.566 -0.0006 -0.4866  0.3147
 6154SOL    HW129921   2.287   0.383  13.583 -0.2147 -0.6693  0.5168
 6154SOL    HW229922   2.256   0.513  13.510 -0.8362 -1.3382 -1.3192
 6155SOL     OW29923   1.317   3.734   3.274 -0.3280  0.4078  0.3679
 6155SOL    HW129924   1.348   3.654   3.317 -0.2883 -1.1601 -2.5631
 6155SOL    HW229925   1.375   3.804   3.304 -1.2058  1.4229 -0.2877
 6156SOL     OW29926   0.646   3.868   2.564 -0.3360 -0.9665  0.0547
 6156SOL    HW129927   0.701   3.803   2.609  0.0467  0.2508  1.3678
 6156SOL    HW229928   0.674   3.870   2.473  1.1442 -2.2762  0.4775
 6157SOL     OW29929   1.713   0.552   3.835  0.0060  0.4462  0.0879
 6157SOL    HW129930   1.624   0.520   3.821  0.0005  0.8811 -0.8455
 6157SOL    HW229931   1.694   0.616   3.903 -1.4912 -0.9914  1.0136
 6158SOL     OW29932   4.566   0.856   0.182  0.4557  0.4717 -0.2675
 6158SOL    HW129933   4.550   0.772   0.226  0.8767  0.3936 -0.2676
 6158SOL    HW229934   4.646   0.827   0.138  0.6557 -0.7545  0.8880
 6159SOL     OW29935   4.078   1.758   7.580  0.1204 -0.3248 -0.0698
 6159SOL    HW129936   4.171   1.749   7.561  0.4812 -1.2224  2.0934
 6159SOL    HW229937   4.038   1.701   7.515 -1.3522 -0.9914  1.3952
 6160SOL     OW29938   0.749   1.532   9.023  0.2036  0.0882  0.3335
 6160SOL    HW129939   0.834   1.490   9.009  0.3196  1.0434 -1.8788
 6160SOL    HW229940   0.697   1.452   9.027  0.1177  0.1601  0.6731
 6161SOL     OW29941   3.814   4.564   1.804  0.1737  0.1804 -0.2777
 6161SOL    HW129942   3.741   4.606   1.759  0.3680  2.0586  1.1867
 6161SOL    HW229943   3.793   4.474   1.778  1.9376 -0.7235  1.4171
 6162SOL     OW29944   2.309   2.248   7.343  0.4121 -0.0307  0.6136
 6162SOL    HW129945   2.226   2.295   7.336  0.1905 -0.7009 -1.4860
 6162SOL    HW229946   2.368   2.322   7.356 -0.0732  0.6523 -1.0713
 6163SOL     OW29947   1.387   2.679   3.279  0.3200  0.2522  0.0687
 6163SOL    HW129948   1.447   2.604   3.277  1.4005  1.0842  1.5267
 6163SOL    HW229949   1.351   2.671   3.367  2.7955 -0.3590  1.0530
 6164SOL     OW29950   2.137   3.975   3.937  0.6764 -0.5179  1.0460
 6164SOL    HW129951   2.077   3.900   3.949 -0.0893 -0.0982 -0.1441
 6164SOL    HW229952   2.219   3.927   3.923  0.6989  0.7079 -2.9849
 6165SOL     OW29953   1.590   4.185  13.680 -0.0205 -0.4834  0.4752
 6165SOL    HW129954   1.637   4.243  13.740  0.1234  0.5637 -0.6738
 6165SOL    HW229955   1.510   4.164  13.728 -0.1196  0.7556  0.8432
 6166SOL     OW29956   4.314   4.041  16.438  0.2376  0.2669 -0.2636
 6166SOL    HW129957   4.375   4.080  16.376 -1.0224  2.1695 -0.2813
 6166SOL    HW229958   4.272   3.972  16.386  0.8671 -1.3970  1.4211
 6167SOL     OW29959   1.066   4.218   7.559  0.2147 -0.4456 -0.1235
 6167SOL    HW129960   1.014   4.296   7.542 -2.4549 -2.1734  0.0548
 6167SOL    HW229961   1.124   4.251   7.628  0.1725 -3.2661  1.2636
 6168SOL     OW29962   2.497   0.138   8.032  0.5455 -0.4184 -0.8501
 6168SOL    HW129963   2.414   0.125   8.078  2.4142 -0.8424  2.3919
 6168SOL    HW229964   2.461   0.143   7.943 -2.0569  2.5187  0.3750
 6169SOL     OW29965   4.411   2.840  16.313 -0.0487  0.0273  0.2752
 6169SOL    HW129966   4.326   2.816  16.349  0.2913 -1.0238  0.3545
 6169SOL    HW229967   4.440   2.913  16.368 -0.7762 -0.4773  1.3324
 6170SOL     OW29968   3.792   3.967   2.942  0.2716 -0.0918 -0.5149
 6170SOL    HW129969   3.701   3.943   2.924 -0.3319  1.1797  0.9266
 6170SOL    HW229970   3.829   3.915   2.870  0.3394  0.4178 -0.8513
 6171SOL     OW29971   0.155   1.004   6.059  0.2623  0.5342  0.3496
 6171SOL    HW129972   0.169   1.092   6.093 -0.2607  1.1912 -1.1034
 6171SOL    HW229973   0.248   0.982   6.067 -0.0573 -0.8428  0.3727
 6172SOL     OW29974   3.866   1.440   6.031 -0.0210  0.0091  0.1667
 6172SOL    HW129975   3.849   1.488   6.112  0.6999 -2.3593  1.7174
 6172SOL    HW229976   3.781   1.426   5.989  0.5683  0.4256 -1.1744
 6173SOL     OW29977   1.989   0.276  13.605  0.0634  0.2807  0.3562
 6173SOL    HW129978   1.907   0.280  13.556  0.9058 -0.4691 -1.1469
 6173SOL    HW229979   2.038   0.354  13.580 -0.9586  0.7091 -0.2767
 6174SOL     OW29980   3.390   3.108   6.802  0.0551 -0.2770 -0.1760
 6174SOL    HW129981   3.399   3.017   6.777 -1.7385  0.1427 -2.3651
 6174SOL    HW229982   3.331   3.127   6.729  1.4594 -0.4789 -1.3715
 6175SOL     OW29983   3.381   4.435   1.615  0.0324 -0.3492 -0.0539
 6175SOL    HW129984   3.411   4.434   1.705 -1.6660  2.0725  0.5357
 6175SOL    HW229985   3.445   4.488   1.568 -0.0746 -1.8599 -1.9381
 6176SOL     OW29986   3.572   3.502   6.028  0.1023 -0.2247  0.1629
 6176SOL    HW129987   3.605   3.413   6.038 -0.2163 -0.5781 -1.9753
 6176SOL    HW229988   3.503   3.505   6.095 -1.3640  1.3604 -1.4222
 6177SOL     OW29989   3.981   2.610   5.658  0.0290 -0.1228 -0.1701
 6177SOL    HW129990   3.935   2.623   5.575 -0.9040  0.4919  0.4430
 6177SOL    HW229991   3.964   2.690   5.707  0.2066 -1.6710  2.4454
 6178SOL     OW29992   1.920   2.185   3.845  0.0569  0.0229 -0.1133
 6178SOL    HW129993   1.997   2.127   3.843  1.4709  1.9261 -0.4694
 6178SOL    HW229994   1.965   2.266   3.868  2.0304 -1.0665 -0.0553
 6179SOL     OW29995   0.462   3.809   8.253  0.7826 -0.0405 -0.5203
 6179SOL    HW129996   0.386   3.867   8.244 -0.0478 -1.0150  0.3110
 6179SOL    HW229997   0.524   3.846   8.189 -1.7596  2.6307 -1.4318
 6180SOL     OW29998   2.841   0.174   5.985  0.0600  0.1153  0.4340
 6180SOL    HW129999   2.797   0.179   6.070  0.1934 -0.3508  0.5295
 6180SOL    HW230000   2.773   0.199   5.923 -0.5028 -0.6740  0.7411
 6181SOL     OW30001   0.065   2.256   4.513 -0.3933 -0.7633 -0.2899
 6181SOL    HW130002   0.027   2.274   4.599  3.5769 -0.7202  1.4498
 6181SOL    HW230003   4.711   2.224   4.470 -0.1188 -2.5257  0.5426
 6182SOL     OW30004   2.896   4.556  13.027 -0.0566 -0.4556 -0.3475
 6182SOL    HW130005   2.870   4.591  12.942  1.4168  2.2769  0.3159
 6182SOL    HW230006   2.859   4.614  13.094 -0.7413 -1.0392 -0.2153
 6183SOL     OW30007   0.859   4.157   2.103 -0.2821 -0.4317  0.1011
 6183SOL    HW130008   0.918   4.210   2.157  0.4843  1.2671 -2.3987
 6183SOL    HW230009   0.892   4.181   2.016  1.8988  0.0695  1.0463
 6184SOL     OW30010   0.235   3.484  12.048 -0.0756  0.5728  0.6072
 6184SOL    HW130011   0.261   3.567  12.090 -0.0352  0.1154  1.4936
 6184SOL    HW230012   0.161   3.518  11.998 -0.0746  3.0782  2.2858
 6185SOL     OW30013   1.994   3.647   3.520 -0.3156 -0.1278  0.1285
 6185SOL    HW130014   1.954   3.565   3.491 -0.0852 -0.8782  1.9302
 6185SOL    HW230015   1.939   3.654   3.598 -1.3877  1.2613 -0.7593
 6186SOL     OW30016   4.682   1.649   5.196 -0.0220 -0.5640 -0.4057
 6186SOL    HW130017   0.029   1.673   5.254 -0.7218 -1.0685  0.6787
 6186SOL    HW230018   0.012   1.643   5.118 -0.3696 -0.8524 -0.6294
 6187SOL     OW30019   1.737   0.103  17.531  0.1595 -0.2018 -0.2201
 6187SOL    HW130020   1.820   0.146  17.510 -0.8672  1.5938 -0.6286
 6187SOL    HW230021   1.755   0.102  17.626  1.8619 -1.0580 -0.5423
 6188SOL     OW30022   4.515   2.979   9.266 -0.0867 -0.4232 -0.1887
 6188SOL    HW130023   4.587   3.032   9.298 -0.8092  0.9494 -0.8125
 6188SOL    HW230024   4.502   3.018   9.179 -0.7486  1.2411  0.6630
 6189SOL     OW30025   0.731   0.027   6.679 -0.0121 -0.1783 -0.0551
 6189SOL    HW130026   0.652   0.039   6.625  0.4063  0.8829 -0.4243
 6189SOL    HW230027   0.755   0.110   6.720 -0.2052 -1.4090  2.5441
 6190SOL     OW30028   4.059   4.023   2.987 -0.5700  0.0735  0.6966
 6190SOL    HW130029   4.049   3.943   3.039 -1.7511  1.0576  1.9751
 6190SOL    HW230030   3.972   4.038   2.950 -0.0894 -1.3733 -1.0227
 6191SOL     OW30031   4.082   1.594   4.698 -0.1080  0.0979  0.6534
 6191SOL    HW130032   4.121   1.595   4.786  1.6854  2.4277 -0.1638
 6191SOL    HW230033   4.157   1.591   4.639 -0.9534  2.7180 -0.5487
 6192SOL     OW30034   2.252   0.380  17.031 -0.7458 -0.2662  0.1697
 6192SOL    HW130035   2.309   0.412  17.100 -0.0563  0.8062 -0.8857
 6192SOL    HW230036   2.202   0.452  16.993  1.7435  1.2764 -0.1787
 6193SOL     OW30037   4.624   1.141   1.901 -0.5427  0.2926 -0.5783
 6193SOL    HW130038   4.577   1.163   1.821 -2.3846  0.5197  0.5734
 6193SOL    HW230039   4.556   1.149   1.968 -0.6391 -2.1111 -0.3967
 6194SOL     OW30040   3.496   4.132   3.120 -0.5543 -0.1900  0.4088
 6194SOL    HW130041   3.449   4.147   3.037  0.1459  0.7624  0.1907
 6194SOL    HW230042   3.517   4.039   3.112 -2.0505 -0.5530  0.6736
 6195SOL     OW30043   1.450   4.414   4.348 -0.2049 -0.2519 -0.0565
 6195SOL    HW130044   1.411   4.385   4.430  2.9454 -0.1076  1.4892
 6195SOL    HW230045   1.381   4.475   4.319  1.0559  1.7293  1.1317
 6196SOL     OW30046   3.018   0.990   0.731  0.1764 -0.4601  0.2398
 6196SOL    HW130047   2.974   1.042   0.798  1.0342 -2.1344  2.1015
 6196SOL    HW230048   3.106   0.984   0.769  0.4350 -1.5853 -0.5106
 6197SOL     OW30049   2.209   3.965  14.296  0.0618 -0.1625 -0.4454
 6197SOL    HW130050   2.158   3.884  14.295 -0.7910  0.3308  2.7241
 6197SOL    HW230051   2.188   3.998  14.384  0.3306  0.0824 -0.4748
 6198SOL     OW30052   4.006   0.791   2.841 -0.0719 -0.3134 -0.0780
 6198SOL    HW130053   4.006   0.696   2.829 -2.1892  0.0762 -3.2324
 6198SOL    HW230054   3.954   0.799   2.921 -3.7619  0.5208 -2.5502
 6199SOL     OW30055   3.817   1.601   6.233 -0.2591 -0.1118  0.4486
 6199SOL    HW130056   3.817   1.593   6.328  0.1632  1.0722  0.5510
 6199SOL    HW230057   3.791   1.690   6.208 -0.9694 -0.2164  0.8351
 6200SOL     OW30058   0.469   4.230   6.414 -0.1534  0.3516  0.0030
 6200SOL    HW130059   0.485   4.140   6.444  0.4783  0.4453 -0.0462
 6200SOL    HW230060   0.512   4.234   6.329 -0.8105  1.0464 -0.2908
 6201SOL     OW30061   3.533   3.376   7.347  0.1881  0.0655  0.0426
 6201SOL    HW130062   3.557   3.425   7.426  0.8552 -1.0031  0.5089
 6201SOL    HW230063   3.538   3.289   7.385  0.1773 -1.7628 -4.1325
 6202SOL     OW30064   2.942   2.726  15.257 -0.5547  0.6174 -0.1880
 6202SOL    HW130065   2.934   2.712  15.162 -2.3120 -0.8019  0.1632
 6202SOL    HW230066   2.898   2.811  15.265 -1.0940  0.2629  0.6426
 6203SOL     OW30067   1.786   2.888  15.270  0.3144  0.4113  0.3816
 6203SOL    HW130068   1.800   2.914  15.362 -2.2678  0.2500  0.8052
 6203SOL    HW230069   1.777   2.794  15.284 -2.4053  0.8681  1.7093
 6204SOL     OW30070   3.214   0.556   5.269  0.0561 -0.0450  0.4678
 6204SOL    HW130071   3.237   0.513   5.352 -2.2271 -0.7226  0.7562
 6204SOL    HW230072   3.175   0.634   5.308  0.1111 -0.2714  0.9767
 6205SOL     OW30073   2.028   4.213   2.689  0.4996  0.4294  0.6192
 6205SOL    HW130074   2.103   4.192   2.743 -0.3851 -1.5600  1.0488
 6205SOL    HW230075   2.016   4.306   2.710  1.8900  0.0136  3.1740
 6206SOL     OW30076   2.936   4.019   4.507 -0.5117 -0.1031  0.2572
 6206SOL    HW130077   2.860   4.008   4.450  0.1409 -2.4772 -0.1522
 6206SOL    HW230078   3.005   4.042   4.445 -2.0812  2.6448 -0.5150
 6207SOL     OW30079   2.715   3.174  14.739 -0.2302  0.1136 -0.0686
 6207SOL    HW130080   2.733   3.081  14.740  0.7234  0.3242  2.0746
 6207SOL    HW230081   2.806   3.204  14.734  0.2070 -1.3855 -1.1229
 6208SOL     OW30082   0.835   1.852   8.014 -0.0307 -0.3240 -0.0850
 6208SOL    HW130083   0.873   1.910   8.080 -0.1284  1.2263 -1.3923
 6208SOL    HW230084   0.892   1.884   7.944 -0.5309  0.0444 -0.3289
 6209SOL     OW30085   0.857   1.296  13.051  0.8618 -0.0783 -0.6772
 6209SOL    HW130086   0.892   1.216  13.011  0.5406  1.0661 -3.3034
 6209SOL    HW230087   0.831   1.355  12.980 -1.1626 -0.9112 -0.6117
 6210SOL     OW30088   3.697   2.120   6.589 -0.6101  0.1399 -0.1008
 6210SOL    HW130089   3.639   2.189   6.620 -0.1101 -0.2697  1.7883
 6210SOL    HW230090   3.653   2.051   6.539  1.7246 -0.1215 -1.8161
 6211SOL     OW30091   0.128   1.480   8.526  0.0414 -0.7427  0.6211
 6211SOL    HW130092   0.201   1.472   8.587  0.5408 -1.0806 -0.0156
 6211SOL    HW230093   0.169   1.537   8.461  0.2089 -1.8400 -0.2365
 6212SOL     OW30094   1.521   1.604   6.767 -0.3710 -0.1280  0.1634
 6212SOL    HW130095   1.582   1.531   6.753 -0.7800 -0.4534  0.0568
 6212SOL    HW230096   1.509   1.610   6.861 -1.2664 -0.2151  0.0511
 6213SOL     OW30097   4.287   3.467   8.649 -0.1526 -0.3994 -0.3026
 6213SOL    HW130098   4.227   3.392   8.649 -0.7596  0.0689  2.2008
 6213SOL    HW230099   4.368   3.434   8.612 -1.3719 -2.1616 -1.3997
 6214SOL     OW30100   2.713   3.739  14.338 -1.0114  0.3226  0.0986
 6214SOL    HW130101   2.754   3.806  14.394 -0.5951 -0.4717  0.7474
 6214SOL    HW230102   2.626   3.747  14.376 -1.4572  0.2106 -0.9133
 6215SOL     OW30103   1.488   1.353   7.233  0.4316 -0.1596 -0.4063
 6215SOL    HW130104   1.529   1.292   7.293  0.3927  1.2331  1.0320
 6215SOL    HW230105   1.566   1.356   7.178  1.7282  0.0449  1.4660
 6216SOL     OW30106   4.516   3.108   5.953  0.2247 -0.0889  0.2197
 6216SOL    HW130107   4.546   3.067   6.034 -0.2762  0.4835  0.6934
 6216SOL    HW230108   4.567   3.189   5.954  1.4233 -0.8214 -1.0999
 6217SOL     OW30109   4.487   2.705  11.076  0.4920 -0.2684 -0.4156
 6217SOL    HW130110   4.560   2.647  11.099 -1.3638 -1.6381  1.9123
 6217SOL    HW230111   4.410   2.652  11.092 -0.5426  1.3429 -0.0302
 6218SOL     OW30112   3.598   4.548   9.713  0.1205  0.6904 -0.0130
 6218SOL    HW130113   3.578   4.471   9.660 -0.4802  0.9672 -0.1754
 6218SOL    HW230114   3.650   4.499   9.777 -1.7167 -0.2213  0.7898
 6219SOL     OW30115   0.964   0.330   4.227 -0.1211 -0.1312 -0.7574
 6219SOL    HW130116   1.023   0.349   4.301 -2.4385  0.2363  1.0084
 6219SOL    HW230117   0.883   0.364   4.266 -0.7924 -0.9367 -1.4758
 6220SOL     OW30118   3.015   2.574   4.448  0.2624 -0.2865  0.6111
 6220SOL    HW130119   2.925   2.607   4.445  0.7142  0.7420 -0.9779
 6220SOL    HW230120   3.042   2.627   4.524  0.1123 -1.0460  1.1957
 6221SOL     OW30121   0.651   2.545   8.153 -0.2060 -0.6844  0.6752
 6221SOL    HW130122   0.574   2.490   8.168 -1.4246  0.2550 -2.0845
 6221SOL    HW230123   0.719   2.505   8.207 -0.8295 -1.2808  1.0094
 6222SOL     OW30124   1.666   3.798   7.565 -0.0359  0.1372 -0.0165
 6222SOL    HW130125   1.680   3.821   7.473 -0.6305 -1.0442 -0.3949
 6222SOL    HW230126   1.754   3.786   7.601 -0.0764  0.9059  0.3546
 6223SOL     OW30127   3.975   2.582  12.140 -0.3413 -0.4417  0.1121
 6223SOL    HW130128   4.063   2.602  12.109 -1.0591  2.5174  0.0378
 6223SOL    HW230129   3.995   2.547  12.227 -1.5263  0.5730  0.7904
 6224SOL     OW30130   3.938   1.471   0.226 -0.0091  0.2832  0.1141
 6224SOL    HW130131   3.978   1.511   0.148  4.3151 -1.6160  1.4071
 6224SOL    HW230132   3.966   1.538   0.288  2.6676 -0.6147 -0.1361
 6225SOL     OW30133   3.286   1.797   7.062  0.0880  0.0209  0.3294
 6225SOL    HW130134   3.190   1.806   7.063  0.1473  0.5802  0.7635
 6225SOL    HW230135   3.302   1.744   7.140 -0.0335  1.4527  1.3328
 6226SOL     OW30136   3.532   4.358   9.537  0.2477 -1.0362 -1.1931
 6226SOL    HW130137   3.579   4.372   9.455 -1.5564  0.1845 -1.9920
 6226SOL    HW230138   3.443   4.334   9.512 -0.2797 -1.1994  0.7950
 6227SOL     OW30139   1.593   1.077   9.334 -0.8194  0.1872  0.4619
 6227SOL    HW130140   1.602   1.118   9.248  1.2551 -2.0728 -0.4136
 6227SOL    HW230141   1.510   1.035   9.313  0.0330 -0.9523 -0.6342
 6228SOL     OW30142   2.512   2.416  15.880  0.1887  0.1364  0.8101
 6228SOL    HW130143   2.519   2.335  15.929  0.9313 -1.1299 -1.3790
 6228SOL    HW230144   2.455   2.474  15.932  0.9991  1.9216 -0.2801
 6229SOL     OW30145   0.032   1.411  13.816 -0.3853  0.1859 -0.5184
 6229SOL    HW130146   4.691   1.377  13.876  0.8928  0.7971  1.2531
 6229SOL    HW230147   0.008   1.354  13.743 -0.6276  0.9737 -1.0379
 6230SOL     OW30148   4.566   0.561  14.194 -0.2207 -0.7602 -0.2514
 6230SOL    HW130149   4.495   0.500  14.215  0.1256 -1.7586 -1.9536
 6230SOL    HW230150   4.614   0.566  14.277  0.1069 -0.2922 -0.4698
 6231SOL     OW30151   4.659   1.065   4.719  0.6972 -0.1665  0.4296
 6231SOL    HW130152   4.689   1.132   4.780  1.9591 -0.8847  0.5807
 6231SOL    HW230153   4.660   1.119   4.640  0.8947  0.1661  0.6612
 6232SOL     OW30154   1.350   1.863  12.916 -0.6733 -0.3673  0.5017
 6232SOL    HW130155   1.272   1.814  12.942 -0.2642 -1.4000 -0.2121
 6232SOL    HW230156   1.420   1.800  12.932 -0.7935 -1.1294 -2.0674
 6233SOL     OW30157   0.900   0.921   2.833 -0.0922 -0.0911  0.9699
 6233SOL    HW130158   0.840   0.922   2.758 -1.3523  2.0487  2.0000
 6233SOL    HW230159   0.974   0.868   2.805 -1.4050 -0.6113 -1.5811
 6234SOL     OW30160   1.995   2.213   6.490  0.6100  0.0326  0.3442
 6234SOL    HW130161   1.983   2.168   6.407 -1.8669  1.7503 -0.2432
 6234SOL    HW230162   1.992   2.143   6.555 -1.9806  0.3062  0.5305
 6235SOL     OW30163   3.339   4.120  10.117 -0.0847 -0.2156 -0.1022
 6235SOL    HW130164   3.305   4.159  10.037 -1.6543  0.7344  1.0368
 6235SOL    HW230165   3.431   4.112  10.090 -0.4111 -0.3336 -1.1583
 6236SOL     OW30166   2.118   3.036  11.315 -0.6216  0.3322  0.2031
 6236SOL    HW130167   2.120   3.073  11.227  0.3627  0.7096  0.3884
 6236SOL    HW230168   2.031   3.063  11.347 -2.2831 -1.1233 -3.0499
 6237SOL     OW30169   2.717   3.400   1.905  0.2717  0.1073  0.1296
 6237SOL    HW130170   2.692   3.317   1.865  2.3698  1.0433 -3.0841
 6237SOL    HW230171   2.656   3.460   1.863 -0.9612 -0.5593  0.9756
 6238SOL     OW30172   3.134   1.633  12.161 -0.2177 -0.1634 -0.3979
 6238SOL    HW130173   3.118   1.634  12.255  1.7667 -0.0931 -0.0458
 6238SOL    HW230174   3.216   1.683  12.158 -1.3886  1.7648  0.3317
 6239SOL     OW30175   0.045   4.395  17.649  0.0676  0.1851  0.0810
 6239SOL    HW130176   4.719   4.316  17.666  0.7327 -0.4476 -0.8598
 6239SOL    HW230177   0.134   4.364  17.667 -0.3364  0.5281  2.6140
 6240SOL     OW30178   1.846   2.864  10.550  0.0519 -0.2420  0.2146
 6240SOL    HW130179   1.939   2.841  10.550 -0.0749 -0.7346  1.7047
 6240SOL    HW230180   1.812   2.784  10.512  0.5259 -0.0567 -0.5922
 6241SOL     OW30181   2.143   1.350   8.810 -0.2986 -0.5939  0.4213
 6241SOL    HW130182   2.137   1.268   8.859 -1.5540 -0.5387  0.3658
 6241SOL    HW230183   2.196   1.408   8.864 -2.4360  1.9018 -0.1192
 6242SOL     OW30184   0.568   0.322   4.941  0.1186 -0.2764 -0.0140
 6242SOL    HW130185   0.487   0.363   4.973 -1.1835 -1.9759 -1.1268
 6242SOL    HW230186   0.598   0.274   5.018  0.3680 -0.0470  0.0327
 6243SOL     OW30187   2.015   0.116   6.722  0.1883 -0.0620 -0.4645
 6243SOL    HW130188   2.024   0.064   6.642 -1.2059  0.0967 -0.7388
 6243SOL    HW230189   1.942   0.169   6.689  1.5927  1.9102 -0.3671
 6244SOL     OW30190   1.762   4.355   0.922  0.0832 -0.2414  0.2758
 6244SOL    HW130191   1.849   4.391   0.941  1.0373 -1.7984 -1.1653
 6244SOL    HW230192   1.803   4.284   0.872 -0.9897 -1.1439  0.6925
 6245SOL     OW30193   1.094   3.370   6.694 -0.2708 -0.5106 -0.4279
 6245SOL    HW130194   1.115   3.279   6.713  1.2891  0.2317  1.4381
 6245SOL    HW230195   1.053   3.364   6.608 -0.4065 -1.7452 -0.2668
 6246SOL     OW30196   0.055   4.326   8.199  0.0553  0.0636 -1.2076
 6246SOL    HW130197   0.119   4.340   8.269  0.9325 -0.8598 -1.8200
 6246SOL    HW230198   0.081   4.393   8.136  0.5937  0.2504 -0.7864
 6247SOL     OW30199   0.083   4.571   6.192  0.3053  0.2668 -0.5172
 6247SOL    HW130200   0.128   4.491   6.219  2.8401  2.5090  1.9116
 6247SOL    HW230201   4.718   4.541   6.181  0.0145  0.5509  1.1280
 6248SOL     OW30202   3.283   4.469   8.078  0.0570 -0.1041  0.6512
 6248SOL    HW130203   3.276   4.548   8.131  2.8587 -0.5945  1.7530
 6248SOL    HW230204   3.195   4.464   8.040  0.4766 -1.3488 -0.1460
 6249SOL     OW30205   4.556   3.992   0.693  0.0557 -0.0916  0.3233
 6249SOL    HW130206   4.646   3.983   0.724 -0.4555 -0.6636  1.6171
 6249SOL    HW230207   4.543   3.906   0.652 -0.9604 -0.5160  1.5365
 6250SOL     OW30208   3.680   0.702   3.008  0.4402  0.5171 -0.4243
 6250SOL    HW130209   3.632   0.757   3.070  0.3477 -0.3319  0.2654
 6250SOL    HW230210   3.652   0.735   2.923 -0.7048 -0.1218 -0.2970
 6251SOL     OW30211   2.311   2.424   8.055 -0.0190 -0.2623 -0.3329
 6251SOL    HW130212   2.277   2.505   8.017 -0.5628  0.6308  2.0339
 6251SOL    HW230213   2.377   2.464   8.112  1.3488 -0.0208 -2.0757
 6252SOL     OW30214   0.067   3.382  16.607  0.5698  0.2737 -0.2512
 6252SOL    HW130215   0.103   3.459  16.563  3.6090 -3.1715 -3.7921
 6252SOL    HW230216   0.012   3.341  16.540 -0.2591 -1.0578  1.2506
 6253SOL     OW30217   2.663   3.244  15.466  0.5494  0.2666 -0.4372
 6253SOL    HW130218   2.728   3.315  15.463  0.0215  0.6527 -2.4269
 6253SOL    HW230219   2.706   3.180  15.523  0.0008  1.2679  1.1105
 6254SOL     OW30220   1.518   0.029   4.402  0.3394 -0.0701  0.7081
 6254SOL    HW130221   1.446   4.695   4.379 -0.0572 -0.1945  2.2848
 6254SOL    HW230222   1.479   0.116   4.405  2.3808  0.7282  3.9741
 6255SOL     OW30223   1.744   2.988   5.675  0.2939 -0.4126 -0.3148
 6255SOL    HW130224   1.811   2.923   5.651  0.7375  0.3960 -1.2333
 6255SOL    HW230225   1.789   3.072   5.674 -1.9532  0.7644 -1.0990
 6256SOL     OW30226   2.260   0.867   6.960 -0.1417 -0.1290 -0.5189
 6256SOL    HW130227   2.167   0.866   6.935 -0.2847 -1.7157  0.0671
 6256SOL    HW230228   2.253   0.818   7.042 -2.1260 -0.0490 -0.6189
 6257SOL     OW30229   0.768   0.574  16.337 -0.3572 -0.5667  0.1500
 6257SOL    HW130230   0.678   0.601  16.320  0.0859  0.5506 -0.4253
 6257SOL    HW230231   0.761   0.494  16.285 -2.0333  0.8310 -1.7657
 6258SOL     OW30232   2.737   0.788   5.628 -0.1987  0.6963  0.1626
 6258SOL    HW130233   2.672   0.730   5.587  0.4089 -0.2941  0.5941
 6258SOL    HW230234   2.690   0.803   5.710 -0.6832  1.4547 -0.2480
 6259SOL     OW30235   4.022   0.033   0.711 -0.1082  0.5244 -0.0337
 6259SOL    HW130236   4.091   0.046   0.777 -0.8552 -1.6561  1.1415
 6259SOL    HW230237   3.942   0.038   0.762  0.5033  2.5614  0.7469
 6260SOL     OW30238   0.044   0.232  13.635 -0.1377  0.2220  0.5198
 6260SOL    HW130239   4.714   0.293  13.587 -1.9468 -1.6513  0.2260
 6260SOL    HW230240   0.062   0.152  13.586 -1.3401  0.7165 -0.6994
 6261SOL     OW30241   2.019   2.900  13.604  0.0195 -0.0741 -0.1049
 6261SOL    HW130242   2.019   2.848  13.685  0.7912 -1.1589 -0.7909
 6261SOL    HW230243   1.930   2.933  13.589 -0.5963 -1.8595 -0.4682
 6262SOL     OW30244   0.219   2.704  14.319 -0.2356 -0.9068 -0.5861
 6262SOL    HW130245   0.148   2.719  14.257 -0.4463  1.8449  0.3147
 6262SOL    HW230246   0.285   2.688  14.251  1.8355  1.0657  0.9815
 6263SOL     OW30247   2.897   4.686   6.228  0.5191 -0.4717 -0.1851
 6263SOL    HW130248   2.905   4.674   6.322 -1.5539  0.4758  0.1354
 6263SOL    HW230249   2.827   0.027   6.226  2.7053  1.8368  0.0224
 6264SOL     OW30250   3.637   3.241   9.636  0.4230 -0.0754  0.0384
 6264SOL    HW130251   3.626   3.249   9.542  2.2455 -0.4441 -0.2012
 6264SOL    HW230252   3.546   3.262   9.659  0.5839  0.1802  0.4620
 6265SOL     OW30253   1.780   4.391   1.430  0.1836 -0.2883  0.3893
 6265SOL    HW130254   1.704   4.389   1.489 -0.7069  0.6105 -0.7142
 6265SOL    HW230255   1.734   4.384   1.346 -2.4672  2.0099  1.6477
 6266SOL     OW30256   0.323   1.924   1.376  0.3670 -0.0170 -0.6410
 6266SOL    HW130257   0.362   1.884   1.298  1.6086  1.7108 -0.8975
 6266SOL    HW230258   0.237   1.882   1.377 -0.2608  1.2018 -2.7203
 6267SOL     OW30259   4.336   2.151   9.046 -0.0432 -0.0879 -0.6895
 6267SOL    HW130260   4.403   2.217   9.027  0.5652 -0.8387 -1.1841
 6267SOL    HW230261   4.372   2.071   9.007 -3.1268 -1.3708 -0.8770
 6268SOL     OW30262   1.331   2.664   2.444  0.8572 -0.4496  0.0168
 6268SOL    HW130263   1.345   2.578   2.403  0.3812  0.1098 -1.3121
 6268SOL    HW230264   1.378   2.709   2.374 -0.8370  1.0277 -0.1502
 6269SOL     OW30265   3.925   2.018  14.816 -0.4118  0.1829  0.7917
 6269SOL    HW130266   3.896   2.086  14.755  0.6211 -2.0839 -2.2470
 6269SOL    HW230267   4.004   1.994  14.767  0.1611  1.4113  1.0999
 6270SOL     OW30268   1.936   4.145   0.784 -0.1710 -0.0976 -0.2208
 6270SOL    HW130269   1.962   4.101   0.703 -0.8658 -2.1399  0.6551
 6270SOL    HW230270   2.024   4.152   0.820 -0.3890 -1.2095  0.5287
 6271SOL     OW30271   1.094   4.266   3.043  0.3423 -0.2529 -0.5799
 6271SOL    HW130272   1.140   4.249   2.961  0.6093 -0.3985 -0.4013
 6271SOL    HW230273   1.163   4.255   3.109  0.8912  0.3678 -1.0485
 6272SOL     OW30274   3.570   0.946   6.175  0.6586 -0.2575 -0.2929
 6272SOL    HW130275   3.650   0.946   6.228  0.3543 -1.1564  0.1785
 6272SOL    HW230276   3.521   1.023   6.203 -2.3776 -1.6585 -1.7624
 6273SOL     OW30277   1.776   2.680   7.329  0.0958  0.2391  0.5313
 6273SOL    HW130278   1.694   2.700   7.283 -0.1561 -1.0241  0.4265
 6273SOL    HW230279   1.825   2.678   7.247  0.6912 -1.1697  0.9204
 6274SOL     OW30280   1.471   1.119   6.267 -0.3424 -0.0875 -0.0101
 6274SOL    HW130281   1.565   1.136   6.271 -0.3081 -0.1939 -0.3659
 6274SOL    HW230282   1.456   1.063   6.343 -0.2174  1.2707  1.0024
 6275SOL     OW30283   1.625   0.486   5.918 -0.5837  0.0371 -0.4559
 6275SOL    HW130284   1.556   0.434   5.875 -2.7957  1.3346  1.5636
 6275SOL    HW230285   1.612   0.462   6.010 -2.0039  2.4284 -0.0407
 6276SOL     OW30286   1.146   0.370   5.067  0.6222 -0.5533  0.4033
 6276SOL    HW130287   1.166   0.435   5.135  1.0048 -1.9455  1.6219
 6276SOL    HW230288   1.201   0.304   5.108 -0.3105 -2.0574 -0.7742
 6277SOL     OW30289   1.519   3.763  14.676 -0.0464 -0.8043 -0.0830
 6277SOL    HW130290   1.549   3.831  14.736  0.2148  0.7602 -1.9773
 6277SOL    HW230291   1.541   3.686  14.729  0.5475  0.0516  0.9175
 6278SOL     OW30292   0.857   3.867   4.038  0.1552 -0.0441 -0.2184
 6278SOL    HW130293   0.852   3.776   4.009  1.1059  0.1446 -0.9527
 6278SOL    HW230294   0.840   3.849   4.131 -1.3354  0.5555 -0.3781
 6279SOL     OW30295   0.687   3.873   2.013 -0.1435 -0.0477 -0.0766
 6279SOL    HW130296   0.693   3.911   2.101 -0.3823 -1.1760  0.4214
 6279SOL    HW230297   0.765   3.818   2.011 -0.5998 -0.7244  0.9337
 6280SOL     OW30298   2.567   4.290   0.011  0.8034 -0.4488 -0.1737
 6280SOL    HW130299   2.659   4.305   0.031  0.6349 -0.1166  0.3469
 6280SOL    HW230300   2.524   4.273   0.095 -0.0956  0.8179 -0.3576
 6281SOL     OW30301   2.203   2.599   2.259  1.3829 -0.1516 -0.0772
 6281SOL    HW130302   2.194   2.631   2.169  1.2015 -0.0356 -0.0165
 6281SOL    HW230303   2.204   2.684   2.302  1.5196  0.0048 -0.3856
 6282SOL     OW30304   4.269   3.174   4.767  0.6391  0.0399 -0.6003
 6282SOL    HW130305   4.322   3.249   4.794  0.4405  0.3073 -0.9499
 6282SOL    HW230306   4.335   3.124   4.719 -0.2013 -0.6915 -0.9830
 6283SOL     OW30307   1.872   3.610   0.982 -0.2676 -0.4376 -0.1315
 6283SOL    HW130308   1.867   3.549   0.908 -0.2428  2.2341 -2.3465
 6283SOL    HW230309   1.944   3.561   1.022  0.7409  2.2902  1.3709
 6284SOL     OW30310   4.047   2.168   6.171 -0.0658 -0.3250 -0.0584
 6284SOL    HW130311   3.999   2.147   6.251 -0.5761 -2.3086 -0.8809
 6284SOL    HW230312   4.007   2.098   6.120 -1.4703  1.3807 -1.2980
 6285SOL     OW30313   2.835   3.653   6.623  0.2681  0.4153 -0.1042
 6285SOL    HW130314   2.852   3.620   6.711  2.8446 -0.3213 -0.8829
 6285SOL    HW230315   2.886   3.734   6.632  2.4822 -0.9631 -0.1049
 6286SOL     OW30316   2.062   0.193   1.987  0.0552 -1.4084  0.1937
 6286SOL    HW130317   2.008   0.268   2.011  0.7790 -1.0254  0.6118
 6286SOL    HW230318   1.994   0.124   1.988  0.2937 -1.6514 -0.3669
 6287SOL     OW30319   3.256   0.003   6.873 -0.2510  0.2268 -0.0099
 6287SOL    HW130320   3.330   0.064   6.871 -0.3675  0.3364 -0.9126
 6287SOL    HW230321   3.275   4.666   6.943 -0.9332 -0.9115 -0.8418
 6288SOL     OW30322   2.622   4.179   5.024  0.0212  0.2082  0.1850
 6288SOL    HW130323   2.600   4.163   4.932  0.0547 -0.4085  0.2839
 6288SOL    HW230324   2.545   4.236   5.032 -0.6315 -0.3244 -2.0358
 6289SOL     OW30325   3.043   3.831   0.722  0.0576  0.1463  0.1653
 6289SOL    HW130326   3.031   3.784   0.805  0.2059  0.2320  0.2353
 6289SOL    HW230327   2.962   3.809   0.675 -0.5288  0.0043  1.2252
 6290SOL     OW30328   2.539   1.052  13.029  0.4287  0.4252  0.1152
 6290SOL    HW130329   2.556   1.005  12.948  1.4570  1.4935 -0.2832
 6290SOL    HW230330   2.588   1.131  13.008 -1.1876  1.6908  1.1194
 6291SOL     OW30331   4.569   4.411  15.299 -0.1022  0.2002 -0.0830
 6291SOL    HW130332   4.650   4.363  15.281 -1.2951 -2.5410  1.8377
 6291SOL    HW230333   4.558   4.385  15.391 -0.2710  0.2808 -0.0821
 6292SOL     OW30334   1.320   4.445   9.760 -0.6397 -0.3536  0.2030
 6292SOL    HW130335   1.391   4.456   9.697  0.3944  3.7150  2.0421
 6292SOL    HW230336   1.297   4.353   9.755 -0.1155 -0.4993  0.4823
 6293SOL     OW30337   2.181   2.093   5.978  0.2254  0.2337 -0.1369
 6293SOL    HW130338   2.107   2.057   6.027  0.3999  0.6051  0.4069
 6293SOL    HW230339   2.256   2.075   6.034  0.7994  1.6603 -0.4486
 6294SOL     OW30340   3.769   2.402   8.638 -0.5293  0.5088 -0.2425
 6294SOL    HW130341   3.818   2.363   8.565  0.7784 -0.2838  1.0562
 6294SOL    HW230342   3.772   2.332   8.704 -0.7820  1.2887  0.5868
 6295SOL     OW30343   3.900   1.440   5.318  0.0384 -0.0353 -0.6446
 6295SOL    HW130344   3.976   1.431   5.260  1.9119  1.5662  1.5614
 6295SOL    HW230345   3.903   1.357   5.365  1.1226  0.0505 -0.5480
 6296SOL     OW30346   3.871   1.903   6.749 -0.3416  0.4837 -0.1702
 6296SOL    HW130347   3.959   1.896   6.711  0.2159  2.8890  0.6910
 6296SOL    HW230348   3.856   1.997   6.745  0.1963  0.7036  2.8083
 6297SOL     OW30349   0.589   1.511   3.719 -0.1981 -0.4547 -0.2496
 6297SOL    HW130350   0.673   1.511   3.673  0.6300 -2.0653  1.2381
 6297SOL    HW230351   0.622   1.517   3.809 -3.1140  0.9351  0.7203
 6298SOL     OW30352   0.013   1.065   7.086 -0.3999 -0.2857  0.2063
 6298SOL    HW130353   4.650   1.095   7.104  0.4017  1.5215  1.1391
 6298SOL    HW230354   0.053   1.145   7.051 -1.9043 -0.0153 -0.8395
 6299SOL     OW30355   2.449   2.792   2.709 -0.2040  0.8004  0.3996
 6299SOL    HW130356   2.477   2.752   2.627 -1.9174  1.0766 -0.3187
 6299SOL    HW230357   2.355   2.792   2.694 -0.4014  2.5154  1.5654
 6300SOL     OW30358   1.754   0.401   7.788  0.2245  0.4843 -0.0621
 6300SOL    HW130359   1.699   0.323   7.784  0.6390  0.1711  0.3075
 6300SOL    HW230360   1.832   0.374   7.835  0.2140  0.5207 -0.0237
 6301SOL     OW30361   1.880   1.682   7.220 -0.4925 -0.2272  0.0872
 6301SOL    HW130362   1.843   1.664   7.306  0.8960 -2.1422  0.2936
 6301SOL    HW230363   1.951   1.744   7.237 -0.6419  0.1815 -0.7691
 6302SOL     OW30364   3.464   3.393  15.077 -0.5459 -1.0271  0.5919
 6302SOL    HW130365   3.558   3.374  15.077 -0.6907 -1.9027 -2.3115
 6302SOL    HW230366   3.469   3.477  15.031  2.6392 -2.6357 -1.9925
 6303SOL     OW30367   3.170   2.147   2.932  0.0987  0.1269 -0.7260
 6303SOL    HW130368   3.119   2.146   2.850 -1.5684 -0.6110  0.3210
 6303SOL    HW230369   3.158   2.231   2.976  1.7185 -1.3666  2.5563
 6304SOL     OW30370   3.473   0.035   7.727  0.4313 -0.1900  0.3553
 6304SOL    HW130371   3.444   0.112   7.776 -0.0722  0.6360 -1.2281
 6304SOL    HW230372   3.413   4.687   7.744  0.5703 -0.7272 -1.4024
 6305SOL     OW30373   2.182   1.295  10.133 -0.0629 -0.3295  0.2939
 6305SOL    HW130374   2.199   1.366  10.195 -1.0006 -0.8799  1.1792
 6305SOL    HW230375   2.267   1.251  10.141 -0.0942 -1.0851 -3.3779
 6306SOL     OW30376   3.946   1.315   7.493  0.2103 -0.2624 -0.5329
 6306SOL    HW130377   3.860   1.311   7.536  1.5486  1.0873  2.2545
 6306SOL    HW230378   3.928   1.394   7.443 -0.2800  1.3112  2.0983
 6307SOL     OW30379   4.260   1.420   8.259  0.1910 -0.1692  0.4399
 6307SOL    HW130380   4.191   1.388   8.201 -0.3294  2.2667 -0.2674
 6307SOL    HW230381   4.330   1.359   8.233 -0.2351 -1.9720  3.4962
 6308SOL     OW30382   1.526   2.329  11.257  0.6658  0.2696  0.9628
 6308SOL    HW130383   1.492   2.247  11.221  0.0244  1.0463 -0.2131
 6308SOL    HW230384   1.550   2.377  11.178  2.3329 -1.9137  0.1570
 6309SOL     OW30385   0.493   3.768   3.177 -0.0336  0.5208 -0.4490
 6309SOL    HW130386   0.537   3.715   3.243 -2.0651  1.0690  1.3362
 6309SOL    HW230387   0.464   3.698   3.118  2.7031  0.3319 -1.5587
 6310SOL     OW30388   2.918   3.809  11.402  0.1232 -0.3523 -0.2264
 6310SOL    HW130389   2.867   3.746  11.351 -1.4521  0.7437 -0.0094
 6310SOL    HW230390   2.925   3.880  11.337  2.7427 -0.2681  0.1353
 6311SOL     OW30391   0.966   1.695   8.546  0.0792  0.4230  0.3471
 6311SOL    HW130392   0.919   1.774   8.521  1.0312  0.7549 -0.3870
 6311SOL    HW230393   1.055   1.730   8.539 -0.2091  1.0608 -0.1148
 6312SOL     OW30394   0.426   1.423   5.137  0.0384  0.0604  0.2910
 6312SOL    HW130395   0.372   1.412   5.059  1.9452 -3.1658 -0.5831
 6312SOL    HW230396   0.387   1.359   5.196 -0.5360  0.5808  0.4870
 6313SOL     OW30397   2.838   4.098   6.236 -0.6654 -0.3147  0.7458
 6313SOL    HW130398   2.847   4.079   6.143  1.4288  2.9681  0.2539
 6313SOL    HW230399   2.831   4.011   6.273 -0.0724 -0.8881 -0.4797
 6314SOL     OW30400   3.385   3.355   8.251  0.6654  0.2918  1.1846
 6314SOL    HW130401   3.385   3.271   8.206  0.3845 -0.3496  2.3733
 6314SOL    HW230402   3.460   3.394   8.207  1.0142 -1.3383  0.3664
 6315SOL     OW30403   1.076   4.359   3.397 -0.5471  0.2230 -0.0764
 6315SOL    HW130404   0.981   4.371   3.392 -0.1260  2.5133 -2.3482
 6315SOL    HW230405   1.111   4.448   3.401 -0.8978  0.3730 -0.3679
 6316SOL     OW30406   2.712   4.557   5.326 -0.0600 -0.1517  0.4536
 6316SOL    HW130407   2.619   4.582   5.323  0.4582  2.0727  2.5964
 6316SOL    HW230408   2.709   4.467   5.356  1.0008  0.4142  2.2618
 6317SOL     OW30409   1.776   2.904   7.777  0.1870  0.7581 -0.9537
 6317SOL    HW130410   1.761   2.997   7.796  0.1918  1.1204 -2.7725
 6317SOL    HW230411   1.681   2.889   7.783  0.0010  2.1888 -0.2402
 6318SOL     OW30412   0.053   2.415   7.000  0.0556  0.7273  0.3634
 6318SOL    HW130413   0.109   2.423   6.923  0.8365  1.8066  1.0440
 6318SOL    HW230414   0.050   2.505   7.034 -0.6492  1.1609 -0.8485
 6319SOL     OW30415   4.514   3.128   6.597 -0.1600  0.1649  0.1531
 6319SOL    HW130416   4.601   3.114   6.634 -0.1843 -0.7414 -0.1349
 6319SOL    HW230417   4.495   3.216   6.629 -0.5180  0.7355 -1.6479
 6320SOL     OW30418   1.964   0.753   5.262  0.1738  0.5892 -0.0306
 6320SOL    HW130419   1.976   0.736   5.356 -1.7433 -1.8885 -0.2215
 6320SOL    HW230420   2.001   0.840   5.248 -1.0928  1.4011  1.5985
 6321SOL     OW30421   4.659   3.693   2.470 -0.2422 -0.0252 -0.1884
 6321SOL    HW130422   4.664   3.709   2.564 -0.6112 -0.2634 -0.1295
 6321SOL    HW230423   4.698   3.774   2.436 -2.8471  1.0639 -0.5813
 6322SOL     OW30424   0.901   2.959  17.047 -0.2210  0.0616 -0.4898
 6322SOL    HW130425   0.891   2.903  17.124  1.6055  0.9815  0.4196
 6322SOL    HW230426   0.821   2.933  17.002  0.2511 -0.5833 -0.9600
 6323SOL     OW30427   2.260   1.792   5.584 -0.5029 -0.2368 -0.4969
 6323SOL    HW130428   2.347   1.759   5.560 -0.2523 -0.9463  1.3959
 6323SOL    HW230429   2.285   1.884   5.592  1.1813 -0.7804  0.3761
 6324SOL     OW30430   2.648   3.521   2.730 -0.1949 -0.1344  0.0191
 6324SOL    HW130431   2.569   3.568   2.756 -1.6410 -1.7737 -1.3746
 6324SOL    HW230432   2.623   3.477   2.649  1.4331 -0.0210 -0.5531
 6325SOL     OW30433   0.171   4.469   2.889  0.0224  0.0890 -0.3142
 6325SOL    HW130434   0.229   4.507   2.954  0.4638  1.2220 -1.3791
 6325SOL    HW230435   0.140   4.396   2.943 -1.3693 -2.0969 -4.0069
 6326SOL     OW30436   0.311   2.785  14.671 -0.1732 -0.0196  0.6261
 6326SOL    HW130437   0.390   2.764  14.721 -0.8037 -0.7623  1.3118
 6326SOL    HW230438   0.299   2.880  14.674  0.4417  0.0380  1.0485
 6327SOL     OW30439   1.971   3.800   2.681 -0.3272 -0.4270  0.5830
 6327SOL    HW130440   1.911   3.867   2.715  0.7052  0.8375 -0.0545
 6327SOL    HW230441   2.025   3.859   2.627 -0.3051  0.4287  1.5402
 6328SOL     OW30442   0.682   0.381  17.660  0.5456 -0.8517 -0.3789
 6328SOL    HW130443   0.750   0.355   0.019 -0.4785 -0.0567  1.0680
 6328SOL    HW230444   0.601   0.375   0.007  0.2093  0.3284 -0.7657
 6329SOL     OW30445   0.646   2.409   2.794  0.5371 -0.2418  0.1496
 6329SOL    HW130446   0.650   2.465   2.872 -0.3419 -1.4399  1.0600
 6329SOL    HW230447   0.706   2.344   2.831  0.7045  0.1029  0.4865
 6330SOL     OW30448   2.114   0.025   5.484 -0.2930  0.2938  0.1143
 6330SOL    HW130449   2.045   0.024   5.551  1.9749  1.4749  2.4668
 6330SOL    HW230450   2.187   4.725   5.540  0.8669 -1.0675 -2.0183
 6331SOL     OW30451   0.029   0.347   7.906 -0.2901 -0.1447 -0.5054
 6331SOL    HW130452   0.072   0.262   7.916 -0.0121 -0.0193 -0.6359
 6331SOL    HW230453   0.054   0.357   7.814  0.4719 -0.7346 -0.3595
 6332SOL     OW30454   2.627   4.441   6.419 -0.2228  0.3996  0.5743
 6332SOL    HW130455   2.598   4.532   6.427 -0.2266  0.3503  1.0765
 6332SOL    HW230456   2.657   4.430   6.329  0.4215  1.6097  0.6402
 6333SOL     OW30457   2.130   2.720  11.235  0.6290 -0.2107  0.3644
 6333SOL    HW130458   2.105   2.726  11.143  3.1015  1.0975 -0.2006
 6333SOL    HW230459   2.220   2.687  11.235  0.8827  0.4810 -0.0440
 6334SOL     OW30460   0.864   0.200   8.243  0.6315  0.2800  0.4154
 6334SOL    HW130461   0.952   0.238   8.250  1.3951 -1.2906 -0.6647
 6334SOL    HW230462   0.857   0.190   8.148  0.2036 -0.1239  0.4919
 6335SOL     OW30463   2.301   3.057   7.620  0.0518 -0.6141  0.0665
 6335SOL    HW130464   2.221   3.008   7.636 -0.7127 -0.1470 -2.3611
 6335SOL    HW230465   2.273   3.127   7.561 -1.0491  0.2866  1.6521
 6336SOL     OW30466   1.124   0.860   2.686 -0.1006  0.1177  0.3416
 6336SOL    HW130467   1.185   0.915   2.735  0.6137  1.2280 -1.8029
 6336SOL    HW230468   1.104   0.917   2.612  0.6912  0.0660  0.0839
 6337SOL     OW30469   4.711   4.000   6.774 -0.3307  0.9650  0.1218
 6337SOL    HW130470   4.713   3.994   6.869 -0.9545  0.1078  0.0797
 6337SOL    HW230471   4.625   4.040   6.762 -0.0871  2.0810  2.0920
 6338SOL     OW30472   4.666   4.459   5.891  0.1534 -0.0236  0.4762
 6338SOL    HW130473   4.612   4.536   5.871 -0.3649 -0.5779 -0.2480
 6338SOL    HW230474   4.641   4.410   5.813 -1.0627  1.3229  0.0123
 6339SOL     OW30475   4.622   1.867  16.602  0.6049 -0.8994 -0.2088
 6339SOL    HW130476   4.566   1.914  16.540  0.5988 -0.0406  0.4388
 6339SOL    HW230477   4.561   1.799  16.630  1.2199 -1.2614  0.2512
 6340SOL     OW30478   1.848   1.245  13.954  0.0767 -0.5951 -0.3985
 6340SOL    HW130479   1.876   1.276  14.040  0.7234 -2.4943  0.0779
 6340SOL    HW230480   1.781   1.306  13.923  0.0411 -1.2887 -1.6715
 6341SOL     OW30481   0.380   4.566  12.035 -0.4767  0.3697 -0.2891
 6341SOL    HW130482   0.443   4.637  12.032 -0.5605  0.5349  1.9329
 6341SOL    HW230483   0.400   4.531  11.948  1.1530 -0.1365  0.2951
 6342SOL     OW30484   0.194   0.574   2.236  0.4244 -0.1791 -0.0085
 6342SOL    HW130485   0.249   0.561   2.158  0.6687  1.8173 -0.1753
 6342SOL    HW230486   0.233   0.524   2.307 -0.1824  1.0924  1.2183
 6343SOL     OW30487   1.352   0.410   0.553 -0.2236 -0.0957  0.0661
 6343SOL    HW130488   1.411   0.480   0.524  1.0611 -1.2057  0.0169
 6343SOL    HW230489   1.389   0.399   0.641  4.7958  0.7053 -1.9440
 6344SOL     OW30490   2.801   1.490  16.724 -0.3495  0.3457  0.5746
 6344SOL    HW130491   2.881   1.528  16.688  0.5576 -1.7806  0.3296
 6344SOL    HW230492   2.735   1.537  16.672 -1.0784 -0.7531  0.4979
 6345SOL     OW30493   0.505   0.502   4.552  0.1252 -0.7049 -0.3263
 6345SOL    HW130494   0.427   0.472   4.598  0.6591 -1.0139  0.3838
 6345SOL    HW230495   0.466   0.528   4.468 -1.0042  1.3572  0.8449
 6346SOL     OW30496   4.413   4.566  12.793 -0.6191 -0.4646  0.3585
 6346SOL    HW130497   4.491   4.561  12.737 -1.4642  0.4320 -0.9132
 6346SOL    HW230498   4.365   4.508  12.735 -0.9572 -0.9722  1.1482
 6347SOL     OW30499   1.813   2.565  11.177  0.6605 -0.0235  0.4911
 6347SOL    HW130500   1.719   2.554  11.164  1.0122  0.4348 -2.4714
 6347SOL    HW230501   1.842   2.613  11.099  0.3541 -1.3488 -0.4541
 6348SOL     OW30502   3.622   4.166  16.902 -0.5083  0.3885  0.2077
 6348SOL    HW130503   3.596   4.101  16.967  0.4683 -0.5666 -0.3620
 6348SOL    HW230504   3.613   4.119  16.819 -0.4120  0.6558  0.0462
 6349SOL     OW30505   2.829   2.730   6.541 -0.9436  0.0881  0.0699
 6349SOL    HW130506   2.849   2.819   6.512 -0.6611 -0.4864 -1.4956
 6349SOL    HW230507   2.782   2.706   6.461 -1.6346  0.5965  0.3271
 6350SOL     OW30508   0.634   1.620   3.369  0.0814 -0.2728  0.2192
 6350SOL    HW130509   0.572   1.547   3.360 -1.5949  1.0467  1.1078
 6350SOL    HW230510   0.678   1.596   3.451  1.3280 -1.1569 -0.7045
 6351SOL     OW30511   4.258   4.189   2.819  0.4034 -0.4484  0.0581
 6351SOL    HW130512   4.211   4.185   2.902 -2.2085 -1.0907 -1.4453
 6351SOL    HW230513   4.193   4.212   2.752  0.6609 -0.9480 -0.3588
 6352SOL     OW30514   3.154   3.884   7.272  0.2615 -0.0669 -0.1288
 6352SOL    HW130515   3.165   3.818   7.204  0.3215 -0.0508 -0.1348
 6352SOL    HW230516   3.106   3.848   7.347  0.2764 -1.0411 -0.5829
 6353SOL     OW30517   4.146   0.224   1.188  0.6106 -0.2710  0.3489
 6353SOL    HW130518   4.071   0.171   1.162  0.5030 -0.8364  1.8045
 6353SOL    HW230519   4.098   0.306   1.195 -0.0765 -0.6385 -0.0052
 6354SOL     OW30520   2.732   0.260   8.414  0.6720 -0.0384  0.1368
 6354SOL    HW130521   2.717   0.178   8.366 -2.5696  2.0080 -2.3071
 6354SOL    HW230522   2.824   0.241   8.436  0.4220 -0.2798  0.9557
 6355SOL     OW30523   2.258   0.765   0.981 -0.1097  0.0815 -0.1598
 6355SOL    HW130524   2.191   0.832   0.974  0.8280  0.7411 -2.5561
 6355SOL    HW230525   2.221   0.683   0.948  1.2792 -0.1665 -1.0943
 6356SOL     OW30526   2.378   2.747  12.158  0.2771 -0.0590 -0.3202
 6356SOL    HW130527   2.300   2.741  12.102  1.0790 -1.6489 -1.3000
 6356SOL    HW230528   2.345   2.771  12.244 -0.3628 -2.5155  0.1357
 6357SOL     OW30529   2.830   3.608  10.714 -0.1093  0.3317 -0.0924
 6357SOL    HW130530   2.800   3.699  10.706  0.0181  0.1652 -2.5644
 6357SOL    HW230531   2.916   3.613  10.673  0.3177  0.2968  0.8088
 6358SOL     OW30532   1.281   3.781   4.679 -0.0270  0.0142  0.0029
 6358SOL    HW130533   1.201   3.777   4.730  1.0007 -0.4782  1.6003
 6358SOL    HW230534   1.297   3.875   4.686  1.3813 -0.0709 -2.0783
 6359SOL     OW30535   2.353   1.992   3.633 -0.3012  0.1048 -0.3217
 6359SOL    HW130536   2.407   1.974   3.556  0.6806  0.2840  0.3280
 6359SOL    HW230537   2.429   1.982   3.691 -0.0145  1.3625 -0.4759
 6360SOL     OW30538   3.163   2.067   4.502  0.1655 -0.3166  0.4415
 6360SOL    HW130539   3.187   2.117   4.423  0.0468  0.7683  1.0813
 6360SOL    HW230540   3.234   2.090   4.562 -0.9258  2.3101  0.7423
 6361SOL     OW30541   0.935   2.484   3.272  0.5321  0.9576 -0.2207
 6361SOL    HW130542   0.884   2.565   3.272  0.6156  1.0024  2.0941
 6361SOL    HW230543   0.905   2.426   3.202  0.7551  2.4235 -1.5354
 6362SOL     OW30544   0.400   2.701   0.150  0.4922  0.4352  0.2011
 6362SOL    HW130545   0.324   2.656   0.186  0.8605 -0.1362  0.2685
 6362SOL    HW230546   0.363   2.735   0.068  4.0697 -0.8037 -1.9284
 6363SOL     OW30547   1.471   1.991   2.631  0.4454 -0.3291 -0.2483
 6363SOL    HW130548   1.398   1.932   2.615 -0.3525  0.3785  0.7891
 6363SOL    HW230549   1.544   1.930   2.639 -0.4021 -1.2651  0.2580
 6364SOL     OW30550   1.684   4.601  17.333  0.0638 -0.1912 -0.5704
 6364SOL    HW130551   1.689   4.671  17.398 -0.6171 -0.4188 -0.2767
 6364SOL    HW230552   1.755   4.632  17.276  0.1572 -0.1711 -0.4439
 6365SOL     OW30553   1.692   3.388   1.914  0.0582  0.0320 -0.6677
 6365SOL    HW130554   1.761   3.435   1.868 -1.1967  1.6128 -0.9508
 6365SOL    HW230555   1.670   3.451   1.984 -1.5034  0.9844 -2.0110
 6366SOL     OW30556   1.980   2.450   1.937  0.2450 -0.1527  0.2533
 6366SOL    HW130557   1.964   2.475   2.028  0.6586 -1.6189  0.7228
 6366SOL    HW230558   1.898   2.410   1.909  0.4458 -0.4160  0.0393
 6367SOL     OW30559   4.150   4.000   7.355 -0.8041 -0.4397 -0.1216
 6367SOL    HW130560   4.144   4.064   7.284  1.2294 -1.7868 -1.4895
 6367SOL    HW230561   4.140   3.916   7.309  0.6428 -0.9645  0.5333
 6368SOL     OW30562   1.086   4.488   5.140 -0.1192 -0.1692  0.1322
 6368SOL    HW130563   1.177   4.520   5.133  0.3771 -1.1498  2.3103
 6368SOL    HW230564   1.054   4.547   5.208  0.7128 -0.3445  0.6828
 6369SOL     OW30565   2.254   2.379  12.342 -0.0842  0.6413  0.0693
 6369SOL    HW130566   2.184   2.438  12.312 -0.6323  0.5461  1.1691
 6369SOL    HW230567   2.288   2.349  12.258 -1.4628 -0.6743 -0.0178
 6370SOL     OW30568   3.382   0.088   8.391  0.2339  0.0664  0.4797
 6370SOL    HW130569   3.472   0.089   8.358 -0.3406 -0.0046 -1.0719
 6370SOL    HW230570   3.371   0.176   8.429 -1.8414 -0.2077  0.4679
 6371SOL     OW30571   2.901   0.110   0.753 -0.5769 -0.1091  0.1152
 6371SOL    HW130572   2.823   0.087   0.703 -0.6289  0.7867 -0.2273
 6371SOL    HW230573   2.965   0.051   0.714 -1.5467 -0.0524 -1.5682
 6372SOL     OW30574   0.407   3.366   7.658 -0.4763  0.1901  0.1784
 6372SOL    HW130575   0.366   3.429   7.717 -0.7303 -1.9839  2.3248
 6372SOL    HW230576   0.377   3.285   7.699 -0.3155 -0.8921 -1.8413
 6373SOL     OW30577   1.117   0.381  11.269  0.1669  0.0746  0.1951
 6373SOL    HW130578   1.088   0.454  11.214  2.5924 -1.4781 -3.1451
 6373SOL    HW230579   1.211   0.398  11.258  0.3177 -0.4418  0.6513
 6374SOL     OW30580   0.488   4.087   3.565 -0.2492 -0.1653 -0.0993
 6374SOL    HW130581   0.483   4.096   3.660 -0.1595 -1.9544  0.0787
 6374SOL    HW230582   0.582   4.078   3.552 -0.1520  0.2267  0.3417
 6375SOL     OW30583   0.461   1.053  16.160  0.2614 -0.4986  0.1867
 6375SOL    HW130584   0.543   1.061  16.111 -0.0885  1.3900 -0.0822
 6375SOL    HW230585   0.394   1.112  16.127 -1.7004 -2.5669  0.5021
 6376SOL     OW30586   2.546   0.921   5.372 -0.7179  0.6209 -0.1284
 6376SOL    HW130587   2.570   0.884   5.287  0.7330  1.1081  0.0755
 6376SOL    HW230588   2.529   0.837   5.414  2.1856 -0.0867 -0.4135
 6377SOL     OW30589   1.831   4.010   2.769  0.2019  0.6351  0.3699
 6377SOL    HW130590   1.900   4.075   2.782  0.5398  0.1710  0.8921
 6377SOL    HW230591   1.804   4.000   2.860 -2.1927 -1.5407 -0.5783
 6378SOL     OW30592   4.169   4.176   0.539  0.5206  0.7848 -0.1021
 6378SOL    HW130593   4.183   4.257   0.588 -0.8828  0.6425  0.5222
 6378SOL    HW230594   4.115   4.202   0.465 -2.3490  1.2507  2.1488
 6379SOL     OW30595   3.872   0.684   4.954 -0.4621 -0.2660 -0.4830
 6379SOL    HW130596   3.799   0.696   4.893  0.2461  2.5331 -0.7806
 6379SOL    HW230597   3.841   0.743   5.023  3.2682  1.3315 -0.2183
 6380SOL     OW30598   1.799   0.732  14.046  0.6346  0.4555 -0.3516
 6380SOL    HW130599   1.713   0.769  14.066  0.1799 -0.5090 -0.5005
 6380SOL    HW230600   1.842   0.815  14.029  1.6144 -0.1632 -0.8847
 6381SOL     OW30601   0.918   2.704   7.861 -0.3235  0.2142 -0.1542
 6381SOL    HW130602   0.929   2.796   7.887 -2.2009  0.9395 -1.9770
 6381SOL    HW230603   0.834   2.691   7.904  1.0122 -3.2572  1.3971
 6382SOL     OW30604   2.840   2.255   0.063  0.0312  0.0164 -0.3843
 6382SOL    HW130605   2.930   2.228   0.079 -0.6601 -2.3068 -0.3804
 6382SOL    HW230606   2.804   2.170   0.037  0.9800 -0.7764  0.8984
 6383SOL     OW30607   2.873   3.947   9.244 -0.7310 -0.2268 -0.2109
 6383SOL    HW130608   2.912   3.954   9.331  1.3828 -0.0497 -1.1824
 6383SOL    HW230609   2.937   3.903   9.189 -2.2187 -1.8934 -0.6008
 6384SOL     OW30610   3.176   1.751  13.789 -0.5968 -0.3421  0.1191
 6384SOL    HW130611   3.105   1.725  13.848  0.7044 -0.2842  1.7131
 6384SOL    HW230612   3.120   1.765  13.713  0.6413 -1.2258 -0.9671
 6385SOL     OW30613   1.900   2.349   6.985 -0.2712 -0.0758  0.6068
 6385SOL    HW130614   1.859   2.335   6.900  2.6124 -1.9918 -0.4796
 6385SOL    HW230615   1.855   2.283   7.038 -0.2670  0.3107  1.0958
 6386SOL     OW30616   3.731   0.021   5.805  0.1209  0.1611 -0.2714
 6386SOL    HW130617   3.670   0.003   5.733  0.7705  2.9821 -1.5161
 6386SOL    HW230618   3.768   4.658   5.808  1.1944  0.5918 -1.0601
 6387SOL     OW30619   0.928   2.386   5.119 -0.0662 -0.3808  0.4848
 6387SOL    HW130620   0.972   2.422   5.042  2.1661 -2.7994  0.6203
 6387SOL    HW230621   0.876   2.461   5.147  0.1950  0.8568 -2.2820
 6388SOL     OW30622   2.338   2.649   8.429  0.2919 -0.0532 -0.0581
 6388SOL    HW130623   2.335   2.739   8.460 -1.3756 -1.0858  2.9050
 6388SOL    HW230624   2.293   2.602   8.500  0.8153 -1.8458 -0.9232
 6389SOL     OW30625   2.468   1.322   4.282 -0.0719  0.2945 -0.4840
 6389SOL    HW130626   2.437   1.320   4.373 -0.4935  2.1360 -0.5916
 6389SOL    HW230627   2.503   1.409   4.266  0.4657  0.3891  1.2251
 6390SOL     OW30628   2.417   4.711   6.926 -0.9477 -0.4634  0.3401
 6390SOL    HW130629   2.366   4.631   6.937 -1.5072 -0.0593  0.7088
 6390SOL    HW230630   2.349   0.052   6.917  1.0048  1.4765 -0.1214
 6391SOL     OW30631   1.606   3.421  14.015 -0.4640 -0.4789 -0.2244
 6391SOL    HW130632   1.684   3.474  13.996 -0.4689 -0.4244 -0.0970
 6391SOL    HW230633   1.547   3.422  13.940 -0.2160  1.6260 -0.3973
 6392SOL     OW30634   3.010   4.086  14.808  0.5225  1.0471  0.2505
 6392SOL    HW130635   3.048   4.048  14.729 -0.8421 -2.2873  1.1961
 6392SOL    HW230636   2.995   4.180  14.811 -1.1295  0.8366 -1.1132
 6393SOL     OW30637   3.497   0.835  10.073  0.2460  0.1718  0.5800
 6393SOL    HW130638   3.528   0.823   9.982 -0.8118  1.0801  0.1098
 6393SOL    HW230639   3.448   0.916  10.057 -0.6089 -0.7035 -1.3086
 6394SOL     OW30640   0.175   2.795   7.577 -0.4116 -0.3277 -0.7991
 6394SOL    HW130641   0.098   2.833   7.619  0.0423  0.6661 -0.8493
 6394SOL    HW230642   0.248   2.827   7.631 -0.5569 -0.4603 -0.5259
 6395SOL     OW30643   0.410   3.387   3.760 -0.1413 -0.0605 -0.4293
 6395SOL    HW130644   0.494   3.404   3.719  0.1418 -1.9271 -0.6507
 6395SOL    HW230645   0.353   3.454   3.724  1.3570  2.5236  2.0036
 6396SOL     OW30646   2.085   2.668   8.293 -0.3701  0.5865  0.2774
 6396SOL    HW130647   2.040   2.693   8.373  0.2113  1.4695  0.3184
 6396SOL    HW230648   2.174   2.651   8.322 -0.1260 -0.2095 -0.9261
 6397SOL     OW30649   0.287   2.057   7.888  1.1009 -0.3777  0.5750
 6397SOL    HW130650   0.308   1.982   7.943 -0.5938 -1.4764 -0.2522
 6397SOL    HW230651   0.289   2.131   7.949 -3.1988  0.9265 -0.8291
 6398SOL     OW30652   2.119   2.041   4.539  0.0122  0.1568  0.0642
 6398SOL    HW130653   2.120   1.962   4.592 -0.6796 -0.7819 -1.2961
 6398SOL    HW230654   2.025   2.058   4.549  0.1941  0.9520  0.4056
 6399SOL     OW30655   2.562   2.509  12.091 -0.1171  0.1433 -0.3621
 6399SOL    HW130656   2.476   2.552  12.094  0.3609  1.0924 -0.3419
 6399SOL    HW230657   2.601   2.566  12.158 -0.0999 -1.6871  1.2001
 6400SOL     OW30658   4.284   3.361   8.284 -0.2943  0.1491  0.9590
 6400SOL    HW130659   4.373   3.338   8.259 -0.5647  0.5269 -0.3586
 6400SOL    HW230660   4.280   3.452   8.252 -0.3503  0.3856  1.6489
 6401SOL     OW30661   2.379   1.653   5.219 -0.4432 -0.6626 -0.2058
 6401SOL    HW130662   2.292   1.664   5.257 -0.1299  0.1291  0.2860
 6401SOL    HW230663   2.360   1.644   5.126  1.3632  1.8614 -0.8156
 6402SOL     OW30664   2.272   1.706   8.528 -0.1767  0.1867 -0.3951
 6402SOL    HW130665   2.221   1.633   8.492 -2.4201  1.0964  0.8931
 6402SOL    HW230666   2.328   1.661   8.591 -2.4459 -0.3316  1.2549
 6403SOL     OW30667   0.902   3.671  11.558  0.1134 -0.0265  0.1625
 6403SOL    HW130668   0.962   3.599  11.581  0.7498  0.2029 -0.7934
 6403SOL    HW230669   0.935   3.713  11.479  0.8696  0.9896  1.0043
 6404SOL     OW30670   2.391   1.262   5.329  0.3638  0.4602  0.5290
 6404SOL    HW130671   2.480   1.293   5.342  0.0738  1.1546  0.8815
 6404SOL    HW230672   2.350   1.333   5.279  0.1270 -1.0370 -1.4218
 6405SOL     OW30673   3.419   0.151   9.993 -0.2977  0.2621 -0.2515
 6405SOL    HW130674   3.489   0.201  10.033 -0.8585  0.4914  0.4553
 6405SOL    HW230675   3.362   0.221   9.960  0.0647  1.8442  2.4887
 6406SOL     OW30676   1.779   0.867   2.876  0.1819  0.1254 -0.4094
 6406SOL    HW130677   1.867   0.835   2.898 -0.2106 -0.5473  0.2049
 6406SOL    HW230678   1.760   0.917   2.956  0.0610 -0.3508 -0.1410
 6407SOL     OW30679   3.593   1.345   2.501  0.0044  0.5230  0.1342
 6407SOL    HW130680   3.678   1.389   2.494  0.0917  0.0254 -1.7934
 6407SOL    HW230681   3.562   1.372   2.415  1.7211 -1.7930 -1.2331
 6408SOL     OW30682   0.935   1.109  12.197 -0.4151 -0.6040 -0.3478
 6408SOL    HW130683   0.994   1.150  12.260  0.0497  0.2179 -1.3078
 6408SOL    HW230684   0.858   1.089  12.250 -1.7506  2.1820 -1.2196
 6409SOL     OW30685   0.047   1.870  16.857  0.3956 -0.3644 -0.0893
 6409SOL    HW130686   4.691   1.831  16.827  0.6901 -0.9756 -0.0869
 6409SOL    HW230687   0.032   1.884  16.950 -1.2599  0.9083 -0.5454
 6410SOL     OW30688   1.037   3.829   3.824  0.1661 -0.4757 -0.4910
 6410SOL    HW130689   0.997   3.837   3.911  2.0502 -0.6603  0.4093
 6410SOL    HW230690   1.049   3.921   3.801 -0.8450  0.2381  1.7814
 6411SOL     OW30691   0.896   0.588   0.485  0.4629 -0.0483 -0.1650
 6411SOL    HW130692   0.920   0.600   0.393  0.3897  1.0841 -0.0275
 6411SOL    HW230693   0.888   0.492   0.481  1.8702 -0.2347  1.1021
 6412SOL     OW30694   0.082   1.064   7.371 -0.3296  0.9611  0.1515
 6412SOL    HW130695   0.001   1.107   7.342  0.2098  0.2014 -2.5034
 6412SOL    HW230696   0.138   1.077   7.294  2.7514  0.5403  2.3014
 6413SOL     OW30697   4.080   2.756  11.298 -0.5151  0.0116 -0.6459
 6413SOL    HW130698   4.108   2.704  11.374  1.5011  0.8474 -0.8165
 6413SOL    HW230699   4.161   2.800  11.271 -0.9066  0.4116 -1.1549
 6414SOL     OW30700   0.484   3.567  12.273 -0.2183 -0.0983  0.5910
 6414SOL    HW130701   0.546   3.577  12.201  0.6543  1.9276  1.6132
 6414SOL    HW230702   0.411   3.613  12.233  0.1477 -1.4128 -1.5681
 6415SOL     OW30703   2.116   1.736   3.777  0.2775  0.2666 -0.0181
 6415SOL    HW130704   2.046   1.798   3.794  0.3709  0.3193  0.1775
 6415SOL    HW230705   2.173   1.780   3.715 -0.8509 -0.1657 -1.3562
 6416SOL     OW30706   3.300   1.337   4.911 -0.1889 -0.3424  0.0503
 6416SOL    HW130707   3.294   1.411   4.972 -1.1663 -1.2556  1.0698
 6416SOL    HW230708   3.211   1.336   4.878 -0.1347 -0.1248 -0.0999
 6417SOL     OW30709   1.747   3.544   4.817 -0.0003 -0.3685 -0.2470
 6417SOL    HW130710   1.733   3.590   4.901 -0.8491 -0.5211 -0.3019
 6417SOL    HW230711   1.663   3.563   4.775 -0.4320  1.1305  1.2796
 6418SOL     OW30712   0.540   0.371  15.870  0.2250  0.5014 -0.1654
 6418SOL    HW130713   0.457   0.325  15.856 -0.0801  1.3879 -1.2966
 6418SOL    HW230714   0.579   0.377  15.783 -1.7438  1.2793 -1.0100
 6419SOL     OW30715   1.858   3.350  17.325 -0.3424  0.1661 -0.1431
 6419SOL    HW130716   1.939   3.377  17.369  0.4897  1.9257 -2.7549
 6419SOL    HW230717   1.807   3.307  17.394 -0.2214  0.4378  0.1152
 6420SOL     OW30718   3.390   1.069   3.665  0.4087  0.1297 -0.3482
 6420SOL    HW130719   3.401   1.120   3.585 -0.6756 -2.7657 -2.3469
 6420SOL    HW230720   3.294   1.076   3.665  0.5502  2.3612  1.2838
 6421SOL     OW30721   3.225   4.367   2.865  0.0480  0.6059 -0.1495
 6421SOL    HW130722   3.211   4.451   2.823 -0.0146  0.5253 -0.2912
 6421SOL    HW230723   3.207   4.395   2.955 -1.0331 -0.1221 -0.1387
 6422SOL     OW30724   1.971   2.294   1.219 -0.5923 -0.5237  0.1859
 6422SOL    HW130725   2.018   2.238   1.280  0.6800 -0.0480 -0.3727
 6422SOL    HW230726   1.948   2.361   1.284 -0.5603 -0.6689  0.3468
 6423SOL     OW30727   0.253   0.342   4.619 -0.5406 -0.1916  0.0087
 6423SOL    HW130728   0.214   0.265   4.577 -4.4964  0.6007  2.2562
 6423SOL    HW230729   0.214   0.402   4.555 -0.7382  1.6728  1.8703
 6424SOL     OW30730   0.653   2.790   2.545 -0.4175  0.2132 -0.0203
 6424SOL    HW130731   0.608   2.759   2.467 -0.5035  1.4360 -0.4551
 6424SOL    HW230732   0.587   2.850   2.577 -0.8137 -2.5039  4.2620
 6425SOL     OW30733   2.420   4.060   8.257  0.2511  0.2197  0.1959
 6425SOL    HW130734   2.336   4.105   8.254  0.8221  1.3099  0.5486
 6425SOL    HW230735   2.410   4.007   8.336 -0.7057  1.2045  0.7302
 6426SOL     OW30736   1.718   2.483   9.196 -0.2750  0.5189  0.2594
 6426SOL    HW130737   1.665   2.529   9.132  0.2215 -0.0969 -0.5958
 6426SOL    HW230738   1.675   2.398   9.207 -0.4542  0.8439  2.1329
 6427SOL     OW30739   3.497   2.612  14.122  0.0528 -0.0813  0.0466
 6427SOL    HW130740   3.434   2.684  14.114  0.2353  0.1270  0.5514
 6427SOL    HW230741   3.435   2.545  14.151  2.3030  0.1848  5.2788
 6428SOL     OW30742   1.010   4.156   8.948 -0.4423 -0.3115  0.3100
 6428SOL    HW130743   1.033   4.188   9.035  3.0773 -0.3571 -0.5965
 6428SOL    HW230744   1.048   4.070   8.966  2.8973  0.8914 -0.8639
 6429SOL     OW30745   0.191   4.669   9.715 -0.1206 -0.2606  0.1551
 6429SOL    HW130746   0.160   4.664   9.806 -0.4553  1.0271  0.1017
 6429SOL    HW230747   0.228   4.583   9.696 -1.0960 -1.3627  3.2594
 6430SOL     OW30748   0.366   0.495   2.047  0.3137 -0.2725  0.0367
 6430SOL    HW130749   0.457   0.524   2.046 -0.0831  0.9684 -1.2446
 6430SOL    HW230750   0.371   0.400   2.041  2.0022 -0.0946 -1.3928
 6431SOL     OW30751   0.540   0.646   6.296  0.3893  0.0453 -0.3944
 6431SOL    HW130752   0.586   0.729   6.308  0.4515  0.3566 -2.6596
 6431SOL    HW230753   0.591   0.594   6.358 -0.8182 -0.3975  0.2215
 6432SOL     OW30754   3.142   3.244   7.450  0.1818  0.3253  0.3263
 6432SOL    HW130755   3.198   3.172   7.421 -1.7408 -1.9734  2.2644
 6432SOL    HW230756   3.093   3.211   7.526 -0.0968  0.5846  0.2578
 6433SOL     OW30757   0.318   3.641   3.393  0.2808  0.0733 -0.4074
 6433SOL    HW130758   0.274   3.555   3.393  0.9982 -0.2976 -0.6873
 6433SOL    HW230759   0.275   3.694   3.326  0.5817 -2.1637 -2.3711
 6434SOL     OW30760   0.197   3.228   3.100 -0.3585  0.8629 -0.4036
 6434SOL    HW130761   0.170   3.317   3.075 -1.6405 -0.3393 -3.2515
 6434SOL    HW230762   0.249   3.202   3.024 -2.1416 -0.6277 -1.1001
 6435SOL     OW30763   4.720   3.119   6.787 -0.6976  0.4803  0.2466
 6435SOL    HW130764   0.086   3.115   6.758 -0.8305 -1.3679  0.1164
 6435SOL    HW230765   4.717   3.070   6.868  0.9978 -0.8522 -0.5020
 6436SOL     OW30766   0.126   0.214   2.387 -0.2012  0.2096 -0.6315
 6436SOL    HW130767   0.052   0.164   2.353  1.2991 -1.8896 -0.7832
 6436SOL    HW230768   0.165   0.164   2.458  0.1493  0.0205 -0.9560
 6437SOL     OW30769   3.326   1.994   6.132 -0.6295 -0.3143  0.7752
 6437SOL    HW130770   3.251   2.038   6.173 -0.1526  1.7661 -0.6241
 6437SOL    HW230771   3.397   2.050   6.162  0.5360 -0.7661 -1.1852
 6438SOL     OW30772   1.054   3.093   7.338 -0.1909  0.3228 -0.2538
 6438SOL    HW130773   1.130   3.038   7.319  0.8228  1.6944 -0.1847
 6438SOL    HW230774   0.989   3.025   7.355 -0.1496 -0.1036 -1.8214
 6439SOL     OW30775   2.494   0.334   8.508 -0.0518 -0.0983  0.3010
 6439SOL    HW130776   2.444   0.358   8.429  0.1776  0.7499  0.4145
 6439SOL    HW230777   2.582   0.315   8.477  0.0161 -0.0387  0.4602
 6440SOL     OW30778   3.631   0.789   7.715  0.1402  0.1313 -0.2803
 6440SOL    HW130779   3.621   0.839   7.633 -1.2818  1.2359  0.5702
 6440SOL    HW230780   3.722   0.761   7.712 -0.6834 -2.5225 -0.3007
 6441SOL     OW30781   2.367   0.306   5.494 -0.4319  0.2693 -0.3683
 6441SOL    HW130782   2.430   0.272   5.431 -0.0915 -1.6941  1.0273
 6441SOL    HW230783   2.424   0.310   5.571 -2.2377  2.0083  0.8939
 6442SOL     OW30784   2.483   3.863   0.335 -0.8393 -0.0068  0.0903
 6442SOL    HW130785   2.420   3.916   0.286  0.3295  0.1805 -1.1836
 6442SOL    HW230786   2.569   3.891   0.305 -0.2012 -1.7110  0.2856
 6443SOL     OW30787   2.739   3.077  10.544 -0.4689  0.0194 -0.1492
 6443SOL    HW130788   2.724   2.983  10.534 -2.4795  0.6152 -2.7418
 6443SOL    HW230789   2.657   3.116  10.514 -0.3332  0.4063 -0.0240
 6444SOL     OW30790   4.691   2.915   7.745  0.9660  0.2314  0.0332
 6444SOL    HW130791   4.628   2.975   7.784  0.1486 -1.4935  1.3258
 6444SOL    HW230792   4.654   2.832   7.774 -0.5678  0.8845 -0.0337
 6445SOL     OW30793   0.139   0.430   9.420 -0.2938 -0.0876  0.0886
 6445SOL    HW130794   0.134   0.495   9.490 -0.0346  0.9845 -0.8972
 6445SOL    HW230795   0.062   0.456   9.370 -0.3965 -0.6827 -0.0671
 6446SOL     OW30796   2.522   2.049  13.232 -0.2947  0.0664  0.1945
 6446SOL    HW130797   2.458   2.025  13.298 -0.6858 -0.8142 -0.5039
 6446SOL    HW230798   2.534   2.136  13.270  0.9186  0.8555 -1.9677
 6447SOL     OW30799   3.358   4.220   8.165 -0.1038  0.1810 -0.4767
 6447SOL    HW130800   3.452   4.219   8.146 -0.2287 -0.5072 -1.0606
 6447SOL    HW230801   3.341   4.311   8.139 -2.0806  0.5454  2.0538
 6448SOL     OW30802   2.470   1.684   5.470 -0.2575 -0.2203 -1.1647
 6448SOL    HW130803   2.442   1.653   5.383 -0.7464 -0.9395 -0.7459
 6448SOL    HW230804   2.563   1.701   5.455 -0.0254 -1.1712 -0.8287
 6449SOL     OW30805   3.548   2.006  16.616 -0.1671  0.3214 -0.3061
 6449SOL    HW130806   3.555   2.063  16.539 -1.3926  0.2623 -0.4640
 6449SOL    HW230807   3.457   2.011  16.646 -0.6114 -1.0000 -1.4308
 6450SOL     OW30808   4.664   1.617   2.995  0.1683 -0.0301  0.0608
 6450SOL    HW130809   4.685   1.645   2.906 -1.4239  0.7311 -0.0835
 6450SOL    HW230810   4.636   1.702   3.029 -0.5192 -0.1478 -0.1971
 6451SOL     OW30811   1.508   1.253   3.950 -0.3609  0.1028 -1.0428
 6451SOL    HW130812   1.593   1.235   3.909  0.9634  0.8205  1.4085
 6451SOL    HW230813   1.469   1.321   3.895 -1.1609 -0.9549 -1.8011
 6452SOL     OW30814   2.867   2.858  11.924  0.0209  0.6007  0.1198
 6452SOL    HW130815   2.877   2.937  11.976 -0.1148  0.6072  0.1366
 6452SOL    HW230816   2.905   2.790  11.980  0.0594  0.1698 -0.4146
 6453SOL     OW30817   4.660   0.962   1.602 -0.0657 -0.1413 -0.2746
 6453SOL    HW130818   4.620   1.048   1.617 -1.5492 -0.9861  0.6512
 6453SOL    HW230819   0.015   0.959   1.653  0.2910 -1.4077 -0.8938
 6454SOL     OW30820   0.833   4.475   6.592 -0.1206  0.0632 -0.1265
 6454SOL    HW130821   0.817   4.568   6.606 -2.7015 -0.5113  0.6395
 6454SOL    HW230822   0.744   4.441   6.580  0.2813 -1.7371  2.0204
 6455SOL     OW30823   2.033   2.725   6.016 -0.0274 -0.6023 -0.3173
 6455SOL    HW130824   2.035   2.686   6.103  0.2617  1.1419  0.4659
 6455SOL    HW230825   2.090   2.675   5.958 -0.9836 -3.0294  0.8417
 6456SOL     OW30826   1.955   4.300   1.860  0.0591  0.2111  0.3415
 6456SOL    HW130827   1.936   4.341   1.944 -0.7130  1.9463 -0.6850
 6456SOL    HW230828   1.988   4.379   1.818  1.2450 -1.0570 -1.1227
 6457SOL     OW30829   2.759   4.714   2.431  0.3028 -0.2460 -0.2747
 6457SOL    HW130830   2.814   4.725   2.353  3.0771  1.3251  1.8927
 6457SOL    HW230831   2.821   0.027   2.493  0.6179 -1.7537  0.3350
 6458SOL     OW30832   1.606   4.350   0.679 -0.0546 -0.5092 -0.6159
 6458SOL    HW130833   1.648   4.373   0.762 -0.3411  1.6910 -1.0641
 6458SOL    HW230834   1.642   4.423   0.628  0.3443 -1.8534 -2.2401
 6459SOL     OW30835   3.907   1.353   8.698  0.1857 -0.8643  0.2152
 6459SOL    HW130836   3.876   1.281   8.753  3.1610 -0.5351  2.2934
 6459SOL    HW230837   3.903   1.432   8.753 -0.0682 -2.1267  2.0200
 6460SOL     OW30838   3.502   2.336   9.392 -0.2522 -0.0908  0.1116
 6460SOL    HW130839   3.501   2.353   9.298  0.1975  1.3375  0.3669
 6460SOL    HW230840   3.564   2.264   9.400  1.7756  1.5115 -1.2351
 6461SOL     OW30841   2.914   1.614   2.724 -0.0110  0.4567 -0.2023
 6461SOL    HW130842   2.949   1.628   2.812 -0.8053 -2.9531  0.6665
 6461SOL    HW230843   2.901   1.703   2.692  0.8110  0.2267 -1.1669
 6462SOL     OW30844   0.368   4.117   7.609 -0.4096  0.2687 -0.4526
 6462SOL    HW130845   0.348   4.205   7.578 -0.1195  0.6267  0.3954
 6462SOL    HW230846   0.464   4.121   7.606 -0.5585  2.4800 -2.4756
 6463SOL     OW30847   4.578   4.698   6.958 -0.4986 -0.0704 -0.1108
 6463SOL    HW130848   4.500   4.669   6.912 -0.5144 -1.9105  1.0580
 6463SOL    HW230849   4.600   0.061   6.927  2.2910 -0.5570  0.4430
 6464SOL     OW30850   3.031   4.090   7.414 -0.0886  0.4797  0.4762
 6464SOL    HW130851   3.091   4.053   7.350  1.3802 -2.4366  3.5438
 6464SOL    HW230852   3.058   4.180   7.429 -1.0335  0.6789  1.0149
 6465SOL     OW30853   1.179   3.576   3.653  0.0827  0.2822 -0.3915
 6465SOL    HW130854   1.220   3.490   3.641  1.1994  1.1432 -2.8839
 6465SOL    HW230855   1.252   3.625   3.692 -1.7016  0.6079  2.5253
 6466SOL     OW30856   2.849   0.330  17.280  0.2954  0.3217 -0.0448
 6466SOL    HW130857   2.939   0.340  17.251 -0.0457  0.4160 -1.0767
 6466SOL    HW230858   2.808   0.394  17.222  1.4435 -0.3335 -1.5741
 6467SOL     OW30859   0.524   0.457   7.414  0.2986  0.8070  0.3085
 6467SOL    HW130860   0.505   0.545   7.447  0.6739  1.3914 -1.0146
 6467SOL    HW230861   0.485   0.475   7.328  1.8810  3.1352  0.0574
 6468SOL     OW30862   1.681   3.735   7.026  0.1398  0.0245 -0.2657
 6468SOL    HW130863   1.615   3.683   6.982 -0.1463 -0.3818  0.6352
 6468SOL    HW230864   1.745   3.668   7.052 -1.2004 -1.5729 -1.1355
 6469SOL     OW30865   2.646   0.844   3.006  0.1511 -0.2252 -0.3167
 6469SOL    HW130866   2.740   0.837   2.990  0.2012 -2.4351  0.8120
 6469SOL    HW230867   2.637   0.888   3.091  2.2000 -1.4959  0.5486
 6470SOL     OW30868   0.093   4.314  15.304  0.1236  0.4596 -0.2948
 6470SOL    HW130869   0.140   4.393  15.276 -1.5668  1.6758  0.3485
 6470SOL    HW230870   0.147   4.246  15.263 -0.8120  0.7356 -1.9702
 6471SOL     OW30871   3.298   0.932   8.520  0.1472  0.0345  0.4742
 6471SOL    HW130872   3.276   0.895   8.434  0.7921  0.0111  0.3191
 6471SOL    HW230873   3.249   0.880   8.584 -0.8938  0.7980  0.2906
 6472SOL     OW30874   3.710   3.899   9.887  0.3856 -0.2045 -0.5663
 6472SOL    HW130875   3.754   3.818   9.864  0.0973 -0.5008 -0.0746
 6472SOL    HW230876   3.687   3.935   9.801  0.2581  1.4023  0.1381
 6473SOL     OW30877   4.387   0.124   1.100 -0.2126 -0.4159 -0.0300
 6473SOL    HW130878   4.328   0.189   1.139 -1.1744 -1.6651  0.5798
 6473SOL    HW230879   4.328   0.060   1.061  0.6387 -1.8324  1.0022
 6474SOL     OW30880   3.651   2.644  17.015  0.4118  0.5170 -0.4005
 6474SOL    HW130881   3.611   2.715  16.966 -0.6298  0.4402  0.3391
 6474SOL    HW230882   3.637   2.574  16.951 -0.6650  1.0007 -0.6897
 6475SOL     OW30883   4.665   2.948   3.986  0.6389 -0.0519 -0.2326
 6475SOL    HW130884   4.594   3.011   3.998  0.0393 -1.1612  2.1105
 6475SOL    HW230885   0.016   2.996   4.017  0.1662  0.6722 -0.1633
 6476SOL     OW30886   3.663   0.987   5.331 -0.0501  0.4044 -0.2410
 6476SOL    HW130887   3.697   1.033   5.409 -0.3877 -0.2886  0.3131
 6476SOL    HW230888   3.665   1.060   5.269 -0.6051  0.8258  0.2359
 6477SOL     OW30889   1.237   2.882   9.681  0.1060 -0.2275  0.7918
 6477SOL    HW130890   1.205   2.929   9.604 -0.8324 -2.6656 -0.2921
 6477SOL    HW230891   1.221   2.957   9.740 -2.0536 -0.1704  0.1448
 6478SOL     OW30892   1.877   0.531   3.610 -0.3861 -0.2416 -0.4317
 6478SOL    HW130893   1.827   0.558   3.688  0.7170  0.4847  0.0233
 6478SOL    HW230894   1.822   0.465   3.566 -1.8439  1.1710 -0.7442
 6479SOL     OW30895   1.352   4.352  16.077 -0.1307 -0.2077  0.2136
 6479SOL    HW130896   1.388   4.402  16.150  0.0736 -0.2151  0.1161
 6479SOL    HW230897   1.433   4.330  16.032  0.1052  1.5698 -0.2030
 6480SOL     OW30898   2.597   0.508   2.100 -0.0989 -0.1592 -0.1006
 6480SOL    HW130899   2.556   0.425   2.126  1.9373 -0.3246  2.5592
 6480SOL    HW230900   2.574   0.504   2.007 -0.0353  1.5973 -0.1855
 6481SOL     OW30901   2.015   1.148   6.407  0.5679  0.2106 -0.5519
 6481SOL    HW130902   1.922   1.167   6.418  1.2755  3.8325 -0.8101
 6481SOL    HW230903   1.993   1.088   6.337 -0.2491  1.4303 -1.3452
 6482SOL     OW30904   0.186   0.276  10.051  0.0907  0.1496  0.0020
 6482SOL    HW130905   0.143   0.342   9.997  2.1537  2.6950  1.4311
 6482SOL    HW230906   0.234   0.329  10.115 -0.0052 -0.1329  0.3048
 6483SOL     OW30907   3.601   2.038   7.245  0.2244 -0.2591 -0.2863
 6483SOL    HW130908   3.627   2.012   7.156  1.1870  2.1679 -0.7189
 6483SOL    HW230909   3.681   2.088   7.262  0.3565 -0.9633  1.1945
 6484SOL     OW30910   2.309   2.203  10.069  0.1682  0.4973  0.3732
 6484SOL    HW130911   2.226   2.250  10.059  0.0666  0.1043 -0.6888
 6484SOL    HW230912   2.282   2.131  10.013 -0.8354  0.8725  0.3769
 6485SOL     OW30913   3.095   2.754  11.749 -0.3238  0.1103  0.6342
 6485SOL    HW130914   3.064   2.728  11.835  0.3677  0.5241  1.0091
 6485SOL    HW230915   3.160   2.822  11.765  0.4757  0.1083 -2.6248
 6486SOL     OW30916   2.398   3.257  14.454 -1.1112  0.1828  0.1098
 6486SOL    HW130917   2.456   3.325  14.490 -0.1592 -0.3374 -0.4468
 6486SOL    HW230918   2.345   3.226  14.526  0.5779 -1.5951  0.5806
 6487SOL     OW30919   1.109   2.443   7.629  0.2532 -0.1009  0.3819
 6487SOL    HW130920   1.195   2.410   7.603  0.0621 -0.1717 -0.1643
 6487SOL    HW230921   1.053   2.405   7.561 -0.4922 -1.8390  1.9790
 6488SOL     OW30922   3.789   3.607   5.909  0.1323  0.3030 -0.1989
 6488SOL    HW130923   3.780   3.694   5.948 -0.5440 -0.4309  1.2827
 6488SOL    HW230924   3.703   3.574   5.937 -0.7616  1.5164 -1.5019
 6489SOL     OW30925   2.127   3.164   8.914 -0.1689  0.0822 -0.7119
 6489SOL    HW130926   2.101   3.194   9.001  0.3519 -1.4139 -0.0378
 6489SOL    HW230927   2.221   3.152   8.923 -0.4465 -1.5350  0.0938
 6490SOL     OW30928   2.911   2.733   5.892 -0.3438 -0.3358  0.5006
 6490SOL    HW130929   2.853   2.661   5.918 -0.4183 -0.4059  0.1434
 6490SOL    HW230930   2.945   2.704   5.807  1.7044  2.2179  0.4543
 6491SOL     OW30931   1.942   0.141   1.323 -0.2689  0.2107 -0.7966
 6491SOL    HW130932   1.860   0.190   1.317  0.2508  1.2508  0.4862
 6491SOL    HW230933   1.947   0.143   1.419  0.7764  0.6525 -0.8584
 6492SOL     OW30934   2.530   4.425  14.390  0.1706  0.0703 -0.2211
 6492SOL    HW130935   2.623   4.444  14.375  0.5264 -2.6972 -1.4411
 6492SOL    HW230936   2.526   4.332  14.368  0.6739 -0.1076  0.4336
 6493SOL     OW30937   3.327   3.369   6.473  0.1800 -0.0187 -0.0856
 6493SOL    HW130938   3.409   3.333   6.439  0.9647  1.1285  0.5923
 6493SOL    HW230939   3.331   3.464   6.459  1.6518 -0.3993 -2.1445
 6494SOL     OW30940   1.169   3.892   0.296 -0.3332  0.2053  0.6080
 6494SOL    HW130941   1.222   3.906   0.217  1.7203 -1.0935  1.7650
 6494SOL    HW230942   1.111   3.966   0.278  0.8311  0.8754 -0.4308
 6495SOL     OW30943   3.304   1.307  12.935  0.1876  0.0045  0.6625
 6495SOL    HW130944   3.275   1.243  12.871  0.1524  2.5942 -1.9597
 6495SOL    HW230945   3.397   1.284  12.935 -0.3502 -2.0202  2.5868
 6496SOL     OW30946   1.900   1.911   3.685 -1.1048  0.1764 -0.0952
 6496SOL    HW130947   1.941   1.987   3.644  0.0332 -1.1172 -1.3918
 6496SOL    HW230948   1.914   1.915   3.780 -1.5170  0.7209 -0.0614
 6497SOL     OW30949   0.900   1.764   2.002  0.2108 -0.1872 -0.2537
 6497SOL    HW130950   0.858   1.762   1.916  1.0563  1.5886 -0.7043
 6497SOL    HW230951   0.894   1.857   2.024 -0.7661 -0.0828 -0.9117
 6498SOL     OW30952   1.870   2.709   7.569  0.8734  1.2195  0.5262
 6498SOL    HW130953   1.815   2.697   7.492  1.0998  0.7758  0.4337
 6498SOL    HW230954   1.814   2.765   7.623  0.9215 -0.8258  2.6928
 6499SOL     OW30955   0.034   1.422   6.739  0.1623  0.4365 -0.3452
 6499SOL    HW130956   4.670   1.428   6.774  0.3223  1.1507 -0.0607
 6499SOL    HW230957   0.018   1.393   6.649 -1.5107  1.8402 -0.4938
 6500SOL     OW30958   4.486   3.052  15.443  0.0968  0.0482 -0.7895
 6500SOL    HW130959   4.477   2.960  15.415  1.8116 -1.0516  2.2594
 6500SOL    HW230960   4.399   3.091  15.440  0.1836  0.3459  0.8874
 6501SOL     OW30961   4.187   0.523   5.698  0.0390  0.2230 -0.4328
 6501SOL    HW130962   4.277   0.554   5.710  0.0302  0.2698 -0.4924
 6501SOL    HW230963   4.186   0.430   5.719  1.3537  0.0601 -1.0932
 6502SOL     OW30964   4.447   2.828  13.197 -0.0428  0.5679 -0.3381
 6502SOL    HW130965   4.353   2.837  13.181 -0.2539 -0.1431  0.5119
 6502SOL    HW230966   4.470   2.921  13.190  0.9416  0.3281 -0.3134
 6503SOL     OW30967   2.720   1.249   8.270 -0.0538 -0.3825 -0.2857
 6503SOL    HW130968   2.693   1.331   8.310 -2.1404 -0.7090 -1.0356
 6503SOL    HW230969   2.695   1.180   8.331  0.7997  1.3797  2.0620
 6504SOL     OW30970   2.647   0.308  13.709  0.3475 -0.1742  0.5974
 6504SOL    HW130971   2.718   0.373  13.716 -0.6623  0.7415  2.4315
 6504SOL    HW230972   2.682   0.223  13.736  0.5737 -0.6137 -1.1280
 6505SOL     OW30973   1.203   1.579   6.142  0.1115  0.3089 -0.0799
 6505SOL    HW130974   1.235   1.491   6.159 -2.0819 -0.2452  1.1826
 6505SOL    HW230975   1.213   1.613   6.232 -0.3022 -1.5109  0.6397
 6506SOL     OW30976   1.129   2.906   3.595  0.0094 -0.4582 -0.1151
 6506SOL    HW130977   1.054   2.943   3.547  0.5439  2.1846  1.0605
 6506SOL    HW230978   1.078   2.866   3.665 -1.0201  0.3343 -0.4069
 6507SOL     OW30979   0.246   3.609   0.949  0.3170  0.5477 -0.3490
 6507SOL    HW130980   0.318   3.578   1.004  0.2585  0.1950 -0.4741
 6507SOL    HW230981   0.244   3.553   0.872  0.0677 -0.0155  0.0608
 6508SOL     OW30982   4.430   0.816   6.939  0.1611  0.0811 -0.0513
 6508SOL    HW130983   4.405   0.727   6.960  0.1526 -0.2494 -1.4855
 6508SOL    HW230984   4.353   0.863   6.970 -1.6267 -3.4144  0.7580
 6509SOL     OW30985   2.216   2.741  15.854  0.0782  0.7545  0.5338
 6509SOL    HW130986   2.138   2.750  15.800 -0.5459 -2.4037  0.9569
 6509SOL    HW230987   2.213   2.653  15.892  0.1742  0.0858 -1.0137
 6510SOL     OW30988   1.164   2.300   5.207 -0.6451 -0.0048 -0.1107
 6510SOL    HW130989   1.191   2.209   5.213  2.0414  0.8338  0.6025
 6510SOL    HW230990   1.072   2.308   5.182 -0.6125 -0.6939 -0.4426
 6511SOL     OW30991   2.154   1.854   6.756  0.4768 -0.5972 -0.1101
 6511SOL    HW130992   2.135   1.788   6.689  0.5008 -2.5436  1.7714
 6511SOL    HW230993   2.248   1.851   6.740  0.6673 -3.1037  1.3578
 6512SOL     OW30994   2.508   2.882   8.227 -0.6759  1.0347 -0.0747
 6512SOL    HW130995   2.575   2.950   8.226 -0.1700  0.5343  2.6514
 6512SOL    HW230996   2.441   2.914   8.288 -0.7739 -0.6946  0.7211
 6513SOL     OW30997   2.791   0.563   4.730 -0.2925  0.2267  0.4215
 6513SOL    HW130998   2.755   0.549   4.642 -0.5069 -1.2883  0.7509
 6513SOL    HW230999   2.825   0.652   4.718 -2.1782  1.0133  0.8094
 6514SOL     OW31000   1.728   1.111   4.281 -0.4319  0.2439  0.5050
 6514SOL    HW131001   1.729   1.080   4.191  0.9184 -0.7339  0.8589
 6514SOL    HW231002   1.680   1.192   4.264 -0.6590 -0.0201 -0.1246
 6515SOL     OW31003   3.433   1.279  16.682 -0.2295  0.2353  0.4301
 6515SOL    HW131004   3.492   1.291  16.607 -1.1126 -2.8667 -0.7508
 6515SOL    HW231005   3.348   1.285  16.639  0.6116 -0.7467 -1.3941
 6516SOL     OW31006   0.691   4.058   9.031  0.3067 -0.0482 -0.9986
 6516SOL    HW131007   0.624   4.023   9.089 -1.9820  3.8802 -1.2966
 6516SOL    HW231008   0.716   3.972   8.997 -1.6446 -1.3963  0.9676
 6517SOL     OW31009   2.336   2.270  11.789  0.7002 -0.0361  0.0544
 6517SOL    HW131010   2.324   2.324  11.711 -3.0871 -0.5791  0.2723
 6517SOL    HW231011   2.298   2.184  11.771  2.4412 -0.7146 -0.3556
 6518SOL     OW31012   2.031   2.526   9.782  0.4949 -0.6618 -0.1893
 6518SOL    HW131013   2.013   2.592   9.715  2.5674  1.7026  1.6033
 6518SOL    HW231014   1.949   2.545   9.829 -0.5715 -0.9501 -1.9095
 6519SOL     OW31015   1.363   0.992  13.504 -0.6376  0.1977 -0.0990
 6519SOL    HW131016   1.331   1.035  13.584  0.2045  0.7247 -0.0481
 6519SOL    HW231017   1.361   1.074  13.456  0.2536  2.1181  3.1302
 6520SOL     OW31018   1.351   0.545   7.883  0.2994 -0.0691  0.3027
 6520SOL    HW131019   1.317   0.500   7.961  0.5287 -1.4987 -0.4331
 6520SOL    HW231020   1.431   0.589   7.912  0.9657 -0.7227 -0.5555
 6521SOL     OW31021   0.162   2.212   5.053  0.7519 -0.5081 -0.0374
 6521SOL    HW131022   0.146   2.256   4.970 -2.1119 -0.5135  0.5057
 6521SOL    HW231023   0.102   2.137   5.056 -0.3148  0.3310 -0.6561
 6522SOL     OW31024   0.472   1.766   4.942  0.0070  0.2329  0.2763
 6522SOL    HW131025   0.475   1.751   5.036  2.3490 -0.1526  0.1317
 6522SOL    HW231026   0.377   1.759   4.933  0.2502 -2.4785 -0.0714
 6523SOL     OW31027   1.278   4.328  14.265 -0.0912 -0.3346 -0.4840
 6523SOL    HW131028   1.227   4.322  14.183 -0.8363 -1.0350  0.0327
 6523SOL    HW231029   1.245   4.252  14.312 -0.3519  0.9946  1.4830
 6524SOL     OW31030   3.852   0.794   6.416 -0.2914 -0.2672  0.0818
 6524SOL    HW131031   3.890   0.713   6.448 -1.3807  0.0908  2.3353
 6524SOL    HW231032   3.914   0.863   6.440 -0.3424 -0.2361  0.1255
 6525SOL     OW31033   2.258   2.753   4.361  0.0272 -0.0670 -0.5792
 6525SOL    HW131034   2.315   2.740   4.437  1.0271  0.8185 -1.1782
 6525SOL    HW231035   2.274   2.844   4.336  1.0565 -0.7415 -2.3467
 6526SOL     OW31036   0.532   2.874   6.262  0.2577 -0.0760  0.0628
 6526SOL    HW131037   0.576   2.923   6.331  1.4779 -1.4159  0.2267
 6526SOL    HW231038   0.473   2.816   6.310  2.1090 -1.1384  1.0464
 6527SOL     OW31039   1.683   3.593   3.953  0.1187 -0.4419  0.2534
 6527SOL    HW131040   1.627   3.520   3.927 -0.0458 -0.5274  0.8457
 6527SOL    HW231041   1.769   3.558   3.975  0.6842  0.7870  0.0235
 6528SOL     OW31042   0.135   3.191  16.100 -0.2835 -0.3022  0.6518
 6528SOL    HW131043   0.202   3.252  16.071  0.0859 -1.4397 -0.9199
 6528SOL    HW231044   0.079   3.197  16.022 -1.9952 -2.0239  1.7509
 6529SOL     OW31045   1.114   0.348  10.758  0.1751 -0.4222 -0.3165
 6529SOL    HW131046   1.186   0.289  10.738  1.6876  1.3910 -0.2790
 6529SOL    HW231047   1.140   0.434  10.725 -2.1838  0.9183  1.3043
 6530SOL     OW31048   0.296   1.214  16.009 -0.6144  0.4632  0.3687
 6530SOL    HW131049   0.331   1.253  15.929 -0.8715  0.8817  0.4581
 6530SOL    HW231050   0.236   1.152  15.968 -0.2301  0.6930 -0.5392
 6531SOL     OW31051   4.233   4.705   3.112 -0.2018 -0.6049  0.1903
 6531SOL    HW131052   4.279   4.703   3.028  0.9950 -1.9038  0.8800
 6531SOL    HW231053   4.261   4.624   3.153 -0.3673 -0.1712  1.1513
 6532SOL     OW31054   2.267   0.986  11.927 -0.2985  0.1751 -0.1535
 6532SOL    HW131055   2.280   1.061  11.870 -0.0500 -0.8426 -1.4231
 6532SOL    HW231056   2.178   0.963  11.900 -0.2482  0.1606 -0.3062
 6533SOL     OW31057   0.678   2.689   3.674  0.3452  0.3258  0.0623
 6533SOL    HW131058   0.644   2.656   3.757  0.6691 -1.6843 -0.6043
 6533SOL    HW231059   0.765   2.650   3.671  0.3907  0.7087 -4.0624
 6534SOL     OW31060   0.506   4.466   4.540  0.5425 -0.1197 -0.5278
 6534SOL    HW131061   0.411   4.480   4.545  0.2902 -2.2139  0.3830
 6534SOL    HW231062   0.535   4.552   4.571 -0.2794  0.3744 -1.1129
 6535SOL     OW31063   4.497   1.618   6.887  0.4829 -0.1981  0.1909
 6535SOL    HW131064   4.404   1.635   6.905  0.4260 -0.5232  0.1923
 6535SOL    HW231065   4.490   1.527   6.858  0.6540 -0.1698  0.0624
 6536SOL     OW31066   1.239   0.666   4.442  0.3365 -0.4137 -0.0017
 6536SOL    HW131067   1.312   0.676   4.504 -1.0535  2.9362  1.0581
 6536SOL    HW231068   1.169   0.720   4.480  0.9246 -0.7757  1.6158
 6537SOL     OW31069   1.867   1.546   6.639 -0.0997  0.3908  0.3442
 6537SOL    HW131070   1.905   1.517   6.722 -1.0821  1.2225  1.0844
 6537SOL    HW231071   1.797   1.482   6.627 -0.5525  0.9295  0.1260
 6538SOL     OW31072   2.522   4.010   1.689 -0.3935 -0.0187  1.2418
 6538SOL    HW131073   2.508   4.034   1.597  3.0170 -0.1242  0.6817
 6538SOL    HW231074   2.550   3.921   1.667  0.1235  0.7498 -1.2102
 6539SOL     OW31075   2.229   1.344   6.072  0.2841 -0.2357  0.6239
 6539SOL    HW131076   2.274   1.417   6.114  0.0072  0.3687 -0.1250
 6539SOL    HW231077   2.141   1.383   6.074 -0.4933 -1.9685  0.3617
 6540SOL     OW31078   2.886   4.681   6.957  0.2524  0.3261 -0.4577
 6540SOL    HW131079   2.940   4.717   6.887  0.3976  0.2245 -0.3980
 6540SOL    HW231080   2.935   4.611   7.000 -3.1414 -2.0435 -0.4381
 6541SOL     OW31081   4.632   2.458   1.411 -0.4296  0.0275 -0.8809
 6541SOL    HW131082   4.579   2.520   1.461  0.4680  1.2348 -1.4397
 6541SOL    HW231083   4.700   2.521   1.389 -0.5535 -0.2849 -2.1559
 6542SOL     OW31084   2.688   4.120   2.284  0.1330  0.5034 -0.0676
 6542SOL    HW131085   2.625   4.177   2.240  0.0497  0.4479 -0.0203
 6542SOL    HW231086   2.749   4.110   2.211  1.7042  1.1204  1.1387
 6543SOL     OW31087   1.339   0.203  10.283 -0.3344  0.1148 -0.3486
 6543SOL    HW131088   1.310   0.189  10.192  1.3315  0.9544 -1.0086
 6543SOL    HW231089   1.433   0.190  10.278 -0.1490  1.0690  0.7228
 6544SOL     OW31090   4.399   4.703   0.069  0.0127  0.5327  0.0400
 6544SOL    HW131091   4.368   0.065   0.095  2.0978  1.2186  0.2665
 6544SOL    HW231092   4.487   0.008   0.046  0.4136  0.2376  1.1520
 6545SOL     OW31093   3.013   2.733   9.164  0.2756 -0.1031  0.0092
 6545SOL    HW131094   2.991   2.702   9.252 -0.8577  1.6879  0.3681
 6545SOL    HW231095   2.933   2.780   9.140  0.5274  0.3835  0.1245
 6546SOL     OW31096   3.729   3.742   8.504 -0.1612  0.1555 -0.9165
 6546SOL    HW131097   3.673   3.765   8.430  0.0687 -1.0714 -1.4696
 6546SOL    HW231098   3.731   3.646   8.504 -2.7691  0.1015 -2.3832
 6547SOL     OW31099   2.141   1.364  14.630 -0.2030  0.2966 -0.7751
 6547SOL    HW131100   2.112   1.331  14.545  1.6064  0.2878 -1.3741
 6547SOL    HW231101   2.232   1.390  14.616  0.9143 -2.8469  0.6228
 6548SOL     OW31102   2.535   2.986  14.101 -0.2549  0.7911  0.2787
 6548SOL    HW131103   2.546   2.921  14.031  1.0091  0.3848  0.8391
 6548SOL    HW231104   2.452   3.021  14.070 -0.4594  1.3953  1.5014
 6549SOL     OW31105   3.117   2.415  14.977 -0.4059  0.1024 -0.6601
 6549SOL    HW131106   3.095   2.361  15.053 -0.0790  0.5576 -0.2458
 6549SOL    HW231107   3.164   2.346  14.931 -3.6678 -2.8125  0.3758
 6550SOL     OW31108   4.668   1.472   5.869  0.1123  0.5746 -0.4378
 6550SOL    HW131109   4.613   1.548   5.889  0.2475  0.7056 -0.5647
 6550SOL    HW231110   4.643   1.407   5.935 -1.0052  1.0909 -0.3499
 6551SOL     OW31111   3.020   0.132   8.180 -0.6465  0.3489  0.0299
 6551SOL    HW131112   2.939   0.159   8.137 -1.5937 -0.9213  1.0264
 6551SOL    HW231113   3.014   0.165   8.270 -5.1818 -0.0808 -0.1314
 6552SOL     OW31114   2.375   3.639   0.470 -0.0954 -0.4307  0.0231
 6552SOL    HW131115   2.423   3.708   0.426  0.3742  0.2690  1.6162
 6552SOL    HW231116   2.369   3.565   0.409  0.3773 -0.6924  0.2863
 6553SOL     OW31117   0.461   3.180   4.718  0.0103 -0.2863 -0.5261
 6553SOL    HW131118   0.475   3.110   4.654  0.6881 -0.1543 -0.5234
 6553SOL    HW231119   0.468   3.257   4.661  0.9342 -0.7731 -1.0747
 6554SOL     OW31120   0.627   2.376   1.706 -0.5374 -0.5025  0.5318
 6554SOL    HW131121   0.652   2.381   1.799 -0.8249 -0.7188  0.6210
 6554SOL    HW231122   0.647   2.466   1.681  0.8227 -0.3775  2.0437
 6555SOL     OW31123   1.769   1.440   4.410 -0.0476  0.1712 -0.4558
 6555SOL    HW131124   1.850   1.455   4.362  0.9811  1.3479  1.6564
 6555SOL    HW231125   1.720   1.384   4.350 -0.9823  0.5470 -0.0435
 6556SOL     OW31126   2.809   1.010  13.703  0.0370  0.2952  0.1661
 6556SOL    HW131127   2.815   1.061  13.784 -1.0239  0.3969  0.1765
 6556SOL    HW231128   2.838   1.071  13.635 -0.1204  0.1492 -0.0322
 6557SOL     OW31129   2.610   1.072   8.463 -0.4646 -0.1596  0.4131
 6557SOL    HW131130   2.669   1.067   8.538  0.8416 -3.4625 -0.8391
 6557SOL    HW231131   2.599   0.978   8.448 -0.3600 -0.1777  0.4535
 6558SOL     OW31132   2.554   1.649   2.807  0.0302  0.3191 -0.6359
 6558SOL    HW131133   2.642   1.647   2.846  0.0048  2.3603 -0.4753
 6558SOL    HW231134   2.553   1.570   2.753 -1.2209 -2.1721  2.9973
 6559SOL     OW31135   3.447   2.233   6.442  0.6578 -0.4417 -0.0506
 6559SOL    HW131136   3.385   2.305   6.428  0.1396 -0.9401 -0.2908
 6559SOL    HW231137   3.410   2.181   6.514 -1.2490  1.3687  0.2673
 6560SOL     OW31138   2.507   2.711  15.972  0.0929  0.2044  0.1113
 6560SOL    HW131139   2.546   2.723  15.886 -2.0299 -4.7643 -1.5695
 6560SOL    HW231140   2.462   2.794  15.988 -1.2431 -0.6976  1.0865
 6561SOL     OW31141   4.013   2.399   1.170 -0.4395  0.1836 -0.3560
 6561SOL    HW131142   4.041   2.444   1.091  0.4561  0.9555  0.3915
 6561SOL    HW231143   3.921   2.422   1.176 -0.3566  0.2178  0.8735
 6562SOL     OW31144   0.525   4.248   9.349  0.4469  0.1393  0.0410
 6562SOL    HW131145   0.585   4.294   9.290  0.0356  2.2684  1.2829
 6562SOL    HW231146   0.573   4.266   9.430 -1.4469  0.5649  1.0516
 6563SOL     OW31147   1.739   1.432   8.947  0.4497  0.4662 -0.0862
 6563SOL    HW131148   1.813   1.492   8.946  1.9027 -1.3593 -1.5238
 6563SOL    HW231149   1.685   1.460   9.022  0.2866 -1.8681  0.6804
 6564SOL     OW31150   4.178   1.571   7.890  0.4428 -0.2396 -0.1100
 6564SOL    HW131151   4.240   1.510   7.849  0.1803 -0.7405  0.2432
 6564SOL    HW231152   4.100   1.517   7.880  1.1188 -0.9720 -1.4941
 6565SOL     OW31153   2.484   4.380   9.773  0.3400 -0.2762 -0.3389
 6565SOL    HW131154   2.519   4.291   9.769  1.8092  0.3230 -0.6138
 6565SOL    HW231155   2.421   4.378   9.700 -1.5017  1.4586  1.1868
 6566SOL     OW31156   0.765   3.410   7.456 -0.4177 -0.7476 -0.0078
 6566SOL    HW131157   0.684   3.454   7.429 -0.1094  1.2699  2.3234
 6566SOL    HW231158   0.803   3.383   7.373  0.5731  1.0226 -0.1308
 6567SOL     OW31159   4.258   4.656   6.353 -0.0030 -0.2191 -0.3049
 6567SOL    HW131160   4.206   4.699   6.286  0.3773  0.6814 -0.0226
 6567SOL    HW231161   4.215   4.696   6.428 -0.0151  1.4336 -1.2102
 6568SOL     OW31162   0.678   1.311   5.110  0.7941 -0.3878 -0.1759
 6568SOL    HW131163   0.639   1.256   5.041  0.9478 -1.9267  0.9606
 6568SOL    HW231164   0.600   1.359   5.137 -1.0853 -1.3007 -3.8176
 6569SOL     OW31165   4.683   0.840   7.488 -0.4539  0.3201  0.8446
 6569SOL    HW131166   4.713   0.751   7.507  1.1242  0.7378  0.3071
 6569SOL    HW231167   0.030   0.881   7.441  1.4386 -2.3099  1.4594
 6570SOL     OW31168   2.880   3.719  15.007  0.5497  0.4453 -0.5917
 6570SOL    HW131169   2.823   3.715  15.084 -0.9941 -0.2313 -1.7786
 6570SOL    HW231170   2.816   3.703  14.938  2.4327  0.7688 -2.4095
 6571SOL     OW31171   3.678   3.500  17.110  0.0128 -0.8749 -0.1168
 6571SOL    HW131172   3.713   3.436  17.048 -3.1783 -1.6111 -1.1757
 6571SOL    HW231173   3.615   3.442  17.154 -0.4593  1.0528  1.7750
 6572SOL     OW31174   1.509   4.230   5.873  0.3879 -0.5040 -0.7027
 6572SOL    HW131175   1.559   4.285   5.812  0.5489 -0.6235 -0.6777
 6572SOL    HW231176   1.571   4.161   5.892 -0.0580 -0.9967 -1.0308
 6573SOL     OW31177   2.519   3.977   2.454  0.3616 -0.2883  0.3298
 6573SOL    HW131178   2.588   4.026   2.408 -0.4299  1.1838  0.6970
 6573SOL    HW231179   2.534   4.025   2.535 -0.1679  0.9088 -0.2687
 6574SOL     OW31180   3.695   2.891   8.524 -0.4391 -0.1913  0.0531
 6574SOL    HW131181   3.656   2.979   8.529  0.9699  0.3167  2.1727
 6574SOL    HW231182   3.670   2.870   8.434 -0.4733  2.2754 -0.5167
 6575SOL     OW31183   3.175   3.701   7.757 -0.3641 -0.2299 -0.3620
 6575SOL    HW131184   3.209   3.721   7.844  0.4312 -0.2016 -0.6826
 6575SOL    HW231185   3.100   3.644   7.773  1.2428 -2.4095 -0.6960
 6576SOL     OW31186   2.046   4.492  11.751 -0.4904 -0.0635  0.2564
 6576SOL    HW131187   2.090   4.525  11.673  0.3637 -0.0349  0.7432
 6576SOL    HW231188   2.099   4.413  11.766 -0.1220  0.3015  0.8956
 6577SOL     OW31189   4.377   2.953  13.856  0.5446  0.3107  0.0403
 6577SOL    HW131190   4.416   2.982  13.774  0.9485 -0.7410 -0.1403
 6577SOL    HW231191   4.372   3.034  13.906 -2.7200 -0.2540  0.6158
 6578SOL     OW31192   4.373   0.171   3.319 -0.2981 -0.5442 -0.0899
 6578SOL    HW131193   4.383   0.128   3.404  0.6036 -0.9699 -0.4113
 6578SOL    HW231194   4.446   0.127   3.276  0.0647 -2.0454  2.0335
 6579SOL     OW31195   2.134   1.779  10.980  0.5093  0.0095 -0.3684
 6579SOL    HW131196   2.165   1.689  10.989 -0.4229 -0.2554  0.2021
 6579SOL    HW231197   2.205   1.830  11.020 -0.2367 -0.2507  1.3047
 6580SOL     OW31198   3.170   4.073   5.549  0.9980 -0.3365 -0.0865
 6580SOL    HW131199   3.190   4.137   5.481  1.5270  1.6001  1.8815
 6580SOL    HW231200   3.101   4.128   5.587 -1.0981 -1.9275 -1.5621
 6581SOL     OW31201   0.281   2.109   7.360 -0.4650  0.4033 -0.0643
 6581SOL    HW131202   0.291   2.091   7.266 -0.0349  1.0140 -0.1336
 6581SOL    HW231203   0.187   2.092   7.368 -0.0882 -1.5430  0.3985
 6582SOL     OW31204   3.268   3.708   3.056 -0.2627 -0.3969  0.3441
 6582SOL    HW131205   3.176   3.702   3.083 -0.8929  0.3345 -1.6394
 6582SOL    HW231206   3.283   3.770   3.127 -1.7282 -0.2114  0.5014
 6583SOL     OW31207   2.606   0.442   6.557 -0.1406 -0.3141  0.4379
 6583SOL    HW131208   2.652   0.499   6.495 -1.2432 -1.7343 -1.6893
 6583SOL    HW231209   2.633   0.483   6.639  1.0536 -0.8200  0.3056
 6584SOL     OW31210   2.710   0.072  13.862  0.3904 -0.1114  0.2862
 6584SOL    HW131211   2.628   0.022  13.866  0.9884 -1.0129  0.9393
 6584SOL    HW231212   2.772   0.001  13.847  0.4849 -0.1040  0.6477
 6585SOL     OW31213   3.954   4.013   3.406 -0.9500 -0.2335 -0.0017
 6585SOL    HW131214   3.959   4.103   3.438  1.0414  0.1824 -1.5033
 6585SOL    HW231215   3.867   4.016   3.366 -0.3688 -0.7651 -1.2995
 6586SOL     OW31216   4.611   3.619   3.675 -0.2645  0.5547 -0.0926
 6586SOL    HW131217   4.660   3.690   3.634 -1.0318  1.3715  0.4020
 6586SOL    HW231218   4.526   3.637   3.635  0.9844  1.2016 -2.4105
 6587SOL     OW31219   1.145   2.967   9.340  0.1890 -0.1208  0.0180
 6587SOL    HW131220   1.057   2.988   9.372 -0.3775  1.6963 -2.6774
 6587SOL    HW231221   1.197   3.033   9.385  0.2206  0.8196 -1.3834
 6588SOL     OW31222   2.464   1.613   8.047 -0.1103 -0.3080  0.0517
 6588SOL    HW131223   2.525   1.674   8.007  0.2935 -0.4880  0.3889
 6588SOL    HW231224   2.491   1.611   8.139 -1.5856  0.9665  0.5223
 6589SOL     OW31225   0.862   1.707   2.341  0.5553  0.4385  0.2153
 6589SOL    HW131226   0.770   1.736   2.341  0.2433 -0.5518 -1.7483
 6589SOL    HW231227   0.875   1.705   2.246 -0.9117  0.3107  0.0072
 6590SOL     OW31228   3.346   2.205   1.997 -0.1726  0.2515  0.0938
 6590SOL    HW131229   3.379   2.160   1.920  0.4655 -2.3597  1.9023
 6590SOL    HW231230   3.253   2.200   1.973 -0.2863 -0.3638  0.6666
 6591SOL     OW31231   0.919   2.017  14.313 -0.3123 -0.1305  0.0808
 6591SOL    HW131232   0.947   2.107  14.328 -0.1405  0.1676 -2.0584
 6591SOL    HW231233   0.834   2.008  14.356 -1.2486 -0.1101 -1.7750
 6592SOL     OW31234   2.588   0.995   3.986  0.3245  0.2119 -0.8241
 6592SOL    HW131235   2.556   1.081   4.012 -1.4619 -0.6933 -0.0661
 6592SOL    HW231236   2.679   1.017   3.964  0.2641  1.6672  0.3727
 6593SOL     OW31237   3.079   1.381   7.067 -0.0498  0.1314  0.1121
 6593SOL    HW131238   3.043   1.292   7.056 -5.0573  1.7721  3.3462
 6593SOL    HW231239   3.089   1.371   7.161  0.8386 -2.6650 -0.2781
 6594SOL     OW31240   1.452   2.303   8.550  0.0875  0.0143 -0.4404
 6594SOL    HW131241   1.380   2.242   8.565 -0.8887  0.8513 -1.6891
 6594SOL    HW231242   1.456   2.316   8.455 -1.0596  2.8061 -0.0815
 6595SOL     OW31243   3.233   3.697   8.028 -0.5461 -0.2715 -0.2975
 6595SOL    HW131244   3.230   3.616   8.080 -1.2297  1.4755  2.4017
 6595SOL    HW231245   3.162   3.757   8.050 -0.3293  0.0234 -0.4042
 6596SOL     OW31246   2.777   0.432   6.824  0.1517  0.0901  0.3806
 6596SOL    HW131247   2.872   0.437   6.837  0.3111 -2.1575  0.1344
 6596SOL    HW231248   2.758   0.525   6.819  0.7929  0.2143  0.2410
 6597SOL     OW31249   3.072   3.151   2.852  0.1296 -0.8380  0.4559
 6597SOL    HW131250   3.123   3.127   2.774 -1.2681  1.2203 -1.0843
 6597SOL    HW231251   2.991   3.164   2.804  0.5120  2.4129  0.7290
 6598SOL     OW31252   3.212   1.256   4.309  0.4923  0.3723 -0.0799
 6598SOL    HW131253   3.264   1.326   4.269 -0.0516  0.6611 -0.2837
 6598SOL    HW231254   3.243   1.190   4.247 -1.5425 -0.5498 -0.1173
 6599SOL     OW31255   4.044   1.687  13.766 -0.2026  0.1288 -0.0259
 6599SOL    HW131256   4.009   1.686  13.855 -0.9164  1.2102 -0.2902
 6599SOL    HW231257   4.055   1.592  13.755  0.5300  0.3900 -1.6197
 6600SOL     OW31258   4.253   0.047   7.026  0.2708 -0.2089 -0.2415
 6600SOL    HW131259   4.307   4.707   6.981  0.5882  0.2028 -0.4547
 6600SOL    HW231260   4.185   4.715   7.061  0.1290  1.4634  2.2043
 6601SOL     OW31261   0.407   3.991  14.711 -0.0029 -0.0810 -0.3922
 6601SOL    HW131262   0.456   3.969  14.632  0.3880 -0.4682 -0.0406
 6601SOL    HW231263   0.448   4.070  14.743 -1.3720  1.6512 -2.8972
 6602SOL     OW31264   1.558   3.816   5.575  0.2720 -0.2605  0.4347
 6602SOL    HW131265   1.481   3.768   5.606 -0.0981 -0.9535 -1.5439
 6602SOL    HW231266   1.526   3.869   5.501 -0.1536 -0.6747  0.3265
 6603SOL     OW31267   1.351   0.124   3.098  0.3591 -0.0587 -0.1011
 6603SOL    HW131268   1.312   0.154   3.180 -2.4191  0.3378 -1.5734
 6603SOL    HW231269   1.273   0.120   3.043 -0.1985 -0.1243  0.6961
 6604SOL     OW31270   0.843   0.957   2.060 -0.0268 -0.0021 -0.2420
 6604SOL    HW131271   0.844   0.910   2.143  0.3284 -1.0708 -0.8452
 6604SOL    HW231272   0.918   1.015   2.066 -0.9653  1.1334  0.6558
 6605SOL     OW31273   3.410   0.020   5.078  0.0277 -0.6785  0.2800
 6605SOL    HW131274   3.455   0.045   4.997  1.4307 -0.9842  0.9557
 6605SOL    HW231275   3.349   0.092   5.089 -1.5408 -1.9771  0.1299
 6606SOL     OW31276   2.563   0.562   4.071 -0.2838  0.1038 -0.2650
 6606SOL    HW131277   2.548   0.597   3.983 -1.2495 -1.6785 -0.8072
 6606SOL    HW231278   2.627   0.624   4.106 -0.2723  0.1576 -0.3819
 6607SOL     OW31279   2.018   2.183   2.560  0.0030  0.2362 -1.1718
 6607SOL    HW131280   2.082   2.217   2.497  1.5209  0.2442  0.3510
 6607SOL    HW231281   2.068   2.173   2.641  0.4287  1.9704 -1.2174
 6608SOL     OW31282   0.455   4.297   4.244 -0.2760 -0.1101  0.4837
 6608SOL    HW131283   0.419   4.228   4.300  0.3604 -1.2045 -0.4527
 6608SOL    HW231284   0.423   4.375   4.288 -1.2322 -0.5140  0.4979
 6609SOL     OW31285   1.920   3.794   1.258  0.0564  0.5485 -0.0622
 6609SOL    HW131286   1.996   3.758   1.304  0.9461  2.2135 -0.2207
 6609SOL    HW231287   1.866   3.827   1.330  0.4193  1.2609 -0.1169
 6610SOL     OW31288   3.017   3.843   9.853  0.4225  0.1260 -0.5311
 6610SOL    HW131289   2.984   3.928   9.882 -1.5138 -0.8618  0.1506
 6610SOL    HW231290   2.953   3.828   9.783  2.6840 -1.3616 -2.2594
 6611SOL     OW31291   2.282   1.223   6.538 -0.1746 -0.2469 -0.8356
 6611SOL    HW131292   2.319   1.139   6.567  1.8208  0.8189 -0.2758
 6611SOL    HW231293   2.212   1.205   6.476 -2.0542 -1.9181  1.7778
 6612SOL     OW31294   1.256   1.085   7.552 -0.1532 -0.0544 -0.0419
 6612SOL    HW131295   1.330   1.026   7.536 -1.0485 -1.2386  0.2329
 6612SOL    HW231296   1.236   1.122   7.466 -1.8930  1.5428  1.0437
 6613SOL     OW31297   3.282   1.902  15.141 -0.4287 -0.1664  0.3141
 6613SOL    HW131298   3.201   1.940  15.176 -1.2109 -0.2004 -1.4923
 6613SOL    HW231299   3.327   1.977  15.103 -2.4691 -0.0332 -1.8171
 6614SOL     OW31300   3.320   4.580   7.087  0.4761 -0.1135 -0.0507
 6614SOL    HW131301   3.397   4.627   7.120 -0.3225  0.9331  0.3141
 6614SOL    HW231302   3.358   4.492   7.078 -1.1259 -0.6767 -1.3526
 6615SOL     OW31303   4.153   0.284   7.532  0.1497  0.2546 -0.2954
 6615SOL    HW131304   4.095   0.252   7.602  0.3537  3.6244  1.4053
 6615SOL    HW231305   4.139   0.224   7.459  0.8453  0.6079 -0.7073
 6616SOL     OW31306   3.429   2.490   3.706 -0.0098  0.4664 -0.0501
 6616SOL    HW131307   3.399   2.405   3.737  0.6201  1.0706  2.2260
 6616SOL    HW231308   3.427   2.547   3.783  1.0447 -0.9377  1.0305
 6617SOL     OW31309   0.283   2.893   1.969  0.1937 -0.7237  0.2974
 6617SOL    HW131310   0.274   2.830   2.040 -3.7735 -1.5366 -0.9327
 6617SOL    HW231311   0.194   2.926   1.958  1.0066  1.5587  0.5680
 6618SOL     OW31312   2.582   4.613   8.018  0.4600 -0.1865 -0.3629
 6618SOL    HW131313   2.567   4.601   8.112  0.5187  1.2097 -0.1743
 6618SOL    HW231314   2.550   4.703   8.025 -1.8050 -0.9127 -1.8396
 6619SOL     OW31315   0.388   0.810   1.796  0.0124 -0.3608  0.2081
 6619SOL    HW131316   0.360   0.770   1.878  0.4618 -1.4078 -0.1385
 6619SOL    HW231317   0.477   0.842   1.812  0.9392 -1.9043 -1.8234
 6620SOL     OW31318   1.970   0.984  17.197 -0.6690  0.4372 -0.4433
 6620SOL    HW131319   1.911   1.020  17.131 -0.5445 -0.4704 -1.0476
 6620SOL    HW231320   2.003   0.903  17.158 -0.3599  0.0803  0.5706
 6621SOL     OW31321   4.263   2.947   6.161 -0.9775  0.1552  0.1042
 6621SOL    HW131322   4.321   2.986   6.225 -1.3476  0.4635  0.2493
 6621SOL    HW231323   4.210   2.888   6.215  0.1302 -0.8554  0.0833
 6622SOL     OW31324   4.663   1.861   8.251 -0.1199  0.7488 -0.6263
 6622SOL    HW131325   0.023   1.838   8.214  0.6348  0.2142  1.4420
 6622SOL    HW231326   4.685   1.881   8.342  1.5755 -2.3784 -0.3496
 6623SOL     OW31327   2.053   1.401  15.993 -0.7176  0.2783  0.2902
 6623SOL    HW131328   2.073   1.485  16.034 -0.3701  1.4924 -2.3967
 6623SOL    HW231329   2.062   1.349  16.074  2.2751  0.2542 -0.0529
 6624SOL     OW31330   1.604   3.274  16.644  0.4258 -0.3706 -0.7044
 6624SOL    HW131331   1.524   3.240  16.602  0.4518  0.3900 -1.3598
 6624SOL    HW231332   1.557   3.344  16.689  0.8310  0.7988 -2.1108
 6625SOL     OW31333   2.901   0.160  10.338 -0.1665  0.7130 -0.6604
 6625SOL    HW131334   2.829   0.192  10.392 -1.8441 -0.8488 -1.9925
 6625SOL    HW231335   2.965   0.144  10.408 -0.1748  0.2507 -0.7581
 6626SOL     OW31336   0.532   0.138   1.700  0.2922 -0.4989 -0.4458
 6626SOL    HW131337   0.493   0.078   1.764 -0.8441  3.2675  2.3824
 6626SOL    HW231338   0.456   0.182   1.661 -0.2266 -0.9580  0.0421
 6627SOL     OW31339   4.541   1.909   1.600 -0.1980  0.3373  0.3525
 6627SOL    HW131340   4.633   1.884   1.602 -0.4253 -0.6317 -1.7115
 6627SOL    HW231341   4.553   1.995   1.561  1.5417  0.1541  0.4823
 6628SOL     OW31342   0.464   0.224   8.240  0.9464  0.2958  0.3961
 6628SOL    HW131343   0.550   0.262   8.258  1.4793 -1.9021  2.4291
 6628SOL    HW231344   0.432   0.279   8.168 -0.7121 -2.1151 -0.7150
 6629SOL     OW31345   1.867   4.536   3.785  0.1502  0.1296  0.7515
 6629SOL    HW131346   1.926   4.611   3.784 -1.6358  1.5567  1.6082
 6629SOL    HW231347   1.925   4.463   3.807  0.1213  0.4092  1.7868
 6630SOL     OW31348   2.048   3.689   3.951 -0.7770 -0.1259  0.0251
 6630SOL    HW131349   1.969   3.673   3.899 -0.1475 -0.1877 -0.9195
 6630SOL    HW231350   2.093   3.604   3.957  0.6655  0.4770 -2.0260
 6631SOL     OW31351   1.394   4.595  17.362 -0.2086  0.0293 -0.3087
 6631SOL    HW131352   1.343   4.534  17.309 -1.3106 -0.0561  0.8610
 6631SOL    HW231353   1.484   4.565  17.348 -0.6360 -1.3776 -0.0329
 6632SOL     OW31354   4.540   1.207   4.511 -0.1929 -0.3849  0.1095
 6632SOL    HW131355   4.478   1.237   4.578 -0.1531 -2.1201  0.9080
 6632SOL    HW231356   4.564   1.291   4.472  2.4906 -1.4759 -0.5732
 6633SOL     OW31357   0.433   3.746   7.761  0.3042  0.1948 -0.0394
 6633SOL    HW131358   0.404   3.741   7.852 -0.4764 -1.5436 -0.3811
 6633SOL    HW231359   0.508   3.686   7.766  0.0301 -0.1176  0.3675
 6634SOL     OW31360   3.474   4.334  13.603  0.2716 -0.0965  0.1569
 6634SOL    HW131361   3.549   4.382  13.637 -0.9348  0.4705  2.0365
 6634SOL    HW231362   3.470   4.270  13.673  2.0902  0.1159  0.4487
 6635SOL     OW31363   2.799   3.809   9.707  0.5050  0.0259 -0.0604
 6635SOL    HW131364   2.804   3.871   9.634 -1.6378  1.5530  1.1147
 6635SOL    HW231365   2.714   3.768   9.692 -0.9258  2.9729 -0.0083
 6636SOL     OW31366   1.872   2.377   3.286 -0.4239 -0.2059 -0.6019
 6636SOL    HW131367   1.939   2.316   3.257  0.8625  1.2609 -0.7139
 6636SOL    HW231368   1.799   2.354   3.228 -0.9901 -0.9199  0.3934
 6637SOL     OW31369   2.327   0.627   9.350 -0.2680  0.4131  0.1548
 6637SOL    HW131370   2.353   0.702   9.296 -4.4483  1.8253  0.0894
 6637SOL    HW231371   2.317   0.571   9.274 -0.9271  1.2548 -0.3722
 6638SOL     OW31372   0.595   2.226   3.454 -0.2387  0.1584  0.3843
 6638SOL    HW131373   0.659   2.270   3.509  1.2499  0.0045 -1.2245
 6638SOL    HW231374   0.640   2.142   3.444 -1.2809 -0.2407 -0.9887
 6639SOL     OW31375   4.387   2.825  15.375  0.5051 -0.1076  0.3514
 6639SOL    HW131376   4.292   2.815  15.380  0.4066  1.3416  1.3469
 6639SOL    HW231377   4.397   2.789  15.287 -1.9306 -1.1685  0.5108
 6640SOL     OW31378   2.748   4.447  17.176 -0.0940  0.3130 -0.3104
 6640SOL    HW131379   2.703   4.405  17.103 -1.4231  1.1481  0.0321
 6640SOL    HW231380   2.711   4.535  17.189  0.3865  0.7885 -2.1921
 6641SOL     OW31381   4.586   1.032   7.657 -0.1371 -0.5035 -0.0484
 6641SOL    HW131382   4.615   0.980   7.582  0.0973 -0.0173 -0.2925
 6641SOL    HW231383   4.514   0.976   7.687  0.6317 -1.1194  0.6561
 6642SOL     OW31384   4.694   0.702   6.962 -0.4524  0.1572 -0.7946
 6642SOL    HW131385   4.680   0.749   6.880 -0.5943 -0.4075 -1.0963
 6642SOL    HW231386   4.641   0.750   7.026  1.1508 -0.6025  1.1126
 6643SOL     OW31387   0.321   4.569   3.087 -0.0829  0.0516 -0.1661
 6643SOL    HW131388   0.266   4.506   3.135  0.2061  1.0667  1.5040
 6643SOL    HW231389   0.406   4.534   3.113  0.0221 -1.0156 -1.9480
 6644SOL     OW31390   0.865   1.430   8.548  0.7986  0.6884  0.2609
 6644SOL    HW131391   0.874   1.525   8.539  0.3911  0.5904 -1.1452
 6644SOL    HW231392   0.941   1.397   8.596 -0.6864 -2.0197  0.7436
 6645SOL     OW31393   1.149   4.337  14.015  0.0173  0.1406  0.3704
 6645SOL    HW131394   1.082   4.287  13.968 -0.8477 -0.6812  2.4432
 6645SOL    HW231395   1.226   4.306  13.967  0.8829  0.7021  1.3883
 6646SOL     OW31396   2.391   2.295   5.817 -1.0708  0.2495  0.2290
 6646SOL    HW131397   2.427   2.227   5.874  0.8549  0.0451 -1.2430
 6646SOL    HW231398   2.459   2.300   5.750 -0.4961 -0.8133  0.7368
 6647SOL     OW31399   2.796   2.578   8.115 -0.1216 -0.1576 -0.0980
 6647SOL    HW131400   2.714   2.602   8.158  0.4012  1.2047  0.1444
 6647SOL    HW231401   2.862   2.638   8.151 -2.6358  1.3865  1.9009
 6648SOL     OW31402   3.820   2.190   6.855 -0.4535 -0.2588 -0.0194
 6648SOL    HW131403   3.767   2.251   6.906 -3.6170 -1.7947 -1.5337
 6648SOL    HW231404   3.808   2.208   6.762  0.3899  0.1301 -0.0555
 6649SOL     OW31405   0.131   1.832  11.588  0.2348 -0.0338 -0.0490
 6649SOL    HW131406   0.094   1.763  11.533  3.0278 -1.3364 -0.2899
 6649SOL    HW231407   0.212   1.840  11.537  0.4084 -0.1880  0.2044
 6650SOL     OW31408   1.938   4.316   9.290  0.3532 -0.5121  0.4073
 6650SOL    HW131409   1.995   4.289   9.218  0.4204 -0.4638  0.4431
 6650SOL    HW231410   1.989   4.366   9.353 -0.6904  0.5262  0.4160
 6651SOL     OW31411   3.781   2.735   9.819  0.1090  0.2843  0.3363
 6651SOL    HW131412   3.713   2.671   9.798  1.5570 -0.5628 -1.6180
 6651SOL    HW231413   3.778   2.793   9.743  2.4601 -0.3567 -0.2470
 6652SOL     OW31414   3.717   0.646   3.987 -0.6073 -0.5612  0.2668
 6652SOL    HW131415   3.782   0.696   4.036  2.1212 -5.1352  1.2975
 6652SOL    HW231416   3.768   0.628   3.908  0.1947 -0.2026  0.7016
 6653SOL     OW31417   3.590   3.048  15.056 -0.4475 -0.6842  0.8819
 6653SOL    HW131418   3.503   3.019  15.085 -0.5936 -2.0000 -0.8701
 6653SOL    HW231419   3.626   2.960  15.053  0.8190 -0.0905 -1.4546
 6654SOL     OW31420   3.262   4.117  15.066  0.3167 -0.3537  0.1063
 6654SOL    HW131421   3.216   4.199  15.048  0.5632  0.0053  1.1322
 6654SOL    HW231422   3.319   4.135  15.141 -0.1277 -2.2585  0.8976
 6655SOL     OW31423   4.185   0.960   1.972  1.0421  0.0566 -0.1795
 6655SOL    HW131424   4.140   0.913   1.902  0.7521 -2.5432  1.7647
 6655SOL    HW231425   4.190   1.046   1.929 -0.2662  1.0611  1.7215
 6656SOL     OW31426   1.869   0.804   8.548 -0.3206 -0.1594 -0.6438
 6656SOL    HW131427   1.897   0.820   8.638 -1.0476  0.4535 -0.5222
 6656SOL    HW231428   1.913   0.877   8.505 -0.4717  0.6190  0.5201
 6657SOL     OW31429   1.414   2.777   1.694 -0.5875 -0.2392 -0.1693
 6657SOL    HW131430   1.427   2.816   1.607  0.1932 -0.4910 -0.1667
 6657SOL    HW231431   1.433   2.846   1.757  0.3264 -1.2903  0.7066
 6658SOL     OW31432   4.199   3.308  12.254  0.2939 -0.2851 -0.2137
 6658SOL    HW131433   4.169   3.336  12.340 -1.8097 -0.3872 -0.8911
 6658SOL    HW231434   4.271   3.253  12.283 -0.0542 -0.8641 -0.4209
 6659SOL     OW31435   1.691   2.016   8.559  0.8441 -0.2125  0.5145
 6659SOL    HW131436   1.694   1.940   8.616  0.7943 -1.2422 -0.8398
 6659SOL    HW231437   1.780   2.007   8.525  1.0879 -0.1846  1.1462
 6660SOL     OW31438   2.375   4.397  14.653 -0.4745  0.1627  0.2872
 6660SOL    HW131439   2.333   4.311  14.652  0.4209 -0.2863  1.8918
 6660SOL    HW231440   2.410   4.398  14.564  0.3018 -2.7857  0.5741
 6661SOL     OW31441   4.199   0.847   6.147  0.4299 -0.7449 -1.0168
 6661SOL    HW131442   4.232   0.861   6.059  1.7592 -0.1700 -0.4309
 6661SOL    HW231443   4.153   0.930   6.161  0.9981 -0.3581 -1.4592
 6662SOL     OW31444   3.855   4.662   2.608 -0.1137  0.4083 -0.4232
 6662SOL    HW131445   3.864   4.610   2.528 -1.5195  1.5897 -1.3453
 6662SOL    HW231446   3.900   0.013   2.572  0.5952  0.4364  0.5424
 6663SOL     OW31447   0.643   1.410   1.317  0.8507 -0.1810 -0.5430
 6663SOL    HW131448   0.636   1.473   1.245  2.3854 -2.2780 -2.5374
 6663SOL    HW231449   0.572   1.355   1.286 -0.1382  0.4464  0.6504
 6664SOL     OW31450   0.834   4.717  17.274  0.2756 -0.0700 -0.5839
 6664SOL    HW131451   0.853   4.719  17.368 -4.1795  0.9540  0.3101
 6664SOL    HW231452   0.795   0.078  17.259 -1.9876 -0.4063  3.1737
 6665SOL     OW31453   1.516   3.983  13.453  0.0185 -0.3419 -0.1115
 6665SOL    HW131454   1.594   3.928  13.456 -0.1465 -0.5472  0.4607
 6665SOL    HW231455   1.556   4.060  13.413 -0.4412  0.0841  0.2445
 6666SOL     OW31456   1.701   3.602   3.247  0.2371 -0.0614 -0.0811
 6666SOL    HW131457   1.746   3.671   3.295 -0.0311  0.0099  0.0697
 6666SOL    HW231458   1.656   3.650   3.176 -0.4907 -0.8658 -0.1666
 6667SOL     OW31459   4.541   0.518   3.555 -0.0781 -0.1202  0.2925
 6667SOL    HW131460   4.464   0.481   3.598 -0.2906 -0.5326 -0.4362
 6667SOL    HW231461   4.523   0.507   3.461  0.3995 -0.8460  0.2895
 6668SOL     OW31462   2.900   0.573   2.545  0.1444 -0.1092 -0.0532
 6668SOL    HW131463   2.955   0.651   2.542 -0.4838  0.2982 -0.8590
 6668SOL    HW231464   2.830   0.582   2.480  0.1481 -1.7916 -0.3028
 6669SOL     OW31465   3.268   1.092  16.858 -0.1476 -0.1168  0.2587
 6669SOL    HW131466   3.344   1.145  16.883 -0.2019  0.1158 -0.0664
 6669SOL    HW231467   3.299   1.029  16.793 -3.2780 -1.6273  0.2219
 6670SOL     OW31468   3.813   2.566   2.323 -0.2441 -0.1442 -0.4523
 6670SOL    HW131469   3.882   2.622   2.290  0.1903 -1.5206 -1.8637
 6670SOL    HW231470   3.806   2.497   2.257 -0.5124 -1.6387  1.1365
 6671SOL     OW31471   2.735   4.689  13.409  0.3367  0.5691 -0.2723
 6671SOL    HW131472   2.669   4.697  13.478  0.8824 -0.0321  0.3245
 6671SOL    HW231473   2.789   4.616  13.438  0.5739  0.5984 -0.6323
 6672SOL     OW31474   4.698   1.816  10.361  0.2101 -0.3649 -0.3408
 6672SOL    HW131475   4.636   1.889  10.355 -0.1555 -0.7056 -0.6411
 6672SOL    HW231476   4.653   1.750  10.414  1.1627 -0.7646 -0.0380
 6673SOL     OW31477   4.301   1.347   6.189 -0.1393  0.1314 -0.0721
 6673SOL    HW131478   4.377   1.398   6.220  0.3135 -0.0766 -0.8390
 6673SOL    HW231479   4.261   1.317   6.270  0.3025  4.6640  1.8467
 6674SOL     OW31480   0.362   3.928   7.079  0.2401  0.0098 -0.1534
 6674SOL    HW131481   0.290   3.990   7.073  1.7763  1.9885  1.5268
 6674SOL    HW231482   0.397   3.939   7.168  0.2433  0.9806 -0.2739
 6675SOL     OW31483   0.733   1.021   3.766 -0.3707 -0.5529  0.2728
 6675SOL    HW131484   0.653   1.041   3.718  0.0221 -0.2323 -0.2560
 6675SOL    HW231485   0.736   0.925   3.763  1.2621 -0.5057  0.0939
 6676SOL     OW31486   2.816   0.155   3.070  0.5242  0.2756 -0.0503
 6676SOL    HW131487   2.863   0.185   3.147  0.9346 -1.1470  0.2636
 6676SOL    HW231488   2.840   0.062   3.071 -1.6883 -0.3282 -1.8378
 6677SOL     OW31489   2.982   3.142  10.453 -0.0357  0.6606 -0.6681
 6677SOL    HW131490   2.900   3.109  10.488  1.4888 -2.8232 -0.4122
 6677SOL    HW231491   2.978   3.235  10.475 -0.0959  0.1501  1.4832
 6678SOL     OW31492   0.719   4.528   9.520  0.0634 -0.0038 -0.5834
 6678SOL    HW131493   0.666   4.607   9.505  0.2652  0.2791  0.2237
 6678SOL    HW231494   0.805   4.569   9.518  0.2796 -0.3915  0.7440
 6679SOL     OW31495   4.196   0.950   8.571 -0.4745  0.5621  0.3183
 6679SOL    HW131496   4.175   0.917   8.659 -1.4018 -0.7979 -0.4195
 6679SOL    HW231497   4.145   1.031   8.578 -1.4111  0.0990 -1.2120
 6680SOL     OW31498   3.552   3.778   5.595  0.4100  0.4005  0.0257
 6680SOL    HW131499   3.483   3.715   5.618  1.1132 -0.5307 -0.3932
 6680SOL    HW231500   3.526   3.853   5.648 -3.3805 -0.3025 -0.8286
 6681SOL     OW31501   3.993   1.915   5.080 -0.1672 -0.1005 -0.5036
 6681SOL    HW131502   3.927   1.978   5.110  0.0093 -0.1490 -0.0014
 6681SOL    HW231503   3.954   1.885   4.998 -2.2718 -1.5366  0.9971
 6682SOL     OW31504   2.895   1.308   5.777 -0.2589 -0.2215 -0.0669
 6682SOL    HW131505   2.925   1.234   5.830 -0.6619 -1.7451 -2.0095
 6682SOL    HW231506   2.812   1.280   5.738  0.3313  1.0371 -2.2028
 6683SOL     OW31507   0.240   4.282   4.875  0.8467 -0.1045  0.3098
 6683SOL    HW131508   0.157   4.321   4.845  0.8091  1.1115  2.0032
 6683SOL    HW231509   0.226   4.187   4.874  2.5096 -0.3463  1.1521
 6684SOL     OW31510   3.188   0.003   3.792 -0.1852 -0.8537 -0.5360
 6684SOL    HW131511   3.277   4.695   3.786 -0.2041 -0.6269 -2.3149
 6684SOL    HW231512   3.169   0.007   3.698 -1.0458 -0.4087 -0.3392
 6685SOL     OW31513   2.954   1.023   3.000 -0.1161  0.2157  0.4888
 6685SOL    HW131514   2.972   1.075   2.922 -0.7771 -0.7245 -0.3013
 6685SOL    HW231515   2.934   0.939   2.957  0.6834  0.8832 -1.1730
 6686SOL     OW31516   0.169   3.089  15.347  0.5329  0.4366  0.5479
 6686SOL    HW131517   0.166   3.021  15.280  2.1516  0.5818  0.3257
 6686SOL    HW231518   0.180   3.170  15.296 -1.2244  0.4393  0.1929
 6687SOL     OW31519   3.751   2.587   2.851 -0.0438  0.2885 -0.2122
 6687SOL    HW131520   3.747   2.638   2.770 -1.5389 -0.6700 -0.7384
 6687SOL    HW231521   3.706   2.508   2.823  0.2300  0.5390 -1.3837
 6688SOL     OW31522   2.648   4.419  13.630 -0.0838 -0.3402  0.5731
 6688SOL    HW131523   2.735   4.440  13.596 -1.2905 -0.0053 -2.3039
 6688SOL    HW231524   2.592   4.479  13.580 -0.7717  0.5218  2.3760
 6689SOL     OW31525   2.618   1.163   5.133  0.1981  0.0213 -0.0621
 6689SOL    HW131526   2.524   1.165   5.147  0.6237 -2.1346  3.0548
 6689SOL    HW231527   2.625   1.080   5.179 -0.0496 -0.1494 -0.3329
 6690SOL     OW31528   1.248   4.503   9.059 -0.1042 -0.7006  0.5237
 6690SOL    HW131529   1.155   4.517   9.044 -0.1619 -1.5103  0.1263
 6690SOL    HW231530   1.279   4.584   9.099  2.1859  0.0443 -2.7850
 6691SOL     OW31531   4.282   0.666   7.958 -0.3934 -0.0755 -0.4365
 6691SOL    HW131532   4.312   0.694   8.045 -2.1271 -0.3191  0.2458
 6691SOL    HW231533   4.197   0.627   7.979  0.7279 -1.3101  1.8616
 6692SOL     OW31534   1.993   0.211   0.047  0.4068 -0.3986 -0.0204
 6692SOL    HW131535   1.991   0.219  17.655  2.5157 -3.1009 -0.2799
 6692SOL    HW231536   2.084   0.234   0.062  0.1054  1.0682 -0.4609
 6693SOL     OW31537   2.297   0.230   7.296  0.1521 -0.0724 -0.3539
 6693SOL    HW131538   2.326   0.228   7.204 -1.5277  0.1183 -0.8866
 6693SOL    HW231539   2.230   0.299   7.297  0.0688 -0.1414 -0.8689
 6694SOL     OW31540   4.064   1.711   3.655  0.0292  0.0462  0.1099
 6694SOL    HW131541   4.077   1.659   3.576  0.3672 -0.8434  0.7380
 6694SOL    HW231542   4.127   1.783   3.651 -1.1846  1.2073  2.0347
 6695SOL     OW31543   3.332   1.236   7.256  0.3507  0.1053 -0.3293
 6695SOL    HW131544   3.325   1.325   7.220  3.1820  0.7897  0.8200
 6695SOL    HW231545   3.287   1.256   7.338 -3.0269 -0.0720 -2.1514
 6696SOL     OW31546   4.161   4.372   6.720 -0.6030  0.0090 -0.4349
 6696SOL    HW131547   4.127   4.300   6.667 -1.2079 -0.4716  0.5964
 6696SOL    HW231548   4.215   4.423   6.660  1.7713 -0.0599  1.6443
 6697SOL     OW31549   4.386   3.534   2.531 -0.2700 -0.3937 -0.2904
 6697SOL    HW131550   4.401   3.563   2.621 -2.1858  0.9104 -0.3765
 6697SOL    HW231551   4.350   3.617   2.498  0.7218 -0.0144 -0.4069
 6698SOL     OW31552   3.260   0.246   5.824 -0.1823 -0.1940 -0.1261
 6698SOL    HW131553   3.348   0.240   5.786 -1.6303 -1.1746 -3.3206
 6698SOL    HW231554   3.255   0.157   5.859  2.4179 -1.3408 -2.6703
 6699SOL     OW31555   3.261   3.611  10.176  0.4402 -0.2487 -0.0505
 6699SOL    HW131556   3.281   3.652  10.092  1.0520 -0.2912  0.0706
 6699SOL    HW231557   3.166   3.610  10.168  0.3112  1.2800  1.4700
 6700SOL     OW31558   2.887   1.638   9.695  0.5250 -0.1998 -0.1609
 6700SOL    HW131559   2.926   1.575   9.757  0.0785 -0.2876  0.0323
 6700SOL    HW231560   2.921   1.617   9.608 -1.8504 -0.5183 -1.0157
 6701SOL     OW31561   4.309   3.817   7.632  0.2838  0.4022 -0.0157
 6701SOL    HW131562   4.362   3.809   7.553 -1.7678  0.0123 -1.3468
 6701SOL    HW231563   4.334   3.736   7.676 -1.7447 -1.3576 -2.0738
 6702SOL     OW31564   3.158   2.999   5.486 -0.3908  0.5034 -0.4899
 6702SOL    HW131565   3.183   3.026   5.574  2.7879  1.7488 -1.7628
 6702SOL    HW231566   3.082   3.051   5.459 -1.8719  0.0410  2.8422
 6703SOL     OW31567   1.347   1.416   5.410 -0.7677 -0.0329  0.0568
 6703SOL    HW131568   1.392   1.374   5.337  1.9675  2.6905  0.1895
 6703SOL    HW231569   1.345   1.340   5.469 -1.4146 -0.1190 -0.0780
 6704SOL     OW31570   3.812   3.609   7.247  0.9618  0.0975  0.0330
 6704SOL    HW131571   3.794   3.516   7.235 -2.5692  0.8107  0.0263
 6704SOL    HW231572   3.783   3.617   7.338  1.0417 -1.8584  0.2260
 6705SOL     OW31573   3.859   0.372   5.831 -0.3097  0.1492 -0.2330
 6705SOL    HW131574   3.941   0.391   5.876 -0.9663  0.5179  0.8035
 6705SOL    HW231575   3.867   0.282   5.800  0.1490  0.0169  0.2648
 6706SOL     OW31576   3.226   3.141   8.025 -0.4309 -0.1727  0.1259
 6706SOL    HW131577   3.301   3.131   8.084 -0.3265 -2.2125 -0.3484
 6706SOL    HW231578   3.227   3.055   7.983  0.4383  0.1334 -0.4642
 6707SOL     OW31579   3.105   0.183   2.346  0.0902  0.7505 -0.9424
 6707SOL    HW131580   3.134   0.212   2.433  1.6489 -1.1303 -0.8253
 6707SOL    HW231581   3.014   0.214   2.342 -0.6735 -1.1333  1.4649
 6708SOL     OW31582   1.690   3.163   7.836  0.0988 -0.3200 -0.4363
 6708SOL    HW131583   1.606   3.204   7.856  0.1358 -1.2810  1.6855
 6708SOL    HW231584   1.720   3.132   7.921 -0.5570 -0.8023 -0.3828
 6709SOL     OW31585   2.820   1.124  13.161  0.1623 -0.3964  0.2387
 6709SOL    HW131586   2.799   1.102  13.252  0.0462 -1.8167 -0.1302
 6709SOL    HW231587   2.830   1.038  13.120 -2.0582 -0.8742  0.6833
 6710SOL     OW31588   3.295   3.251   8.483 -0.8175 -0.1528  0.1619
 6710SOL    HW131589   3.310   3.315   8.414 -2.0782  0.0955  0.1113
 6710SOL    HW231590   3.199   3.244   8.487 -1.0823  2.0158 -2.4432
 6711SOL     OW31591   1.054   0.058  15.260  0.8831 -0.1280  0.4552
 6711SOL    HW131592   1.019   0.126  15.318 -2.2357 -0.6892 -0.7535
 6711SOL    HW231593   1.068   4.716  15.326  0.8583  1.3304  1.9496
 6712SOL     OW31594   0.841   3.308   2.405 -0.0216 -0.5854 -0.1971
 6712SOL    HW131595   0.870   3.233   2.458  0.8207  0.2514  0.5270
 6712SOL    HW231596   0.826   3.379   2.467 -0.3769  0.4171 -1.4336
 6713SOL     OW31597   0.774   3.822   8.921  0.2111 -0.2472  0.5616
 6713SOL    HW131598   0.860   3.786   8.897  0.1921  1.2749 -1.7915
 6713SOL    HW231599   0.764   3.860   8.834 -0.3288 -1.2286  0.1952
 6714SOL     OW31600   4.441   1.413  16.647  0.0391  0.5541 -0.2918
 6714SOL    HW131601   4.527   1.423  16.607 -0.1146 -0.8985 -0.9697
 6714SOL    HW231602   4.397   1.352  16.588  0.5583  0.8539 -0.9958
 6715SOL     OW31603   4.577   2.102   2.934 -0.4028 -0.2435 -0.3712
 6715SOL    HW131604   4.657   2.117   2.983 -0.9199  0.5131  0.2366
 6715SOL    HW231605   4.597   2.016   2.896 -1.2672  0.9217 -3.4376
 6716SOL     OW31606   4.195   3.734  13.399 -0.1866 -0.0795 -0.5218
 6716SOL    HW131607   4.260   3.786  13.353 -0.8127  1.4880  0.3593
 6716SOL    HW231608   4.116   3.787  13.388 -1.1031 -1.7905 -2.1834
 6717SOL     OW31609   2.996   0.205   8.439 -0.2252 -0.1471 -0.7801
 6717SOL    HW131610   3.040   0.129   8.476  0.8404  0.3856 -0.9379
 6717SOL    HW231611   3.054   0.277   8.463  0.0417 -0.6101 -0.0430
 6718SOL     OW31612   0.722   2.254  15.588  0.0245 -0.9143  0.4444
 6718SOL    HW131613   0.809   2.287  15.564  0.5145 -2.1396  0.5003
 6718SOL    HW231614   0.683   2.341  15.585  0.0432 -0.8380  2.3541
 6719SOL     OW31615   3.510   0.164   1.981 -0.0436 -0.1498  0.0800
 6719SOL    HW131616   3.431   0.122   1.948 -0.0504 -0.2569  0.2329
 6719SOL    HW231617   3.561   0.084   1.990  0.2929  0.2958  2.1744
 6720SOL     OW31618   2.753   2.227   7.723  0.4121 -0.3364  0.0356
 6720SOL    HW131619   2.816   2.264   7.785 -0.9291  2.2125 -0.1275
 6720SOL    HW231620   2.765   2.134   7.743 -0.2394 -0.3524  0.3496
 6721SOL     OW31621   3.715   4.435   7.877 -0.0370  0.3555  0.3949
 6721SOL    HW131622   3.762   4.359   7.911 -0.5632  0.1956  0.7787
 6721SOL    HW231623   3.740   4.430   7.785 -0.1349 -1.3585  0.4666
 6722SOL     OW31624   2.438   4.282   4.338 -0.0354 -0.5894 -0.8516
 6722SOL    HW131625   2.506   4.348   4.348  0.0190 -0.8918  0.8745
 6722SOL    HW231626   2.454   4.236   4.256 -1.2842 -1.7246 -0.4719
 6723SOL     OW31627   3.510   4.142   7.275  0.0335 -0.3027  0.2093
 6723SOL    HW131628   3.477   4.065   7.321  0.5576  0.4896  1.9247
 6723SOL    HW231629   3.530   4.207   7.343 -0.3810 -1.5385  1.5310
 6724SOL     OW31630   0.570   4.685   3.435  0.4495  0.1579 -0.5086
 6724SOL    HW131631   0.621   4.646   3.364  0.7951  1.7617 -1.1408
 6724SOL    HW231632   0.611   0.046   3.437 -0.3788  0.5034  1.3219
 6725SOL     OW31633   3.033   3.160   4.446 -0.3327 -0.4192 -0.2043
 6725SOL    HW131634   2.962   3.123   4.393 -1.5222  0.9852  0.4168
 6725SOL    HW231635   3.026   3.099   4.519 -0.6522  1.5611  1.4225
 6726SOL     OW31636   1.210   1.894  14.502 -0.3659  0.3799 -0.1297
 6726SOL    HW131637   1.172   1.808  14.517  1.3457 -0.2653  0.5660
 6726SOL    HW231638   1.253   1.868  14.421  1.5258 -2.6950  1.8386
 6727SOL     OW31639   2.716   2.309   9.955 -0.0237 -0.0607  0.5986
 6727SOL    HW131640   2.659   2.270  10.021  0.0642 -2.4717 -0.7721
 6727SOL    HW231641   2.669   2.391   9.941 -1.8873 -1.1889  0.2440
 6728SOL     OW31642   1.778   2.546  12.229  0.7643 -0.4394 -0.6208
 6728SOL    HW131643   1.773   2.508  12.317  1.0065 -2.1924 -1.3669
 6728SOL    HW231644   1.742   2.633  12.246 -0.0124 -1.1609  1.3983
 6729SOL     OW31645   0.314   3.822  10.469 -0.2381 -0.0769 -0.1834
 6729SOL    HW131646   0.324   3.897  10.528  0.2336  0.6161 -1.1381
 6729SOL    HW231647   0.400   3.814  10.429  0.0903  2.5050 -0.0149
 6730SOL     OW31648   4.575   2.628  16.218  0.0748 -0.0593 -0.2021
 6730SOL    HW131649   4.539   2.712  16.244  1.0330 -0.2543  1.7494
 6730SOL    HW231650   4.665   2.658  16.230 -0.6486  0.8575  2.9396
 6731SOL     OW31651   2.909   3.035  11.127  0.2077 -0.4277 -0.0485
 6731SOL    HW131652   2.904   2.939  11.128 -0.1236 -0.3793  2.6580
 6731SOL    HW231653   2.948   3.048  11.040 -1.0003 -0.3890 -0.5886
 6732SOL     OW31654   2.949   4.217  14.436 -0.4992 -0.0036 -0.1772
 6732SOL    HW131655   2.976   4.169  14.358  1.5936  1.9895 -0.7186
 6732SOL    HW231656   2.971   4.153  14.504  2.8294 -0.1340 -1.3644
 6733SOL     OW31657   3.826   3.648   5.626  0.1628  0.3813 -0.1771
 6733SOL    HW131658   3.844   3.616   5.714  1.0637 -0.2720 -0.5959
 6733SOL    HW231659   3.731   3.650   5.636  0.2736  3.3345  0.4010
 6734SOL     OW31660   4.564   0.240   2.556 -0.6785 -0.0294 -0.2889
 6734SOL    HW131661   4.628   0.309   2.540  0.5124 -0.4743  2.6321
 6734SOL    HW231662   4.494   0.263   2.494 -0.5767  0.5174 -0.1994
 6735SOL     OW31663   0.157   4.075   4.670  0.0571 -0.1488  0.0944
 6735SOL    HW131664   0.062   4.062   4.670  0.1900 -1.1380  0.3331
 6735SOL    HW231665   0.177   4.015   4.742  0.7701  2.5414  2.1085
 6736SOL     OW31666   4.239   4.442   3.213 -0.4579  0.4407  0.2553
 6736SOL    HW131667   4.152   4.475   3.235  0.1513  2.1829  0.0552
 6736SOL    HW231668   4.221   4.351   3.189  3.0675  0.7047 -3.4420
 6737SOL     OW31669   2.907   2.505  11.192 -0.4688  0.6712  0.5528
 6737SOL    HW131670   2.922   2.455  11.111  1.0965  2.1410 -0.0768
 6737SOL    HW231671   2.988   2.495  11.242 -0.3700 -3.6187 -0.4714
 6738SOL     OW31672   3.961   0.060  12.657 -0.3217 -0.3118  0.0635
 6738SOL    HW131673   4.032   0.008  12.620  2.5449  3.0188  0.9278
 6738SOL    HW231674   3.906   0.076  12.580  0.2816  0.9800 -0.1094
 6739SOL     OW31675   0.718   3.085   8.584 -0.0728 -0.6865  0.5238
 6739SOL    HW131676   0.770   3.099   8.663  0.2105  1.6087 -0.0673
 6739SOL    HW231677   0.668   3.166   8.575 -0.8006 -1.1927  0.0507
 6740SOL     OW31678   2.171   3.538   8.999  0.9264  0.3417 -0.7175
 6740SOL    HW131679   2.177   3.587   9.081  2.7881  0.4608 -0.9284
 6740SOL    HW231680   2.078   3.557   8.990  0.4991 -2.9626 -3.4462
 6741SOL     OW31681   0.050   1.781   1.283  0.2747 -0.2026 -0.2529
 6741SOL    HW131682   0.032   1.872   1.306  0.4520 -0.0370 -0.7762
 6741SOL    HW231683   0.013   1.775   1.195 -1.1138  0.5882  0.2794
 6742SOL     OW31684   3.983   2.590   7.324 -0.2119  0.3434 -0.2348
 6742SOL    HW131685   3.980   2.523   7.392  2.1063  2.1781  1.6441
 6742SOL    HW231686   4.059   2.561   7.274 -1.2337 -0.4328 -1.3549
 6743SOL     OW31687   1.283   4.153   5.219  0.3808  0.3261 -0.1919
 6743SOL    HW131688   1.308   4.150   5.126 -1.1153  1.8462 -0.6448
 6743SOL    HW231689   1.303   4.243   5.245  2.8581 -0.2838  0.0883
 6744SOL     OW31690   0.156   2.865   9.170  0.0467 -0.1283  0.2440
 6744SOL    HW131691   0.132   2.921   9.244 -1.2206 -0.6953  0.2495
 6744SOL    HW231692   0.070   2.841   9.136  0.1222 -1.3520  0.9254
 6745SOL     OW31693   3.303   2.542   1.121  0.2351 -0.5076 -0.0595
 6745SOL    HW131694   3.389   2.544   1.080 -0.3375  0.2388 -1.2265
 6745SOL    HW231695   3.251   2.550   1.041  0.8145  2.2557 -0.1439
 6746SOL     OW31696   4.300   2.493   5.107  0.3509  0.1407 -0.1052
 6746SOL    HW131697   4.392   2.520   5.112  0.3047  0.3516 -0.3505
 6746SOL    HW231698   4.280   2.502   5.200  1.2953 -1.4561  0.2402
 6747SOL     OW31699   1.713   1.473  11.522 -0.0742 -0.4523 -0.1677
 6747SOL    HW131700   1.720   1.525  11.442  2.4028  0.8291  0.8637
 6747SOL    HW231701   1.675   1.397  11.477 -0.5497 -0.8936  0.9758
 6748SOL     OW31702   3.666   3.513   9.633  0.3823  0.5933 -0.0710
 6748SOL    HW131703   3.680   3.436   9.689 -1.1434  0.2048 -0.2142
 6748SOL    HW231704   3.603   3.555   9.691  0.4812 -0.5310  0.8482
 6749SOL     OW31705   3.831   1.045   8.204 -0.5701 -0.4067 -0.1390
 6749SOL    HW131706   3.815   0.982   8.134  0.1109 -0.2683 -0.4200
 6749SOL    HW231707   3.862   1.122   8.155 -0.4679  0.7961  1.8267
 6750SOL     OW31708   0.496   2.710  10.647  0.5988 -0.2100  0.3596
 6750SOL    HW131709   0.469   2.652  10.575  1.4773  0.7761 -0.7746
 6750SOL    HW231710   0.573   2.752  10.610  0.4098 -0.8117 -0.7277
 6751SOL     OW31711   1.554   3.697  11.782 -0.0910 -0.4214 -0.1318
 6751SOL    HW131712   1.635   3.684  11.831  0.4675 -1.4884 -1.3607
 6751SOL    HW231713   1.580   3.783  11.751 -0.1258 -0.6575 -0.8177
 6752SOL     OW31714   0.402   3.236   8.922 -0.3950  0.0850  0.5469
 6752SOL    HW131715   0.447   3.317   8.948 -0.7858  0.1703  0.9359
 6752SOL    HW231716   0.318   3.272   8.894 -1.2293 -1.9161  0.4636
 6753SOL     OW31717   2.571   2.536   9.897 -0.4907  0.0312 -0.0988
 6753SOL    HW131718   2.503   2.527   9.830 -1.3420 -2.4837  1.0953
 6753SOL    HW231719   2.648   2.560   9.845 -1.3556 -0.8539 -1.7782
 6754SOL     OW31720   4.011   4.256   9.516 -0.5467 -0.0271 -0.4182
 6754SOL    HW131721   3.984   4.278   9.605  1.9558 -0.4184  0.4458
 6754SOL    HW231722   3.940   4.282   9.457 -0.0375  0.9230 -0.6050
 6755SOL     OW31723   0.082   2.135   8.161 -0.1113 -0.1179  1.0433
 6755SOL    HW131724   0.169   2.154   8.195  0.3397 -0.4977  0.1194
 6755SOL    HW231725   0.091   2.040   8.151  0.7880  0.3351 -2.5321
 6756SOL     OW31726   1.642   0.317   7.330  0.3676  0.1855 -0.0238
 6756SOL    HW131727   1.709   0.366   7.283  0.0411  0.1424 -0.5483
 6756SOL    HW231728   1.621   0.376   7.402 -0.1411  0.0161 -0.0270
 6757SOL     OW31729   0.666   3.173  14.991  0.1611  0.2317  0.1685
 6757SOL    HW131730   0.681   3.241  14.926 -0.7194 -1.0956 -1.4299
 6757SOL    HW231731   0.745   3.120  14.990  0.4248  0.6087  1.2633
 6758SOL     OW31732   2.358   1.068   0.728  0.1138 -0.5001 -0.5775
 6758SOL    HW131733   2.297   1.119   0.674  2.0191 -1.5189 -3.6571
 6758SOL    HW231734   2.391   1.138   0.783 -2.3927  1.3384 -1.3913
 6759SOL     OW31735   3.319   1.499   8.548  0.1039 -0.3535 -0.0160
 6759SOL    HW131736   3.365   1.415   8.541  2.8159  1.1859 -0.7253
 6759SOL    HW231737   3.256   1.480   8.617  0.7656 -1.8499  0.1701
 6760SOL     OW31738   2.828   3.365  11.308 -0.1807  0.5966 -0.1836
 6760SOL    HW131739   2.755   3.355  11.247 -0.0911  0.3568 -0.2497
 6760SOL    HW231740   2.809   3.449  11.351 -2.1985 -0.4309  0.9187
 6761SOL     OW31741   0.198   0.902   1.380  0.2361  0.6067  0.6451
 6761SOL    HW131742   0.133   0.911   1.450 -3.1178 -0.1019 -2.3882
 6761SOL    HW231743   0.278   0.922   1.430  0.1492  0.9787  0.6323
 6762SOL     OW31744   1.793   2.854   3.340 -0.3615 -0.3312 -0.4485
 6762SOL    HW131745   1.826   2.769   3.367 -0.9079 -0.1784  0.6746
 6762SOL    HW231746   1.772   2.832   3.249  1.0320 -0.5885 -0.6999
 6763SOL     OW31747   0.784   1.582   5.287  0.8179 -0.2294  0.2084
 6763SOL    HW131748   0.855   1.519   5.270  0.7377 -0.6083  1.2897
 6763SOL    HW231749   0.796   1.595   5.381  3.7548  1.0758 -0.3296
 6764SOL     OW31750   0.208   4.380   6.387  0.1506 -0.3924  0.0736
 6764SOL    HW131751   0.178   4.289   6.384 -2.1642  0.3516  0.2351
 6764SOL    HW231752   0.302   4.374   6.403  0.0363  0.0870  0.9991
 6765SOL     OW31753   1.160   0.267  12.462  0.5387 -0.1299 -0.3031
 6765SOL    HW131754   1.076   0.274  12.415  0.3054 -1.6297 -0.0993
 6765SOL    HW231755   1.147   0.319  12.542 -2.6780  0.2113 -1.0439
 6766SOL     OW31756   1.028   4.687  13.125 -0.0185 -0.5196  0.2290
 6766SOL    HW131757   1.078   4.607  13.141  1.4122  1.0239  3.3839
 6766SOL    HW231758   1.069   0.011  13.196 -0.8260 -0.8390  0.9192
 6767SOL     OW31759   1.520   2.715  16.107 -0.3374  0.2034 -0.4932
 6767SOL    HW131760   1.532   2.753  16.194 -1.2792  0.7671 -0.6154
 6767SOL    HW231761   1.481   2.631  16.127 -0.5105  0.2730 -0.5402
 6768SOL     OW31762   2.097   0.644   3.714  0.2537  0.5921 -0.6291
 6768SOL    HW131763   2.038   0.607   3.648 -0.6597  1.0437 -0.0740
 6768SOL    HW231764   2.116   0.563   3.762  2.3343  2.8718  2.3256
 6769SOL     OW31765   3.608   2.068   5.919  0.0112 -0.1457  0.5867
 6769SOL    HW131766   3.677   2.109   5.971  0.2332 -1.4084  1.2824
 6769SOL    HW231767   3.535   2.087   5.978 -2.4936 -4.3086 -1.1738
 6770SOL     OW31768   2.676   3.921   5.851  0.0887  0.1896 -0.5801
 6770SOL    HW131769   2.737   3.992   5.829  0.9566 -0.1805  0.6324
 6770SOL    HW231770   2.657   3.950   5.940  2.2083 -0.9441  0.2439
 6771SOL     OW31771   4.324   2.272   1.684  0.0017 -0.0254 -0.5504
 6771SOL    HW131772   4.278   2.347   1.648  0.3340 -0.4894 -1.9514
 6771SOL    HW231773   4.412   2.305   1.699 -0.7089  1.1192  1.1518
 6772SOL     OW31774   3.326   1.916  16.929 -0.4639  0.5557  0.2306
 6772SOL    HW131775   3.420   1.902  16.935 -0.1507  1.3132 -2.9988
 6772SOL    HW231776   3.310   1.973  17.005 -1.0623  0.3314  0.2743
 6773SOL     OW31777   1.577   3.951   8.545 -0.0243  0.1138  0.6729
 6773SOL    HW131778   1.641   3.970   8.476  3.0922 -0.5988  3.3222
 6773SOL    HW231779   1.502   3.995   8.508  0.0072 -0.8419 -0.5243
 6774SOL     OW31780   3.442   1.918   9.275  0.7303 -0.0270 -0.7006
 6774SOL    HW131781   3.520   1.970   9.297  0.5968  0.2521 -0.8864
 6774SOL    HW231782   3.482   1.839   9.238  0.6884  0.1350 -1.0862
 6775SOL     OW31783   3.521   3.801   8.030  0.1382 -0.1384 -0.3102
 6775SOL    HW131784   3.427   3.786   8.021  0.3955 -0.8322 -1.7929
 6775SOL    HW231785   3.549   3.767   7.946 -1.0241  1.3189 -1.3066
 6776SOL     OW31786   1.296   4.620   4.898 -0.0516 -0.4559 -0.5024
 6776SOL    HW131787   1.316   4.632   4.991 -1.3964 -0.2939 -0.2252
 6776SOL    HW231788   1.381   4.647   4.862 -0.0134 -1.6540 -1.2921
 6777SOL     OW31789   0.208   1.632  17.665 -0.6437 -0.2142 -0.0676
 6777SOL    HW131790   0.134   1.599  17.614  1.9980 -3.0303 -2.0849
 6777SOL    HW231791   0.279   1.573  17.641 -1.1439 -0.2638 -1.4119
 6778SOL     OW31792   4.183   4.371   0.828  0.2878 -0.4938 -0.4195
 6778SOL    HW131793   4.133   4.384   0.747  0.4614  0.6768 -0.3439
 6778SOL    HW231794   4.265   4.419   0.814  0.4419 -0.9904 -1.2246
 6779SOL     OW31795   0.506   2.992   7.567  0.8472 -0.4800 -0.5007
 6779SOL    HW131796   0.475   3.023   7.652 -0.7311  0.4003 -1.4169
 6779SOL    HW231797   0.601   2.998   7.583  0.7834  1.7880 -1.0052
 6780SOL     OW31798   1.443   3.238   2.780 -0.0283  0.2926  0.4207
 6780SOL    HW131799   1.478   3.186   2.708 -0.3200  0.0652  0.4402
 6780SOL    HW231800   1.382   3.300   2.741 -1.3050  0.6381  2.9946
 6781SOL     OW31801   1.631   2.393  11.483  0.0079 -0.0371 -0.6541
 6781SOL    HW131802   1.588   2.370  11.401  0.0046  0.6041 -0.8291
 6781SOL    HW231803   1.579   2.471  11.504 -0.1388 -1.0598  2.9117
 6782SOL     OW31804   0.942   4.008  10.864 -0.1957  0.6062  0.6685
 6782SOL    HW131805   0.910   3.999  10.954 -1.4139  1.4574  0.3199
 6782SOL    HW231806   0.889   4.082  10.835 -0.5561 -0.3774 -1.1396
 6783SOL     OW31807   0.134   2.031   3.994 -0.1987 -0.0370  0.9017
 6783SOL    HW131808   0.203   2.047   3.929 -2.1388  0.0853 -1.1331
 6783SOL    HW231809   0.175   2.065   4.074  0.0843 -1.4665  1.3511
 6784SOL     OW31810   3.456   4.094   2.130  0.3714  0.1149  0.7650
 6784SOL    HW131811   3.528   4.111   2.191  1.3964 -0.5066 -0.2414
 6784SOL    HW231812   3.389   4.153   2.163 -1.0122 -0.3920 -1.1276
 6785SOL     OW31813   4.536   1.731  16.951  0.4428 -0.3497  0.4527
 6785SOL    HW131814   4.514   1.819  16.981  1.1733  1.1721 -3.4456
 6785SOL    HW231815   4.497   1.720  16.864  0.5057  0.4062  0.3304
 6786SOL     OW31816   0.759   4.451  15.557  0.6569 -0.3043 -0.7870
 6786SOL    HW131817   0.752   4.536  15.514  2.5521  1.3101  2.1330
 6786SOL    HW231818   0.676   4.415  15.523  1.6883 -2.5195 -0.9888
 6787SOL     OW31819   4.592   3.300   2.996  0.7638  0.4458 -1.1236
 6787SOL    HW131820   4.608   3.350   3.076  0.2267 -1.7067  0.3538
 6787SOL    HW231821   4.497   3.302   2.985  0.5548 -0.2133  0.5236
 6788SOL     OW31822   3.043   1.841  13.575  0.3530 -0.2934 -0.0004
 6788SOL    HW131823   3.015   1.758  13.535 -0.0352  0.2085 -0.7617
 6788SOL    HW231824   2.958   1.873  13.605 -0.1245  0.2667 -1.9618
 6789SOL     OW31825   2.082   0.506   9.585 -0.2838 -0.1076  0.7139
 6789SOL    HW131826   2.170   0.542   9.599 -1.5552  3.8557 -1.3749
 6789SOL    HW231827   2.052   0.476   9.670 -1.2289 -0.5458  0.2120
 6790SOL     OW31828   4.572   4.592   7.647 -0.0364 -0.1069 -0.4974
 6790SOL    HW131829   4.505   4.583   7.580 -0.5169  0.4557 -0.0935
 6790SOL    HW231830   4.588   4.686   7.639 -0.8884  0.1489  0.7009
 6791SOL     OW31831   2.120   1.591   5.292 -0.7495  0.2492 -0.1047
 6791SOL    HW131832   2.083   1.539   5.363  1.1294  1.0154  1.4160
 6791SOL    HW231833   2.065   1.667   5.312 -0.3588  0.0926  1.5254
 6792SOL     OW31834   4.663   3.317  10.034 -0.0726 -0.1558  0.1590
 6792SOL    HW131835   4.636   3.249  10.094  1.4470 -1.3340 -0.4896
 6792SOL    HW231836   4.610   3.393  10.058  0.3685 -0.7011  2.7488
 6793SOL     OW31837   0.072   0.039   5.700 -0.0820  0.4033 -0.4557
 6793SOL    HW131838   0.070   0.001   5.612  0.9570 -0.4145 -0.1346
 6793SOL    HW231839   0.137   4.712   5.748 -0.1234  0.6011 -0.1809
 6794SOL     OW31840   3.855   3.963   0.756  0.2631  0.0938  0.5675
 6794SOL    HW131841   3.810   3.885   0.726 -0.9685  2.0242 -2.5571
 6794SOL    HW231842   3.942   3.926   0.769 -0.3026 -1.1297  0.8579
 6795SOL     OW31843   2.677   1.940   2.918  0.1154 -0.0839  0.0141
 6795SOL    HW131844   2.749   1.899   2.870 -0.5802 -0.2632 -0.8796
 6795SOL    HW231845   2.719   2.026   2.926  0.2636 -0.0952 -0.6004
 6796SOL     OW31846   2.200   4.437  14.279 -0.4539  0.4219  0.2981
 6796SOL    HW131847   2.242   4.355  14.253  1.8235  1.9300 -0.7741
 6796SOL    HW231848   2.121   4.392  14.309 -0.7795  0.7748 -0.0300
 6797SOL     OW31849   0.969   2.559   4.041 -0.0529 -0.2143 -0.0539
 6797SOL    HW131850   0.882   2.519   4.034 -0.0932 -0.2555  0.6873
 6797SOL    HW231851   0.995   2.519   4.124 -1.7891 -3.0816 -0.8857
 6798SOL     OW31852   0.334   3.582   8.406 -0.4761  0.2029  0.1107
 6798SOL    HW131853   0.260   3.640   8.388 -0.8513 -0.4324 -0.3970
 6798SOL    HW231854   0.406   3.643   8.386  1.2483 -1.4136  1.3878
 6799SOL     OW31855   0.429   0.635   1.316 -0.2471 -0.0713 -0.1857
 6799SOL    HW131856   0.468   0.553   1.346  0.5335 -0.7261 -3.0050
 6799SOL    HW231857   0.405   0.678   1.399  1.5743  0.5234  0.0196
 6800SOL     OW31858   0.972   0.055   7.286 -0.6288 -0.0100  0.3822
 6800SOL    HW131859   1.029   0.006   7.227 -0.1303 -0.3718  1.1618
 6800SOL    HW231860   0.990   0.142   7.250 -1.6233 -0.1937 -0.5646
 6801SOL     OW31861   1.557   3.309   0.979  0.0757  0.0901  0.0084
 6801SOL    HW131862   1.579   3.254   1.054  0.6426  0.6518  0.2521
 6801SOL    HW231863   1.641   3.309   0.932 -0.0592 -0.3587 -0.2358
 6802SOL     OW31864   0.105   0.906   9.562  0.5410 -0.2778  0.0635
 6802SOL    HW131865   0.171   0.963   9.522  0.3488 -0.8597 -1.0690
 6802SOL    HW231866   0.052   0.979   9.594  2.8602  2.1507 -1.5817
 6803SOL     OW31867   0.767   0.915   8.389 -0.1735  0.2926  0.0327
 6803SOL    HW131868   0.721   0.944   8.311  0.8980  0.7742 -0.4309
 6803SOL    HW231869   0.830   0.987   8.398 -1.4980  1.6694 -1.8060
 6804SOL     OW31870   4.054   2.797   6.933 -0.2804 -0.1385 -0.2061
 6804SOL    HW131871   4.029   2.879   6.892 -1.3761  0.8583  2.4455
 6804SOL    HW231872   3.970   2.766   6.967  1.2101 -3.3295  0.5767
 6805SOL     OW31873   0.286   0.219  13.332  0.0432 -0.4072  0.5294
 6805SOL    HW131874   0.234   0.211  13.252 -0.4271  1.7212  0.6196
 6805SOL    HW231875   0.227   0.182  13.397  0.2693 -0.8966  0.4574
 6806SOL     OW31876   3.451   1.431   1.564  0.3996 -0.3889 -0.4528
 6806SOL    HW131877   3.384   1.469   1.507 -0.1089 -2.3615 -1.1632
 6806SOL    HW231878   3.513   1.503   1.557 -0.3224  0.2062 -0.6746
 6807SOL     OW31879   0.945   0.895   3.377 -0.7544  0.6481 -0.1829
 6807SOL    HW131880   0.966   0.980   3.338  2.1320  0.7428  1.5524
 6807SOL    HW231881   1.015   0.882   3.441 -1.4470 -1.3865  0.1485
 6808SOL     OW31882   2.858   0.663   3.740  0.0033 -0.1138 -0.1603
 6808SOL    HW131883   2.936   0.718   3.738 -0.4580  0.5425 -0.2127
 6808SOL    HW231884   2.799   0.735   3.716 -0.4638 -0.8419 -1.2030
 6809SOL     OW31885   4.513   1.464   5.127 -0.1738 -0.0224 -0.1935
 6809SOL    HW131886   4.553   1.548   5.150  3.5274 -0.9006 -3.4440
 6809SOL    HW231887   4.442   1.468   5.191 -1.0183  1.3955 -1.2001
 6810SOL     OW31888   4.109   4.031   0.272  0.4984  0.4615 -0.1417
 6810SOL    HW131889   4.022   4.041   0.311  0.2121  0.1141 -0.6919
 6810SOL    HW231890   4.137   3.952   0.319  0.4692  0.9954  0.7705
 6811SOL     OW31891   0.841   0.295  13.341  0.4039  0.1180  0.7347
 6811SOL    HW131892   0.908   0.238  13.377  2.4764  1.0183 -1.7513
 6811SOL    HW231893   0.776   0.288  13.411  0.6393 -2.2162  0.7123
 6812SOL     OW31894   0.326   1.407   9.448 -0.1464  0.2305 -0.2389
 6812SOL    HW131895   0.302   1.409   9.541 -0.8379  0.6038 -0.4234
 6812SOL    HW231896   0.240   1.395   9.407  1.8627 -1.0982 -4.0488
 6813SOL     OW31897   2.660   2.854   9.631  0.2053 -0.2759 -0.0438
 6813SOL    HW131898   2.600   2.786   9.601  1.4015 -1.8159  1.0083
 6813SOL    HW231899   2.718   2.795   9.680  0.5654  0.4300  0.3867
 6814SOL     OW31900   2.845   0.876   7.491 -0.5270  0.6281  0.2190
 6814SOL    HW131901   2.897   0.805   7.453 -0.7695  0.3896  0.3312
 6814SOL    HW231902   2.756   0.867   7.458 -0.1388 -0.5660 -0.4931
 6815SOL     OW31903   0.258   3.504  14.930 -0.1828  0.2910  0.5288
 6815SOL    HW131904   0.347   3.533  14.909  0.7785 -1.1777  2.6115
 6815SOL    HW231905   0.233   3.570  14.994  0.5487 -0.5711  1.6872
 6816SOL     OW31906   0.483   0.437   3.610  0.3201 -0.4721 -0.1544
 6816SOL    HW131907   0.399   0.409   3.646  0.7429 -0.0022  1.1752
 6816SOL    HW231908   0.531   0.452   3.691 -2.6045  2.9760  0.9610
 6817SOL     OW31909   3.093   0.167   4.251  0.4817  0.4434 -0.2673
 6817SOL    HW131910   3.028   0.228   4.218  1.0097 -0.1152 -2.3313
 6817SOL    HW231911   3.137   0.219   4.319 -0.7042  0.5640  0.4012
 6818SOL     OW31912   1.567   2.791   3.544  0.1691 -0.0602 -0.0740
 6818SOL    HW131913   1.628   2.803   3.471 -1.1712 -1.7935 -1.4901
 6818SOL    HW231914   1.598   2.857   3.606  1.2040  0.3060 -0.9637
 6819SOL     OW31915   2.468   1.107  13.593  0.0892 -0.1457 -0.3674
 6819SOL    HW131916   2.498   1.164  13.664  0.8898 -0.0005 -0.8166
 6819SOL    HW231917   2.496   1.152  13.513 -0.3858  0.3357 -0.2658
 6820SOL     OW31918   0.800   1.657   5.565  0.3274 -0.0965  0.1982
 6820SOL    HW131919   0.846   1.656   5.649 -0.5885  1.9560  0.7152
 6820SOL    HW231920   0.768   1.747   5.560  1.2871  0.1982 -0.8032
 6821SOL     OW31921   2.023   2.491   5.198  0.7953  0.0252  0.1530
 6821SOL    HW131922   1.953   2.438   5.160  0.6543 -1.8092  2.9750
 6821SOL    HW231923   2.031   2.565   5.138 -0.6871 -0.5871 -0.7906
 6822SOL     OW31924   2.139   4.074   5.746 -0.6653 -0.3974 -0.3715
 6822SOL    HW131925   2.148   4.159   5.702  0.1561 -0.1505  0.2825
 6822SOL    HW231926   2.113   4.021   5.670 -1.5823 -1.8157  0.9343
 6823SOL     OW31927   4.588   1.456  16.268  0.1240 -0.2747  0.3536
 6823SOL    HW131928   4.591   1.551  16.273  1.1073 -0.2825  0.0073
 6823SOL    HW231929   4.629   1.437  16.353  0.8789  0.1533  0.0870
 6824SOL     OW31930   2.470   0.781   9.143  0.0175  0.1032 -0.2194
 6824SOL    HW131931   2.553   0.826   9.133 -0.0095  0.1227 -0.3538
 6824SOL    HW231932   2.509   0.694   9.157 -4.0095 -1.8585 -1.1698
 6825SOL     OW31933   2.525   0.106   2.470  0.1344  0.6990 -0.4314
 6825SOL    HW131934   2.555   0.174   2.531 -1.9720  1.3229 -0.0708
 6825SOL    HW231935   2.598   0.046   2.468  1.0055  1.7358  0.3484
 6826SOL     OW31936   2.737   1.533  15.471 -0.7453  0.3212  0.2839
 6826SOL    HW131937   2.826   1.546  15.436 -0.3682 -1.1521  0.7127
 6826SOL    HW231938   2.688   1.542  15.389 -3.3462  0.9342  1.9367
 6827SOL     OW31939   3.572   0.141   3.141 -0.2280  0.0631  0.9101
 6827SOL    HW131940   3.569   0.191   3.222 -2.3896  2.0068 -0.3539
 6827SOL    HW231941   3.593   0.203   3.071  3.0239 -0.8673  1.1037
 6828SOL     OW31942   1.175   1.469   1.756 -0.5731  0.0551 -0.4542
 6828SOL    HW131943   1.110   1.399   1.757  2.8144 -3.0511  1.4835
 6828SOL    HW231944   1.161   1.520   1.836  0.9234 -1.4100  0.7437
 6829SOL     OW31945   3.587   1.943   4.472  0.3685 -0.4616  0.0758
 6829SOL    HW131946   3.657   1.903   4.420  0.8236  1.0812 -0.4711
 6829SOL    HW231947   3.520   1.942   4.404  1.1519  1.5056 -0.7242
 6830SOL     OW31948   3.015   3.145  10.166 -0.2137 -0.1500  0.4234
 6830SOL    HW131949   3.000   3.150  10.260 -1.0494  2.8013  0.1400
 6830SOL    HW231950   2.990   3.236  10.151  1.9306  0.0141 -2.1883
 6831SOL     OW31951   0.315   4.414   8.742 -0.4766 -0.2192 -0.0066
 6831SOL    HW131952   0.317   4.481   8.674 -1.6709  0.2373  0.3894
 6831SOL    HW231953   0.375   4.350   8.704 -0.8669  0.5045 -1.8527
 6832SOL     OW31954   0.821   2.295  14.741 -0.1777 -0.1682  0.2792
 6832SOL    HW131955   0.763   2.220  14.734  0.7358 -0.8413 -0.0878
 6832SOL    HW231956   0.907   2.258  14.764  1.0081  0.4755 -3.0672
 6833SOL     OW31957   0.438   1.438   3.297 -0.1857 -0.0548 -0.0166
 6833SOL    HW131958   0.366   1.484   3.342  1.2760  1.1420  1.0910
 6833SOL    HW231959   0.393   1.406   3.219  0.2248 -0.6980  0.0131
 6834SOL     OW31960   2.900   1.367   7.615 -0.0112 -0.2300  0.0594
 6834SOL    HW131961   2.837   1.374   7.543 -1.9452  2.2520  2.0264
 6834SOL    HW231962   2.840   1.349   7.687 -1.0598  2.6757 -0.0809
 6835SOL     OW31963   4.009   0.390   4.085 -0.7965 -0.1744 -0.0178
 6835SOL    HW131964   4.012   0.468   4.030  1.3477  1.1729  2.0263
 6835SOL    HW231965   3.968   0.323   4.030 -0.4633 -1.0254  0.7696
 6836SOL     OW31966   1.565   3.706   2.512  0.0204  0.1962  0.2586
 6836SOL    HW131967   1.575   3.778   2.450 -2.8887 -0.1101 -0.5546
 6836SOL    HW231968   1.507   3.743   2.579 -0.9503 -1.4479  0.3188
 6837SOL     OW31969   2.871   1.829   3.180  0.0173  0.2513 -0.6333
 6837SOL    HW131970   2.885   1.913   3.136 -1.4367  0.7049 -0.2133
 6837SOL    HW231971   2.917   1.769   3.120 -1.2789  0.4017 -1.7781
 6838SOL     OW31972   0.834   1.745  16.389  0.2634 -0.0945 -0.0788
 6838SOL    HW131973   0.750   1.772  16.351  0.0477 -1.7490 -0.7636
 6838SOL    HW231974   0.869   1.832  16.408 -0.0765 -0.0908  0.5210
 6839SOL     OW31975   0.885   2.256   1.900 -0.1392  0.0055 -0.0380
 6839SOL    HW131976   0.861   2.191   1.834 -0.5173  0.5514 -0.4376
 6839SOL    HW231977   0.805   2.303   1.921 -1.0610 -2.5172  1.9808
 6840SOL     OW31978   0.076   3.424   2.349  0.1576 -0.2271 -0.1642
 6840SOL    HW131979   0.105   3.446   2.261  1.7570 -2.1420 -0.0999
 6840SOL    HW231980   0.162   3.413   2.389  1.3932  1.4491 -2.3500
 6841SOL     OW31981   2.149   4.307   9.910  0.3974  0.3467  0.5584
 6841SOL    HW131982   2.151   4.261   9.826 -0.7816  2.1296 -0.4239
 6841SOL    HW231983   2.188   4.389   9.881 -0.5464  0.2668 -0.9145
 6842SOL     OW31984   3.446   0.657   4.450  0.0507  0.3752 -0.1213
 6842SOL    HW131985   3.538   0.682   4.441  0.2340 -0.9871 -2.1111
 6842SOL    HW231986   3.436   0.598   4.525 -2.6886  0.2374 -0.6018
 6843SOL     OW31987   2.755   1.821   6.948  0.8821  0.2455  0.6076
 6843SOL    HW131988   2.734   1.893   6.888 -0.6211 -0.3330  0.4438
 6843SOL    HW231989   2.688   1.830   7.015  3.1361  1.3569  2.6965
 6844SOL     OW31990   0.707   0.817  11.837  0.5319 -0.0703 -0.3001
 6844SOL    HW131991   0.695   0.778  11.923  3.4148  2.4823  1.2171
 6844SOL    HW231992   0.799   0.839  11.847  1.3184 -2.6340 -1.9106
 6845SOL     OW31993   3.253   1.441   1.877  0.2967 -0.1507 -0.4114
 6845SOL    HW131994   3.173   1.432   1.928 -0.2389 -0.5674 -1.3337
 6845SOL    HW231995   3.234   1.520   1.828 -0.4158 -0.2185 -0.2464
 6846SOL     OW31996   2.186   2.160   5.348  0.1680  0.8887 -0.6422
 6846SOL    HW131997   2.201   2.112   5.267  0.3895  1.0303 -0.6837
 6846SOL    HW231998   2.102   2.199   5.324 -1.1555 -1.5108  0.0842
 6847SOL     OW31999   2.532   2.440  10.684  0.2102 -0.7405 -0.3104
 6847SOL    HW132000   2.457   2.499  10.685  0.8878  0.1090  0.8030
 6847SOL    HW232001   2.589   2.476  10.752  0.2822  2.0345 -1.8543
 6848SOL     OW32002   3.910   4.230   1.294 -0.2732 -0.3330 -0.4125
 6848SOL    HW132003   3.814   4.229   1.289 -0.2787  3.0603 -0.7477
 6848SOL    HW232004   3.917   4.135   1.282  0.1830 -0.7827  3.3942
 6849SOL     OW32005   3.874   0.400   8.461 -0.4279  0.3814  0.4238
 6849SOL    HW132006   3.830   0.316   8.476  2.0197 -1.1204 -0.8296
 6849SOL    HW232007   3.869   0.403   8.365 -0.3458  1.1244  0.4409
 6850SOL     OW32008   0.764   1.772   1.730 -0.3553 -0.4453  0.4016
 6850SOL    HW132009   0.714   1.810   1.657  0.4120  0.3244  0.2787
 6850SOL    HW232010   0.714   1.693   1.752  0.8743 -0.9450  1.3836
 6851SOL     OW32011   4.073   2.172   2.844  0.2575 -0.2133 -0.4699
 6851SOL    HW132012   4.147   2.146   2.899  0.9790  4.1699  0.6342
 6851SOL    HW232013   4.071   2.267   2.858 -0.8359 -0.4338  0.8256
 6852SOL     OW32014   2.453   0.945  10.250  0.2897 -0.0033  0.5072
 6852SOL    HW132015   2.488   0.856  10.247  2.1162  0.7094  0.8711
 6852SOL    HW232016   2.363   0.913  10.259  0.8062 -1.5317  0.3560
 6853SOL     OW32017   2.137   2.275   7.755 -0.1771 -0.0426 -0.6368
 6853SOL    HW132018   2.074   2.346   7.744 -0.1250  0.1541  0.3835
 6853SOL    HW232019   2.225   2.308   7.736 -0.6044  1.3685 -0.1222
 6854SOL     OW32020   0.390   3.039  10.922  0.2599 -0.6434  0.1632
 6854SOL    HW132021   0.354   3.117  10.880  2.2459  1.7792  3.0372
 6854SOL    HW232022   0.476   3.079  10.914  0.1237 -0.0088  1.8318
 6855SOL     OW32023   2.441   3.808  15.280  0.0172 -0.1198 -0.0447
 6855SOL    HW132024   2.468   3.833  15.368  0.2719  1.2271 -0.4883
 6855SOL    HW232025   2.409   3.891  15.244 -1.8654 -1.1127 -0.6656
 6856SOL     OW32026   0.707   2.153   8.448  0.6326  0.0221 -0.3092
 6856SOL    HW132027   0.619   2.174   8.480  1.0478 -0.0911  0.8955
 6856SOL    HW232028   0.762   2.221   8.489 -0.0794  0.0545  0.5998
 6857SOL     OW32029   4.491   0.853   2.473  0.0946 -0.1847  0.1941
 6857SOL    HW132030   4.471   0.804   2.552  1.5482  0.7120  1.1206
 6857SOL    HW232031   4.568   0.811   2.434  2.3509  1.5867  2.7376
 6858SOL     OW32032   2.356   1.535   5.848 -0.2490 -0.1354  0.2374
 6858SOL    HW132033   2.414   1.470   5.886 -1.3772 -1.7729 -0.8728
 6858SOL    HW232034   2.366   1.606   5.912  0.7184  0.7789 -0.9034
 6859SOL     OW32035   4.585   4.082  11.017 -0.1555 -0.2543 -0.4908
 6859SOL    HW132036   4.544   4.061  11.101 -0.4725  0.7993 -0.3708
 6859SOL    HW232037   4.565   4.176  11.024  0.1869 -0.1066 -1.5202
 6860SOL     OW32038   1.370   0.020   6.482 -0.3878 -0.6185 -0.0861
 6860SOL    HW132039   1.307   0.088   6.458 -1.1724 -0.9671  0.9947
 6860SOL    HW232040   1.309   4.682   6.518 -0.3721 -2.5470 -3.3970
 6861SOL     OW32041   0.485   0.866   0.895  0.3261  0.5365  0.1011
 6861SOL    HW132042   0.446   0.907   0.971 -1.1444  1.6629 -1.2514
 6861SOL    HW232043   0.434   0.785   0.890  0.6376  0.2396  1.7627
 6862SOL     OW32044   2.330   1.023   9.982 -0.4890 -0.7178  0.6604
 6862SOL    HW132045   2.390   1.078  10.034  1.8931 -3.1505  0.4895
 6862SOL    HW232046   2.374   1.015   9.898  2.1552 -2.2609  2.1674
 6863SOL     OW32047   1.886   3.067  16.441  0.1871 -0.2174  0.0497
 6863SOL    HW132048   1.873   3.089  16.533 -1.3526  0.5171 -0.3478
 6863SOL    HW232049   1.982   3.066  16.437  0.2022  0.2278  0.2830
 6864SOL     OW32050   3.032   1.909   2.331  0.5944 -0.0895  0.0202
 6864SOL    HW132051   3.002   1.843   2.268 -0.4683  0.6054 -0.1981
 6864SOL    HW232052   3.105   1.948   2.282 -0.4438  0.0167 -1.4256
 6865SOL     OW32053   2.740   2.822  13.411 -0.1719  0.0368 -0.1109
 6865SOL    HW132054   2.827   2.843  13.446 -0.1918  1.6597 -1.0610
 6865SOL    HW232055   2.683   2.887  13.452 -1.1111 -2.5365  2.6796
 6866SOL     OW32056   0.519   0.349   7.762 -0.2291 -0.6620  0.4698
 6866SOL    HW132057   0.594   0.370   7.819 -1.5386  3.7288  0.6267
 6866SOL    HW232058   0.495   0.434   7.725 -3.7431 -1.9710 -0.2756
 6867SOL     OW32059   4.654   3.758   4.970  0.3832  0.1668  0.2434
 6867SOL    HW132060   4.664   3.826   5.037 -0.1593 -2.0129  2.5036
 6867SOL    HW232061   0.019   3.731   4.961  0.7050  0.4768  2.4919
 6868SOL     OW32062   1.152   1.750  16.233 -0.0385  0.3479  0.1441
 6868SOL    HW132063   1.158   1.756  16.328 -0.4560 -0.8967  0.2394
 6868SOL    HW232064   1.104   1.668  16.220  1.3918 -0.3971 -0.4640
 6869SOL     OW32065   3.044   1.954   5.383  0.1565  0.4178 -0.5778
 6869SOL    HW132066   2.998   1.919   5.307  0.0939  0.6329 -0.6404
 6869SOL    HW232067   3.099   1.882   5.414 -1.2659  0.3411  1.8062
 6870SOL     OW32068   2.821   3.145   0.276  0.3406 -0.1184 -0.2920
 6870SOL    HW132069   2.755   3.086   0.239 -0.9108  0.3035  1.2668
 6870SOL    HW232070   2.867   3.084   0.332  0.3286  1.8936  1.9157
 6871SOL     OW32071   2.493   2.953   9.115 -0.6748  0.1444  0.2965
 6871SOL    HW132072   2.421   3.009   9.085 -1.1073 -1.6227 -1.9327
 6871SOL    HW232073   2.571   3.007   9.121 -1.0224  0.6985 -0.1484
 6872SOL     OW32074   0.738   1.924   9.362 -0.0534  0.1018 -0.1932
 6872SOL    HW132075   0.768   2.007   9.324  2.0048 -0.1039  0.9958
 6872SOL    HW232076   0.801   1.902   9.430 -0.2620  2.2395  0.7188
 6873SOL     OW32077   1.564   4.559  10.709 -0.0692  0.1653 -0.3488
 6873SOL    HW132078   1.494   4.580  10.772 -2.1556 -1.8674 -1.9795
 6873SOL    HW232079   1.505   4.511  10.651 -1.1488  0.5133  0.4623
 6874SOL     OW32080   0.394   3.438   5.874  0.3318 -0.2899  0.3406
 6874SOL    HW132081   0.444   3.453   5.794 -0.8551 -0.4019 -0.4185
 6874SOL    HW232082   0.385   3.531   5.893 -0.3792 -0.7075  2.0263
 6875SOL     OW32083   2.189   2.556   5.836  0.1325  0.2708  0.2036
 6875SOL    HW132084   2.151   2.473   5.806  2.4511 -0.1323 -1.6955
 6875SOL    HW232085   2.282   2.533   5.846  0.3770  1.0869 -0.2478
 6876SOL     OW32086   1.176   1.367   9.734 -0.1295  0.4715  0.3296
 6876SOL    HW132087   1.239   1.400   9.799  0.7589 -0.7573  0.0801
 6876SOL    HW232088   1.230   1.297   9.696 -4.2597 -2.8533  0.6247
 6877SOL     OW32089   2.853   0.289  13.045 -0.2049  0.7478 -0.4758
 6877SOL    HW132090   2.906   0.270  13.123 -0.8054 -0.5998 -0.4020
 6877SOL    HW232091   2.803   0.208  13.033  2.3371 -0.9730  0.5334
 6878SOL     OW32092   0.952   0.954   4.553  0.7632  0.1007  0.0864
 6878SOL    HW132093   1.031   1.005   4.569  0.1976  0.7344  0.8676
 6878SOL    HW232094   0.884   0.995   4.606 -1.1704 -0.7471 -1.7767
 6879SOL     OW32095   3.724   4.547   5.378 -0.1880 -0.1318  0.1575
 6879SOL    HW132096   3.676   4.467   5.397 -2.4920  0.7665 -1.9443
 6879SOL    HW232097   3.767   4.529   5.294  0.4799 -1.5437  0.8025
 6880SOL     OW32098   3.554   1.778  12.092  0.4314 -0.2136  0.1905
 6880SOL    HW132099   3.576   1.870  12.083  0.5414 -0.2143  0.4452
 6880SOL    HW232100   3.470   1.777  12.139 -0.3127 -0.3254 -1.1331
 6881SOL     OW32101   0.017   1.905   8.509  0.3705  0.1884 -0.2341
 6881SOL    HW132102   0.007   1.993   8.543 -0.7933  0.6104 -1.6772
 6881SOL    HW232103   0.024   1.865   8.596 -0.1887  0.8045  0.0934
 6882SOL     OW32104   2.174   2.834   5.740 -0.1426 -0.1577 -0.3523
 6882SOL    HW132105   2.086   2.856   5.710  0.2285  1.9058  0.0912
 6882SOL    HW232106   2.170   2.739   5.751  0.2978 -0.2402 -0.8628
 6883SOL     OW32107   0.630   3.383   6.757 -0.4419  0.6553  0.0524
 6883SOL    HW132108   0.697   3.316   6.769 -0.2755  1.1373  1.7906
 6883SOL    HW232109   0.552   3.353   6.804 -0.6863  1.3941  0.1137
 6884SOL     OW32110   1.706   1.693   2.097 -0.0966 -0.2632  0.8519
 6884SOL    HW132111   1.727   1.631   2.167 -1.5564 -1.9518 -0.1841
 6884SOL    HW232112   1.629   1.739   2.129 -1.2868 -0.5465 -1.5995
 6885SOL     OW32113   3.612   3.855  13.838  0.1580 -0.1882 -0.9001
 6885SOL    HW132114   3.521   3.856  13.809  1.1285  1.0473 -3.9224
 6885SOL    HW232115   3.599   3.781  13.896  1.1249  0.0483 -0.3832
 6886SOL     OW32116   4.463   2.644  13.493  0.1510  0.4887 -0.1914
 6886SOL    HW132117   4.518   2.658  13.570 -1.1486  0.6511  0.7096
 6886SOL    HW232118   4.378   2.650  13.536  0.8410  2.3678  0.8916
 6887SOL     OW32119   2.332   1.375  16.072  0.3428  0.5792  0.1540
 6887SOL    HW132120   2.356   1.298  16.123 -0.3133 -1.4490 -2.6366
 6887SOL    HW232121   2.289   1.336  15.996  0.7574 -0.0714  0.2506
 6888SOL     OW32122   0.448   1.107   7.322 -0.0869  0.8063 -0.4225
 6888SOL    HW132123   0.389   1.173   7.286 -0.5631  0.5768 -0.0716
 6888SOL    HW232124   0.442   1.117   7.417 -0.2233 -2.2278 -0.0862
 6889SOL     OW32125   4.219   3.811   7.130 -0.1242  0.1263  0.6277
 6889SOL    HW132126   4.300   3.835   7.086 -1.4304 -0.1000 -1.8860
 6889SOL    HW232127   4.153   3.854   7.075 -0.5245 -1.2892 -0.0165
 6890SOL     OW32128   1.409   4.273   1.100  0.6634  0.1649  0.1824
 6890SOL    HW132129   1.348   4.289   1.172  0.1304 -1.8807  0.2015
 6890SOL    HW232130   1.379   4.183   1.085  1.9840  0.0188 -1.5433
 6891SOL     OW32131   1.511   1.847   2.192  0.4685 -0.2348 -0.5722
 6891SOL    HW132132   1.445   1.819   2.255 -0.4114  2.0276 -0.4857
 6891SOL    HW232133   1.449   1.895   2.137  2.5853  1.5367 -1.4532
 6892SOL     OW32134   4.044   3.569   7.532 -0.6397 -0.4892 -0.0845
 6892SOL    HW132135   4.076   3.569   7.442  0.4829  2.1391  0.3162
 6892SOL    HW232136   4.072   3.484   7.565 -0.8711 -0.7363 -0.5298
 6893SOL     OW32137   2.805   0.119  17.662 -0.5590  0.5269  0.3362
 6893SOL    HW132138   2.876   0.177  17.689  1.0462 -1.0172 -0.5801
 6893SOL    HW232139   2.839   0.030  17.652 -0.1498  0.4618  2.4413
 6894SOL     OW32140   2.295   3.448  14.675  0.1026  0.0880  0.0763
 6894SOL    HW132141   2.243   3.373  14.703  0.6335 -0.4522 -0.3579
 6894SOL    HW232142   2.316   3.490  14.758  0.8133 -2.5119  1.2320
 6895SOL     OW32143   3.223   4.095   8.440  0.0999 -0.1853 -0.4362
 6895SOL    HW132144   3.261   4.010   8.463  0.6221  0.6449  1.8540
 6895SOL    HW232145   3.290   4.125   8.379 -1.3178  0.3452 -1.7173
 6896SOL     OW32146   3.311   1.973   8.341 -0.1854 -0.4983 -0.8473
 6896SOL    HW132147   3.364   1.898   8.366 -0.1845 -1.1821 -2.9695
 6896SOL    HW232148   3.355   1.989   8.258  1.0324  0.3545 -0.0444
 6897SOL     OW32149   2.525   1.329   0.914 -0.0343 -0.3211 -0.3911
 6897SOL    HW132150   2.534   1.424   0.914 -0.9012 -0.2346 -0.5595
 6897SOL    HW232151   2.432   1.308   0.924  0.1393 -0.9731 -0.1435
 6898SOL     OW32152   2.215   1.710   6.102  0.0316 -0.2589  0.3095
 6898SOL    HW132153   2.185   1.780   6.160  1.5278  0.3972  0.2945
 6898SOL    HW232154   2.157   1.735   6.030  0.3243 -3.1170 -0.9379
 6899SOL     OW32155   3.692   0.295   5.577 -0.6539 -0.1577  0.3359
 6899SOL    HW132156   3.673   0.378   5.533 -1.4148 -1.0438 -1.0054
 6899SOL    HW232157   3.693   0.331   5.666 -1.5016  0.3714  0.1317
 6900SOL     OW32158   2.906   2.733   9.507  0.5969 -0.0137 -0.3004
 6900SOL    HW132159   2.977   2.736   9.571  0.2639  2.2445 -0.0484
 6900SOL    HW232160   2.875   2.642   9.510  1.0182 -0.1720 -0.6282
 6901SOL     OW32161   0.208   2.592   8.298  0.1921 -0.2117 -0.4118
 6901SOL    HW132162   0.185   2.603   8.206  0.6124 -2.9114 -0.8426
 6901SOL    HW232163   0.212   2.684   8.323 -2.2635 -0.5204  1.2006
 6902SOL     OW32164   3.002   3.940  15.096 -0.1381 -0.6119  0.1368
 6902SOL    HW132165   2.959   3.869  15.047 -1.1849 -0.3688  0.6962
 6902SOL    HW232166   3.062   3.977  15.032  0.5927 -3.3201 -0.7652
 6903SOL     OW32167   0.207   0.052   3.679 -0.1417  0.3237  0.2584
 6903SOL    HW132168   0.248   4.695   3.701  0.1816  0.8267  1.5123
 6903SOL    HW232169   0.236   0.042   3.588 -1.6179  0.8518 -0.2749
 6904SOL     OW32170   3.003   1.044   8.155 -0.3526 -0.5352  0.0438
 6904SOL    HW132171   3.035   0.973   8.100  1.5286  0.1125  0.2796
 6904SOL    HW232172   3.083   1.088   8.184  0.4095 -1.8389 -0.0641
 6905SOL     OW32173   0.538   3.824   0.514 -0.0493  0.6632 -0.3346
 6905SOL    HW132174   0.526   3.833   0.420  0.1522  1.2357 -0.3014
 6905SOL    HW232175   0.532   3.914   0.545  2.7417  0.6002  0.4025
 6906SOL     OW32176   3.250   2.541   4.703  0.0797  0.0270  0.0194
 6906SOL    HW132177   3.232   2.457   4.745  0.7744 -0.2601 -0.2702
 6906SOL    HW232178   3.324   2.582   4.746  0.8657 -1.5789  0.1870
 6907SOL     OW32179   4.615   1.246   9.966  0.1233 -0.3872  0.0102
 6907SOL    HW132180   4.605   1.309   9.896  3.6207 -0.5424 -0.6318
 6907SOL    HW232181   4.632   1.160   9.928  2.5456  0.1150 -0.0234
 6908SOL     OW32182   4.585   3.689   6.842  0.4406  0.1158 -0.2829
 6908SOL    HW132183   4.643   3.726   6.776  0.2901  1.3400  0.2696
 6908SOL    HW232184   4.635   3.607   6.847 -1.9753 -1.2073  2.2903
 6909SOL     OW32185   0.873   2.946   7.995  0.0183 -0.0649  0.2641
 6909SOL    HW132186   0.893   3.023   7.941 -2.6344 -0.1027 -0.7285
 6909SOL    HW232187   0.852   2.982   8.082 -0.4792  3.0461 -1.1409
 6910SOL     OW32188   1.512   0.919   1.798 -0.5144  0.6624 -0.3215
 6910SOL    HW132189   1.597   0.875   1.802 -0.8522 -0.1243 -1.9660
 6910SOL    HW232190   1.525   1.000   1.848 -0.4172  1.2892 -1.3738
 6911SOL     OW32191   3.384   3.151   3.678  0.4055  0.6688  0.5427
 6911SOL    HW132192   3.457   3.181   3.732  0.8032  0.0620  0.3461
 6911SOL    HW232193   3.359   3.219   3.615 -0.7377  0.9165  1.2858
 6912SOL     OW32194   2.455   1.007   4.608  0.2798  0.1613 -0.4903
 6912SOL    HW132195   2.391   0.937   4.615 -0.2083  0.2132 -4.0450
 6912SOL    HW232196   2.490   0.987   4.521  1.2306  0.2698 -0.1369
 6913SOL     OW32197   2.879   0.740   2.922 -0.0433  0.4827  0.2032
 6913SOL    HW132198   2.906   0.669   2.980  0.5824 -0.8732 -1.7701
 6913SOL    HW232199   2.937   0.738   2.845 -0.1535  0.7786  0.1138
 6914SOL     OW32200   4.624   0.531   5.153  0.2894  0.1549  0.1602
 6914SOL    HW132201   4.674   0.467   5.205  2.3393 -0.8404 -3.0563
 6914SOL    HW232202   4.546   0.480   5.129  0.4670 -0.7478  1.4603
 6915SOL     OW32203   4.300   2.745   3.366  0.5011 -0.0025 -0.5597
 6915SOL    HW132204   4.376   2.688   3.378 -0.7323 -1.7042 -0.8017
 6915SOL    HW232205   4.288   2.749   3.271 -0.7793  1.7794 -0.3241
 6916SOL     OW32206   0.487   1.256   4.871 -0.4622 -0.1813  0.3109
 6916SOL    HW132207   0.441   1.339   4.861 -1.3191 -0.6221  0.6134
 6916SOL    HW232208   0.417   1.194   4.892 -0.8746  0.9377  2.2096
 6917SOL     OW32209   1.226   0.718   7.475 -0.3081 -0.7822 -0.1233
 6917SOL    HW132210   1.183   0.788   7.525 -0.0824 -1.8965  1.6220
 6917SOL    HW232211   1.213   0.646   7.537 -0.0334 -0.6136  0.1349
 6918SOL     OW32212   1.349   3.756  14.970  0.3503 -0.3819  0.2981
 6918SOL    HW132213   1.419   3.697  14.943 -1.6964 -2.2188 -1.0114
 6918SOL    HW232214   1.400   3.824  15.012  2.6640 -0.7492 -1.9404
 6919SOL     OW32215   0.638   1.196   7.563  0.1900  0.3433  0.3058
 6919SOL    HW132216   0.687   1.273   7.593  0.0213 -0.6083  3.0166
 6919SOL    HW232217   0.558   1.244   7.543  0.1450 -0.2200 -0.8915
 6920SOL     OW32218   3.296   4.076  13.621  0.3183  0.0198  0.3360
 6920SOL    HW132219   3.234   4.015  13.580  0.3471  0.2182 -0.0079
 6920SOL    HW232220   3.366   4.067  13.556  1.1295 -1.0232  1.3524
 6921SOL     OW32221   2.564   3.844  10.147  0.1692  1.0675  0.0145
 6921SOL    HW132222   2.510   3.766  10.136  0.8446  1.0222 -3.0421
 6921SOL    HW232223   2.536   3.905  10.216 -0.0972  0.1675  0.6952
 6922SOL     OW32224   0.563   1.072   4.470  0.1920 -0.5318  0.1833
 6922SOL    HW132225   0.628   1.114   4.526 -0.7030 -0.5101  1.2035
 6922SOL    HW232226   0.629   1.023   4.420  0.3354 -0.2713  0.1179
 6923SOL     OW32227   3.199   0.182   5.001 -0.2623 -0.9428 -0.2144
 6923SOL    HW132228   3.169   0.178   4.910  0.5807  0.6041 -0.5590
 6923SOL    HW232229   3.171   0.268   5.031 -1.1352 -0.8055 -1.3715
 6924SOL     OW32230   1.648   1.662   4.334  1.1411 -0.2292 -0.1130
 6924SOL    HW132231   1.676   1.625   4.250  0.0114 -1.0071 -0.1433
 6924SOL    HW232232   1.695   1.604   4.394  1.0607  0.3898  0.5487
 6925SOL     OW32233   1.165   2.602   7.843 -0.1794 -0.0661 -0.0482
 6925SOL    HW132234   1.161   2.549   7.764 -1.0228 -0.5438  0.3096
 6925SOL    HW232235   1.074   2.633   7.847 -0.0398  0.4618 -1.0329
 6926SOL     OW32236   3.088   2.646   9.736  0.3000  0.1492 -0.1028
 6926SOL    HW132237   3.173   2.657   9.692  0.5174  1.0462  0.5312
 6926SOL    HW232238   3.117   2.656   9.826  0.8649 -2.9949  0.0565
 6927SOL     OW32239   3.331   2.235   5.513 -0.2150 -0.1019  0.4120
 6927SOL    HW132240   3.399   2.179   5.551 -0.5280 -1.1320 -0.5113
 6927SOL    HW232241   3.268   2.248   5.583  0.5350 -0.9680  1.2528
 6928SOL     OW32242   2.544   4.181  11.761  0.0491  0.2792 -0.4034
 6928SOL    HW132243   2.584   4.150  11.842 -1.7704 -0.2493  0.2699
 6928SOL    HW232244   2.567   4.116  11.694 -0.1213 -0.9580  0.7622
 6929SOL     OW32245   0.698   2.854   9.420 -0.0791 -0.4853 -0.5052
 6929SOL    HW132246   0.658   2.810   9.345 -1.0139 -2.4229  1.1496
 6929SOL    HW232247   0.760   2.790   9.456  0.3826  1.5191  2.2779
 6930SOL     OW32248   3.638   4.539   3.412  0.3137  1.2138  0.1560
 6930SOL    HW132249   3.706   4.606   3.407  2.4877 -1.0136 -0.0332
 6930SOL    HW232250   3.681   4.471   3.463  1.4702  1.3253 -0.6873
 6931SOL     OW32251   3.384   4.101   4.545 -0.2287 -0.4292  0.0619
 6931SOL    HW132252   3.385   4.151   4.627  0.8163 -0.0372 -0.1877
 6931SOL    HW232253   3.404   4.014   4.581  1.2245 -0.9423 -1.9501
 6932SOL     OW32254   1.998   0.658   4.493  0.1763 -0.1778 -0.7724
 6932SOL    HW132255   1.980   0.650   4.587 -0.2649 -1.2703 -0.9517
 6932SOL    HW232256   2.084   0.617   4.480  1.0551  0.3781  3.3178
 6933SOL     OW32257   3.737   2.838  11.537 -0.1884 -0.2252 -0.5101
 6933SOL    HW132258   3.743   2.762  11.479  0.9245 -0.5112 -0.0353
 6933SOL    HW232259   3.643   2.843  11.555  0.1971  1.5740  1.0886
 6934SOL     OW32260   1.354   2.712   1.996 -0.1133 -0.3895 -0.6637
 6934SOL    HW132261   1.347   2.786   1.935  0.8660 -0.9296 -1.4225
 6934SOL    HW232262   1.261   2.691   2.008 -0.3541  0.3127 -1.3149
 6935SOL     OW32263   0.733   0.932   7.538  0.1726 -0.0028 -0.2116
 6935SOL    HW132264   0.775   0.943   7.623 -1.2211 -1.0621  0.6081
 6935SOL    HW232265   0.700   1.021   7.543  0.0001 -0.1337  0.9904
 6936SOL     OW32266   3.453   4.236   0.659  0.6140 -0.2543  0.0827
 6936SOL    HW132267   3.403   4.155   0.652 -1.2286  0.9210 -0.4298
 6936SOL    HW232268   3.538   4.194   0.672  0.6852 -0.5592 -1.3067
 6937SOL     OW32269   2.080   0.295  12.044  0.1388 -0.1739  0.0170
 6937SOL    HW132270   2.055   0.229  11.979  0.8562  0.3559 -0.7929
 6937SOL    HW232271   2.006   0.356  12.037  1.7406  1.8198  0.8694
 6938SOL     OW32272   2.890   2.810   7.369  0.2072 -0.2292 -0.5518
 6938SOL    HW132273   2.932   2.784   7.451 -1.8168  3.2362  1.5939
 6938SOL    HW232274   2.905   2.904   7.364  2.2919 -0.5202  0.2320
 6939SOL     OW32275   4.425   2.876   6.553  0.1900 -0.1867 -0.3824
 6939SOL    HW132276   4.388   2.857   6.640  0.3046 -2.3987 -0.8228
 6939SOL    HW232277   4.449   2.967   6.571 -0.9821 -0.3013  1.8368
 6940SOL     OW32278   1.375   2.190   4.528 -0.3089  0.1389  0.0454
 6940SOL    HW132279   1.355   2.272   4.483 -0.8249  0.1320  0.2558
 6940SOL    HW232280   1.288   2.180   4.567 -1.0132 -1.4761 -1.9937
 6941SOL     OW32281   2.007   4.599   4.119 -0.3489 -0.0000  0.2784
 6941SOL    HW132282   1.913   4.591   4.104  0.0705  1.1495 -3.0491
 6941SOL    HW232283   2.006   4.547   4.199 -0.5958 -0.2946  0.0838
 6942SOL     OW32284   3.781   0.105  16.343 -0.3072 -0.8084  0.5978
 6942SOL    HW132285   3.826   0.188  16.360 -0.0470 -0.8389  0.0643
 6942SOL    HW232286   3.694   0.133  16.314  0.4586  0.0055 -0.9185
 6943SOL     OW32287   0.201   3.791  14.462  0.2752 -0.2913  0.1035
 6943SOL    HW132288   0.181   3.874  14.506 -0.9529 -0.2561 -0.5419
 6943SOL    HW232289   0.292   3.770  14.485 -0.2125 -0.2987  2.0125
 6944SOL     OW32290   3.659   4.207   3.413 -0.0580  0.3850  0.8577
 6944SOL    HW132291   3.674   4.151   3.337 -1.3845  1.2361 -0.0220
 6944SOL    HW232292   3.588   4.259   3.375 -0.7478 -0.1742  1.3900
 6945SOL     OW32293   1.103   3.698   3.124 -0.5108  0.0026 -0.2297
 6945SOL    HW132294   1.180   3.712   3.180  0.5742 -1.4223 -1.3569
 6945SOL    HW232295   1.130   3.630   3.062 -0.4280 -1.8875  1.9010
 6946SOL     OW32296   2.726   0.141   2.033  0.0786  0.0005 -0.0975
 6946SOL    HW132297   2.813   0.122   2.068 -0.8539 -3.0532  0.5085
 6946SOL    HW232298   2.707   0.068   1.975  2.0022 -1.4872  1.1506
 6947SOL     OW32299   2.557   1.666   2.101 -0.3530 -0.4055 -0.2636
 6947SOL    HW132300   2.541   1.756   2.129  2.8280 -0.1052  0.5588
 6947SOL    HW232301   2.482   1.652   2.044 -0.3687 -0.8332 -0.1399
 6948SOL     OW32302   0.065   4.543   7.067 -0.8223  0.2563 -0.4223
 6948SOL    HW132303   0.006   4.505   7.132  0.1974  3.0591  2.1623
 6948SOL    HW232304   0.044   4.495   6.987 -1.7269 -2.5941  1.5248
 6949SOL     OW32305   0.359   0.668   1.560 -0.3128 -0.3230  0.1837
 6949SOL    HW132306   0.336   0.592   1.613  1.5414 -0.8875  0.1556
 6949SOL    HW232307   0.345   0.737   1.626 -0.5563  0.6753 -0.9027
 6950SOL     OW32308   4.316   1.608   4.582 -0.6044  0.6353 -0.3437
 6950SOL    HW132309   4.306   1.627   4.489  2.5556  3.8840  0.0031
 6950SOL    HW232310   4.353   1.690   4.616  1.0494  0.9091 -2.7940
 6951SOL     OW32311   3.350   4.474   0.732  0.2619 -0.3712  0.5929
 6951SOL    HW132312   3.277   4.439   0.681  2.4835 -0.4199 -2.5691
 6951SOL    HW232313   3.421   4.413   0.709 -0.7585 -1.4901  0.4395
 6952SOL     OW32314   2.903   3.004   5.853 -0.2207 -0.3903 -0.0608
 6952SOL    HW132315   2.886   2.985   5.760 -0.3569 -1.2645  0.1431
 6952SOL    HW232316   2.880   2.921   5.894  0.1893 -0.7834 -0.6205
 6953SOL     OW32317   4.502   4.336  16.868  0.3988 -0.1795 -0.8435
 6953SOL    HW132318   4.477   4.245  16.856 -2.0864  0.0450  2.7193
 6953SOL    HW232319   4.429   4.382  16.826 -0.6522 -0.8911  0.2295
 6954SOL     OW32320   3.189   0.753   3.537 -0.6743 -0.2245 -0.1892
 6954SOL    HW132321   3.172   0.737   3.630  1.0566  2.3463  0.5489
 6954SOL    HW232322   3.102   0.748   3.497  0.7310 -0.5903 -3.2113
 6955SOL     OW32323   4.318   3.877   8.412 -0.0505  0.1920  0.4758
 6955SOL    HW132324   4.267   3.839   8.484  1.8647 -1.8367  0.7707
 6955SOL    HW232325   4.311   3.969   8.437  1.2063 -0.0132  1.5949
 6956SOL     OW32326   2.562   3.273  15.208 -0.2587  0.1169  0.5397
 6956SOL    HW132327   2.572   3.180  15.189  1.1119  0.4136 -0.1617
 6956SOL    HW232328   2.579   3.268  15.302  0.3866 -0.3966  0.3932
 6957SOL     OW32329   1.596   2.529   4.118  0.4750 -0.2279 -0.2369
 6957SOL    HW132330   1.574   2.621   4.105  0.4697 -0.4113 -1.5585
 6957SOL    HW232331   1.691   2.534   4.126  0.2117  1.8975  1.3935
 6958SOL     OW32332   1.067   3.024   6.146  0.3269  0.0352 -0.2100
 6958SOL    HW132333   1.082   2.951   6.085 -1.3258  0.5499 -1.2394
 6958SOL    HW232334   0.974   3.037   6.132  0.1053 -1.5198 -0.1536
 6959SOL     OW32335   0.448   0.870   8.859 -0.0570 -0.6778 -0.7657
 6959SOL    HW132336   0.460   0.787   8.906 -2.0043 -0.1342  0.7315
 6959SOL    HW232337   0.483   0.845   8.774  1.8530 -0.9671  0.1051
 6960SOL     OW32338   1.587   2.568   1.667 -0.5410 -0.1328 -0.6523
 6960SOL    HW132339   1.545   2.490   1.632  1.3983 -1.3657 -0.2796
 6960SOL    HW232340   1.514   2.629   1.660  0.3567  1.0784  0.3308
 6961SOL     OW32341   2.960   2.350   7.893 -0.0345  0.5387 -0.4699
 6961SOL    HW132342   3.028   2.379   7.954 -0.0189  1.5275 -0.9520
 6961SOL    HW232343   2.952   2.422   7.830  0.9151  2.3279  1.4881
 6962SOL     OW32344   2.172   4.402   2.371 -0.3944 -0.1855 -0.4931
 6962SOL    HW132345   2.165   4.354   2.288 -1.1605 -0.3827 -0.3150
 6962SOL    HW232346   2.197   4.338   2.436 -0.2136  0.3499 -0.0360
 6963SOL     OW32347   2.538   0.690  10.211 -0.3077 -0.1110  0.6883
 6963SOL    HW132348   2.557   0.625  10.278  0.0107 -1.0233 -0.2866
 6963SOL    HW232349   2.497   0.637  10.143 -0.9228 -0.8550  1.6574
 6964SOL     OW32350   4.236   2.275  10.137 -0.9467 -0.2205  0.2596
 6964SOL    HW132351   4.254   2.214  10.209  1.2675  0.5795  0.3911
 6964SOL    HW232352   4.217   2.211  10.068 -2.1669 -2.0482  2.2900
 6965SOL     OW32353   4.205   0.977   6.802 -0.6675  0.2084  0.0762
 6965SOL    HW132354   4.210   0.934   6.887 -0.4175  0.5275  0.2229
 6965SOL    HW232355   4.260   1.054   6.813 -0.1545  0.0559 -1.3086
 6966SOL     OW32356   1.802   1.302   0.918  0.4863 -0.3657  0.3970
 6966SOL    HW132357   1.837   1.297   0.829  0.4115 -0.7725  0.3876
 6966SOL    HW232358   1.742   1.375   0.906  0.6647 -0.1956  0.5384
 6967SOL     OW32359   0.405   3.954  16.135  0.6278  0.0521  0.2001
 6967SOL    HW132360   0.325   3.983  16.178 -0.2103 -0.7064 -0.8427
 6967SOL    HW232361   0.354   3.899  16.075  1.0466  0.1689 -0.2600
 6968SOL     OW32362   2.271   4.119   5.989  0.1847  0.0906  0.1985
 6968SOL    HW132363   2.213   4.122   5.913  0.4901 -2.2665 -0.1181
 6968SOL    HW232364   2.359   4.139   5.956  0.1420  0.4218  0.2865
 6969SOL     OW32365   4.256   2.473   6.257  0.1598  0.1008 -0.2533
 6969SOL    HW132366   4.300   2.516   6.184 -0.2846  0.1997 -0.4622
 6969SOL    HW232367   4.283   2.533   6.327  0.1822 -0.3369  0.1088
 6970SOL     OW32368   2.446   4.696  13.200  1.2703  0.5917  0.3514
 6970SOL    HW132369   2.425   0.054  13.241 -0.0400 -0.0664  1.0041
 6970SOL    HW232370   2.439   4.638  13.275  0.8951 -0.2147 -0.3048
 6971SOL     OW32371   3.193   1.991  13.191  0.0605 -0.2732 -0.5711
 6971SOL    HW132372   3.192   1.930  13.118 -1.0700 -1.0677  0.1048
 6971SOL    HW232373   3.101   2.017  13.189 -0.0916 -0.7356  0.1753
 6972SOL     OW32374   0.986   2.144   4.926  0.1166  0.1072 -0.4922
 6972SOL    HW132375   0.990   2.238   4.905 -2.6958  0.3306 -0.1397
 6972SOL    HW232376   1.077   2.117   4.934  0.4845  1.6670  0.6044
 6973SOL     OW32377   3.086   0.766   4.729  0.4291  0.3072 -0.2223
 6973SOL    HW132378   2.993   0.787   4.719  0.4252  0.0772 -0.7175
 6973SOL    HW232379   3.133   0.840   4.690  0.2609 -0.5981 -2.1800
 6974SOL     OW32380   2.376   1.934  12.845  0.0282  0.2537 -0.5456
 6974SOL    HW132381   2.447   1.992  12.871 -0.6829  0.2716  1.4045
 6974SOL    HW232382   2.356   1.986  12.767  1.3161 -0.4105 -1.3084
 6975SOL     OW32383   2.837   3.008   3.515 -0.2151  0.4529 -0.5983
 6975SOL    HW132384   2.766   2.943   3.509  1.5410 -1.2999 -2.2359
 6975SOL    HW232385   2.855   3.024   3.422 -1.4591  0.2388 -0.8853
 6976SOL     OW32386   4.723   0.765  11.705 -0.5591  0.1553 -0.2245
 6976SOL    HW132387   0.078   0.800  11.742 -0.1442 -1.5719  0.4822
 6976SOL    HW232388   4.684   0.850  11.684  0.7977  0.4992 -1.3202
 6977SOL     OW32389   3.482   1.122   6.382  0.1684  0.0879  0.1824
 6977SOL    HW132390   3.509   1.213   6.373 -1.8939  0.6091 -0.7800
 6977SOL    HW232391   3.475   1.116   6.478 -0.0526  1.8006  0.2795
 6978SOL     OW32392   3.182   1.961  12.341  0.2567  0.2893 -0.3410
 6978SOL    HW132393   3.243   1.961  12.415 -0.9983  0.1802  0.6816
 6978SOL    HW232394   3.222   1.893  12.287 -0.1135 -0.6541  0.5772
 6979SOL     OW32395   1.652   3.000   7.203  0.1878 -0.1309  0.1398
 6979SOL    HW132396   1.623   2.943   7.132 -1.4602  0.3130  0.4734
 6979SOL    HW232397   1.650   3.088   7.165  0.0200  0.3165  1.2006
 6980SOL     OW32398   0.566   2.137   7.744 -0.3482 -0.6278  0.7886
 6980SOL    HW132399   0.497   2.098   7.690  0.6215 -0.7226 -0.4091
 6980SOL    HW232400   0.517   2.217   7.760  1.1321  0.3239  0.6048
 6981SOL     OW32401   2.727   3.672   6.956  0.0870  0.2476 -0.2419
 6981SOL    HW132402   2.700   3.723   6.880 -1.4420  1.5597  1.1764
 6981SOL    HW232403   2.646   3.627   6.980  0.7231  0.6594  2.7035
 6982SOL     OW32404   2.437   3.244  11.732 -0.2223  0.1375  0.0913
 6982SOL    HW132405   2.367   3.253  11.667 -2.3107 -4.3241  1.7676
 6982SOL    HW232406   2.469   3.157  11.711 -0.6888 -0.1873  0.7200
 6983SOL     OW32407   4.490   2.068   4.102 -0.6867 -0.2524  0.1503
 6983SOL    HW132408   4.560   2.006   4.122 -2.0147 -1.2881  1.5863
 6983SOL    HW232409   4.464   2.031   4.017  0.1994 -0.8629  0.1468
 6984SOL     OW32410   0.299   1.998   4.214 -0.1008  0.0974  0.2416
 6984SOL    HW132411   0.348   2.080   4.222 -0.6305  0.3179  1.3502
 6984SOL    HW232412   0.251   2.011   4.296 -0.0384  0.1320  0.2735
 6985SOL     OW32413   1.957   3.981   8.486  0.1445 -0.0024 -0.5237
 6985SOL    HW132414   1.882   3.988   8.427 -0.2761  3.2960  0.4318
 6985SOL    HW232415   1.983   3.889   8.491  1.9900  0.5585  0.4149
 6986SOL     OW32416   1.904   1.481  10.755 -0.1379  0.0442  0.8285
 6986SOL    HW132417   1.810   1.487  10.739  0.4304  0.3933 -2.2332
 6986SOL    HW232418   1.937   1.552  10.700  1.3735  0.2286  1.9593
 6987SOL     OW32419   1.223   3.888   2.322  0.6550 -0.2647 -0.0533
 6987SOL    HW132420   1.294   3.830   2.349  0.6232 -0.0482  0.4883
 6987SOL    HW232421   1.233   3.958   2.386  0.7505  0.5033 -0.9006
 6988SOL     OW32422   3.483   0.231   2.722  0.8754  0.4259  0.0816
 6988SOL    HW132423   3.415   0.281   2.767  0.7629 -0.5127  0.9378
 6988SOL    HW232424   3.463   0.140   2.742  0.1644  0.7806  0.9666
 6989SOL     OW32425   0.994   2.203   8.471  0.8819  0.0460 -0.5124
 6989SOL    HW132426   0.948   2.281   8.501 -0.3108 -0.1053 -1.9154
 6989SOL    HW232427   1.053   2.173   8.540  0.4969  0.4621 -0.0032
 6990SOL     OW32428   3.171   1.931  16.055  0.1439 -0.1083  0.1773
 6990SOL    HW132429   3.214   2.006  16.014  1.7108 -0.0550  1.9014
 6990SOL    HW232430   3.190   1.951  16.147  0.5639 -1.5400  0.4021
 6991SOL     OW32431   1.663   1.407  13.855  0.3277 -0.1789  0.1280
 6991SOL    HW132432   1.588   1.373  13.904  0.6179 -0.7521  0.1646
 6991SOL    HW232433   1.664   1.500  13.878 -1.4398 -0.8363  2.8990
 6992SOL     OW32434   3.878   1.510  16.341  0.2910 -0.3144  0.2222
 6992SOL    HW132435   3.951   1.451  16.363 -0.2913 -0.9951  0.3211
 6992SOL    HW232436   3.863   1.493  16.248  0.3602  2.1282 -0.2229
 6993SOL     OW32437   0.543   0.828   2.252 -0.8018  0.3799 -0.3684
 6993SOL    HW132438   0.552   0.750   2.308  1.7527  0.3557 -0.8211
 6993SOL    HW232439   0.606   0.891   2.286  1.4360 -1.1912 -1.6135
 6994SOL     OW32440   4.048   2.727   4.579 -0.0145  0.6008  0.1396
 6994SOL    HW132441   3.977   2.790   4.595 -1.2529 -0.8425  0.3947
 6994SOL    HW232442   4.112   2.795   4.559 -1.4296  2.4135  1.7679
 6995SOL     OW32443   2.120   0.493   6.588 -0.4690 -0.1119  0.6525
 6995SOL    HW132444   2.196   0.437   6.571 -0.2259  0.5316 -0.3916
 6995SOL    HW232445   2.047   0.469   6.530  1.4240  0.8481 -2.1251
 6996SOL     OW32446   3.658   4.447  13.767 -0.4461 -0.0810 -0.1400
 6996SOL    HW132447   3.739   4.454  13.817 -1.0019  1.1375  0.6008
 6996SOL    HW232448   3.603   4.516  13.804 -1.7527 -0.8976 -0.5659
 6997SOL     OW32449   2.740   3.984   4.321  0.0697  0.4082 -0.4823
 6997SOL    HW132450   2.749   4.001   4.227  0.1794  0.7256 -0.4143
 6997SOL    HW232451   2.655   3.941   4.329  0.9106 -1.3337 -0.9014
 6998SOL     OW32452   4.541   1.538   5.436  0.4126 -0.0074  0.3269
 6998SOL    HW132453   4.597   1.511   5.509 -0.3856  1.9230  1.6532
 6998SOL    HW232454   4.606   1.530   5.365  0.4425 -1.2794  0.4960
 6999SOL     OW32455   1.832   4.130   9.013 -0.5131  0.1690 -0.4823
 6999SOL    HW132456   1.923   4.144   9.041 -0.2181  2.6661 -2.6498
 6999SOL    HW232457   1.832   4.168   8.925 -0.3594 -0.5726 -0.7996
 7000SOL     OW32458   1.459   2.618   0.036  0.0175 -0.7048 -0.2951
 7000SOL    HW132459   1.531   2.644   0.093  0.9434  0.2536 -1.8798
 7000SOL    HW232460   1.397   2.583   0.100  0.9230 -1.0924  0.3592
 7001SOL     OW32461   1.105   0.112   6.916 -0.3781  0.3683 -0.0094
 7001SOL    HW132462   1.054   0.033   6.897 -0.4159  0.6307 -1.0289
 7001SOL    HW232463   1.190   0.073   6.935 -0.2436  0.0939 -1.1379
 7002SOL     OW32464   4.665   4.569   9.863  0.6073 -0.2045  0.0143
 7002SOL    HW132465   4.702   4.657   9.856 -2.6172  1.1587  0.2244
 7002SOL    HW232466   4.587   4.583   9.810 -0.0282  0.9951  1.2578
 7003SOL     OW32467   1.362   4.000   3.896 -0.1114 -1.0928 -0.0980
 7003SOL    HW132468   1.394   4.047   3.973 -0.6933 -0.1945 -0.4066
 7003SOL    HW232469   1.271   4.030   3.901 -0.8156 -3.2561  0.1147
 7004SOL     OW32470   2.914   0.883   6.886  0.4567  0.1474  0.5530
 7004SOL    HW132471   2.988   0.823   6.882  1.2274  1.2690 -1.8925
 7004SOL    HW232472   2.929   0.928   6.803 -0.7513  0.2572  0.3853
 7005SOL     OW32473   1.015   3.392   7.862 -1.1123  0.3242  0.2487
 7005SOL    HW132474   1.110   3.398   7.860 -0.8738 -2.9333  0.2702
 7005SOL    HW232475   0.994   3.447   7.937  0.7813 -1.2084  1.9259
 7006SOL     OW32476   4.491   0.360   4.057 -0.2428 -0.6994  0.7949
 7006SOL    HW132477   4.524   0.291   3.999 -1.6036 -1.7962  1.3343
 7006SOL    HW232478   4.542   0.434   4.024 -1.3908 -0.5863 -0.7070
 7007SOL     OW32479   1.991   0.342  11.702 -0.0394 -0.0392 -0.6016
 7007SOL    HW132480   2.018   0.258  11.665 -2.3993 -0.7476 -0.7468
 7007SOL    HW232481   2.075   0.385  11.719  0.0831 -0.1502 -0.9259
 7008SOL     OW32482   1.030   2.031   2.635  0.3884  0.4431 -0.3874
 7008SOL    HW132483   1.056   2.112   2.590  1.7059 -0.0004 -0.4329
 7008SOL    HW232484   0.940   2.021   2.604  0.6494 -0.6425 -0.8028
 7009SOL     OW32485   1.093   1.807  17.675  0.4264  0.5191  0.5303
 7009SOL    HW132486   1.148   1.812  17.597 -1.3617 -1.8080 -0.8941
 7009SOL    HW232487   1.132   1.729   0.013 -1.2883 -0.2424  0.7058
 7010SOL     OW32488   3.937   2.994   7.801 -0.5361  0.0053  0.1955
 7010SOL    HW132489   3.845   2.990   7.826 -0.6697  1.9961  0.0038
 7010SOL    HW232490   3.948   3.088   7.782  0.3311 -0.0848  0.2289
 7011SOL     OW32491   0.269   4.069   2.786  0.4174  0.8175  0.0578
 7011SOL    HW132492   0.358   4.079   2.753 -0.5713  0.9829 -2.5660
 7011SOL    HW232493   0.210   4.077   2.711  0.3010  1.8817  0.2546
 7012SOL     OW32494   1.119   3.766  10.336  0.3541 -0.1723  0.3351
 7012SOL    HW132495   1.211   3.787  10.321  0.1676  0.8567  0.6207
 7012SOL    HW232496   1.098   3.849  10.379  0.0701 -0.4782  0.7861
 7013SOL     OW32497   3.342   0.186   7.136 -0.3659 -0.3236  0.0310
 7013SOL    HW132498   3.324   0.146   7.221  2.3409 -2.0382 -0.1936
 7013SOL    HW232499   3.408   0.126   7.101 -0.4366 -1.1968  1.4066
 7014SOL     OW32500   2.355   3.680   6.131  0.3540 -0.2846  0.0821
 7014SOL    HW132501   2.299   3.623   6.184 -0.8156  0.7706  0.0127
 7014SOL    HW232502   2.293   3.697   6.059  0.7815 -0.9634 -0.4499
 7015SOL     OW32503   0.483   2.255   0.867  0.6768 -0.3173 -0.5718
 7015SOL    HW132504   0.390   2.266   0.886  0.6175 -0.4056 -0.8018
 7015SOL    HW232505   0.513   2.243   0.957 -0.4513  1.7372  0.0788
 7016SOL     OW32506   0.292   2.764   3.344  0.2337  0.3123 -0.3614
 7016SOL    HW132507   0.280   2.675   3.309 -1.9825  1.4714 -2.5493
 7016SOL    HW232508   0.258   2.819   3.274 -0.0290  0.1772 -0.3417
 7017SOL     OW32509   1.973   1.633   3.203 -0.5977 -0.9773 -0.2540
 7017SOL    HW132510   1.935   1.706   3.250 -1.1983  0.2296 -2.5918
 7017SOL    HW232511   2.068   1.640   3.213 -1.0320 -0.5503  3.3645
 7018SOL     OW32512   4.048   1.746  17.274 -0.3975  0.0806  0.1170
 7018SOL    HW132513   3.963   1.777  17.306  0.3251  1.9890  0.2086
 7018SOL    HW232514   4.029   1.747  17.180 -0.2413 -0.3970  0.0816
 7019SOL     OW32515   3.621   3.237   0.044 -0.2480  0.3871 -0.3655
 7019SOL    HW132516   3.684   3.234  17.675 -0.8191 -0.7409 -0.8067
 7019SOL    HW232517   3.678   3.197   0.109  0.2310  0.3288 -0.8190
 7020SOL     OW32518   0.412   2.937   4.994 -0.4418  0.5098  0.2540
 7020SOL    HW132519   0.418   2.998   5.068 -0.8366 -1.6595  2.0913
 7020SOL    HW232520   0.409   3.000   4.923  0.5605  1.8164  1.3763
 7021SOL     OW32521   3.296   3.079   7.096 -0.1411  0.0186  0.3060
 7021SOL    HW132522   3.287   3.091   7.191  1.9108 -1.4060  0.6750
 7021SOL    HW232523   3.382   3.116   7.079 -0.3292 -0.1580 -1.0291
 7022SOL     OW32524   2.112   3.552   0.206 -0.1263  0.0793  0.1292
 7022SOL    HW132525   2.109   3.645   0.185  1.0029  0.1320  0.1819
 7022SOL    HW232526   2.207   3.543   0.218 -0.2734 -0.6958  0.6845
 7023SOL     OW32527   2.582   3.805   9.483 -0.1672 -0.3462 -0.4465
 7023SOL    HW132528   2.582   3.730   9.543  0.1126  0.4111  0.4862
 7023SOL    HW232529   2.638   3.751   9.426  0.8841 -0.6022  0.8312
 7024SOL     OW32530   1.539   2.280   3.550 -0.0780  0.0740  0.5404
 7024SOL    HW132531   1.501   2.209   3.499  0.9650  0.7895 -1.2206
 7024SOL    HW232532   1.468   2.318   3.603  0.4698 -1.9667  2.7658
 7025SOL     OW32533   4.000   3.737   1.072 -0.4993  0.9932  0.1770
 7025SOL    HW132534   4.061   3.688   1.127 -1.8856 -1.0977 -0.1513
 7025SOL    HW232535   3.919   3.691   1.053  0.9588 -0.7382 -1.7605
 7026SOL     OW32536   1.727   3.566   8.821  0.5422 -0.0980  0.1804
 7026SOL    HW132537   1.759   3.639   8.873 -1.6449  0.7307  0.3806
 7026SOL    HW232538   1.702   3.501   8.887  1.2626  0.6776  1.2035
 7027SOL     OW32539   2.229   3.253   3.295  0.0224 -0.0766 -0.2263
 7027SOL    HW132540   2.312   3.211   3.270 -0.7445 -1.0501 -1.1017
 7027SOL    HW232541   2.202   3.291   3.212  0.2689  3.0887  1.1452
 7028SOL     OW32542   2.780   3.790   3.017 -0.3566  0.3973 -0.8840
 7028SOL    HW132543   2.693   3.753   3.003 -0.9026  1.9328 -1.4412
 7028SOL    HW232544   2.820   3.771   2.932  1.3596 -2.0830  0.4693
 7029SOL     OW32545   1.670   1.112   7.216  0.2564 -0.3104  0.5210
 7029SOL    HW132546   1.752   1.123   7.166  0.8776 -3.6623  0.8427
 7029SOL    HW232547   1.694   1.121   7.308 -0.7780 -0.8555  0.8357
 7030SOL     OW32548   2.575   2.233   2.812  0.3694  0.2348  0.4717
 7030SOL    HW132549   2.524   2.152   2.812 -2.3407  1.9408 -2.2254
 7030SOL    HW232550   2.527   2.300   2.861  1.2730 -0.0519  1.7730
 7031SOL     OW32551   1.000   2.155   7.805 -0.1444 -0.4939  0.5588
 7031SOL    HW132552   0.967   2.233   7.850  0.7429 -0.3557  0.9702
 7031SOL    HW232553   1.090   2.177   7.829  0.3076 -0.1411 -1.4499
 7032SOL     OW32554   0.585   1.867   4.404 -0.5979 -0.4021 -0.1686
 7032SOL    HW132555   0.561   1.912   4.485  0.8365 -0.5474  0.3342
 7032SOL    HW232556   0.547   1.780   4.419 -1.7118  0.0012 -0.6526
 7033SOL     OW32557   4.182   0.937   9.038  0.0618  0.1643  0.1533
 7033SOL    HW132558   4.199   0.899   8.952  0.5345 -0.7483  0.6542
 7033SOL    HW232559   4.268   0.978   9.048 -1.3842  3.1581  0.2927
 7034SOL     OW32560   2.961   4.577   5.520 -0.2846 -0.6844  0.3420
 7034SOL    HW132561   2.924   4.580   5.431  4.0036  0.5998 -1.3962
 7034SOL    HW232562   3.056   4.570   5.515 -0.0939  2.1536 -0.2465
 7035SOL     OW32563   1.769   0.149   4.103 -0.3423  0.1793 -0.2228
 7035SOL    HW132564   1.779   0.059   4.070 -0.3297  0.2783 -0.4942
 7035SOL    HW232565   1.801   0.197   4.026 -1.0917  0.0328 -0.6295
 7036SOL     OW32566   1.723   1.005   9.570  0.5087 -0.2742 -0.1154
 7036SOL    HW132567   1.651   0.970   9.623 -1.1296 -0.3656 -2.4053
 7036SOL    HW232568   1.683   1.019   9.484  0.2185 -0.1626  0.0398
 7037SOL     OW32569   4.494   0.948   6.421  0.0094  0.7268 -0.1328
 7037SOL    HW132570   4.422   0.889   6.399  0.7377 -0.1813 -0.0961
 7037SOL    HW232571   4.475   0.965   6.514  0.5718 -0.0978  0.1382
 7038SOL     OW32572   4.199   1.463   9.749  0.1914 -0.7807  0.3289
 7038SOL    HW132573   4.288   1.492   9.770  0.4165  0.0671 -1.7159
 7038SOL    HW232574   4.144   1.538   9.771  1.8835 -0.4237  3.3465
 7039SOL     OW32575   3.066   3.602   8.711 -0.0673  0.1072 -0.0103
 7039SOL    HW132576   3.070   3.686   8.665 -1.6626  1.1091  1.6975
 7039SOL    HW232577   3.150   3.606   8.757 -0.0970 -2.5434  0.2879
 7040SOL     OW32578   1.869   0.607   4.214  0.4521  0.1098  0.0534
 7040SOL    HW132579   1.915   0.565   4.142  0.7966  1.2084 -0.3684
 7040SOL    HW232580   1.938   0.607   4.281 -2.2367 -0.6813  2.8439
 7041SOL     OW32581   3.343   4.323  13.005  0.2577 -0.0441  0.1714
 7041SOL    HW132582   3.296   4.332  13.088 -0.1127  2.8179 -0.3258
 7041SOL    HW232583   3.364   4.413  12.980  0.4918 -0.5525 -1.4688
 7042SOL     OW32584   1.191   3.463  15.822 -0.4930  0.2575 -0.5558
 7042SOL    HW132585   1.236   3.524  15.763  0.6397 -0.2373 -0.2213
 7042SOL    HW232586   1.109   3.473  15.774  1.3927 -0.4739 -3.9508
 7043SOL     OW32587   1.751   4.220   4.850 -0.2002 -0.0634  0.3661
 7043SOL    HW132588   1.844   4.197   4.851 -0.1745  0.0296 -0.9014
 7043SOL    HW232589   1.718   4.178   4.930 -1.7990  0.3580 -0.0808
 7044SOL     OW32590   1.804   3.165   2.135 -0.5371  0.3556 -0.7300
 7044SOL    HW132591   1.879   3.122   2.095 -0.6168 -1.6823  1.2958
 7044SOL    HW232592   1.776   3.230   2.071 -1.6962 -0.2784 -0.8658
 7045SOL     OW32593   4.253   1.716   9.538  0.3082 -0.0622 -0.2861
 7045SOL    HW132594   4.265   1.806   9.507  0.7457  0.5268  1.5790
 7045SOL    HW232595   4.342   1.685   9.526 -0.4099 -2.5484  0.7810
 7046SOL     OW32596   3.497   2.652  13.627 -0.7295 -0.1119 -0.0590
 7046SOL    HW132597   3.574   2.615  13.583 -2.1819 -0.0852 -2.6172
 7046SOL    HW232598   3.510   2.623  13.717  1.3652 -0.0018 -0.3229
 7047SOL     OW32599   3.796   3.666  14.991 -0.5035 -0.3081 -0.2227
 7047SOL    HW132600   3.785   3.692  15.083  0.7422  0.3491 -0.2605
 7047SOL    HW232601   3.872   3.720  14.968 -1.7143  1.6176  0.3315
 7048SOL     OW32602   3.000   2.766   6.149  0.2039  0.2074 -0.0982
 7048SOL    HW132603   3.081   2.715   6.144 -0.0675 -0.3498  1.1409
 7048SOL    HW232604   2.991   2.793   6.058 -1.7698 -1.5819 -0.4475
 7049SOL     OW32605   2.004   3.154   4.927 -0.5864  0.9520 -0.2221
 7049SOL    HW132606   2.015   3.247   4.911  0.4102  0.8639 -0.0490
 7049SOL    HW232607   1.933   3.156   4.992 -0.2452 -0.0890  0.1885
 7050SOL     OW32608   0.200   4.030   5.283  0.1502  0.2485  0.1223
 7050SOL    HW132609   0.206   4.124   5.264  1.6629  0.0104 -0.5266
 7050SOL    HW232610   0.285   4.003   5.249  0.6580  0.6509  1.0576
 7051SOL     OW32611   0.300   3.811   9.204 -0.3526  0.0978  0.5036
 7051SOL    HW132612   0.334   3.856   9.281 -0.3019  0.7763  0.0794
 7051SOL    HW232613   0.230   3.871   9.181  0.3628  0.7858  0.1162
 7052SOL     OW32614   2.532   4.333   6.658 -0.0770  0.1252  0.6917
 7052SOL    HW132615   2.450   4.369   6.692 -0.6352 -0.1819 -0.3246
 7052SOL    HW232616   2.536   4.347   6.563  1.4937 -2.5450  0.3480
 7053SOL     OW32617   2.120   0.659   7.912  0.4428  0.3295 -0.1200
 7053SOL    HW132618   2.116   0.658   7.817 -0.9139 -1.8167 -0.0351
 7053SOL    HW232619   2.032   0.695   7.926  0.4455 -0.6760  2.5296
 7054SOL     OW32620   0.148   3.164  10.299  0.5956  0.0733  0.3529
 7054SOL    HW132621   0.113   3.112  10.227 -1.5539 -0.7171  1.9680
 7054SOL    HW232622   0.224   3.209  10.262  1.1266 -0.7872  0.3847
 7055SOL     OW32623   1.752   1.020  17.630  0.1779 -0.5113 -0.6694
 7055SOL    HW132624   1.772   0.938  17.586 -2.5446 -0.9377 -1.1290
 7055SOL    HW232625   1.763   1.005   0.021  0.4919 -2.4881 -1.0236
 7056SOL     OW32626   1.944   3.571  11.455  0.0227  0.1489  0.2434
 7056SOL    HW132627   1.966   3.478  11.459  0.7263  0.2157 -2.1356
 7056SOL    HW232628   1.868   3.572  11.396  0.6077  0.5904 -0.4925
 7057SOL     OW32629   1.734   0.821   6.952  0.5143 -0.0866  0.6377
 7057SOL    HW132630   1.648   0.854   6.978  0.9146  1.1754  0.3716
 7057SOL    HW232631   1.705   0.752   6.891 -0.9390  0.3069  0.8785
 7058SOL     OW32632   1.656   4.282   7.201 -0.1494 -0.3853  0.1362
 7058SOL    HW132633   1.746   4.311   7.188 -0.4181  0.2819 -0.2468
 7058SOL    HW232634   1.638   4.317   7.289  1.2331 -0.0704  0.2841
 7059SOL     OW32635   1.079   4.045   5.026  0.1597 -0.3588 -0.1247
 7059SOL    HW132636   1.043   4.131   5.048 -1.2080 -1.3191  1.4290
 7059SOL    HW232637   1.096   4.011   5.114 -0.7569 -0.1924  0.1201
 7060SOL     OW32638   0.856   0.606   9.138 -0.0508 -0.3238 -0.4779
 7060SOL    HW132639   0.944   0.641   9.147 -0.3633  0.0606  1.2212
 7060SOL    HW232640   0.810   0.655   9.207  1.3969  3.1266 -1.9740
 7061SOL     OW32641   1.157   0.511   7.669 -0.6480  0.1865  0.4730
 7061SOL    HW132642   1.162   0.416   7.677 -0.8979  0.1107 -0.2480
 7061SOL    HW232643   1.226   0.529   7.733 -0.0271  0.9266 -0.4084
 7062SOL     OW32644   1.251   0.064   2.524  0.3952 -0.1288 -0.1223
 7062SOL    HW132645   1.288   0.102   2.444 -0.6286  1.0449 -0.0367
 7062SOL    HW232646   1.162   0.053   2.490  0.6114 -0.6363 -0.5386
 7063SOL     OW32647   3.664   3.240  16.145  0.3082  0.2626  0.1878
 7063SOL    HW132648   3.649   3.312  16.206 -2.2918 -2.1143  2.4105
 7063SOL    HW232649   3.600   3.249  16.074  0.4531  1.7417  0.2582
 7064SOL     OW32650   1.439   0.778   4.631  0.7537  0.6708 -0.1412
 7064SOL    HW132651   1.436   0.813   4.720 -2.8243  0.3161 -0.1437
 7064SOL    HW232652   1.471   0.854   4.583  0.5045 -0.3540 -1.9186
 7065SOL     OW32653   0.290   4.338   9.416 -0.6692  0.1254  0.2563
 7065SOL    HW132654   0.220   4.280   9.386  0.2255 -0.0737 -1.4642
 7065SOL    HW232655   0.363   4.295   9.371  1.0315  1.0915  2.1106
 7066SOL     OW32656   3.895   2.991   6.817 -0.1782 -0.1168 -0.0233
 7066SOL    HW132657   3.887   3.083   6.844  1.4824 -0.0780  0.3185
 7066SOL    HW232658   3.811   2.969   6.777  0.6199 -3.3665  0.0707
 7067SOL     OW32659   1.147   2.845   5.946  0.0865 -0.2082  0.4071
 7067SOL    HW132660   1.137   2.862   5.852 -2.4866 -1.2287  0.5059
 7067SOL    HW232661   1.147   2.750   5.948  2.4631 -0.1750  1.5233
 7068SOL     OW32662   1.825   1.325   8.697 -0.1227 -0.5407  0.1972
 7068SOL    HW132663   1.789   1.395   8.642  3.2336  0.9279 -0.1292
 7068SOL    HW232664   1.803   1.352   8.787 -1.6412 -0.9129 -0.0570
 7069SOL     OW32665   3.782   4.354   6.868 -0.1776 -0.5955  0.4242
 7069SOL    HW132666   3.849   4.421   6.863 -0.7331 -0.1358 -0.6706
 7069SOL    HW232667   3.718   4.383   6.804  0.9076 -0.6850 -0.6884
 7070SOL     OW32668   1.336   2.617   6.769  0.0985  0.0638  0.4144
 7070SOL    HW132669   1.358   2.592   6.859 -1.2725 -1.7318  0.2543
 7070SOL    HW232670   1.356   2.710   6.778  0.3941 -0.1630  2.2312
 7071SOL     OW32671   3.337   3.088   4.322 -0.7221  0.2396  0.1145
 7071SOL    HW132672   3.333   3.075   4.416  2.1292 -0.5096  0.1341
 7071SOL    HW232673   3.257   3.045   4.293 -0.7934 -1.6970  3.2408
 7072SOL     OW32674   0.529   0.764   6.717  0.2754  0.0488  0.0754
 7072SOL    HW132675   0.623   0.784   6.718  0.1826  0.4990 -0.4029
 7072SOL    HW232676   0.538   0.677   6.677 -0.8938  0.8904 -2.0118
 7073SOL     OW32677   4.151   3.616   5.325  0.4582 -0.4429 -0.0733
 7073SOL    HW132678   4.174   3.617   5.418 -0.1121  1.4715  0.0573
 7073SOL    HW232679   4.215   3.556   5.288  0.4883  1.0217 -2.4129
 7074SOL     OW32680   4.312   2.407   2.854  0.4435  0.0514 -0.3072
 7074SOL    HW132681   4.399   2.440   2.832  1.2399 -1.6892  0.2034
 7074SOL    HW232682   4.255   2.445   2.787 -0.5480  0.8537  0.9951
 7075SOL     OW32683   0.629   2.490   6.442 -0.5195  0.0136 -0.0094
 7075SOL    HW132684   0.665   2.561   6.496  2.4392  1.1371 -3.4545
 7075SOL    HW232685   0.535   2.504   6.448 -0.6733 -0.8674 -0.2829
 7076SOL     OW32686   4.711   1.021   1.217  0.0586  0.2233  0.3718
 7076SOL    HW132687   4.635   0.963   1.221  0.6138 -0.6853 -2.6502
 7076SOL    HW232688   0.058   0.959   1.225 -0.0752 -0.0964 -0.9979
 7077SOL     OW32689   3.511   2.537   8.873 -0.4185  0.0471  0.3665
 7077SOL    HW132690   3.489   2.588   8.794 -0.9864 -0.8818 -0.0641
 7077SOL    HW232691   3.468   2.456   8.849 -0.9789 -0.2179  2.2939
 7078SOL     OW32692   4.219   1.288   6.955  0.2028  0.8808  0.1235
 7078SOL    HW132693   4.149   1.345   6.921 -0.4139 -0.2165 -0.4321
 7078SOL    HW232694   4.281   1.359   6.971  1.1831 -0.0022  0.2084
 7079SOL     OW32695   0.482   3.634   0.688  0.6652 -0.0380  0.1181
 7079SOL    HW132696   0.495   3.691   0.764  0.4119 -2.7747  2.2112
 7079SOL    HW232697   0.479   3.698   0.617 -0.6828  0.3527  0.5348
 7080SOL     OW32698   3.735   1.963   6.997  0.5130 -0.3933  0.4950
 7080SOL    HW132699   3.787   1.904   6.943 -1.5014 -2.2635  0.5727
 7080SOL    HW232700   3.757   2.047   6.957 -0.0790  0.5329  2.1061
 7081SOL     OW32701   2.678   3.439   1.060 -0.2597 -0.3507  0.0763
 7081SOL    HW132702   2.745   3.441   0.992 -0.1141  1.6232  0.2778
 7081SOL    HW232703   2.733   3.447   1.138  0.0269  1.2583 -0.2986
 7082SOL     OW32704   3.711   2.964   9.567 -0.7741 -0.0742 -0.1005
 7082SOL    HW132705   3.623   2.951   9.532 -0.6672  1.5572 -0.9291
 7082SOL    HW232706   3.696   3.053   9.597 -1.8116 -0.0934 -0.5818
 7083SOL     OW32707   0.134   3.116   7.176 -0.0170 -0.0284 -0.0294
 7083SOL    HW132708   0.102   3.064   7.102 -3.5017  0.0178  1.4436
 7083SOL    HW232709   0.225   3.131   7.152 -0.4976 -0.2168 -1.9519
 7084SOL     OW32710   2.859   1.766   4.054 -0.4099 -0.1998  0.4089
 7084SOL    HW132711   2.926   1.829   4.080 -0.2290  0.8794 -2.5728
 7084SOL    HW232712   2.860   1.779   3.959  1.6781 -1.1027  0.3007
 7085SOL     OW32713   3.329   2.774   0.645  0.2225  0.0021 -0.1361
 7085SOL    HW132714   3.356   2.866   0.643  0.7453 -0.1418  0.1977
 7085SOL    HW232715   3.383   2.739   0.574  1.3934 -2.2833  1.8697
 7086SOL     OW32716   4.402   3.360   6.280 -0.3969 -0.1429 -0.5530
 7086SOL    HW132717   4.371   3.358   6.189  0.4322 -3.4803 -0.7545
 7086SOL    HW232718   4.424   3.267   6.288 -1.0382 -0.2699 -0.3353
 7087SOL     OW32719   1.658   1.531  10.694  0.2289  0.1195  0.2448
 7087SOL    HW132720   1.626   1.457  10.642  0.2218  0.2675  0.0414
 7087SOL    HW232721   1.643   1.609  10.640  1.3693  0.4119  0.3376
 7088SOL     OW32722   0.140   3.158   2.545 -0.2698 -0.0268 -0.6813
 7088SOL    HW132723   0.051   3.174   2.512 -0.2647  1.9910  0.2811
 7088SOL    HW232724   0.182   3.205   2.473 -0.4873 -0.5970 -1.1841
 7089SOL     OW32725   3.982   2.286  12.203 -0.2488 -0.0395  0.2532
 7089SOL    HW132726   3.936   2.215  12.247  0.2343 -0.7534 -0.3947
 7089SOL    HW232727   4.028   2.333  12.273 -0.5619  2.0792 -0.9517
 7090SOL     OW32728   3.708   0.197  13.753  0.2230  0.5231  0.4674
 7090SOL    HW132729   3.720   0.279  13.705  0.6957  0.7927  1.0415
 7090SOL    HW232730   3.632   0.219  13.806  1.0214 -0.5571  2.0797
 7091SOL     OW32731   4.079   3.120   7.088 -0.0038 -0.6740  0.1649
 7091SOL    HW132732   4.052   3.209   7.065 -0.6926 -1.0048 -0.2925
 7091SOL    HW232733   4.006   3.091   7.142 -0.3474 -2.1650 -1.0987
 7092SOL     OW32734   4.404   2.392   3.122 -0.4640 -0.3794 -0.3632
 7092SOL    HW132735   4.372   2.313   3.164 -0.8341 -0.0087  0.0420
 7092SOL    HW232736   4.384   2.371   3.031 -0.8436 -1.2052 -0.0875
 7093SOL     OW32737   2.714   2.267   7.450 -0.5014  0.7263  0.2596
 7093SOL    HW132738   2.711   2.244   7.543  1.4510 -0.9401 -0.0933
 7093SOL    HW232739   2.790   2.220   7.415 -0.5004  1.1212 -0.2766
 7094SOL     OW32740   1.198   2.159   8.970  0.1798 -0.0146 -0.3379
 7094SOL    HW132741   1.156   2.209   8.900 -1.3632  0.5743  1.0203
 7094SOL    HW232742   1.185   2.071   8.936  0.2319  0.6829 -2.1577
 7095SOL     OW32743   1.714   4.343   8.000  0.3522  0.1951  0.0490
 7095SOL    HW132744   1.779   4.285   8.039 -3.2652 -1.3762  3.7534
 7095SOL    HW232745   1.724   4.420   8.057 -1.0039  0.0798  0.4622
 7096SOL     OW32746   0.297   1.506   7.788 -0.1524 -0.4565 -0.2207
 7096SOL    HW132747   0.366   1.443   7.811  1.5701  0.9668 -1.4679
 7096SOL    HW232748   0.318   1.535   7.700  1.8017  0.6168  0.5912
 7097SOL     OW32749   2.216   0.620   5.123  0.2317 -0.0239 -0.6799
 7097SOL    HW132750   2.240   0.689   5.061  1.4962 -0.5380 -0.7650
 7097SOL    HW232751   2.150   0.652   5.184  0.7568  0.4086 -0.3262
 7098SOL     OW32752   1.245   2.062   7.125 -0.1935  0.3133 -0.1055
 7098SOL    HW132753   1.299   2.063   7.046  1.2916  3.0188  0.9550
 7098SOL    HW232754   1.286   2.117   7.192  2.4086 -2.1882  0.3381
 7099SOL     OW32755   0.111   2.526   2.981 -0.1392  0.1394 -0.0587
 7099SOL    HW132756   0.151   2.446   3.015  1.2123  0.5385 -0.7457
 7099SOL    HW232757   0.044   2.485   2.927 -0.5445  1.4125 -0.5169
 7100SOL     OW32758   3.630   0.022   4.918 -0.0423  0.1591  0.2341
 7100SOL    HW132759   3.694   0.034   4.848  0.8389  0.0442  1.0237
 7100SOL    HW232760   3.671   0.045   5.001 -1.3137 -1.2434  1.2495
 7101SOL     OW32761   1.842   0.268   6.580  0.2135  0.6219 -0.4855
 7101SOL    HW132762   1.866   0.334   6.516 -1.3768  0.5479 -1.1584
 7101SOL    HW232763   1.750   0.250   6.562 -0.0861  2.0571 -0.3817
 7102SOL     OW32764   3.808   3.203  17.550  0.1906  0.1749 -0.3366
 7102SOL    HW132765   3.863   3.240  17.482  1.2829 -2.9341 -1.1286
 7102SOL    HW232766   3.765   3.136  17.496 -0.3811  0.4773 -0.2622
 7103SOL     OW32767   1.678   1.921  14.022  0.3399  0.3982  0.4181
 7103SOL    HW132768   1.668   2.013  14.048 -0.9134  0.1573  0.7938
 7103SOL    HW232769   1.753   1.927  13.964  0.2785  0.7287  0.3736
 7104SOL     OW32770   0.769   2.559  10.786 -0.7529  0.2913 -0.1422
 7104SOL    HW132771   0.692   2.529  10.739 -0.4651  2.4182 -1.9776
 7104SOL    HW232772   0.834   2.506  10.741 -1.1880 -0.4323  0.0815
 7105SOL     OW32773   4.219   1.308   7.497  0.1637 -0.7736  0.4690
 7105SOL    HW132774   4.126   1.315   7.518  0.2452 -1.7109  1.1490
 7105SOL    HW232775   4.217   1.217   7.468 -1.0415 -1.6406  3.2314
 7106SOL     OW32776   3.645   2.516  17.254 -0.8362  0.0350  0.0379
 7106SOL    HW132777   3.621   2.578  17.185 -1.1617  2.3874  2.2670
 7106SOL    HW232778   3.565   2.464  17.254  1.5388 -3.6959  1.0247
 7107SOL     OW32779   1.261   4.113   9.491 -0.5366  0.1104 -0.2060
 7107SOL    HW132780   1.201   4.041   9.472 -0.7405  0.2462 -0.0724
 7107SOL    HW232781   1.297   4.124   9.403  0.7005 -0.3808  0.2436
 7108SOL     OW32782   3.212   0.394   8.152  0.0309  0.1124  0.4721
 7108SOL    HW132783   3.297   0.367   8.185  0.9650 -0.2038 -2.1331
 7108SOL    HW232784   3.168   0.309   8.147 -0.8648  0.5052  1.7741
 7109SOL     OW32785   1.886   4.540  11.991 -0.1877 -0.2888 -0.3452
 7109SOL    HW132786   1.831   4.465  11.968  0.8835 -0.9256 -0.8298
 7109SOL    HW232787   1.942   4.539  11.914 -0.6802 -1.2763 -0.6933
 7110SOL     OW32788   2.945   4.456   9.649  0.1209  0.4487 -0.2122
 7110SOL    HW132789   2.871   4.506   9.683  1.6152  1.6837  1.2623
 7110SOL    HW232790   3.019   4.517   9.651 -0.0275  0.6511 -1.1497
 7111SOL     OW32791   4.455   3.216  11.248  0.0382  0.2621  0.0451
 7111SOL    HW132792   4.428   3.300  11.286 -0.7325  0.3957 -0.8096
 7111SOL    HW232793   4.537   3.203  11.295 -0.4171 -3.6124 -0.1990
 7112SOL     OW32794   4.629   3.991   5.145  0.1231  0.2027 -0.5296
 7112SOL    HW132795   4.721   4.017   5.139 -0.2782  1.8999  0.5346
 7112SOL    HW232796   4.596   4.068   5.193  2.4543 -0.3082  1.8861
 7113SOL     OW32797   1.041   3.875   9.496 -0.6885  0.0956  0.7599
 7113SOL    HW132798   0.972   3.866   9.561 -1.5610  0.4695 -0.1134
 7113SOL    HW232799   1.006   3.814   9.432  0.1160 -0.6383  1.0113
 7114SOL     OW32800   0.144   0.780   8.274  0.1365  0.9040 -0.1718
 7114SOL    HW132801   0.206   0.820   8.335 -0.5073 -1.5468  2.0800
 7114SOL    HW232802   0.179   0.691   8.272  0.2304  0.9269  0.2972
 7115SOL     OW32803   1.516   0.103   1.343 -0.3329  0.0709  0.1812
 7115SOL    HW132804   1.496   0.185   1.388 -0.5213  1.1528 -1.8443
 7115SOL    HW232805   1.607   0.119   1.319 -0.7895  1.7055 -0.4812
 7116SOL     OW32806   1.381   3.503   5.322  0.0008  0.0090  0.2628
 7116SOL    HW132807   1.328   3.466   5.393 -2.7102  2.5193 -0.4692
 7116SOL    HW232808   1.452   3.439   5.325  1.4023  1.5089 -0.3701
 7117SOL     OW32809   4.635   0.203   8.253 -0.3872  0.0313  0.2361
 7117SOL    HW132810   4.601   0.252   8.178 -2.9148 -0.5042  1.0043
 7117SOL    HW232811   4.717   0.250   8.262 -0.0832 -0.5367  0.3918
 7118SOL     OW32812   2.080   4.247   9.029 -0.2722  0.1282  0.1191
 7118SOL    HW132813   2.072   4.327   8.977 -1.9294  0.4703  0.9033
 7118SOL    HW232814   2.152   4.203   8.985 -0.8313  1.4353 -2.0642
 7119SOL     OW32815   4.200   0.727   2.557  0.2506 -0.6947  0.3926
 7119SOL    HW132816   4.246   0.797   2.510  0.2382 -0.5602  0.5796
 7119SOL    HW232817   4.110   0.759   2.564  0.3347 -0.6718  1.4024
 7120SOL     OW32818   2.827   2.305  15.259 -0.4717  0.6661 -0.7518
 7120SOL    HW132819   2.732   2.313  15.264 -0.3899  2.1087 -1.6998
 7120SOL    HW232820   2.839   2.382  15.313 -0.3837  1.4318 -1.8671
 7121SOL     OW32821   2.009   2.511   2.498  0.9142  0.1748  0.0406
 7121SOL    HW132822   1.921   2.519   2.462  1.0651 -0.0967 -0.3937
 7121SOL    HW232823   2.022   2.417   2.483 -1.5058  0.3018 -2.7055
 7122SOL     OW32824   4.495   0.807  14.134 -0.0135 -0.9240  0.0718
 7122SOL    HW132825   4.516   0.879  14.193 -0.2756  1.2482 -2.4771
 7122SOL    HW232826   4.534   0.726  14.168  2.7589 -1.3230 -4.0771
 7123SOL     OW32827   1.873   3.429   3.447  0.3666 -0.0557  0.0957
 7123SOL    HW132828   1.907   3.343   3.472 -0.1687 -0.4660 -0.6004
 7123SOL    HW232829   1.802   3.401   3.389  0.3943 -0.9321  0.4763
 7124SOL     OW32830   4.021   3.555   8.622 -0.4202  0.9909 -0.2609
 7124SOL    HW132831   4.105   3.514   8.643  0.3092  0.9475 -3.3073
 7124SOL    HW232832   4.057   3.621   8.563  1.3499 -1.2506 -1.7018
 7125SOL     OW32833   3.879   0.453   3.680  0.2625 -0.3434  0.5767
 7125SOL    HW132834   3.854   0.541   3.708 -1.7145 -0.9113  0.5556
 7125SOL    HW232835   3.974   0.468   3.674  0.4767 -1.2207  1.8349
 7126SOL     OW32836   0.856   1.424   8.170  0.1574 -0.3015 -0.5210
 7126SOL    HW132837   0.936   1.460   8.132  0.4033 -0.8260 -0.4894
 7126SOL    HW232838   0.824   1.498   8.222  1.1361  0.6069 -1.2157
 7127SOL     OW32839   4.724   0.083   7.172  0.6758 -0.3679 -0.0904
 7127SOL    HW132840   4.701   0.033   7.093 -1.5261 -1.6162  1.3417
 7127SOL    HW232841   0.003   0.164   7.121  0.6491 -0.0610  0.3943
 7128SOL     OW32842   1.939   3.822   6.842  0.2638  0.0676  0.0957
 7128SOL    HW132843   1.908   3.884   6.908  0.6440  0.7401 -0.3719
 7128SOL    HW232844   1.884   3.743   6.843  0.7542 -0.2637  1.4312
 7129SOL     OW32845   2.787   2.048  11.419 -0.1602 -0.1372 -0.1072
 7129SOL    HW132846   2.733   2.044  11.497  0.5372  1.3914  0.4560
 7129SOL    HW232847   2.858   2.107  11.446 -0.1583  0.1178 -0.6582
 7130SOL     OW32848   4.184   3.110   8.028  0.0592  0.6959 -0.1397
 7130SOL    HW132849   4.110   3.159   8.062 -1.8080 -1.0994 -1.6678
 7130SOL    HW232850   4.182   3.116   7.933  2.6173 -0.9635 -0.3143
 7131SOL     OW32851   2.525   1.625  16.624  0.1608 -0.2677 -0.1233
 7131SOL    HW132852   2.489   1.667  16.545  1.6822  2.0455  0.4019
 7131SOL    HW232853   2.566   1.702  16.665 -1.4076  0.4814  0.0326
 7132SOL     OW32854   2.822   3.829   7.943 -0.5491 -0.4488 -0.4861
 7132SOL    HW132855   2.784   3.742   7.951 -2.1755  0.1359 -1.8683
 7132SOL    HW232856   2.754   3.884   7.982  0.1615  0.0508  0.0555
 7133SOL     OW32857   2.445   3.020   7.202  0.1384 -0.1013  0.4181
 7133SOL    HW132858   2.379   2.980   7.258  1.1661 -1.7214  0.4907
 7133SOL    HW232859   2.497   3.069   7.266 -1.8248  1.4883  0.7761
 7134SOL     OW32860   0.668   4.187   0.810 -0.0685 -0.0774 -0.0462
 7134SOL    HW132861   0.628   4.125   0.749  3.3502 -3.0313  0.7120
 7134SOL    HW232862   0.715   4.117   0.856  0.7718 -1.0523 -2.4108
 7135SOL     OW32863   1.052   2.784   4.974 -0.0952 -0.3159 -0.0574
 7135SOL    HW132864   1.037   2.745   4.887  1.4605 -1.3274  0.1297
 7135SOL    HW232865   1.148   2.785   4.975 -0.0655 -0.9916 -1.5503
 7136SOL     OW32866   2.795   2.211  11.165  0.1272  0.5663  0.2082
 7136SOL    HW132867   2.804   2.301  11.198  0.5539  0.7165 -0.3300
 7136SOL    HW232868   2.814   2.163  11.246 -1.8749 -0.9580 -0.2489
 7137SOL     OW32869   2.832   0.906  11.450 -0.5684  0.4093 -0.2279
 7137SOL    HW132870   2.864   0.994  11.469  1.6793 -0.1005 -1.6857
 7137SOL    HW232871   2.886   0.871  11.380 -0.4847  0.4274 -0.1725
 7138SOL     OW32872   2.302   4.673  11.732 -0.1131 -0.1435 -0.0161
 7138SOL    HW132873   2.315   0.030  11.685  0.2073  2.1241  4.0130
 7138SOL    HW232874   2.291   4.608  11.663 -0.4721 -1.0583  0.9151
 7139SOL     OW32875   3.584   0.367  10.069 -0.2642  0.0246 -0.2945
 7139SOL    HW132876   3.644   0.429  10.111  2.3038 -3.8233  1.7365
 7139SOL    HW232877   3.545   0.426  10.004 -2.7301 -1.0968  0.1594
 7140SOL     OW32878   4.443   0.391   0.695 -1.0592  0.1415  0.4120
 7140SOL    HW132879   4.369   0.348   0.737 -0.6247 -1.8676 -0.8651
 7140SOL    HW232880   4.512   0.386   0.761  0.6293  0.1165 -1.3404
 7141SOL     OW32881   1.614   3.267   5.357  0.3516 -0.2523 -0.3505
 7141SOL    HW132882   1.575   3.231   5.437  1.8444 -2.2154 -0.4993
 7141SOL    HW232883   1.696   3.218   5.351  1.6744  2.0793 -1.0704
 7142SOL     OW32884   2.978   4.117   8.544 -0.4318  0.1833 -0.2577
 7142SOL    HW132885   2.997   4.194   8.598  3.2440 -1.4615  0.8403
 7142SOL    HW232886   3.064   4.111   8.501 -0.4177 -3.4769  0.2897
 7143SOL     OW32887   3.523   0.735  11.539  0.0095 -0.3997  0.0615
 7143SOL    HW132888   3.616   0.749  11.518 -0.5409  1.8770 -0.7737
 7143SOL    HW232889   3.524   0.740  11.635  0.3587  1.1369 -0.0347
 7144SOL     OW32890   3.439   3.625  13.585 -0.4188  0.1177  0.0400
 7144SOL    HW132891   3.381   3.661  13.518 -0.7791  1.0769  0.8723
 7144SOL    HW232892   3.389   3.643  13.664 -3.3745 -3.1459 -1.0637
 7145SOL     OW32893   0.416   0.739  12.007 -0.0082  0.4183 -0.1043
 7145SOL    HW132894   0.402   0.806  11.939  1.3838  0.6188 -0.1882
 7145SOL    HW232895   0.502   0.765  12.039 -0.0511  0.3723  0.0489
 7146SOL     OW32896   0.581   1.170  17.399  0.3335  0.0387  0.1891
 7146SOL    HW132897   0.510   1.107  17.399  0.8365 -0.5408  1.4660
 7146SOL    HW232898   0.590   1.186  17.494 -0.1648  1.7493 -0.0405
 7147SOL     OW32899   1.216   0.507   4.833  0.2257  0.0904 -0.3945
 7147SOL    HW132900   1.196   0.452   4.908  1.7149 -0.7337 -0.6114
 7147SOL    HW232901   1.284   0.455   4.791  2.5961  1.5686  1.5969
 7148SOL     OW32902   0.708   4.552   6.096  0.3558 -0.1875 -0.1905
 7148SOL    HW132903   0.734   4.466   6.062  0.5651 -0.5000  0.7376
 7148SOL    HW232904   0.648   4.564   6.023 -1.7536  0.5205  1.6559
 7149SOL     OW32905   0.630   3.688  15.227 -0.1339  0.2333  0.0460
 7149SOL    HW132906   0.585   3.651  15.303 -0.6952  0.5154 -0.1471
 7149SOL    HW232907   0.570   3.663  15.157  1.1341 -0.7475 -0.6892
 7150SOL     OW32908   1.724   4.105   3.947  0.0419  0.1905 -0.6295
 7150SOL    HW132909   1.637   4.131   3.976  0.5628  0.9362  0.3010
 7150SOL    HW232910   1.781   4.126   4.022  0.3551  2.3816 -1.4757
 7151SOL     OW32911   1.876   2.459   8.677 -0.3865  0.0020 -0.3488
 7151SOL    HW132912   1.821   2.383   8.657  1.7120 -1.7303  0.5463
 7151SOL    HW232913   1.826   2.488   8.753  1.1517 -0.1391  0.7164
 7152SOL     OW32914   3.084   4.632  15.923 -0.3034  0.0683 -0.5380
 7152SOL    HW132915   3.105   4.653  16.014  2.0692 -0.2320 -1.0251
 7152SOL    HW232916   3.083   4.536  15.916  1.2402  0.1042 -1.1769
 7153SOL     OW32917   0.236   3.662   8.967 -0.1181 -0.2225  0.2750
 7153SOL    HW132918   0.171   3.707   8.914 -0.7959 -1.0106  0.4390
 7153SOL    HW232919   0.316   3.713   8.950  1.5367 -1.8134  3.2224
 7154SOL     OW32920   1.747   2.558  16.339 -0.2456  0.4015  0.2810
 7154SOL    HW132921   1.732   2.647  16.306 -1.4599 -0.2221 -0.8608
 7154SOL    HW232922   1.823   2.571  16.395 -1.0885 -2.2909  2.0408
 7155SOL     OW32923   3.195   0.177   1.237 -0.1562 -0.5654 -0.3410
 7155SOL    HW132924   3.136   0.150   1.166 -0.3843  0.0776 -0.3903
 7155SOL    HW232925   3.161   0.115   1.301 -0.3997 -0.4867 -0.3940
 7156SOL     OW32926   2.056   2.391  11.119  0.1220  0.4937 -0.5530
 7156SOL    HW132927   1.988   2.372  11.055  0.6430 -0.6527 -0.7513
 7156SOL    HW232928   2.009   2.466  11.156  0.0110 -0.5589  1.4221
 7157SOL     OW32929   1.019   3.590   7.220  0.3013  0.3360  0.1974
 7157SOL    HW132930   1.061   3.518   7.267 -0.3321 -0.6643 -0.7267
 7157SOL    HW232931   1.044   3.571   7.129  0.0119 -1.3825  0.4725
 7158SOL     OW32932   1.438   1.295   8.571  0.0980  0.0143 -0.1330
 7158SOL    HW132933   1.503   1.225   8.580 -0.4337 -0.5667 -0.8112
 7158SOL    HW232934   1.355   1.248   8.574 -0.2633  0.5417 -1.8202
 7159SOL     OW32935   0.989   0.518  12.852 -0.3189  0.5430  0.0043
 7159SOL    HW132936   0.947   0.435  12.831  1.9640 -1.2608  2.4467
 7159SOL    HW232937   1.051   0.530  12.780  0.9975  0.3169  1.0876
 7160SOL     OW32938   2.337   3.841   6.861  0.2196  0.3331  0.0880
 7160SOL    HW132939   2.272   3.856   6.792 -0.9962  0.6359  1.3039
 7160SOL    HW232940   2.397   3.915   6.866  0.2219  0.3733 -0.5904
 7161SOL     OW32941   3.154   2.592   7.435 -0.0496 -0.2468 -0.4318
 7161SOL    HW132942   3.205   2.529   7.486 -0.8684 -0.1449  0.4927
 7161SOL    HW232943   3.067   2.555   7.421 -0.1237 -0.1653 -0.1878
 7162SOL     OW32944   1.929   1.362   0.680 -0.1728  0.5239  0.4643
 7162SOL    HW132945   1.993   1.310   0.631  0.1108  0.2866  1.0866
 7162SOL    HW232946   1.975   1.444   0.693  0.8526  0.1020 -0.5894
 7163SOL     OW32947   3.748   4.004   3.220 -0.5724  0.0508 -0.6658
 7163SOL    HW132948   3.746   3.912   3.244  2.8440  0.0137 -0.5243
 7163SOL    HW232949   3.783   4.003   3.131  0.7006 -0.3247 -0.1680
 7164SOL     OW32950   1.752   1.679   5.160  0.2241 -0.0570 -0.0309
 7164SOL    HW132951   1.690   1.752   5.163  0.5329  0.0797  2.6899
 7164SOL    HW232952   1.805   1.709   5.086 -0.0686 -0.2494 -0.3211
 7165SOL     OW32953   2.556   1.351   5.918 -0.3954 -0.0709 -0.0709
 7165SOL    HW132954   2.581   1.297   5.992  0.3017  0.3442 -0.0006
 7165SOL    HW232955   2.597   1.436   5.937 -1.0545  0.3011 -0.2850
 7166SOL     OW32956   2.555   0.116   0.921  0.9548  0.0721  0.3781
 7166SOL    HW132957   2.534   0.051   0.854  1.3324 -0.4075  0.7233
 7166SOL    HW232958   2.487   0.180   0.902  0.7187  0.1163  1.3799
 7167SOL     OW32959   2.791   3.802  11.719 -0.8340  0.2586  0.1015
 7167SOL    HW132960   2.704   3.788  11.754 -0.0417  0.0029  1.9611
 7167SOL    HW232961   2.835   3.839  11.796  0.8909 -0.9189 -0.3176
 7168SOL     OW32962   0.415   0.130   2.431  0.1901  0.3954 -0.1383
 7168SOL    HW132963   0.407   0.094   2.343 -0.3008  0.6529 -0.1990
 7168SOL    HW232964   0.345   0.085   2.479 -0.4983  0.7472 -0.8119
 7169SOL     OW32965   4.315   1.274  17.228  0.5315  0.2213  0.6700
 7169SOL    HW132966   4.314   1.242  17.318  0.8645  0.9696  0.9368
 7169SOL    HW232967   4.259   1.209  17.184 -1.1192  0.7343  2.0254
 7170SOL     OW32968   2.410   0.631  10.461 -0.0333  0.3161 -0.0258
 7170SOL    HW132969   2.471   0.695  10.498  1.3964 -0.5795 -0.8515
 7170SOL    HW232970   2.347   0.618  10.532  0.2271  0.2062  0.1861
 7171SOL     OW32971   3.639   1.443   5.245  0.4530 -0.1291  0.6312
 7171SOL    HW132972   3.699   1.390   5.192 -0.5659 -0.5747 -0.0836
 7171SOL    HW232973   3.690   1.464   5.323 -0.7862  0.3310  1.3119
 7172SOL     OW32974   0.069   0.141   4.009 -0.3595 -0.1211  0.6618
 7172SOL    HW132975   0.073   0.114   3.917 -2.3337  0.3066  0.4494
 7172SOL    HW232976   0.030   0.069   4.060 -3.2898  0.1775 -1.1628
 7173SOL     OW32977   1.700   1.221   7.484  0.5411  0.0584 -0.4404
 7173SOL    HW132978   1.732   1.192   7.569  0.0507 -2.3495 -1.0635
 7173SOL    HW232979   1.707   1.316   7.497 -2.9240  0.1781  0.5394
 7174SOL     OW32980   1.626   3.577  17.409 -0.0762  0.2937  0.1900
 7174SOL    HW132981   1.670   3.602  17.328 -2.0973 -0.8498 -1.2535
 7174SOL    HW232982   1.599   3.666  17.434 -1.9723 -0.3201  0.3434
 7175SOL     OW32983   2.408   0.141   6.383  0.0528  0.3146 -0.5242
 7175SOL    HW132984   2.356   0.062   6.399  1.0568 -0.6052 -1.8540
 7175SOL    HW232985   2.439   0.133   6.293  2.9799 -1.6155  0.6203
 7176SOL     OW32986   1.888   3.194  12.893  0.2417  0.0762 -0.1745
 7176SOL    HW132987   1.955   3.224  12.832  1.4586 -2.4914 -0.0684
 7176SOL    HW232988   1.923   3.119  12.940  0.1636 -0.1360 -0.4501
 7177SOL     OW32989   3.605   3.886  11.469  0.0199 -0.1374  0.5192
 7177SOL    HW132990   3.603   3.867  11.563  1.8057 -2.1565  0.1554
 7177SOL    HW232991   3.653   3.969  11.464  3.4096 -2.0624  0.8442
 7178SOL     OW32992   0.989   3.938   3.420 -0.4315  0.3421 -0.1788
 7178SOL    HW132993   1.008   3.945   3.327  0.3820  0.6513  0.0130
 7178SOL    HW232994   0.985   3.842   3.415  1.2837  0.1591  2.0999
 7179SOL     OW32995   2.626   4.021   9.091 -0.3615 -0.0224 -0.1433
 7179SOL    HW132996   2.696   3.983   9.144  0.8345  1.0444 -0.9646
 7179SOL    HW232997   2.621   3.953   9.025 -0.3812  1.5755 -1.7940
 7180SOL     OW32998   3.901   4.275   9.788  0.2762  0.0447 -0.4017
 7180SOL    HW132999   3.843   4.340   9.828  0.6909 -0.0246  0.2975
 7180SOL    HW233000   3.839   4.210   9.754 -0.7345  1.1396 -0.6506
 7181SOL     OW33001   4.048   3.764   4.274  0.2364  0.2350  0.0511
 7181SOL    HW133002   4.087   3.684   4.239  0.5475  0.2443  0.3768
 7181SOL    HW233003   3.961   3.766   4.233 -0.4074  1.9145  1.5061
 7182SOL     OW33004   4.042   1.567   9.434 -0.4023 -0.1239  0.4698
 7182SOL    HW133005   4.060   1.478   9.404  0.3047  0.6084 -1.2797
 7182SOL    HW233006   4.122   1.604   9.471 -0.3161  0.4446 -0.2922
 7183SOL     OW33007   0.329   0.947  12.639 -0.1195 -0.2667  0.2544
 7183SOL    HW133008   0.344   0.867  12.588  0.7148 -2.2843  3.6408
 7183SOL    HW233009   0.244   0.936  12.680  1.6443 -0.6479  3.8612
 7184SOL     OW33010   1.621   2.394   1.337  0.2148  0.2954 -0.4155
 7184SOL    HW133011   1.576   2.362   1.415 -0.2518 -1.0998 -1.2640
 7184SOL    HW233012   1.596   2.326   1.274 -0.4655 -1.7476  2.0837
 7185SOL     OW33013   3.611   4.091  10.079 -0.2139  0.1082 -0.4202
 7185SOL    HW133014   3.677   4.160  10.082  0.5685 -0.7123  1.4814
 7185SOL    HW233015   3.646   4.035  10.009 -1.3007 -1.8035  0.5613
 7186SOL     OW33016   2.465   4.306   5.756 -0.0016  0.4614  0.0867
 7186SOL    HW133017   2.459   4.224   5.707  0.0050  0.3653  0.2481
 7186SOL    HW233018   2.383   4.348   5.728 -1.0304 -1.9736 -0.5818
 7187SOL     OW33019   2.868   1.728   4.419 -0.3396 -0.1429 -0.6608
 7187SOL    HW133020   2.852   1.819   4.442 -2.1123  0.1181 -2.9508
 7187SOL    HW233021   2.948   1.739   4.368 -0.6764  2.2087 -0.6555
 7188SOL     OW33022   3.011   3.871   8.139 -0.0239 -0.2787 -0.0195
 7188SOL    HW133023   2.953   3.881   8.064 -1.9123 -2.5433  1.1488
 7188SOL    HW233024   3.052   3.957   8.149 -0.7294  0.1121 -0.5077
 7189SOL     OW33025   0.143   4.334   3.691  0.5569 -0.4650 -0.1776
 7189SOL    HW133026   0.156   4.273   3.618  0.3837  0.4942 -1.0061
 7189SOL    HW233027   0.214   4.397   3.674  1.3653 -0.9734  1.3247
 7190SOL     OW33028   2.032   1.953   3.315 -0.3766 -0.5299 -0.9154
 7190SOL    HW133029   2.046   2.047   3.309  0.7323 -0.5677  1.2218
 7190SOL    HW233030   2.118   1.920   3.289  0.9739  2.5486 -0.2996
 7191SOL     OW33031   2.613   3.456   3.186  0.1011 -0.5983  0.0676
 7191SOL    HW133032   2.583   3.367   3.169 -1.3324 -0.2880  1.0277
 7191SOL    HW233033   2.576   3.505   3.113 -1.4905 -1.7371  0.1071
 7192SOL     OW33034   1.407   4.638   8.228  0.3783  0.3645 -0.2366
 7192SOL    HW133035   1.374   4.595   8.307  3.0347 -1.6267 -0.2011
 7192SOL    HW233036   1.386   0.001   8.258  0.6918 -0.7252  3.1641
 7193SOL     OW33037   2.645   3.102  11.368  0.0738 -0.2030  0.2906
 7193SOL    HW133038   2.563   3.060  11.341  0.3612  0.7760 -2.0893
 7193SOL    HW233039   2.704   3.100  11.292  0.1101  1.9469  0.2783
 7194SOL     OW33040   3.953   2.802   6.051 -0.0386 -0.3158 -0.2842
 7194SOL    HW133041   4.048   2.789   6.050  0.0805  0.6841 -1.4329
 7194SOL    HW233042   3.946   2.836   5.962 -2.6177 -1.7469 -0.6515
 7195SOL     OW33043   1.509   4.428   2.245  0.0897 -0.3339  0.2565
 7195SOL    HW133044   1.481   4.338   2.261 -0.6758 -0.4702 -1.9020
 7195SOL    HW233045   1.428   4.471   2.219 -1.3053 -0.0132  5.2251
 7196SOL     OW33046   3.465   0.220  13.329 -0.0106 -0.4256  0.3890
 7196SOL    HW133047   3.392   0.162  13.351 -0.1740  0.1960  1.5192
 7196SOL    HW233048   3.444   0.301  13.374 -0.4652  0.9280 -2.3060
 7197SOL     OW33049   1.112   3.041  13.035  0.1515 -0.0200  0.2282
 7197SOL    HW133050   1.102   3.073  13.125  0.6403  0.8480 -0.0220
 7197SOL    HW233051   1.141   2.952  13.053 -1.3253 -0.5897 -0.1749
 7198SOL     OW33052   1.381   0.602   7.277 -0.4134 -0.4844 -0.2693
 7198SOL    HW133053   1.459   0.658   7.286 -1.5872  1.1145 -0.0670
 7198SOL    HW233054   1.324   0.645   7.340  1.1293  0.2510  0.6438
 7199SOL     OW33055   3.477   0.904   1.793 -0.1890  0.3858 -0.2975
 7199SOL    HW133056   3.449   0.842   1.860 -1.2791  1.0296 -0.1460
 7199SOL    HW233057   3.566   0.915   1.825 -0.0185  1.4159 -1.1451
 7200SOL     OW33058   3.675   4.304   6.275  0.4054 -0.2499 -0.1861
 7200SOL    HW133059   3.593   4.346   6.300  0.6156 -1.4010  2.5328
 7200SOL    HW233060   3.712   4.298   6.363 -0.9347 -1.2699  0.3087
 7201SOL     OW33061   3.192   1.297  16.563 -0.4616  0.0594  0.9115
 7201SOL    HW133062   3.176   1.211  16.602 -0.4718 -1.0767 -1.5917
 7201SOL    HW233063   3.147   1.342  16.634 -1.1551  0.0241  0.4868
 7202SOL     OW33064   1.278   2.487  10.251  0.0779  0.4837 -0.2391
 7202SOL    HW133065   1.272   2.409  10.197 -0.8365  1.1332 -1.0855
 7202SOL    HW233066   1.286   2.446  10.337 -0.2843  0.9384  0.0141
 7203SOL     OW33067   1.190   1.871   3.881  0.2157 -0.8824 -0.0046
 7203SOL    HW133068   1.189   1.966   3.878 -1.3091 -0.9663 -2.7831
 7203SOL    HW233069   1.265   1.843   3.829  0.9536 -0.3279  0.7710
 7204SOL     OW33070   3.245   2.862   7.538 -0.1036  0.0066  0.2831
 7204SOL    HW133071   3.153   2.871   7.566 -0.1781  0.9744 -0.2723
 7204SOL    HW233072   3.249   2.769   7.516 -0.4487  0.1717 -0.4880
 7205SOL     OW33073   1.099   1.081   2.081  0.0704 -0.1144  0.5931
 7205SOL    HW133074   1.113   0.988   2.066  0.1088  0.6891 -4.3976
 7205SOL    HW233075   1.180   1.116   2.118  0.1956  1.1734 -0.9067
 7206SOL     OW33076   2.659   4.476  11.613  0.0169  1.2133 -0.7368
 7206SOL    HW133077   2.665   4.533  11.690 -0.2895  0.4622 -0.1490
 7206SOL    HW233078   2.720   4.410  11.647 -1.4412  0.7716  1.0726
 7207SOL     OW33079   0.972   1.128  11.158 -0.7006 -0.2614  0.4310
 7207SOL    HW133080   1.057   1.091  11.180 -0.9377 -1.3858 -0.5155
 7207SOL    HW233081   0.982   1.219  11.186 -0.9034  0.4113 -1.6246
 7208SOL     OW33082   4.036   0.783   1.791 -0.1542  0.7996 -1.0238
 7208SOL    HW133083   3.962   0.843   1.781  0.2354  1.6102  1.0527
 7208SOL    HW233084   4.003   0.721   1.857  0.4089  0.2601 -1.2564
 7209SOL     OW33085   1.315   2.187   0.606 -0.3772  0.0941 -0.1174
 7209SOL    HW133086   1.300   2.202   0.513 -1.3573 -0.7661 -0.0925
 7209SOL    HW233087   1.338   2.277   0.629 -0.9219 -0.0513  1.0190
 7210SOL     OW33088   1.628   3.545   0.390  0.2095 -0.2427  0.2454
 7210SOL    HW133089   1.724   3.553   0.392 -0.0213  2.2082  1.3269
 7210SOL    HW233090   1.604   3.573   0.301  0.4145 -3.3265 -0.7734
 7211SOL     OW33091   2.634   4.019   8.057  0.8744 -0.4504  0.1553
 7211SOL    HW133092   2.564   3.988   8.000 -0.2942  2.0654  0.2107
 7211SOL    HW233093   2.578   4.043   8.131 -0.5638 -2.6480 -0.2346
 7212SOL     OW33094   4.089   0.475   7.325 -0.1653  0.7190 -0.0909
 7212SOL    HW133095   4.104   0.498   7.417 -2.2712  0.4546  0.2988
 7212SOL    HW233096   4.143   0.396   7.317 -1.8967 -0.5096  0.3048
 7213SOL     OW33097   3.697   1.060  13.262  0.2165 -0.2382  0.5115
 7213SOL    HW133098   3.645   0.985  13.235  0.1305 -0.1476  0.4248
 7213SOL    HW233099   3.632   1.125  13.290 -2.2969 -2.2178 -0.8191
 7214SOL     OW33100   0.790   1.968   2.578 -0.0364  0.0934 -0.2453
 7214SOL    HW133101   0.729   2.023   2.530  1.2854  0.5950 -1.3363
 7214SOL    HW233102   0.736   1.890   2.596  1.2970  0.0142  3.5655
 7215SOL     OW33103   1.404   2.449  16.078 -0.1243 -0.1116  0.0085
 7215SOL    HW133104   1.461   2.372  16.086 -0.0293 -0.0920 -0.4486
 7215SOL    HW233105   1.442   2.494  16.002 -0.1057 -1.0165 -0.5183
 7216SOL     OW33106   2.064   3.733  14.288 -0.5334 -0.4871 -0.0969
 7216SOL    HW133107   2.040   3.664  14.227 -2.1874 -0.3375  0.3872
 7216SOL    HW233108   2.081   3.690  14.371  0.9460 -0.0310 -0.1617
 7217SOL     OW33109   3.167   2.687   8.947  0.0183  0.2148 -0.2088
 7217SOL    HW133110   3.110   2.718   9.017  1.3509  0.8830  0.5805
 7217SOL    HW233111   3.099   2.646   8.894 -0.4398 -0.5047  0.9486
 7218SOL     OW33112   2.010   1.262   3.989 -0.3843  0.0121  0.2943
 7218SOL    HW133113   1.940   1.196   3.982  2.2649 -2.9606  1.8370
 7218SOL    HW233114   1.980   1.322   3.920  0.9171 -1.2511 -1.3801
 7219SOL     OW33115   1.813   2.227   8.250 -0.2783  0.0380 -0.0592
 7219SOL    HW133116   1.848   2.169   8.318  2.1809 -0.8396 -2.0868
 7219SOL    HW233117   1.860   2.308   8.269 -0.3252  0.7163 -2.8893
 7220SOL     OW33118   0.879   3.007   5.846 -0.4061  0.1579 -0.3947
 7220SOL    HW133119   0.895   2.971   5.759 -4.0659  2.6202 -2.0848
 7220SOL    HW233120   0.902   2.934   5.903 -2.3633  0.0022  0.1814
 7221SOL     OW33121   1.825   2.840   5.356  0.2961  0.0275  0.1047
 7221SOL    HW133122   1.920   2.827   5.353  0.6787  3.3436 -2.0992
 7221SOL    HW233123   1.812   2.800   5.442  0.0174  0.9995  0.5157
 7222SOL     OW33124   0.396   3.133   7.780 -0.3339 -0.1295  0.5926
 7222SOL    HW133125   0.328   3.075   7.815 -1.1899  0.6392  0.1760
 7222SOL    HW233126   0.452   3.143   7.857 -1.2645  0.0344  1.2520
 7223SOL     OW33127   1.441   2.963   1.881  0.0624 -0.5470 -0.1481
 7223SOL    HW133128   1.518   3.018   1.870 -0.6447  0.6431  0.9739
 7223SOL    HW233129   1.385   3.013   1.939  1.1642 -0.0851  0.5123
 7224SOL     OW33130   4.615   4.383   3.936 -0.1942  0.1182  0.0175
 7224SOL    HW133131   4.546   4.435   3.977 -0.6226 -1.2665  1.0268
 7224SOL    HW233132   4.586   4.297   3.965 -1.2031  0.5120  0.1578
 7225SOL     OW33133   3.319   2.963  17.155  0.4361  0.2004  0.2018
 7225SOL    HW133134   3.238   3.010  17.136  0.9394  1.6807  1.7669
 7225SOL    HW233135   3.339   2.965  17.248  0.5684 -1.5389  0.2167
 7226SOL     OW33136   0.540   4.065   2.747  0.0932  0.5064  0.1024
 7226SOL    HW133137   0.550   3.999   2.816  1.8642  0.1506 -0.4947
 7226SOL    HW233138   0.612   4.036   2.691  1.3730  0.5983  1.6921
 7227SOL     OW33139   0.231   3.295   5.246  0.9453 -0.3182 -0.3479
 7227SOL    HW133140   0.316   3.317   5.206 -0.1565  0.0342 -2.4741
 7227SOL    HW233141   0.173   3.262   5.178 -0.1195  3.2548 -1.1925
 7228SOL     OW33142   3.862   2.654   8.292  0.1162 -0.2118 -0.1792
 7228SOL    HW133143   3.950   2.628   8.266  0.2312  0.0568 -0.0629
 7228SOL    HW233144   3.808   2.589   8.249 -0.6738  0.0222  0.4584
 7229SOL     OW33145   4.537   3.069  13.633 -0.1501  0.0997 -0.5092
 7229SOL    HW133146   4.468   3.110  13.582 -1.3175 -3.0005 -1.4402
 7229SOL    HW233147   4.572   3.149  13.672 -2.1428  1.2905 -1.2010
 7230SOL     OW33148   4.372   4.556   6.006  0.0746 -0.0153 -0.0967
 7230SOL    HW133149   4.288   4.535   5.965 -0.4111  0.5227  0.6315
 7230SOL    HW233150   4.419   4.608   5.940 -2.0804  0.4609 -1.2385
 7231SOL     OW33151   2.055   4.204   0.039 -0.3578  0.1472  0.0015
 7231SOL    HW133152   1.971   4.196  17.698  0.1494  0.5741 -1.0384
 7231SOL    HW233153   2.039   4.282   0.093 -0.0549 -0.1665  0.5487
 7232SOL     OW33154   0.758   2.169   5.164  0.5046 -0.3453  0.2865
 7232SOL    HW133155   0.820   2.229   5.121 -0.6290  0.2909 -0.4677
 7232SOL    HW233156   0.789   2.164   5.254  1.8554 -0.5882 -0.1969
 7233SOL     OW33157   1.013   3.130   2.553 -1.0382 -0.0133 -0.4080
 7233SOL    HW133158   1.108   3.122   2.562 -0.9356 -0.2347 -1.6829
 7233SOL    HW233159   0.989   3.056   2.496 -0.7454 -0.3734 -0.0622
 7234SOL     OW33160   0.105   0.396   8.309 -0.0124 -0.2892 -0.2434
 7234SOL    HW133161   0.089   0.430   8.397  0.0974  0.9871 -0.7138
 7234SOL    HW233162   0.066   0.458   8.248 -1.0571  0.4827  1.1912
 7235SOL     OW33163   1.834   3.343  11.201 -0.2282  0.3420 -0.7246
 7235SOL    HW133164   1.840   3.271  11.264 -2.1384  1.8728  1.2082
 7235SOL    HW233165   1.776   3.400  11.251  2.4116  0.5600  2.0501
 7236SOL     OW33166   0.775   0.338  10.880  0.0789  0.3622  0.5462
 7236SOL    HW133167   0.733   0.257  10.852  0.8199  0.6984 -1.5583
 7236SOL    HW233168   0.853   0.312  10.931 -0.7516 -0.3938  1.4345
 7237SOL     OW33169   1.423   3.901   6.845 -0.1517 -0.5099 -0.0440
 7237SOL    HW133170   1.456   3.905   6.755  0.1070 -1.8411 -0.0083
 7237SOL    HW233171   1.489   3.942   6.901  0.6438  0.3565 -1.5987
 7238SOL     OW33172   0.640   0.964   7.140 -0.0805  0.0302 -0.1145
 7238SOL    HW133173   0.586   1.015   7.201 -0.3158  0.3150 -0.5569
 7238SOL    HW233174   0.571   0.955   7.073  0.9514 -3.2898 -0.7431
 7239SOL     OW33175   1.286   2.724   9.280  0.4556  0.0741 -0.1408
 7239SOL    HW133176   1.285   2.696   9.188 -1.6158 -1.0790  0.2330
 7239SOL    HW233177   1.225   2.797   9.287 -1.7899 -1.8388  0.2443
 7240SOL     OW33178   2.047   1.866   5.401 -0.8746 -0.1855 -0.5012
 7240SOL    HW133179   2.104   1.897   5.472 -1.2278 -2.4322  0.7282
 7240SOL    HW233180   2.007   1.952   5.384  0.2473  0.4924  0.2517
 7241SOL     OW33181   4.480   4.126   3.829 -0.1565 -0.1848  0.1419
 7241SOL    HW133182   4.504   4.102   3.739 -0.0345 -1.9425  0.6452
 7241SOL    HW233183   4.463   4.041   3.869  1.5200 -0.7750 -0.3893
 7242SOL     OW33184   4.686   1.953   9.117 -0.7077 -0.0570 -0.2643
 7242SOL    HW133185   4.612   1.976   9.060 -0.4869 -0.5731 -0.7647
 7242SOL    HW233186   4.705   1.860   9.110 -0.4499 -0.2652  3.1278
 7243SOL     OW33187   0.740   4.124   4.072 -0.1946 -0.0297  0.2640
 7243SOL    HW133188   0.782   4.051   4.027  4.4056  1.8792  1.3991
 7243SOL    HW233189   0.673   4.150   4.009 -0.4481  0.6484  0.8224
 7244SOL     OW33190   1.291   1.041   4.393  0.0815  0.4003  0.0034
 7244SOL    HW133191   1.282   1.087   4.309 -0.9490 -1.1333 -0.7114
 7244SOL    HW233192   1.364   0.983   4.372  0.3098  0.3992  0.8057
 7245SOL     OW33193   3.206   4.179   3.878 -0.5062  0.1640 -0.4003
 7245SOL    HW133194   3.194   4.145   3.967 -1.0749  1.5819  0.0719
 7245SOL    HW233195   3.272   4.125   3.835 -0.3733  0.2862 -0.3486
 7246SOL     OW33196   1.372   3.787   2.732 -0.2601  0.2112  0.1873
 7246SOL    HW133197   1.449   3.844   2.736 -1.0675  1.2365  1.2529
 7246SOL    HW233198   1.322   3.805   2.812 -0.1499  1.5545 -0.0389
 7247SOL     OW33199   2.458   0.398  15.225  0.1716  0.1984 -0.2116
 7247SOL    HW133200   2.442   0.408  15.131 -1.1186 -1.6741 -0.1832
 7247SOL    HW233201   2.424   0.309  15.231  2.0760 -0.4665  0.9258
 7248SOL     OW33202   0.995   2.637   4.770  0.4925  0.3738 -0.0261
 7248SOL    HW133203   1.047   2.602   4.697  2.1468  1.3660  0.6787
 7248SOL    HW233204   0.982   2.727   4.737  0.4685  0.2546 -0.3437
 7249SOL     OW33205   2.430   3.322   1.548  0.4484  0.4088  0.1273
 7249SOL    HW133206   2.340   3.353   1.554 -0.5767 -1.8609 -3.2141
 7249SOL    HW233207   2.434   3.280   1.462  0.9325  0.6996  0.0089
 7250SOL     OW33208   4.318   2.948   6.850  0.2737 -0.2626  0.2199
 7250SOL    HW133209   4.346   2.989   6.932 -2.0567  2.1312 -0.1966
 7250SOL    HW233210   4.308   2.857   6.876 -0.2374 -0.7098 -1.5089
 7251SOL     OW33211   3.300   2.074   6.640 -0.3024  0.5308 -0.1771
 7251SOL    HW133212   3.336   2.099   6.725 -1.4260 -0.3958  0.5837
 7251SOL    HW233213   3.207   2.056   6.657 -0.5734  1.2009 -0.9680
 7252SOL     OW33214   3.780   1.512   4.327  0.1458 -0.4263 -0.0503
 7252SOL    HW133215   3.849   1.536   4.266 -0.8874 -0.6287 -1.3071
 7252SOL    HW233216   3.825   1.445   4.379  0.1216 -0.3338  0.0909
 7253SOL     OW33217   0.913   1.227   6.478 -0.0004  0.4357 -0.1867
 7253SOL    HW133218   0.957   1.209   6.562 -1.6533 -0.4519  0.4840
 7253SOL    HW233219   0.992   1.253   6.431  0.6411 -0.9491  0.1029
 7254SOL     OW33220   2.269   3.637   0.913  0.2010  0.1107 -0.1840
 7254SOL    HW133221   2.350   3.632   0.965 -0.7528  2.3018  1.5085
 7254SOL    HW233222   2.293   3.571   0.848  2.2677 -0.0462  0.7178
 7255SOL     OW33223   4.479   1.549   0.531  0.0368  0.1961 -0.2688
 7255SOL    HW133224   4.522   1.505   0.458  1.2955  1.0904 -0.0638
 7255SOL    HW233225   4.549   1.612   0.550 -0.7928  0.7324  0.9937
 7256SOL     OW33226   0.295   0.899  11.743 -0.5308 -0.0053  0.1701
 7256SOL    HW133227   0.357   0.971  11.758 -1.1559  0.4143  0.7703
 7256SOL    HW233228   0.312   0.879  11.651  2.1839  1.4114  0.3787
 7257SOL     OW33229   3.588   3.722  15.304 -0.5310 -0.2359 -0.2278
 7257SOL    HW133230   3.543   3.803  15.278 -2.3963 -1.1110  0.2216
 7257SOL    HW233231   3.676   3.748  15.278  0.0269 -1.4450  0.4154
 7258SOL     OW33232   0.454   1.054  17.641 -0.0431  0.2434  0.1334
 7258SOL    HW133233   0.385   1.052   0.004  1.6968 -1.4454  1.8662
 7258SOL    HW233234   0.498   1.138  17.657  1.1970 -0.7854  1.9824
 7259SOL     OW33235   3.031   0.217   7.200 -0.3397  0.0860 -0.1893
 7259SOL    HW133236   3.045   0.266   7.281 -2.7118  0.7070 -0.1588
 7259SOL    HW233237   3.017   0.127   7.230  1.4032 -0.3599 -0.7128
 7260SOL     OW33238   2.739   1.910  10.166  0.2425 -0.2127 -0.1523
 7260SOL    HW133239   2.809   1.974  10.154 -0.6062  0.8750  0.8166
 7260SOL    HW233240   2.698   1.936  10.248  0.7737  1.2228 -0.3408
 7261SOL     OW33241   3.931   0.624   9.014  0.0415  0.2872  0.4521
 7261SOL    HW133242   4.003   0.563   9.027 -1.5570 -1.8565 -0.5762
 7261SOL    HW233243   3.932   0.653   9.105  0.2628 -1.3763  0.9874
 7262SOL     OW33244   1.587   3.195   1.218  0.6335 -0.1368  0.0497
 7262SOL    HW133245   1.566   3.212   1.309 -0.3920  0.9184 -0.3782
 7262SOL    HW233246   1.645   3.119   1.218  1.9304  0.8476  1.4580
 7263SOL     OW33247   4.543   3.049   8.535 -0.4413  0.0562  0.0006
 7263SOL    HW133248   4.476   3.049   8.603  0.9751  5.8839  1.3822
 7263SOL    HW233249   4.551   2.956   8.513  0.3276 -0.1178  1.0706
 7264SOL     OW33250   4.014   1.110   3.869  0.1063  0.2451  0.1725
 7264SOL    HW133251   4.070   1.036   3.845 -0.2144 -1.0779  3.5640
 7264SOL    HW233252   3.926   1.078   3.848  0.4482 -0.2212 -0.5479
 7265SOL     OW33253   3.201   1.125   5.283 -0.1177 -1.0125 -0.4330
 7265SOL    HW133254   3.240   1.064   5.346  0.5539 -1.6967 -1.4990
 7265SOL    HW233255   3.266   1.194   5.271 -2.7180  1.2662 -1.3434
 7266SOL     OW33256   4.556   4.282   0.672 -0.6598 -0.0869 -0.3451
 7266SOL    HW133257   4.530   4.192   0.654 -0.7799 -0.3974  1.3245
 7266SOL    HW233258   4.621   4.276   0.743  1.1786 -1.2555 -2.1265
 7267SOL     OW33259   0.960   1.568  16.219  0.5605 -0.8599  0.0224
 7267SOL    HW133260   0.901   1.620  16.274  1.8907  1.3194 -0.6001
 7267SOL    HW233261   0.959   1.485  16.266  1.3494 -1.3081 -0.7724
 7268SOL     OW33262   3.077   0.640   7.116  0.1525  0.6250  0.4332
 7268SOL    HW133263   2.998   0.606   7.158 -0.8222  0.5228 -1.4598
 7268SOL    HW233264   3.102   0.702   7.184  3.1762 -1.5632  1.3071
 7269SOL     OW33265   1.192   2.381   3.970 -0.7111  0.4929 -0.5293
 7269SOL    HW133266   1.099   2.397   3.960 -0.6395  1.9992  1.2875
 7269SOL    HW233267   1.232   2.439   3.905  0.7445  1.4527  1.2091
 7270SOL     OW33268   0.706   3.076   1.794 -0.0122  0.7407 -0.6115
 7270SOL    HW133269   0.712   2.999   1.738  0.8973 -0.6523  1.3988
 7270SOL    HW233270   0.614   3.097   1.781 -0.1039  0.4405 -0.4419
 7271SOL     OW33271   3.657   0.640   1.773 -0.3287  0.4022  0.0249
 7271SOL    HW133272   3.668   0.609   1.684 -0.4508 -1.2559  0.5967
 7271SOL    HW233273   3.697   0.727   1.777 -1.5850  0.9936 -0.2088
 7272SOL     OW33274   1.041   3.765  14.972 -0.1406 -0.3524 -0.8354
 7272SOL    HW133275   1.056   3.795  15.061  1.8759  1.4311 -1.7674
 7272SOL    HW233276   1.133   3.750  14.948  0.1047  1.7611 -1.1802
 7273SOL     OW33277   0.980   1.252   1.685  0.2533 -0.2123  0.2614
 7273SOL    HW133278   1.050   1.189   1.669 -0.2137 -0.1492 -2.0777
 7273SOL    HW233279   0.980   1.244   1.780 -0.7788  0.9874  0.3695
 7274SOL     OW33280   2.942   0.334   2.719  0.1077 -0.4668 -0.4293
 7274SOL    HW133281   2.907   0.404   2.664  0.0013  1.0467  1.5342
 7274SOL    HW233282   2.866   0.307   2.772  1.8321  0.1426  2.3430
 7275SOL     OW33283   2.594   0.265   5.676  0.6530  0.5055 -0.1055
 7275SOL    HW133284   2.635   0.348   5.697  0.9060 -0.2067  2.1733
 7275SOL    HW233285   2.670   0.239   5.624 -0.9021  0.1651 -2.2059
 7276SOL     OW33286   0.398   1.307   4.381  0.2377  0.4145  0.3930
 7276SOL    HW133287   0.466   1.254   4.423  2.1939  1.7751 -1.0444
 7276SOL    HW233288   0.394   1.278   4.290  1.2130 -2.4968  1.2451
 7277SOL     OW33289   0.651   2.712  10.265 -0.2527  0.3799  0.1710
 7277SOL    HW133290   0.735   2.726  10.221 -0.0735 -1.6679 -0.1135
 7277SOL    HW233291   0.678   2.714  10.357 -0.9159 -2.4662  0.4130
 7278SOL     OW33292   3.670   3.941  14.488 -0.5163 -0.8214 -0.4149
 7278SOL    HW133293   3.706   3.885  14.420 -1.1745  2.1769 -3.2707
 7278SOL    HW233294   3.737   3.918  14.552  0.6325 -0.4546 -1.4878
 7279SOL     OW33295   3.233   0.722   7.571 -0.2472 -0.0442  0.4827
 7279SOL    HW133296   3.145   0.692   7.548 -0.2315  1.0587 -1.1072
 7279SOL    HW233297   3.288   0.646   7.554  0.7821  0.6203  0.8724
 7280SOL     OW33298   3.326   3.792   2.390  0.0841 -0.4744 -0.2085
 7280SOL    HW133299   3.417   3.762   2.382  0.8576  1.5956  1.0337
 7280SOL    HW233300   3.306   3.827   2.303  0.2041 -1.2247 -0.5444
 7281SOL     OW33301   0.578   4.117  15.230  0.7087  0.2302  0.3220
 7281SOL    HW133302   0.663   4.161  15.228  1.5691 -1.2001  3.7558
 7281SOL    HW233303   0.583   4.061  15.154  4.8216  0.4224  0.4369
 7282SOL     OW33304   2.378   1.407  16.648 -0.4614  0.1589  0.7542
 7282SOL    HW133305   2.347   1.417  16.559 -2.3182 -0.8487  1.2971
 7282SOL    HW233306   2.448   1.472  16.650  0.0031 -0.3200  0.1292
 7283SOL     OW33307   2.351   4.358   6.979  1.1230 -0.2137  0.6181
 7283SOL    HW133308   2.443   4.376   7.002  0.9534  1.0037  0.3151
 7283SOL    HW233309   2.308   4.383   7.061 -1.0657  0.9563 -0.9153
 7284SOL     OW33310   1.554   0.933   4.404  0.3065  0.0355 -0.5986
 7284SOL    HW133311   1.603   1.006   4.368  0.8188  0.1749  0.3929
 7284SOL    HW233312   1.584   0.864   4.344  0.9123 -1.0170  0.9414
 7285SOL     OW33313   2.317   0.699   6.657  0.5509  0.5827 -0.0604
 7285SOL    HW133314   2.354   0.653   6.732 -1.6204  3.3912  2.6954
 7285SOL    HW233315   2.240   0.644   6.643 -0.3358  2.0945 -1.1636
 7286SOL     OW33316   3.307   2.447  16.087  0.0773  0.0306  0.5966
 7286SOL    HW133317   3.287   2.508  16.016  1.0949 -1.6116 -1.1052
 7286SOL    HW233318   3.403   2.452  16.083  0.1212 -0.0377  1.4707
 7287SOL     OW33319   0.954   2.977   4.145  0.6340 -0.0103 -0.3957
 7287SOL    HW133320   0.876   2.954   4.094 -0.7534 -0.3958  1.9112
 7287SOL    HW233321   0.918   3.052   4.193 -0.9633 -0.3615 -1.0361
 7288SOL     OW33322   4.318   0.439   0.456  0.2671 -0.2923  0.5276
 7288SOL    HW133323   4.372   0.414   0.530 -0.1439 -0.5268  0.7488
 7288SOL    HW233324   4.253   0.371   0.475 -1.6138  1.1864 -0.4907
 7289SOL     OW33325   3.124   3.020  12.612 -0.2624 -0.6387  0.2774
 7289SOL    HW133326   3.194   3.039  12.674  1.1173  0.8872 -1.7345
 7289SOL    HW233327   3.075   3.102  12.604 -0.2635 -0.6309  0.3704
 7290SOL     OW33328   2.007   2.530   5.470  0.1043 -0.5869  0.0700
 7290SOL    HW133329   2.001   2.490   5.384 -0.8806 -1.4003  0.5106
 7290SOL    HW233330   2.007   2.450   5.522  1.3517 -1.9084 -2.0135
 7291SOL     OW33331   2.590   0.972   1.670 -0.4988  0.4138  0.5263
 7291SOL    HW133332   2.598   0.946   1.762 -0.6096 -2.6063 -0.3218
 7291SOL    HW233333   2.623   0.894   1.626 -3.5559 -0.6852  0.1508
 7292SOL     OW33334   0.626   3.559   3.643  0.3348  0.3527  0.2778
 7292SOL    HW133335   0.659   3.642   3.678 -0.0576  1.1989 -1.3339
 7292SOL    HW233336   0.691   3.498   3.676  0.1979 -1.0135 -1.9574
 7293SOL     OW33337   0.233   0.178   6.050  0.3092 -0.2945  0.1636
 7293SOL    HW133338   0.145   0.165   6.086 -0.0311 -0.0953 -0.5917
 7293SOL    HW233339   0.248   0.266   6.085  0.4453 -0.8953  1.6209
 7294SOL     OW33340   4.713   1.784   7.601 -0.3906 -0.0510 -0.6711
 7294SOL    HW133341   0.026   1.754   7.683 -0.8737  1.2654  0.0236
 7294SOL    HW233342   0.002   1.878   7.610 -0.8228 -0.1268  0.7814
 7295SOL     OW33343   3.034   4.310   5.628  0.3241  0.6944 -0.3110
 7295SOL    HW133344   3.098   4.356   5.573  0.9537  1.0963  0.7656
 7295SOL    HW233345   2.967   4.377   5.640 -0.8514 -0.6930  0.8714
 7296SOL     OW33346   0.352   0.992  15.120  0.0015 -0.2722  0.6968
 7296SOL    HW133347   0.316   1.080  15.137 -0.9890 -0.3453 -1.0174
 7296SOL    HW233348   0.393   0.978  15.205  3.5950  1.9353 -0.6876
 7297SOL     OW33349   4.443   0.071   4.920  0.1375 -0.0734  0.3003
 7297SOL    HW133350   4.356   0.063   4.959 -0.9218 -1.5339 -2.3031
 7297SOL    HW233351   4.473   4.706   4.914 -0.3380 -0.1437 -1.1126
 7298SOL     OW33352   1.809   4.431  14.400  0.3223 -0.2269 -0.2350
 7298SOL    HW133353   1.755   4.385  14.336 -0.1900 -0.5943  0.4662
 7298SOL    HW233354   1.884   4.372  14.398 -0.5390 -1.3099  0.2110
 7299SOL     OW33355   1.988   0.740   0.034  0.1096 -0.0162 -0.0210
 7299SOL    HW133356   2.066   0.692   0.060  0.5409  1.1511  0.8835
 7299SOL    HW233357   2.023   0.792  17.665  0.6138  0.6252  0.6780
 7300SOL     OW33358   3.401   0.405   2.502  0.3258 -0.1159 -0.1499
 7300SOL    HW133359   3.315   0.368   2.481  0.0994  1.2804 -1.7195
 7300SOL    HW233360   3.435   0.324   2.540  0.7707  1.2137  2.2680
 7301SOL     OW33361   4.667   1.868   4.093  0.3013  0.6329  0.6741
 7301SOL    HW133362   4.725   1.793   4.078 -0.4614  0.6816 -2.4632
 7301SOL    HW233363   4.719   1.935   4.049 -0.7536  2.1031  1.6513
 7302SOL     OW33364   2.583   3.337   8.973 -0.1432 -0.8168  0.9673
 7302SOL    HW133365   2.645   3.265   8.982  2.7980  1.7176  0.9719
 7302SOL    HW233366   2.609   3.395   9.043 -0.7911  2.0016 -1.1171
 7303SOL     OW33367   2.623   0.872   6.164  0.0065  0.1206 -0.3396
 7303SOL    HW133368   2.683   0.855   6.237 -0.4481 -2.2834 -0.5454
 7303SOL    HW233369   2.687   0.901   6.098  0.6566 -0.8756 -0.1437
 7304SOL     OW33370   1.462   1.799   4.479  0.1547 -0.3769 -0.3480
 7304SOL    HW133371   1.389   1.797   4.417 -0.0637 -1.8930 -0.0491
 7304SOL    HW233372   1.520   1.740   4.431  1.0036  0.0684  0.1430
 7305SOL     OW33373   0.541   2.813   6.755  0.0812 -0.0153 -0.2091
 7305SOL    HW133374   0.520   2.891   6.807  0.1152  1.5436 -2.5375
 7305SOL    HW233375   0.458   2.765   6.750 -0.9630  1.5256  2.0394
 7306SOL     OW33376   3.571   3.622   0.245  0.2231  0.3023  0.1503
 7306SOL    HW133377   3.586   3.529   0.264 -0.7248 -0.2111 -1.6645
 7306SOL    HW233378   3.571   3.633   0.150 -1.5845  0.7332  0.2056
 7307SOL     OW33379   2.546   3.361   5.576 -0.0679  0.7010 -0.0977
 7307SOL    HW133380   2.603   3.414   5.521  1.5369 -0.2750  0.6093
 7307SOL    HW233381   2.463   3.400   5.549 -0.4565 -0.5178 -0.6909
 7308SOL     OW33382   2.452   3.608   6.981 -0.2008  0.1918  0.5789
 7308SOL    HW133383   2.420   3.680   6.927  0.5451  0.0268 -0.0979
 7308SOL    HW233384   2.443   3.532   6.923 -2.0315  1.2775 -0.5394
 7309SOL     OW33385   2.747   2.232   8.866 -0.0519  0.2952 -0.0191
 7309SOL    HW133386   2.665   2.251   8.911 -0.8627 -2.6635 -0.2534
 7309SOL    HW233387   2.810   2.270   8.927  1.1729 -0.7054 -0.6571
 7310SOL     OW33388   1.063   1.576   8.041  0.1644 -0.3718  0.1741
 7310SOL    HW133389   1.024   1.663   8.052 -0.8079 -1.1491  2.8680
 7310SOL    HW233390   1.036   1.555   7.951  2.1373  1.6997 -0.9055
 7311SOL     OW33391   0.262   0.921   6.412 -0.3942  0.0562 -0.5813
 7311SOL    HW133392   0.171   0.911   6.382 -0.1551 -1.6981 -0.7132
 7311SOL    HW233393   0.257   0.888   6.502  1.5746 -0.9492 -0.8432
 7312SOL     OW33394   1.016   3.649  17.656 -0.7941 -0.1143  0.2564
 7312SOL    HW133395   0.925   3.660  17.686 -1.0307 -0.1975 -0.4410
 7312SOL    HW233396   1.015   3.675  17.564  1.0782  0.4726  0.3996
 7313SOL     OW33397   1.354   3.398  10.169  0.3826 -0.0301 -0.3348
 7313SOL    HW133398   1.267   3.415  10.204 -0.0331 -0.5051 -1.1433
 7313SOL    HW233399   1.396   3.332  10.224  1.7604  1.7212  0.7384
 7314SOL     OW33400   3.014   1.420   2.003 -0.1054  0.5362  0.0925
 7314SOL    HW133401   2.966   1.338   1.998 -1.1950  1.1025  1.4444
 7314SOL    HW233402   2.939   1.475   1.979 -0.4816 -0.0746 -0.1311
 7315SOL     OW33403   0.178   0.641   1.243 -0.1939 -0.1519  0.2637
 7315SOL    HW133404   0.273   0.636   1.236 -0.1301  0.9493  0.3041
 7315SOL    HW233405   0.160   0.726   1.284  0.3586 -0.7803  1.8142
 7316SOL     OW33406   2.173   2.169   2.788  0.1234 -0.0569  0.2177
 7316SOL    HW133407   2.233   2.104   2.823  0.4908  0.4166  0.4673
 7316SOL    HW233408   2.218   2.250   2.812  1.6599 -0.6608 -0.6295
 7317SOL     OW33409   0.212   3.158   4.285  0.6085 -0.1231 -0.2947
 7317SOL    HW133410   0.165   3.081   4.317 -2.2584  1.8649  0.2050
 7317SOL    HW233411   0.223   3.120   4.198 -0.7325 -0.4607 -0.3067
 7318SOL     OW33412   3.613   2.564   6.235  0.6742  0.2740  0.0567
 7318SOL    HW133413   3.566   2.578   6.153 -0.4661 -0.3446  0.5982
 7318SOL    HW233414   3.702   2.552   6.203 -0.6634 -1.7523 -2.8991
 7319SOL     OW33415   3.207   3.537  15.646  0.2237 -0.5417  0.0309
 7319SOL    HW133416   3.247   3.542  15.560  1.7388 -1.7458  0.6677
 7319SOL    HW233417   3.214   3.630  15.664 -1.7761 -0.3990  0.1711
 7320SOL     OW33418   4.666   3.649   8.539 -0.0820 -0.1508 -0.2382
 7320SOL    HW133419   4.627   3.589   8.603 -3.1812  1.6121 -0.4605
 7320SOL    HW233420   4.605   3.722   8.553 -0.6123 -0.4594 -0.9704
 7321SOL     OW33421   4.624   2.376   9.773 -1.2833 -0.3107 -0.5775
 7321SOL    HW133422   4.631   2.321   9.694 -2.0833 -0.3091 -0.6543
 7321SOL    HW233423   4.547   2.336   9.814 -0.4577 -0.5540  0.7373
 7322SOL     OW33424   0.547   3.533   8.175  0.7476 -0.2291 -0.4013
 7322SOL    HW133425   0.542   3.617   8.220  1.3128 -0.9299  0.9395
 7322SOL    HW233426   0.545   3.482   8.256 -2.0132  0.3914 -0.0799
 7323SOL     OW33427   2.130   2.518  16.984  0.2160 -0.5204 -0.4961
 7323SOL    HW133428   2.120   2.613  16.993 -1.2024 -0.7969  0.8746
 7323SOL    HW233429   2.130   2.501  17.078 -0.8500 -0.0538 -0.4091
 7324SOL     OW33430   3.103   1.162   3.911 -0.0802  0.0040  0.6206
 7324SOL    HW133431   3.114   1.255   3.891 -0.9807 -0.6745 -3.0984
 7324SOL    HW233432   3.183   1.149   3.962 -0.7585 -0.2838  1.6037
 7325SOL     OW33433   4.448   2.214   8.722 -0.1499 -0.2123  0.5601
 7325SOL    HW133434   4.373   2.272   8.706 -0.5766 -0.9142  0.0005
 7325SOL    HW233435   4.499   2.243   8.798 -2.5733 -1.7292  2.7730
 7326SOL     OW33436   1.618   3.784   4.260 -0.4452  0.4512 -0.3572
 7326SOL    HW133437   1.658   3.772   4.174  0.9009  1.9320  0.0556
 7326SOL    HW233438   1.527   3.764   4.241  0.0715  0.4173 -2.7390
 7327SOL     OW33439   3.960   3.171   0.059 -0.5460 -0.4483  0.3490
 7327SOL    HW133440   3.902   3.152   0.133 -0.9815 -0.7253 -0.0564
 7327SOL    HW233441   3.906   3.178  17.684  0.3751 -4.6394 -0.6833
 7328SOL     OW33442   1.302   3.395   9.788  0.1649  0.1289  0.0353
 7328SOL    HW133443   1.376   3.354   9.743  0.2050  0.8672 -0.5707
 7328SOL    HW233444   1.337   3.479   9.819  1.4254  0.1286 -1.4085
 7329SOL     OW33445   3.987   3.289  17.349 -0.2774 -0.0034  0.6371
 7329SOL    HW133446   3.947   3.310  17.264  2.9545 -1.0522 -1.1244
 7329SOL    HW233447   4.073   3.265  17.314 -0.4859  0.4364 -0.1819
 7330SOL     OW33448   1.163   0.403   4.470 -0.5030 -0.0297 -0.4947
 7330SOL    HW133449   1.183   0.495   4.453  2.3038 -0.3553  1.0931
 7330SOL    HW233450   1.181   0.396   4.564  0.5238 -0.5283 -0.7231
 7331SOL     OW33451   3.808   1.779   3.624 -0.4679  0.2041 -0.2153
 7331SOL    HW133452   3.757   1.705   3.654 -1.4760  0.6496 -0.8309
 7331SOL    HW233453   3.901   1.756   3.634 -0.4973  0.2892  0.2473
 7332SOL     OW33454   1.385   4.540   9.455 -0.1580 -0.2787 -0.1627
 7332SOL    HW133455   1.459   4.553   9.396 -0.5329  1.7415 -0.2021
 7332SOL    HW233456   1.403   4.448   9.476 -0.8653 -0.5996 -0.9943
 7333SOL     OW33457   0.564   2.673  10.014 -0.6440 -0.0546  0.1997
 7333SOL    HW133458   0.486   2.619  10.029 -1.9422  1.9208  0.4895
 7333SOL    HW233459   0.600   2.682  10.102  0.6353  1.2547 -0.4633
 7334SOL     OW33460   1.591   3.055  14.539 -0.5156 -0.2030  1.0112
 7334SOL    HW133461   1.512   3.099  14.508 -0.5772  0.1299  1.6422
 7334SOL    HW233462   1.549   2.974  14.567  0.6960 -0.4363  2.1711
 7335SOL     OW33463   2.921   4.595  14.737 -0.2496  0.2777  0.3260
 7335SOL    HW133464   2.960   4.666  14.686 -2.0540  0.4180 -0.8789
 7335SOL    HW233465   2.971   4.517  14.712  2.8593  1.6977  2.1192
 7336SOL     OW33466   4.724   1.386  11.885  0.3708 -0.2120 -0.9292
 7336SOL    HW133467   4.674   1.455  11.929 -1.0875 -1.1082 -1.1701
 7336SOL    HW233468   4.689   1.406  11.799  1.2179 -1.6192 -1.6039
 7337SOL     OW33469   1.373   2.780   6.132  0.9400 -0.1509  0.2585
 7337SOL    HW133470   1.397   2.689   6.113 -0.0973 -0.3858  0.0874
 7337SOL    HW233471   1.305   2.794   6.066  1.2807  1.2410  0.2125
 7338SOL     OW33472   1.379   1.061   8.380  0.0359  0.2179  0.5410
 7338SOL    HW133473   1.417   0.973   8.381 -2.8323 -1.0255  1.4396
 7338SOL    HW233474   1.354   1.054   8.472  0.6201  0.4270  0.7115
 7339SOL     OW33475   1.527   1.512   3.827 -0.7387 -1.1004 -0.4661
 7339SOL    HW133476   1.491   1.560   3.902  1.1632  0.4717 -0.5922
 7339SOL    HW233477   1.583   1.577   3.785 -0.9551  0.3792  1.5359
 7340SOL     OW33478   1.093   4.652   9.758  0.1135 -0.1819 -0.2469
 7340SOL    HW133479   1.124   0.013   9.786  1.5926 -1.3236  1.6514
 7340SOL    HW233480   1.163   4.592   9.782  0.5622  0.2829 -0.3829
 7341SOL     OW33481   2.996   0.851  15.745  0.9602 -0.4798 -0.0530
 7341SOL    HW133482   2.930   0.829  15.810 -0.2656 -2.0388 -1.8247
 7341SOL    HW233483   3.026   0.935  15.781  0.5583 -0.5875  0.5366
 7342SOL     OW33484   2.667   0.253  14.485  0.3193 -0.2705  0.3769
 7342SOL    HW133485   2.661   0.289  14.574  1.2130 -0.1907  0.4045
 7342SOL    HW233486   2.731   0.313  14.445  0.9214 -1.2509 -0.1197
 7343SOL     OW33487   2.525   2.587   9.572 -0.3694 -0.1117 -0.4186
 7343SOL    HW133488   2.472   2.592   9.493  1.0596 -1.4543 -1.4491
 7343SOL    HW233489   2.463   2.551   9.636  0.9902 -0.4620  0.6967
 7344SOL     OW33490   1.683   2.778  14.011 -0.4471 -0.3451 -0.4719
 7344SOL    HW133491   1.639   2.840  14.070  0.8880  0.2034 -0.0431
 7344SOL    HW233492   1.742   2.723  14.064 -2.5383 -0.1766  2.0559
 7345SOL     OW33493   2.599   2.306  11.705 -0.8937 -0.6367 -0.4327
 7345SOL    HW133494   2.621   2.218  11.676 -0.7595 -0.7017 -0.1258
 7345SOL    HW233495   2.509   2.287  11.731 -1.1254 -0.1612 -0.8768
 7346SOL     OW33496   4.528   1.785  11.624  0.1496 -0.0948 -0.4995
 7346SOL    HW133497   4.593   1.716  11.611 -0.1988 -0.2596 -1.3738
 7346SOL    HW233498   4.459   1.749  11.568  0.6788 -2.0741  0.1022
 7347SOL     OW33499   0.027   3.772  17.390  0.8926 -0.1250 -0.2829
 7347SOL    HW133500   0.039   3.774  17.485  3.8980 -2.0796 -0.6204
 7347SOL    HW233501   4.682   3.836  17.378 -0.8114 -2.2179 -1.4210
 7348SOL     OW33502   0.582   4.203   4.583 -0.0045  0.0570 -0.1749
 7348SOL    HW133503   0.606   4.281   4.534  0.1364  0.4504  0.5132
 7348SOL    HW233504   0.666   4.173   4.619 -1.5898 -0.3275  3.2070
 7349SOL     OW33505   3.955   1.428   7.832  0.0320 -0.0911 -0.1837
 7349SOL    HW133506   3.859   1.423   7.825 -0.0102  0.5276 -0.0694
 7349SOL    HW233507   3.985   1.338   7.818  2.1786  1.0612 -3.1026
 7350SOL     OW33508   3.582   4.664   0.608 -0.3590  0.2401  0.6162
 7350SOL    HW133509   3.601   0.026   0.574  0.2127 -0.1305 -0.0155
 7350SOL    HW233510   3.583   4.611   0.528  1.4061  0.9125  0.1826
 7351SOL     OW33511   2.003   1.548  16.916 -0.1486 -0.3599 -0.1909
 7351SOL    HW133512   2.086   1.558  16.964 -1.0039  0.2954  1.1377
 7351SOL    HW233513   2.050   1.526  16.835  0.3821 -1.5500  0.4447
 7352SOL     OW33514   3.246   2.072   6.921 -0.0890 -0.5587 -0.1590
 7352SOL    HW133515   3.261   1.992   6.970  0.2897 -0.0792  0.5047
 7352SOL    HW233516   3.261   2.140   6.987 -1.3346 -1.6446  1.2279
 7353SOL     OW33517   1.113   1.746   3.615  0.1062 -0.0511 -0.0623
 7353SOL    HW133518   1.079   1.748   3.705  1.9283 -1.6444  0.6746
 7353SOL    HW233519   1.206   1.725   3.628  0.3796  1.1404 -0.0929
 7354SOL     OW33520   4.525   4.562   7.213  0.1021 -0.2212 -0.0882
 7354SOL    HW133521   4.532   4.600   7.126 -0.8938 -3.5591 -1.6189
 7354SOL    HW233522   4.443   4.514   7.210 -0.2039  0.4616 -2.9082
 7355SOL     OW33523   4.505   1.991  10.291  0.7097 -0.1981 -0.0453
 7355SOL    HW133524   4.411   1.999  10.304  0.4478 -0.7739 -1.5810
 7355SOL    HW233525   4.511   2.061  10.227 -1.2317 -0.3995 -0.4351
 7356SOL     OW33526   1.399   1.072  10.309  0.3575  0.4115  0.5163
 7356SOL    HW133527   1.339   1.000  10.292  0.3811  0.6352 -0.5121
 7356SOL    HW233528   1.362   1.104  10.392  1.4542  2.1938  0.3163
 7357SOL     OW33529   2.625   1.872  15.452 -0.2133 -0.1826 -0.2223
 7357SOL    HW133530   2.538   1.890  15.416  1.5335  2.6257 -3.1036
 7357SOL    HW233531   2.658   1.958  15.475  0.1982  0.3995 -2.9854
 7358SOL     OW33532   1.331   4.091   4.907  0.2709  0.0708 -0.0115
 7358SOL    HW133533   1.253   4.056   4.951  0.2057  2.0221  1.4491
 7358SOL    HW233534   1.304   4.176   4.872 -3.1748 -1.1114 -0.2256
 7359SOL     OW33535   0.772   0.042   5.425 -0.6286 -0.0892  0.1716
 7359SOL    HW133536   0.811   0.118   5.469 -0.7965 -0.0535  0.2602
 7359SOL    HW233537   0.723   0.006   5.499 -1.5604 -0.4507 -0.6266
 7360SOL     OW33538   1.798   0.020  10.087 -0.8461  0.1223  0.0842
 7360SOL    HW133539   1.883   0.012  10.131 -0.2871 -1.5054 -1.2901
 7360SOL    HW233540   1.773   4.658  10.059  2.3074 -1.0117  0.8792
 7361SOL     OW33541   3.861   0.732  11.810  0.3126  0.3190 -0.4981
 7361SOL    HW133542   3.879   0.748  11.717 -2.4605 -0.2599 -1.1283
 7361SOL    HW233543   3.948   0.728  11.850 -0.1016  1.6762  0.5515
 7362SOL     OW33544   1.058   0.986   8.475  0.2784 -0.0602  0.2846
 7362SOL    HW133545   1.079   0.991   8.569 -4.6567  0.3855  1.3695
 7362SOL    HW233546   0.991   0.919   8.486 -0.9946  1.1659 -0.0937
 7363SOL     OW33547   3.673   4.232  16.313  0.2779  0.1248  0.2114
 7363SOL    HW133548   3.732   4.158  16.326  0.3945  0.9186  3.9992
 7363SOL    HW233549   3.681   4.284  16.393 -0.0440 -2.1804  1.7330
 7364SOL     OW33550   2.528   0.680  17.183 -0.1119  0.3169  0.3162
 7364SOL    HW133551   2.482   0.629  17.249  0.9380 -0.1799  0.6732
 7364SOL    HW233552   2.454   0.718  17.136  1.1939  0.3894 -1.7107
 7365SOL     OW33553   1.451   1.892   8.092 -0.1494 -0.0983 -0.1796
 7365SOL    HW133554   1.472   1.830   8.162  0.3978  0.6134  0.2880
 7365SOL    HW233555   1.507   1.966   8.115  0.5663 -1.1181  1.3542
 7366SOL     OW33556   0.671   0.138   5.862 -0.5241  0.0064 -0.3307
 7366SOL    HW133557   0.600   0.080   5.890  0.9066 -2.7492 -2.3980
 7366SOL    HW233558   0.623   0.213   5.827 -1.0738 -0.5145 -0.6967
 7367SOL     OW33559   4.256   1.945   5.688  0.2970  0.6371 -0.2519
 7367SOL    HW133560   4.309   1.882   5.639 -1.0242 -2.1718  1.9163
 7367SOL    HW233561   4.317   1.963   5.760 -0.4587 -0.5363  0.6838
 7368SOL     OW33562   2.675   4.344  11.265  0.1713 -0.3358  0.3825
 7368SOL    HW133563   2.691   4.426  11.312 -1.2627 -0.1972  0.6306
 7368SOL    HW233564   2.684   4.374  11.175 -1.9817 -0.2134  0.2119
 7369SOL     OW33565   2.082   4.467  12.186  0.4281  0.2950  0.2053
 7369SOL    HW133566   1.992   4.469  12.154  0.5094  1.3990  0.0561
 7369SOL    HW233567   2.080   4.386  12.236 -0.4113  0.4747  0.4548
 7370SOL     OW33568   1.023   1.149   5.147 -0.7777 -0.3615 -0.1080
 7370SOL    HW133569   1.031   1.099   5.066 -0.1310  0.0887 -0.3184
 7370SOL    HW233570   1.109   1.191   5.154 -0.8040  0.0418 -2.2727
 7371SOL     OW33571   0.391   3.417   4.031  0.2761 -0.2117  0.3877
 7371SOL    HW133572   0.379   3.415   3.936  0.7975  0.5022  0.3032
 7371SOL    HW233573   0.456   3.351   4.055 -0.3544 -1.8184 -2.3088
 7372SOL     OW33574   3.379   0.422   4.002 -0.1477  0.2198  0.0057
 7372SOL    HW133575   3.453   0.413   3.941 -2.8765  0.3763 -3.3807
 7372SOL    HW233576   3.337   0.336   3.997 -2.0435  1.1082  0.9619
 7373SOL     OW33577   0.957   4.284   9.605  0.5873  0.0797 -0.6099
 7373SOL    HW133578   1.007   4.306   9.526  0.2466  1.1210 -0.5350
 7373SOL    HW233579   1.021   4.235   9.655 -0.5649 -0.0706  0.7364
 7374SOL     OW33580   3.983   0.529   2.899  0.4337  0.6045  0.2343
 7374SOL    HW133581   4.067   0.512   2.942  0.7472  0.9477 -0.2335
 7374SOL    HW233582   3.930   0.463   2.943 -0.2772  0.6428 -0.5524
 7375SOL     OW33583   2.618   3.135   4.686 -0.1020 -0.3863 -0.0671
 7375SOL    HW133584   2.581   3.153   4.600 -2.6035 -0.0345  1.0900
 7375SOL    HW233585   2.703   3.176   4.670 -0.2932  1.1177  2.7743
 7376SOL     OW33586   3.751   0.494   6.751  0.4806  0.4763 -0.2290
 7376SOL    HW133587   3.764   0.588   6.753  0.5256  0.4221  1.6777
 7376SOL    HW233588   3.803   0.468   6.827 -1.8605  0.7549  1.4468
 7377SOL     OW33589   2.971   2.996   8.386 -0.2378  0.1063 -0.4377
 7377SOL    HW133590   3.055   2.951   8.401 -0.7806 -0.8433 -0.2833
 7377SOL    HW233591   2.995   3.086   8.408  0.8397 -1.1505  3.5899
 7378SOL     OW33592   4.304   2.004   1.799 -0.1834  0.5497 -0.6189
 7378SOL    HW133593   4.385   2.031   1.755  0.6047 -1.4284 -0.3859
 7378SOL    HW233594   4.256   1.972   1.723 -1.2923  1.0512 -0.1315
 7379SOL     OW33595   1.400   2.691  15.092 -0.0569  0.0838 -0.2048
 7379SOL    HW133596   1.432   2.620  15.037 -0.1071 -0.2196  0.1573
 7379SOL    HW233597   1.466   2.682  15.161 -0.8651  2.4174  0.8631
 7380SOL     OW33598   4.140   4.680  13.254  0.5115  0.0764 -0.8985
 7380SOL    HW133599   4.090   4.716  13.181 -0.1673  0.4281 -0.2688
 7380SOL    HW233600   4.103   0.010  13.324 -0.2173 -3.4506  1.4952
 7381SOL     OW33601   3.832   2.824   6.306 -0.5729 -0.3692  0.0248
 7381SOL    HW133602   3.912   2.786   6.343  1.1703  2.7069 -0.6016
 7381SOL    HW233603   3.867   2.831   6.217 -0.7581 -1.6074 -0.1381
 7382SOL     OW33604   4.676   0.975   2.863 -0.1467 -0.3109  0.3054
 7382SOL    HW133605   4.624   0.931   2.931 -1.0640  1.7138  0.9379
 7382SOL    HW233606   4.682   1.056   2.914 -0.0048 -0.9084  1.2367
 7383SOL     OW33607   0.082   0.812   2.678 -0.0917 -0.0129  0.3145
 7383SOL    HW133608   0.103   0.869   2.752 -1.8146 -4.5180  4.2627
 7383SOL    HW233609   4.719   0.845   2.662  0.0465 -1.0478 -2.4612
 7384SOL     OW33610   3.431   1.993  17.187 -0.0372 -0.2715  0.2716
 7384SOL    HW133611   3.429   1.905  17.224  0.2640 -0.9149 -1.2248
 7384SOL    HW233612   3.507   2.036  17.226  0.2195 -2.7808  2.4731
 7385SOL     OW33613   1.968   1.801   8.492 -0.0851 -0.5957 -0.8371
 7385SOL    HW133614   1.895   1.792   8.553  1.4934  3.8526  1.6951
 7385SOL    HW233615   2.017   1.721   8.506  1.4567  0.5030  0.0701
 7386SOL     OW33616   0.669   0.046  15.763  0.3319  0.3960 -0.0515
 7386SOL    HW133617   0.750   0.076  15.722  0.1008  1.4567  0.2674
 7386SOL    HW233618   0.689   0.081  15.850 -1.5427 -0.2738  0.6555
 7387SOL     OW33619   0.271   2.055   7.085 -0.2563  0.3403  0.0406
 7387SOL    HW133620   0.332   2.104   7.030 -1.1988  1.2806 -0.1689
 7387SOL    HW233621   0.236   1.990   7.025  2.9891 -2.2013  0.9129
 7388SOL     OW33622   0.749   3.344   5.280 -0.0406  0.1074 -0.0642
 7388SOL    HW133623   0.828   3.290   5.271  1.4986  2.0401  1.7092
 7388SOL    HW233624   0.757   3.361   5.374  1.3832 -0.0859 -0.1406
 7389SOL     OW33625   0.499   3.470  17.173  0.6236 -0.1308  0.2911
 7389SOL    HW133626   0.509   3.379  17.147  0.3687  1.1770 -4.2964
 7389SOL    HW233627   0.449   3.514  17.105 -1.5963 -1.9477  0.7359
 7390SOL     OW33628   3.324   1.039  10.070 -0.2907 -0.2938  0.6691
 7390SOL    HW133629   3.252   1.091  10.106 -1.1069  0.1803 -1.6557
 7390SOL    HW233630   3.283   0.995   9.996  0.2223 -2.9337  1.9460
 7391SOL     OW33631   0.731   4.478  11.646 -0.2082  0.4379  0.1503
 7391SOL    HW133632   0.817   4.500  11.682  0.7621  1.7805 -3.0521
 7391SOL    HW233633   0.751   4.443  11.559  2.8311  3.4020 -0.3330
 7392SOL     OW33634   2.457   3.954   3.566 -0.2391  0.4921 -0.3135
 7392SOL    HW133635   2.499   3.906   3.638  0.8792  2.8003  0.5816
 7392SOL    HW233636   2.374   3.907   3.566 -0.1649  0.3537  1.1232
 7393SOL     OW33637   1.826   4.198  12.199  0.6110 -0.3858 -0.1140
 7393SOL    HW133638   1.814   4.104  12.184 -0.0186 -0.2441 -0.5188
 7393SOL    HW233639   1.814   4.225  12.108 -2.7611 -1.0712  0.1255
 7394SOL     OW33640   2.359   0.538  14.596 -0.0706 -0.0237  0.3072
 7394SOL    HW133641   2.322   0.460  14.555 -0.1978  0.1063  0.1724
 7394SOL    HW233642   2.446   0.506  14.618 -1.0238 -2.9863 -0.1944
 7395SOL     OW33643   2.094   0.592   6.990  0.1172 -0.8695  0.2928
 7395SOL    HW133644   2.048   0.667   6.951 -1.9044 -1.0326  2.3878
 7395SOL    HW233645   2.153   0.561   6.921  1.1632 -1.2867  1.3750
 7396SOL     OW33646   2.304   1.153   3.400 -0.2469 -0.0035  0.0560
 7396SOL    HW133647   2.367   1.221   3.425  0.1200 -0.5581  0.6377
 7396SOL    HW233648   2.239   1.169   3.468  0.2137  1.6678  0.1191
 7397SOL     OW33649   4.207   3.810   4.693  0.0700  0.0369 -0.0804
 7397SOL    HW133650   4.186   3.728   4.649  0.7397  0.5406 -1.3345
 7397SOL    HW233651   4.302   3.800   4.700  0.0155  0.7980  1.6705
 7398SOL     OW33652   2.280   3.318  10.812 -0.5317  0.5176 -0.4760
 7398SOL    HW133653   2.271   3.410  10.786  2.0042  1.4455  1.9256
 7398SOL    HW233654   2.328   3.282  10.738 -0.9041 -1.1721  0.1184
 7399SOL     OW33655   1.882   2.641   1.709  0.0268  0.8599  0.0646
 7399SOL    HW133656   1.814   2.593   1.661  1.1310  1.1118 -1.7711
 7399SOL    HW233657   1.939   2.658   1.633  1.3503 -1.5543  0.5185
 7400SOL     OW33658   2.555   4.015   3.888 -0.0268  0.2601  0.2737
 7400SOL    HW133659   2.506   3.933   3.880  0.3117  0.1955 -1.1482
 7400SOL    HW233660   2.623   3.983   3.947 -0.5888 -1.0169  0.2268
 7401SOL     OW33661   2.246   1.685   8.232  0.1610  0.6346 -0.2581
 7401SOL    HW133662   2.256   1.745   8.158  1.7282 -0.9174 -1.3150
 7401SOL    HW233663   2.262   1.748   8.303 -1.5126  1.6580 -0.7790
 7402SOL     OW33664   2.640   0.859   1.928 -0.2880 -0.2270  0.2675
 7402SOL    HW133665   2.676   0.772   1.912  0.8714  0.6846 -2.0019
 7402SOL    HW233666   2.691   0.893   2.002 -0.5017  1.1312 -0.2079
 7403SOL     OW33667   4.209   0.931   7.830 -0.1617  0.2972 -0.0222
 7403SOL    HW133668   4.260   0.999   7.874  1.1642  0.7833 -2.3006
 7403SOL    HW233669   4.188   0.882   7.910  0.9807  4.0017  2.5274
 7404SOL     OW33670   1.933   1.762   7.931 -0.0150 -0.3339 -0.8363
 7404SOL    HW133671   2.021   1.789   7.955  0.3515 -2.1400 -0.1002
 7404SOL    HW233672   1.891   1.772   8.016  0.7877 -0.9083 -0.3758
 7405SOL     OW33673   3.560   3.196   3.871  0.4267 -0.4551 -0.0596
 7405SOL    HW133674   3.652   3.222   3.878  0.1473  0.8388 -1.3027
 7405SOL    HW233675   3.511   3.249   3.934  1.3490  0.7674 -0.3695
 7406SOL     OW33676   3.848   2.375   5.240 -0.6265 -0.9358 -0.3699
 7406SOL    HW133677   3.821   2.298   5.290  1.4467 -0.7360  1.0024
 7406SOL    HW233678   3.796   2.376   5.159  1.0035 -0.9713 -1.4009
 7407SOL     OW33679   0.370   3.898  15.210  0.2930 -0.5796  0.4497
 7407SOL    HW133680   0.361   3.918  15.303 -2.1025 -0.2524  0.1349
 7407SOL    HW233681   0.440   3.961  15.193  0.2878 -0.8622 -0.6568
 7408SOL     OW33682   4.146   4.433   1.933  0.5601  0.1368  0.3713
 7408SOL    HW133683   4.220   4.392   1.979  0.3745 -0.7878 -0.1583
 7408SOL    HW233684   4.120   4.361   1.876  0.0805  0.1237  0.6097
 7409SOL     OW33685   2.594   4.310   8.243  0.4280  0.3963  0.0148
 7409SOL    HW133686   2.666   4.259   8.280  0.9908 -0.0514 -1.6852
 7409SOL    HW233687   2.543   4.235   8.212 -0.1798  0.0280  1.8948
 7410SOL     OW33688   0.251   3.041   6.725  0.1616  0.7125 -0.2968
 7410SOL    HW133689   0.315   3.064   6.657 -0.4405  0.7808 -0.8362
 7410SOL    HW233690   0.268   2.949   6.747  1.4429  0.4413 -2.3350
 7411SOL     OW33691   3.724   1.920  12.372  0.2698  0.1710  0.5344
 7411SOL    HW133692   3.652   1.984  12.372  0.2115  0.1167  2.7877
 7411SOL    HW233693   3.801   1.972  12.348  0.1560 -1.2220 -2.8470
 7412SOL     OW33694   3.823   4.619   7.452 -0.0258 -0.2222  0.5471
 7412SOL    HW133695   3.801   4.590   7.363 -0.3462  1.3036  0.1376
 7412SOL    HW233696   3.746   4.675   7.463 -0.2864 -0.7454  1.3380
 7413SOL     OW33697   0.596   2.899   3.452  0.1592  0.0269  0.1409
 7413SOL    HW133698   0.651   2.820   3.451  0.1847  0.0456 -0.1908
 7413SOL    HW233699   0.527   2.884   3.387  0.6862  0.6079 -0.5583
 7414SOL     OW33700   4.593   0.621   1.887  0.6915 -0.2162 -0.0114
 7414SOL    HW133701   4.661   0.574   1.838 -0.5661 -1.6890 -0.3597
 7414SOL    HW233702   4.532   0.651   1.820  1.3523 -1.2409 -1.0833
 7415SOL     OW33703   2.736   2.966   7.685 -0.0260  0.4026  0.2456
 7415SOL    HW133704   2.719   2.972   7.779 -0.8293 -1.0752  0.1930
 7415SOL    HW233705   2.828   2.991   7.676  0.1804 -0.0265  1.1892
 7416SOL     OW33706   3.588   2.365   4.592 -0.4093 -0.6891 -0.2524
 7416SOL    HW133707   3.544   2.426   4.532  2.0784  1.4012  0.0826
 7416SOL    HW233708   3.576   2.404   4.679 -2.3628  1.1957 -1.3869
 7417SOL     OW33709   1.740   0.302  14.946  0.6844  0.6305 -0.1782
 7417SOL    HW133710   1.646   0.305  14.966  0.1653  0.5109 -2.6001
 7417SOL    HW233711   1.753   0.251  14.866  2.2009 -0.6382  0.8785
 7418SOL     OW33712   1.379   1.034   3.050  0.4319 -0.1002 -0.3427
 7418SOL    HW133713   1.372   1.124   3.018  0.3943 -0.2385 -0.7292
 7418SOL    HW233714   1.363   0.990   2.966  1.5318 -1.1524  0.0135
 7419SOL     OW33715   4.188   0.368   6.509  0.2504 -0.2076  0.1649
 7419SOL    HW133716   4.250   0.432   6.545  0.8772 -0.4342 -0.5019
 7419SOL    HW233717   4.212   0.354   6.417  1.7602  1.9767  0.2027
 7420SOL     OW33718   1.044   1.120   9.554  0.4315  0.0274  0.6842
 7420SOL    HW133719   1.003   1.069   9.624  0.3801 -0.4286  0.3250
 7420SOL    HW233720   1.128   1.074   9.543  1.9605  3.1689 -0.7065
 7421SOL     OW33721   3.952   2.491   0.326 -0.1468  0.4347 -0.4904
 7421SOL    HW133722   3.988   2.434   0.394 -0.5856 -0.8746 -1.3600
 7421SOL    HW233723   4.015   2.563   0.322  0.6508 -0.2869 -0.9980
 7422SOL     OW33724   0.228   3.753   6.702  0.2384  0.2509  0.0854
 7422SOL    HW133725   0.207   3.680   6.644 -1.6907  0.3033  0.7093
 7422SOL    HW233726   0.322   3.765   6.689  0.4651 -2.5147 -0.7382
 7423SOL     OW33727   3.050   0.224   6.911  0.1793  0.6481  0.4421
 7423SOL    HW133728   3.132   0.179   6.930 -0.3640 -0.5201  0.0117
 7423SOL    HW233729   3.019   0.246   6.998 -0.3664 -0.2144  0.4690
 7424SOL     OW33730   2.192   3.265   7.460 -0.1188 -0.3247  0.3028
 7424SOL    HW133731   2.116   3.222   7.422 -0.8886 -0.1418  1.6584
 7424SOL    HW233732   2.149   3.329   7.517  1.4215 -0.3024  1.4457
 7425SOL     OW33733   3.714   3.437  15.285 -0.1929  0.3030 -0.0387
 7425SOL    HW133734   3.662   3.516  15.299 -1.5284 -0.5931  0.0598
 7425SOL    HW233735   3.721   3.406  15.375  1.4477 -0.6756 -0.5076
 7426SOL     OW33736   2.673   3.406   8.273  0.1737 -0.1736 -0.1011
 7426SOL    HW133737   2.593   3.359   8.295  0.4519 -1.3751 -1.6089
 7426SOL    HW233738   2.709   3.352   8.203  1.4473 -1.1105  1.2718
 7427SOL     OW33739   0.276   2.746   9.516  0.3490 -0.2006 -0.5216
 7427SOL    HW133740   0.245   2.656   9.507  0.9603 -0.7326  2.6665
 7427SOL    HW233741   0.305   2.732   9.606 -0.8241  0.3306 -0.0612
 7428SOL     OW33742   0.520   4.403   0.799  0.3406  0.1617  0.2448
 7428SOL    HW133743   0.585   4.333   0.794 -0.4868 -0.5406 -0.7584
 7428SOL    HW233744   0.448   4.368   0.852  0.8597 -1.5238 -0.1374
 7429SOL     OW33745   2.489   2.062  17.148  0.7515 -0.6742 -0.1605
 7429SOL    HW133746   2.579   2.062  17.114  1.2937 -1.7855  1.2684
 7429SOL    HW233747   2.453   2.007  17.078 -2.4783 -1.3726  2.0347
 7430SOL     OW33748   1.015   0.916   6.835  0.1146 -0.2218 -0.2655
 7430SOL    HW133749   1.097   0.923   6.786  0.8608 -0.9715  0.8880
 7430SOL    HW233750   1.023   0.998   6.884 -1.8887  1.2117 -2.3224
 7431SOL     OW33751   4.015   2.093   9.010  0.1833  0.2682 -0.4082
 7431SOL    HW133752   3.923   2.097   9.037  0.2495 -1.2687  0.0851
 7431SOL    HW233753   4.061   2.124   9.087 -2.5316 -1.7304  2.0337
 7432SOL     OW33754   3.797   4.295  11.661  0.0783 -0.3007  0.3284
 7432SOL    HW133755   3.785   4.309  11.755 -2.7797 -1.3639  0.1170
 7432SOL    HW233756   3.870   4.233  11.655 -1.0155 -1.7779  2.3249
 7433SOL     OW33757   3.964   1.066   8.872  0.1679 -0.0618  0.1879
 7433SOL    HW133758   3.875   1.031   8.868 -1.8972  5.3125 -0.4140
 7433SOL    HW233759   4.007   0.981   8.860 -2.0668 -1.2563  0.7235
 7434SOL     OW33760   0.934   0.907   9.711 -0.1394 -0.4851 -0.4429
 7434SOL    HW133761   0.864   0.857   9.668  0.0993 -0.9581 -0.2765
 7434SOL    HW233762   0.934   0.863   9.796  6.1592 -2.1044 -1.2766
 7435SOL     OW33763   2.726   2.818   2.407  0.1036  0.7329  0.0632
 7435SOL    HW133764   2.700   2.737   2.451  1.7299 -0.1309 -0.5694
 7435SOL    HW233765   2.809   2.837   2.450  0.5920 -3.5872  1.0320
 7436SOL     OW33766   0.542   2.037   6.094  0.4417  0.1810  0.1119
 7436SOL    HW133767   0.555   2.122   6.051 -1.8960  0.2661 -0.4319
 7436SOL    HW233768   0.619   2.027   6.150  1.4175 -0.8817 -1.4211
 7437SOL     OW33769   0.146   2.647  12.658  0.0412 -0.1660  0.0093
 7437SOL    HW133770   0.093   2.571  12.635 -0.5160 -0.1571  1.2816
 7437SOL    HW233771   0.083   2.718  12.647 -0.9665 -1.1591 -0.6616
 7438SOL     OW33772   2.793   4.379   4.631  0.6878  0.1531 -0.2516
 7438SOL    HW133773   2.837   4.464   4.637  1.5769 -0.1474 -2.3733
 7438SOL    HW233774   2.840   4.323   4.693  1.4602  0.4493 -0.5714
 7439SOL     OW33775   2.380   4.279   8.945  0.3903 -0.4580  0.2207
 7439SOL    HW133776   2.384   4.286   8.849  1.5472  1.6980  0.4187
 7439SOL    HW233777   2.473   4.285   8.969 -0.1014 -0.2118  2.0440
 7440SOL     OW33778   2.108   0.799  10.787  0.1064 -0.1024 -0.1956
 7440SOL    HW133779   2.128   0.745  10.711 -0.2324  1.7013 -1.5853
 7440SOL    HW233780   2.197   0.804  10.820  1.1009 -2.8670 -2.5425
 7441SOL     OW33781   4.000   1.822   0.896  0.6289  0.4555 -0.2100
 7441SOL    HW133782   3.967   1.748   0.946 -0.6386 -0.3789 -2.2982
 7441SOL    HW233783   3.915   1.850   0.862  0.2576 -1.3774 -0.7372
 7442SOL     OW33784   1.656   0.249   2.533 -0.3227 -0.0862  0.2834
 7442SOL    HW133785   1.746   0.246   2.500 -0.8364 -0.3377 -1.1003
 7442SOL    HW233786   1.650   0.183   2.602 -1.3274 -0.4445 -0.1505
 7443SOL     OW33787   3.460   1.310   4.688  0.1808 -0.0576 -0.4963
 7443SOL    HW133788   3.383   1.287   4.636 -1.0264  0.7641  0.9246
 7443SOL    HW233789   3.417   1.341   4.768 -0.3739  2.9955 -1.9725
 7444SOL     OW33790   2.729   0.357   2.915 -0.3292  0.5253  0.0613
 7444SOL    HW133791   2.757   0.281   2.966  0.3646 -1.0539 -2.6668
 7444SOL    HW233792   2.648   0.380   2.959  0.3638  0.3574  1.4067
 7445SOL     OW33793   2.076   1.861   7.220 -0.0101 -0.0835 -0.4067
 7445SOL    HW133794   2.150   1.830   7.167  0.5911 -1.8756  1.4684
 7445SOL    HW233795   2.070   1.949   7.184  2.5026 -0.5957 -2.0846
 7446SOL     OW33796   2.134   4.672   9.095 -0.1152  0.4181 -0.5955
 7446SOL    HW133797   2.190   4.620   9.153 -0.2893  2.9871  1.8428
 7446SOL    HW233798   2.110   4.599   9.037  0.0201  0.5219 -0.7824
 7447SOL     OW33799   1.572   1.593  10.973 -0.3064  0.4205 -0.1619
 7447SOL    HW133800   1.497   1.566  11.025 -0.7506 -1.2050 -1.6435
 7447SOL    HW233801   1.549   1.548  10.892  0.7031  2.4669 -1.5995
 7448SOL     OW33802   2.117   3.152   6.789 -0.4904  0.1945  0.2926
 7448SOL    HW133803   2.119   3.069   6.838  1.5434 -1.2671 -2.3204
 7448SOL    HW233804   2.153   3.118   6.707  0.5497 -0.0739  0.8592
 7449SOL     OW33805   1.421   4.021  17.394 -0.4456 -0.0922 -0.2119
 7449SOL    HW133806   1.328   4.007  17.414 -0.4758 -2.0146 -1.6734
 7449SOL    HW233807   1.436   4.096  17.451 -1.2684  1.0011 -1.4156
 7450SOL     OW33808   2.875   1.374   2.601  0.2402 -0.1597 -0.3741
 7450SOL    HW133809   2.863   1.380   2.506  1.1407  0.9164 -0.4149
 7450SOL    HW233810   2.876   1.467   2.624 -2.0996 -0.0164 -0.8201
 7451SOL     OW33811   3.003   0.662   6.060  0.5821 -0.5869 -0.9837
 7451SOL    HW133812   2.930   0.675   5.999  0.8339 -1.3552 -1.4604
 7451SOL    HW233813   3.024   0.570   6.043 -3.1609 -1.3325 -1.5964
 7452SOL     OW33814   4.502   2.771   3.073 -0.8283 -0.2467 -0.6353
 7452SOL    HW133815   4.538   2.858   3.091 -2.3788 -0.1427  2.1226
 7452SOL    HW233816   4.562   2.714   3.121 -1.4257 -1.0825 -0.8871
 7453SOL     OW33817   2.946   1.111  10.384  0.3383 -0.1534 -0.1429
 7453SOL    HW133818   2.880   1.173  10.352  0.9414 -0.9096 -2.8878
 7453SOL    HW233819   2.898   1.032  10.362  0.7728 -1.0489  2.1787
 7454SOL     OW33820   3.251   0.681   9.874  0.1613  0.5204 -0.0365
 7454SOL    HW133821   3.256   0.772   9.847 -0.9955  1.0316  1.4758
 7454SOL    HW233822   3.176   0.683   9.933 -1.5238  0.5629 -2.1763
 7455SOL     OW33823   1.074   4.449   7.281 -0.2304 -0.9294  1.1188
 7455SOL    HW133824   1.035   4.370   7.244 -2.5396  0.0642  1.4720
 7455SOL    HW233825   1.020   4.461   7.359 -3.6240 -0.1595 -1.3507
 7456SOL     OW33826   1.935   1.540  11.039 -0.0423 -0.5039 -0.6838
 7456SOL    HW133827   2.028   1.557  11.052  0.0358 -1.0435 -0.5643
 7456SOL    HW233828   1.941   1.507  10.949  0.4396 -1.1464 -0.4113
 7457SOL     OW33829   3.411   4.364   7.853  0.7882  0.7088  0.0005
 7457SOL    HW133830   3.381   4.393   7.939  1.0858  0.5099  0.1687
 7457SOL    HW233831   3.499   4.400   7.845  0.3356  1.8398  0.1061
 7458SOL     OW33832   3.264   1.035   6.781  0.2612 -0.3295 -0.4139
 7458SOL    HW133833   3.189   1.059   6.728 -0.3946  0.9231  1.0755
 7458SOL    HW233834   3.309   0.962   6.738  1.9245  0.9468 -0.8257
 7459SOL     OW33835   3.154   1.498   6.101  0.0296 -0.5730 -0.4849
 7459SOL    HW133836   3.067   1.468   6.130 -0.2096  0.7559  0.1775
 7459SOL    HW233837   3.194   1.412   6.092 -2.1958 -1.7020  0.2922
 7460SOL     OW33838   4.628   4.041   0.241 -0.5855 -0.2037  0.1404
 7460SOL    HW133839   4.604   4.104   0.174 -0.5769 -0.5644 -0.2034
 7460SOL    HW233840   4.559   4.049   0.307 -0.4368 -4.3330  0.8090
 7461SOL     OW33841   3.910   1.150  11.316  0.6858 -0.3119  0.4286
 7461SOL    HW133842   3.989   1.176  11.363  2.3691 -0.2785 -2.4433
 7461SOL    HW233843   3.850   1.224  11.324  0.8075 -0.2337  0.6145
 7462SOL     OW33844   4.486   0.307   7.844  0.0209  0.3121  0.2201
 7462SOL    HW133845   4.571   0.341   7.872 -0.4214  0.4139  1.4167
 7462SOL    HW233846   4.435   0.301   7.924 -0.0737 -0.7373  0.0786
 7463SOL     OW33847   0.554   2.350   5.681 -0.0010 -0.2604  0.1614
 7463SOL    HW133848   0.539   2.265   5.640  0.1907 -0.6332  0.8795
 7463SOL    HW233849   0.541   2.400   5.600  0.4014  1.0337  0.8976
 7464SOL     OW33850   1.368   3.345   9.174  0.7089  0.6451 -0.3906
 7464SOL    HW133851   1.351   3.266   9.226  1.6638  1.7284  1.5793
 7464SOL    HW233852   1.326   3.317   9.093  3.8076 -0.2453 -1.6650
 7465SOL     OW33853   3.172   4.680   0.690  0.3109  0.2819  0.4002
 7465SOL    HW133854   3.244   4.654   0.747  0.7633  1.7686  0.4921
 7465SOL    HW233855   3.160   4.590   0.659  2.1367 -0.0175  0.5683
 7466SOL     OW33856   1.574   1.451   6.129  0.0772 -0.2312  0.1287
 7466SOL    HW133857   1.603   1.449   6.038  2.8906 -0.7285  1.0324
 7466SOL    HW233858   1.662   1.461   6.163  0.7601  0.2957 -1.8017
 7467SOL     OW33859   3.235   3.069  14.723  0.5642 -0.0170  0.1728
 7467SOL    HW133860   3.252   2.985  14.766 -0.5390  0.1918  1.0268
 7467SOL    HW233861   3.265   3.133  14.788  0.6465  0.2477 -0.1254
 7468SOL     OW33862   0.191   0.386   4.066  0.3441 -0.0790  0.1962
 7468SOL    HW133863   0.223   0.370   4.155  1.5591 -2.3675 -0.6381
 7468SOL    HW233864   0.145   0.303   4.053 -1.3820  0.7784  0.8239
 7469SOL     OW33865   0.527   2.786   8.133 -0.0611 -0.3921  0.3389
 7469SOL    HW133866   0.506   2.837   8.212 -0.6597 -1.6980  1.0296
 7469SOL    HW233867   0.567   2.708   8.172  1.0699  0.8662  1.6939
 7470SOL     OW33868   0.779   2.556   2.169  0.2071 -0.8583 -0.1855
 7470SOL    HW133869   0.719   2.627   2.144 -1.4444 -1.9403  0.7164
 7470SOL    HW233870   0.828   2.590   2.244  0.6649  0.2694 -0.9887
 7471SOL     OW33871   2.020   4.321   3.870 -0.1077 -0.1999  0.1269
 7471SOL    HW133872   2.104   4.327   3.914  1.0157  0.2035 -2.0902
 7471SOL    HW233873   1.966   4.295   3.944 -0.9269  1.7039  0.2060
 7472SOL     OW33874   1.986   2.227  16.055 -0.1108  0.2463  0.0110
 7472SOL    HW133875   1.957   2.138  16.035 -0.0099  0.4395 -1.0413
 7472SOL    HW233876   1.900   2.263  16.076  0.0282 -0.9517  2.5660
 7473SOL     OW33877   3.876   1.018   3.308 -0.0984 -0.4189  0.4264
 7473SOL    HW133878   3.924   0.997   3.388  1.2932  1.7005  0.1603
 7473SOL    HW233879   3.923   0.957   3.251 -0.8443 -1.7138  1.2109
 7474SOL     OW33880   1.293   1.723  17.488 -0.4003  0.3068  0.2506
 7474SOL    HW133881   1.290   1.633  17.456 -1.0450  0.7352 -0.8813
 7474SOL    HW233882   1.218   1.760  17.441 -0.3905  1.0631  0.8299
 7475SOL     OW33883   4.008   3.399  12.083  0.5197 -0.0923  0.0978
 7475SOL    HW133884   4.055   3.433  12.007  0.6586  1.9013  1.0738
 7475SOL    HW233885   4.080   3.378  12.142  0.3511  1.2716  0.7696
 7476SOL     OW33886   3.152   2.420   0.572 -0.0207  0.0479  0.2921
 7476SOL    HW133887   3.121   2.510   0.562 -1.5232 -0.1893  3.0063
 7476SOL    HW233888   3.077   2.361   0.563  0.5626 -0.3458 -2.2102
 7477SOL     OW33889   2.764   0.479  10.006  0.0226 -0.2108  0.3790
 7477SOL    HW133890   2.700   0.502  10.073 -2.7550 -0.1290 -2.2520
 7477SOL    HW233891   2.730   0.396   9.973  1.9458 -1.7067  2.1465
 7478SOL     OW33892   4.423   1.615   6.071 -0.3759 -0.2629 -0.5496
 7478SOL    HW133893   4.368   1.537   6.067 -0.4808 -0.1981 -0.4092
 7478SOL    HW233894   4.493   1.593   6.133 -0.0730  2.1419 -0.0326
 7479SOL     OW33895   0.202   4.500   4.582  0.1280  0.0239 -0.5298
 7479SOL    HW133896   0.188   4.542   4.667 -0.0966  1.9188 -1.5064
 7479SOL    HW233897   0.116   4.464   4.559 -0.2317 -0.9724  2.3563
 7480SOL     OW33898   3.692   0.626   5.908 -0.1964 -0.5738 -0.3696
 7480SOL    HW133899   3.715   0.622   5.815  0.9107 -0.4141 -0.1089
 7480SOL    HW233900   3.768   0.577   5.940 -0.3613  0.0785  1.0178
 7481SOL     OW33901   1.115   2.179   5.761  0.7091  0.0581  0.1669
 7481SOL    HW133902   1.169   2.209   5.834  1.1221  0.3295 -0.2548
 7481SOL    HW233903   1.086   2.258   5.716 -1.7891  0.2641  2.1245
 7482SOL     OW33904   1.948   3.276  11.540  0.4008  0.5281 -0.0469
 7482SOL    HW133905   1.899   3.217  11.482 -0.8150 -0.1550  1.6987
 7482SOL    HW233906   2.038   3.244  11.529  0.3697 -0.3416  2.2886
 7483SOL     OW33907   0.325   0.198   1.547 -0.3466  0.5465 -0.7074
 7483SOL    HW133908   0.259   0.240   1.600 -0.1683  1.8902 -1.5565
 7483SOL    HW233909   0.267   0.125   1.523 -0.3558  0.1109  0.6530
 7484SOL     OW33910   3.169   0.478   6.503  0.1055  0.5930 -0.2002
 7484SOL    HW133911   3.221   0.474   6.584 -1.1543  2.6366  0.6936
 7484SOL    HW233912   3.135   0.388   6.506 -0.4220  0.8690  2.0993
 7485SOL     OW33913   4.340   0.264   0.081  0.2531 -0.3374  0.3981
 7485SOL    HW133914   4.250   0.285   0.105 -0.9021 -4.1735 -0.5379
 7485SOL    HW233915   4.388   0.295   0.158  0.9305 -1.0499  0.2653
 7486SOL     OW33916   4.687   3.707   7.728  0.2046 -0.3148  0.1688
 7486SOL    HW133917   4.695   3.782   7.669 -1.6180 -1.4019 -1.4283
 7486SOL    HW233918   0.013   3.642   7.681  0.2798 -0.2819  0.2057
 7487SOL     OW33919   4.440   2.419   4.478 -0.1523 -0.5413 -0.0154
 7487SOL    HW133920   4.353   2.379   4.480  0.2067 -1.4147 -1.4217
 7487SOL    HW233921   4.488   2.359   4.422  1.2206  0.5767 -0.0393
 7488SOL     OW33922   4.492   0.809   7.808 -0.0171  0.2772  0.0597
 7488SOL    HW133923   4.522   0.738   7.752  1.4034 -0.8966  2.3067
 7488SOL    HW233924   4.423   0.755   7.847  0.2060  1.2653  1.8424
 7489SOL     OW33925   1.553   0.324   4.086 -0.1440 -0.0586 -0.0812
 7489SOL    HW133926   1.638   0.290   4.113  0.2962  1.7195  0.7546
 7489SOL    HW233927   1.529   0.365   4.169  0.5697 -0.2173  0.2025
 7490SOL     OW33928   1.215   0.113   4.569 -0.0557  0.3501  0.3396
 7490SOL    HW133929   1.260   0.173   4.628  0.1464  0.0195  0.5225
 7490SOL    HW233930   1.263   0.131   4.488 -0.6232 -0.1670 -0.1125
 7491SOL     OW33931   4.281   2.990   5.110  0.2533 -0.1491 -0.4971
 7491SOL    HW133932   4.231   2.929   5.056  2.3267 -2.9135  0.7070
 7491SOL    HW233933   4.213   3.050   5.141  0.4228 -1.0896  1.6755
 7492SOL     OW33934   1.014   3.698   2.391  0.5924  0.4245 -0.0465
 7492SOL    HW133935   0.930   3.674   2.429  0.7406 -0.1893 -0.0976
 7492SOL    HW233936   1.008   3.790   2.366  1.1882  0.6496  0.6649
 7493SOL     OW33937   0.687   3.317   3.841 -0.0476  0.5713 -0.4454
 7493SOL    HW133938   0.632   3.282   3.771  1.4148 -2.0504 -0.2893
 7493SOL    HW233939   0.645   3.276   3.918  2.3315  1.6933  1.4472
 7494SOL     OW33940   0.294   2.544   3.216 -0.6261  0.5311 -0.3092
 7494SOL    HW133941   0.231   2.511   3.152 -1.2730  1.4315 -0.1391
 7494SOL    HW233942   0.373   2.495   3.193 -1.2605  0.2087 -1.7557
 7495SOL     OW33943   0.759   4.268   9.198  0.1946 -0.1474  0.4313
 7495SOL    HW133944   0.791   4.217   9.273  0.8693 -0.4249 -0.0403
 7495SOL    HW233945   0.753   4.206   9.125  0.3323  0.4514 -0.0858
 7496SOL     OW33946   4.296   2.495   8.406  0.0474 -0.5388  0.0160
 7496SOL    HW133947   4.292   2.571   8.347 -1.5367 -0.5899  0.0640
 7496SOL    HW233948   4.385   2.508   8.440 -0.5296 -0.4777  1.5150
 7497SOL     OW33949   3.413   4.480   1.875 -0.2822  0.4349 -0.6250
 7497SOL    HW133950   3.370   4.566   1.881 -1.4953 -0.1950 -0.3084
 7497SOL    HW233951   3.486   4.509   1.929 -0.9010 -0.3610  0.6401
 7498SOL     OW33952   3.895   4.389   2.800 -0.4111 -0.4578 -0.3751
 7498SOL    HW133953   3.935   4.459   2.853 -1.1023  0.5087 -1.1249
 7498SOL    HW233954   3.804   4.396   2.827 -0.0870 -0.3245  0.6599
 7499SOL     OW33955   0.168   1.322   6.502 -0.0197  0.2370 -0.0046
 7499SOL    HW133956   0.259   1.339   6.526 -0.5165  0.6446  1.5766
 7499SOL    HW233957   0.148   1.257   6.570 -2.1739  1.6949  0.7608
 7500SOL     OW33958   1.583   0.212   2.165 -0.0325 -0.0605 -0.0829
 7500SOL    HW133959   1.580   0.134   2.220  1.0483 -1.3078 -1.7973
 7500SOL    HW233960   1.593   0.168   2.081 -3.5243  1.0808 -1.0925
 7501SOL     OW33961   1.372   0.395  11.273  0.3306 -0.4013 -0.3129
 7501SOL    HW133962   1.458   0.374  11.235 -0.5332  0.0698 -2.5179
 7501SOL    HW233963   1.391   0.428  11.360  0.5132 -3.2613  0.7471
 7502SOL     OW33964   4.548   4.339   5.688  0.1681 -0.0118 -0.5968
 7502SOL    HW133965   4.506   4.257   5.713 -0.8339  0.8693  0.5480
 7502SOL    HW233966   4.485   4.375   5.626  0.4249  1.9621  0.2719
 7503SOL     OW33967   3.606   1.447  16.989 -0.0436 -0.4683  0.5196
 7503SOL    HW133968   3.633   1.491  17.070  1.7860 -1.2711  0.3530
 7503SOL    HW233969   3.675   1.494  16.942 -0.9465 -1.2807 -1.5873
 7504SOL     OW33970   4.623   4.675   6.487 -0.0130  0.0115 -0.0418
 7504SOL    HW133971   4.635   4.717   6.401 -0.7046  1.2497  0.4703
 7504SOL    HW233972   4.712   4.652   6.513  0.8190  2.0553 -1.1101
 7505SOL     OW33973   4.326   3.590   1.963 -0.2420 -0.0936  0.1823
 7505SOL    HW133974   4.390   3.563   1.897  1.7561 -0.2439  2.1656
 7505SOL    HW233975   4.246   3.582   1.912  0.5273  0.0523 -1.0424
 7506SOL     OW33976   4.455   1.106   9.030  0.5307 -0.2959 -0.0389
 7506SOL    HW133977   4.444   1.181   8.971  1.4948  0.2494  0.4740
 7506SOL    HW233978   4.511   1.042   8.986 -0.5522  0.4802 -2.5863
 7507SOL     OW33979   2.364   4.561  16.750  0.6410 -0.3767  0.0726
 7507SOL    HW133980   2.322   4.487  16.794 -1.2709 -0.1226 -1.3495
 7507SOL    HW233981   2.446   4.518  16.724  0.8595 -1.4183  2.4697
 7508SOL     OW33982   1.654   3.731   2.108  0.4492  0.2246  0.3846
 7508SOL    HW133983   1.632   3.786   2.183  0.7126  0.8966 -0.0330
 7508SOL    HW233984   1.563   3.710   2.091  0.4754  0.1402  0.3502
 7509SOL     OW33985   2.180   0.080  13.631 -0.1074 -0.3415 -0.3314
 7509SOL    HW133986   2.097   0.127  13.621 -0.0561  0.1444  1.3576
 7509SOL    HW233987   2.224   0.133  13.698 -0.4236  0.5358 -0.8254
 7510SOL     OW33988   2.757   0.775   2.400 -0.6288  0.0327  0.4378
 7510SOL    HW133989   2.726   0.685   2.403  2.0278 -0.7546  3.4688
 7510SOL    HW233990   2.723   0.796   2.313  0.5103 -0.8717 -0.2256
 7511SOL     OW33991   2.565   0.436   5.065  0.1039  0.0185 -0.0138
 7511SOL    HW133992   2.503   0.428   5.137  0.7765  3.0474  0.8874
 7511SOL    HW233993   2.508   0.448   4.990  1.2923 -1.2124 -1.1138
 7512SOL     OW33994   1.156   3.687   1.060  0.5015 -0.6372 -0.2413
 7512SOL    HW133995   1.111   3.644   1.133  0.8529 -0.2256  0.2111
 7512SOL    HW233996   1.248   3.688   1.085 -0.4230 -1.2342  3.1592
 7513SOL     OW33997   4.623   0.001   2.056  0.0728  0.1800  0.3736
 7513SOL    HW133998   4.620   0.008   2.151  0.7200  0.9439  0.3372
 7513SOL    HW233999   4.715   0.021   2.035  0.6428 -2.0781  0.7219
 7514SOL     OW34000   4.087   1.318   5.176 -0.2214  0.9498 -0.2796
 7514SOL    HW134001   4.081   1.223   5.169 -0.3390  1.0179 -1.0639
 7514SOL    HW234002   4.093   1.339   5.083 -0.7934  2.3840  0.0085
 7515SOL     OW34003   1.540   3.932  15.099  0.1659  0.1300 -0.3283
 7515SOL    HW134004   1.550   3.896  15.187  1.8460 -0.6478 -0.8231
 7515SOL    HW234005   1.624   3.907  15.059  0.0392 -0.5229 -0.1871
 7516SOL     OW34006   1.876   2.892  15.982 -0.4035  0.3538  0.0588
 7516SOL    HW134007   1.866   2.882  16.077 -1.6657  0.3886 -0.0768
 7516SOL    HW234008   1.895   2.986  15.977  2.3665 -0.0505  2.4667
 7517SOL     OW34009   4.419   4.698  12.515  0.1019  0.2984 -0.5136
 7517SOL    HW134010   4.372   4.614  12.507 -2.2596  1.6530 -0.8006
 7517SOL    HW234011   4.490   4.673  12.574  0.3639  0.3022 -0.8283
 7518SOL     OW34012   1.588   4.610   4.623  0.0520  0.2139  0.1921
 7518SOL    HW134013   1.523   4.549   4.587 -0.0180 -0.4951  1.5191
 7518SOL    HW234014   1.598   4.673   4.551 -1.8160  2.1731  1.6623
 7519SOL     OW34015   1.771   0.264  15.781  0.7632 -0.0870 -0.6474
 7519SOL    HW134016   1.743   0.226  15.864 -2.0013  0.9018 -1.1376
 7519SOL    HW234017   1.695   0.241  15.728  0.8898  1.5128 -1.5326
 7520SOL     OW34018   0.374   3.265  14.459 -0.1690  0.1280  0.3535
 7520SOL    HW134019   0.451   3.312  14.425  0.4815 -0.2997  1.2173
 7520SOL    HW234020   0.303   3.258  14.396 -0.8786  1.3100  1.0289
 7521SOL     OW34021   1.726   4.597   4.001 -0.0329  0.2436 -0.0876
 7521SOL    HW134022   1.761   4.546   3.927  2.1565  1.1685  0.3179
 7521SOL    HW234023   1.681   4.538   4.061  0.6539 -0.5584 -0.3641
 7522SOL     OW34024   0.485   3.373   4.539 -0.0490  0.0338 -0.2092
 7522SOL    HW134025   0.496   3.301   4.477 -1.9540  0.4232 -1.0129
 7522SOL    HW234026   0.542   3.438   4.497  1.6834 -2.0082 -0.9797
 7523SOL     OW34027   1.479   1.951   3.649 -0.2795 -0.4410 -0.5129
 7523SOL    HW134028   1.462   1.993   3.734 -0.6525 -0.7802 -0.4218
 7523SOL    HW234029   1.565   1.915   3.672  0.9795  3.2757  0.7154
 7524SOL     OW34030   0.367   3.902  12.715 -0.3644 -0.2215  0.5970
 7524SOL    HW134031   0.383   3.870  12.626 -0.1689  1.3144  0.0680
 7524SOL    HW234032   0.456   3.923  12.742 -0.1078  3.2130 -2.9403
 7525SOL     OW34033   3.750   1.779   1.167  0.0255  0.0505  0.3097
 7525SOL    HW134034   3.803   1.719   1.115 -0.6848  0.1181 -0.4950
 7525SOL    HW234035   3.798   1.860   1.152 -0.8951  1.1109  2.9946
 7526SOL     OW34036   1.535   1.346   6.560 -0.2221 -0.1973  0.2331
 7526SOL    HW134037   1.574   1.294   6.630  0.5158  1.0912  0.7775
 7526SOL    HW234038   1.447   1.311   6.547 -1.1496  0.8984  3.6071
 7527SOL     OW34039   1.280   0.097   0.625  0.5756 -0.0651 -0.2072
 7527SOL    HW134040   1.317   0.168   0.678  0.1814  0.7814 -1.0540
 7527SOL    HW234041   1.312   0.020   0.672  1.7135  0.5952  0.1044
 7528SOL     OW34042   1.704   2.321  16.472 -0.5393 -0.0265 -0.1364
 7528SOL    HW134043   1.642   2.354  16.538 -0.6508  1.8187 -1.1684
 7528SOL    HW234044   1.733   2.403  16.432  0.4348  0.4281  1.4866
 7529SOL     OW34045   2.248   2.768   8.846  0.5367 -0.2019  0.4641
 7529SOL    HW134046   2.338   2.786   8.872  0.4715  2.1292 -0.9073
 7529SOL    HW234047   2.236   2.676   8.872  0.3824 -0.8457 -1.9072
 7530SOL     OW34048   3.211   0.605   7.977  0.3084  0.1472  0.0032
 7530SOL    HW134049   3.303   0.600   7.950  0.1909 -1.3019 -0.1242
 7530SOL    HW234050   3.206   0.535   8.041  1.7108 -1.2047 -1.3660
 7531SOL     OW34051   4.053   4.489   8.811 -0.2187 -0.6732 -0.0885
 7531SOL    HW134052   3.962   4.469   8.832 -0.7146  0.2150 -1.4117
 7531SOL    HW234053   4.085   4.435   8.883  0.6017  1.2495  0.9860
 7532SOL     OW34054   3.312   2.078   7.603 -0.0035  0.6078  0.3427
 7532SOL    HW134055   3.330   2.107   7.692 -1.9426 -1.1117  1.2778
 7532SOL    HW234056   3.393   2.031   7.582 -1.1791 -2.3120  2.4433
 7533SOL     OW34057   3.331   1.572   7.243 -0.0507  0.0440  0.2011
 7533SOL    HW134058   3.266   1.612   7.301  0.6697  0.2948  0.8437
 7533SOL    HW234059   3.396   1.545   7.308  0.5556 -2.4485 -1.4378
 7534SOL     OW34060   3.212   1.634   5.676 -0.0388 -0.1734  0.1226
 7534SOL    HW134061   3.304   1.660   5.673 -0.4000  0.9359 -1.2008
 7534SOL    HW234062   3.198   1.620   5.770  1.8447 -2.4506  0.0615
 7535SOL     OW34063   2.496   4.381   7.528 -0.1218  0.3540  0.5684
 7535SOL    HW134064   2.521   4.333   7.607 -0.9826 -0.5665  0.2853
 7535SOL    HW234065   2.478   4.464   7.572 -0.3040  0.3357  0.5277
 7536SOL     OW34066   1.089   3.777  12.655  0.5157 -0.0478 -0.6603
 7536SOL    HW134067   1.134   3.855  12.686  0.7850 -0.5345  0.1916
 7536SOL    HW234068   1.086   3.792  12.561  1.3853  1.2312 -0.4698
 7537SOL     OW34069   0.817   2.257   5.932 -0.6202  0.0225  0.3969
 7537SOL    HW134070   0.724   2.239   5.942 -0.6451 -0.1289 -0.0931
 7537SOL    HW234071   0.845   2.170   5.905  0.2898  1.2561 -2.6328
 7538SOL     OW34072   2.102   2.138   7.144 -0.2996  0.2663  0.2022
 7538SOL    HW134073   2.197   2.147   7.150 -0.3199  1.3097 -0.8778
 7538SOL    HW234074   2.088   2.230   7.166  0.5113  0.1492  1.1999
 7539SOL     OW34075   2.783   0.826   7.152  0.4569 -1.1477 -0.3467
 7539SOL    HW134076   2.826   0.858   7.073  2.3873  1.0849  1.6018
 7539SOL    HW234077   2.690   0.818   7.135 -0.2714  0.1013  2.9209
 7540SOL     OW34078   4.627   2.137   3.702  0.0476  0.5237  0.0210
 7540SOL    HW134079   4.655   2.066   3.760  0.4044 -0.0101 -0.7964
 7540SOL    HW234080   4.671   2.215   3.736  0.5552  0.5341 -0.6572
 7541SOL     OW34081   0.869   0.213   3.195  1.0297 -0.7032 -0.0436
 7541SOL    HW134082   0.947   0.268   3.191  0.4529  0.3638  3.1325
 7541SOL    HW234083   0.818   0.252   3.124  2.0111  1.8337  0.6457
 7542SOL     OW34084   1.569   1.831   3.992  0.2158  0.0925  0.5201
 7542SOL    HW134085   1.562   1.925   4.004 -2.0511 -0.1515  1.0315
 7542SOL    HW234086   1.518   1.791   4.062  0.5377  0.7734  1.1422
 7543SOL     OW34087   2.437   2.493   2.025  0.4667  0.6491  0.1727
 7543SOL    HW134088   2.366   2.443   1.985  0.7826 -0.5698  1.1122
 7543SOL    HW234089   2.384   2.573   2.027 -1.4008 -0.5654 -0.3671
 7544SOL     OW34090   3.063   1.862   4.304 -0.2418  0.3799  0.5312
 7544SOL    HW134091   3.092   1.921   4.234 -0.0269  1.5678  1.6311
 7544SOL    HW234092   3.095   1.914   4.377  0.8132  0.3590  0.0739
 7545SOL     OW34093   2.985   4.139  14.168  0.4423 -0.4519 -0.3569
 7545SOL    HW134094   3.025   4.108  14.086 -0.7785 -1.0542 -0.7260
 7545SOL    HW234095   2.918   4.197  14.129  0.7337 -0.5492 -0.9999
 7546SOL     OW34096   3.851   2.743  10.604  0.1436 -0.3568  0.5234
 7546SOL    HW134097   3.846   2.787  10.689 -0.1922 -1.0542  0.8685
 7546SOL    HW234098   3.757   2.743  10.588  0.1882  0.6286  0.2953
 7547SOL     OW34099   3.393   3.974   4.281 -0.0248 -0.1385 -0.2599
 7547SOL    HW134100   3.466   4.005   4.228  0.7761 -1.0316  0.3199
 7547SOL    HW234101   3.411   4.022   4.362  1.5844  0.0136 -0.7006
 7548SOL     OW34102   0.777   3.262   5.754  0.3088 -0.5980 -0.3560
 7548SOL    HW134103   0.694   3.233   5.717 -0.0853 -0.7283  0.6279
 7548SOL    HW234104   0.821   3.181   5.778  2.7846  0.7819 -0.1286
 7549SOL     OW34105   1.664   0.461  10.060  0.0734 -0.4511  0.3197
 7549SOL    HW134106   1.713   0.533  10.021 -0.3276 -0.5237 -0.3228
 7549SOL    HW234107   1.573   0.491  10.054  0.0338 -0.5226  0.5752
 7550SOL     OW34108   0.751   3.701  13.434 -0.6387 -0.6464 -0.8285
 7550SOL    HW134109   0.821   3.657  13.386  1.1148 -0.8538  1.8873
 7550SOL    HW234110   0.773   3.673  13.523  0.1149  2.7526  0.0455
 7551SOL     OW34111   2.483   0.101  17.682 -0.2645  0.2297  0.2724
 7551SOL    HW134112   2.433   0.026  17.651 -0.8046  1.5900 -2.0957
 7551SOL    HW234113   2.565   0.063  17.650 -1.1664 -2.1507  0.7712
 7552SOL     OW34114   2.044   0.342   7.093  0.5271  0.3972 -0.4141
 7552SOL    HW134115   2.063   0.429   7.057 -2.4637  1.0289 -0.4760
 7552SOL    HW234116   1.973   0.360   7.154  0.4249  0.7654 -0.6401
 7553SOL     OW34117   3.094   2.103   1.907  0.1934 -0.2223 -0.0060
 7553SOL    HW134118   3.005   2.130   1.928  0.4216  1.0882 -0.7153
 7553SOL    HW234119   3.077   2.013   1.879  0.3557 -0.2211 -0.1100
 7554SOL     OW34120   2.916   3.899   0.321  0.0781 -0.2447  0.0320
 7554SOL    HW134121   2.940   3.815   0.359 -0.8713 -0.5244  0.0092
 7554SOL    HW234122   2.928   3.887   0.227 -2.3995  0.2109 -0.3442
 7555SOL     OW34123   0.863   0.854   7.257  0.0873 -0.3122 -0.4037
 7555SOL    HW134124   0.778   0.881   7.221  0.1296 -2.7229 -2.3273
 7555SOL    HW234125   0.857   0.875   7.351 -1.6832 -0.6246 -0.4438
 7556SOL     OW34126   2.482   0.326  12.317  0.6712 -0.1217  0.1301
 7556SOL    HW134127   2.422   0.261  12.283 -1.0316  0.3458  2.2331
 7556SOL    HW234128   2.532   0.340  12.237  4.0277  1.3123  2.4782
 7557SOL     OW34129   2.563   0.641   9.773 -0.4555  0.0643 -0.2839
 7557SOL    HW134130   2.520   0.606   9.851  0.0322 -0.4101 -0.2279
 7557SOL    HW234131   2.595   0.723   9.810 -1.1066 -0.1241  0.6895
 7558SOL     OW34132   0.660   1.449   6.460  0.2829 -0.5436  0.1640
 7558SOL    HW134133   0.576   1.428   6.500 -0.2717 -0.3777 -0.9280
 7558SOL    HW234134   0.667   1.389   6.386  0.3619 -0.3631  0.0258
 7559SOL     OW34135   1.000   1.582   3.438 -0.1334 -0.0427  0.3622
 7559SOL    HW134136   1.032   1.638   3.507 -0.9195  3.0913 -1.8125
 7559SOL    HW234137   0.985   1.636   3.360  0.5134  1.3809  1.2298
 7560SOL     OW34138   4.171   1.583   2.254  0.3264 -0.5932 -0.8042
 7560SOL    HW134139   4.154   1.489   2.250 -1.2476 -0.3996  1.6786
 7560SOL    HW234140   4.263   1.591   2.227  0.5431 -0.6654 -0.0973
 7561SOL     OW34141   2.010   1.539   7.790  0.1802 -0.6643  0.4544
 7561SOL    HW134142   1.977   1.622   7.824 -0.5700 -1.3882  1.4970
 7561SOL    HW234143   2.021   1.486   7.869  0.5938 -0.9862  0.1798
 7562SOL     OW34144   1.092   0.891   7.674  0.1430  0.0102 -0.4278
 7562SOL    HW134145   1.148   0.967   7.656 -0.9277  0.1353 -3.3444
 7562SOL    HW234146   1.010   0.939   7.688  0.5757  0.8262 -0.7078
 7563SOL     OW34147   4.522   3.665   3.930 -0.2346  0.0366 -0.4454
 7563SOL    HW134148   4.600   3.677   3.985  0.0765 -1.3077 -0.6050
 7563SOL    HW234149   4.561   3.632   3.850  0.7073 -0.3628  0.1793
 7564SOL     OW34150   1.304   3.640   4.449 -0.1154 -0.4119  0.2084
 7564SOL    HW134151   1.307   3.697   4.527  0.2205  0.6427 -0.5774
 7564SOL    HW234152   1.236   3.677   4.393 -0.5075 -2.3844 -0.6196
 7565SOL     OW34153   2.790   4.120  17.597 -0.6373  0.3755 -0.4719
 7565SOL    HW134154   2.702   4.089  17.579 -1.2254  0.9477  1.4925
 7565SOL    HW234155   2.848   4.055  17.555 -1.1288 -0.0485 -0.4991
 7566SOL     OW34156   2.461   1.533   3.985 -0.1032  0.2730  0.3343
 7566SOL    HW134157   2.460   1.599   4.053 -0.4990 -0.6153  1.1941
 7566SOL    HW234158   2.445   1.459   4.044  1.8285 -0.8003 -0.4568
 7567SOL     OW34159   3.295   2.598   0.338  0.0553 -0.2010 -0.0462
 7567SOL    HW134160   3.315   2.530   0.403  0.4436  1.0737  1.1735
 7567SOL    HW234161   3.362   2.663   0.357  2.2413 -2.1103 -1.1842
 7568SOL     OW34162   3.898   2.473   3.924 -0.2517 -0.5375  0.1694
 7568SOL    HW134163   3.836   2.502   3.858 -1.0232 -1.4952  0.4615
 7568SOL    HW234164   3.844   2.517   3.989  0.3617  0.8064 -0.2290
 7569SOL     OW34165   2.355   0.529   7.664 -0.1265  0.0226 -0.0357
 7569SOL    HW134166   2.349   0.441   7.627 -2.4553  0.5972 -1.0435
 7569SOL    HW234167   2.391   0.524   7.752 -1.3657  0.9475  0.5286
 7570SOL     OW34168   2.962   1.572   2.357 -0.2401 -0.2219  0.1020
 7570SOL    HW134169   2.896   1.523   2.307  0.4940  2.6455 -3.6577
 7570SOL    HW234170   2.905   1.647   2.375  2.1641  1.8511 -1.0040
 7571SOL     OW34171   3.561   2.397   1.629  0.1212  0.4864  0.0677
 7571SOL    HW134172   3.567   2.318   1.682 -0.6329 -1.1531 -2.3128
 7571SOL    HW234173   3.469   2.382   1.605  0.2851 -0.3161 -0.0320
 7572SOL     OW34174   3.854   3.066  16.478  0.0134 -0.3798  0.7771
 7572SOL    HW134175   3.931   3.121  16.462  0.4029 -0.6062  1.8899
 7572SOL    HW234176   3.887   2.980  16.455  0.8236 -0.0600  0.7413
 7573SOL     OW34177   0.017   1.969   9.392  0.1059 -0.9337  0.4323
 7573SOL    HW134178   0.033   2.018   9.311  0.8319 -0.0083  1.1446
 7573SOL    HW234179   4.646   1.967   9.393  0.1280 -1.1314  2.0013
 7574SOL     OW34180   2.252   3.213   5.227 -0.2553 -0.1447  0.1671
 7574SOL    HW134181   2.217   3.296   5.260  1.1930  0.1780  0.9001
 7574SOL    HW234182   2.346   3.226   5.237 -0.6500  0.4415  3.0733
 7575SOL     OW34183   2.357   0.660   8.347 -0.1679 -0.3488  0.5623
 7575SOL    HW134184   2.268   0.661   8.311 -0.0949 -0.5006  0.3710
 7575SOL    HW234185   2.383   0.569   8.332  3.5259  1.0129 -1.1925
 7576SOL     OW34186   0.636   3.698   6.231  0.1219  0.3626  0.0826
 7576SOL    HW134187   0.562   3.758   6.227  1.7314  2.2996 -0.4031
 7576SOL    HW234188   0.625   3.654   6.147 -1.1999 -0.8603  0.8877
 7577SOL     OW34189   0.739   0.005   8.388 -0.9836  0.4274  0.0984
 7577SOL    HW134190   0.740   0.070   8.459  2.9525 -0.4776  0.8744
 7577SOL    HW234191   0.787   0.053   8.321 -2.2534 -0.2131 -1.2678
 7578SOL     OW34192   3.382   4.581   4.419  0.2209 -0.0084  0.5715
 7578SOL    HW134193   3.373   4.491   4.388  0.0503  0.8070 -1.7302
 7578SOL    HW234194   3.327   4.593   4.497 -0.1733  1.4062  0.0848
 7579SOL     OW34195   2.053   0.959   6.202  0.0834 -0.1225  0.1721
 7579SOL    HW134196   2.129   1.006   6.168 -0.0983  0.6409  0.8254
 7579SOL    HW234197   1.992   0.969   6.129 -0.9750 -0.6203  0.9853
 7580SOL     OW34198   2.880   3.596  10.360  0.0631  0.1157 -0.0417
 7580SOL    HW134199   2.791   3.570  10.382 -0.4146  2.2273  0.5353
 7580SOL    HW234200   2.864   3.691  10.364  1.8452  0.4389 -0.2245
 7581SOL     OW34201   2.408   3.757  10.914 -0.3011  0.6434 -0.3888
 7581SOL    HW134202   2.487   3.810  10.923 -0.9085  1.4256  0.4197
 7581SOL    HW234203   2.370   3.751  11.002  0.5500 -0.3660 -0.0957
 7582SOL     OW34204   2.699   3.355  11.648  0.4038 -0.5814  0.4794
 7582SOL    HW134205   2.729   3.283  11.703  0.9498 -0.7750 -0.0703
 7582SOL    HW234206   2.607   3.330  11.635  0.0397  0.9060  0.1469
 7583SOL     OW34207   1.379   4.604  13.169 -0.3461  0.9643  0.6462
 7583SOL    HW134208   1.314   4.637  13.232 -2.0721  0.0012 -0.6077
 7583SOL    HW234209   1.341   4.625  13.084  1.0337 -0.2622 -0.2687
 7584SOL     OW34210   0.574   1.847  17.666  0.0313  0.5938 -0.6195
 7584SOL    HW134211   0.665   1.863  17.641 -0.4190  1.9749 -1.3726
 7584SOL    HW234212   0.579   1.810   0.051  0.4179  1.6603 -0.1956
 7585SOL     OW34213   0.478   3.737   6.665 -0.4902 -0.7574  0.4945
 7585SOL    HW134214   0.507   3.828   6.661 -1.8139 -0.2244  3.0380
 7585SOL    HW234215   0.552   3.691   6.626 -1.2853 -0.0629 -1.8469
 7586SOL     OW34216   0.280   2.955   6.155 -0.1191  0.3614 -0.5644
 7586SOL    HW134217   0.361   2.930   6.200 -0.2702  0.3625 -0.2931
 7586SOL    HW234218   0.305   2.977   6.065 -1.2523  2.0788 -0.4423
 7587SOL     OW34219   3.506   1.077   8.677 -0.2051  0.4719  0.0714
 7587SOL    HW134220   3.431   1.017   8.682 -1.4777  2.1138  0.7151
 7587SOL    HW234221   3.561   1.017   8.727  0.3116  0.8820 -0.0012
 7588SOL     OW34222   4.116   1.331   0.475  0.0706  0.8894 -0.2125
 7588SOL    HW134223   4.039   1.372   0.513  0.1433 -0.7390  1.7084
 7588SOL    HW234224   4.175   1.348   0.548 -0.0139  0.0622  0.0503
 7589SOL     OW34225   3.272   3.857   3.651  0.3786 -0.2755 -0.1509
 7589SOL    HW134226   3.187   3.880   3.688  2.4764  1.3225  3.6667
 7589SOL    HW234227   3.251   3.767   3.628  0.7120 -0.8254  1.7131
 7590SOL     OW34228   4.164   1.453   8.511 -0.4723  0.5376  0.2289
 7590SOL    HW134229   4.195   1.457   8.421  0.6826  0.2539  0.6099
 7590SOL    HW234230   4.199   1.367   8.537 -0.9512 -0.5347 -2.7541
 7591SOL     OW34231   0.767   0.464   4.380  0.3524 -0.1984  0.1587
 7591SOL    HW134232   0.821   0.543   4.376  2.2067 -1.6149 -2.7018
 7591SOL    HW234233   0.746   0.453   4.473 -0.4369 -0.4338 -0.0482
 7592SOL     OW34234   0.827   3.464   5.568 -0.0101 -0.1989  0.1863
 7592SOL    HW134235   0.733   3.486   5.565  0.2055  0.4385 -2.2169
 7592SOL    HW234236   0.825   3.397   5.636  1.2582 -2.5191 -2.0664
 7593SOL     OW34237   2.114   4.339   8.563  0.0852  0.3892 -0.2793
 7593SOL    HW134238   2.079   4.391   8.635  2.1887 -0.5264  1.4134
 7593SOL    HW234239   2.038   4.346   8.506  1.1306 -0.0581 -1.7190
 7594SOL     OW34240   1.165   2.729  10.556  0.1585 -0.3569  0.5719
 7594SOL    HW134241   1.195   2.642  10.529 -0.5172 -0.6370  0.7189
 7594SOL    HW234242   1.185   2.718  10.648  1.0260 -0.9267  0.3105
 7595SOL     OW34243   2.056   3.889   0.933  0.3207  0.0442  0.2256
 7595SOL    HW134244   2.122   3.824   0.909 -2.3288 -2.4077 -0.5514
 7595SOL    HW234245   2.089   3.967   0.889 -0.1488 -0.0880 -0.3664
 7596SOL     OW34246   1.437   3.575   1.101 -0.1323  0.1227  0.2076
 7596SOL    HW134247   1.411   3.485   1.120  1.5928 -0.2056  1.0747
 7596SOL    HW234248   1.531   3.557   1.110 -0.3105  0.2891  2.2991
 7597SOL     OW34249   0.670   4.686   2.691  0.0587  0.4327  0.1367
 7597SOL    HW134250   0.585   4.664   2.730  0.4906 -1.0391  0.2688
 7597SOL    HW234251   0.654   0.035   2.634 -0.6443 -0.7505 -1.2123
 7598SOL     OW34252   2.911   1.895   5.716  0.7617 -0.4738 -0.0391
 7598SOL    HW134253   2.991   1.889   5.767  0.5385 -0.9998  0.2478
 7598SOL    HW234254   2.960   1.900   5.634  0.5496 -0.3172 -0.1556
 7599SOL     OW34255   4.092   0.597   6.960  0.4195 -0.0244 -0.5500
 7599SOL    HW134256   4.182   0.583   6.990  0.6189 -1.2525 -1.7577
 7599SOL    HW234257   4.037   0.623   7.035  0.4092 -1.4539 -0.0740
 7600SOL     OW34258   2.881   2.380   1.726  0.2198 -0.4784 -0.0373
 7600SOL    HW134259   2.915   2.331   1.801 -2.4782 -1.1019  0.7820
 7600SOL    HW234260   2.836   2.442   1.784 -1.1343  0.2401 -1.8494
 7601SOL     OW34261   1.194   0.182   5.829  0.3430 -0.5529 -0.2848
 7601SOL    HW134262   1.188   0.093   5.794  2.6535 -0.6846 -0.3411
 7601SOL    HW234263   1.116   0.222   5.793  0.5278 -1.6500 -1.9060
 7602SOL     OW34264   4.194   1.552  17.408 -0.1366  0.2261  0.1110
 7602SOL    HW134265   4.165   1.622  17.350 -0.1630 -0.5778 -0.8288
 7602SOL    HW234266   4.279   1.532  17.370 -0.0650  0.9462 -0.0978
 7603SOL     OW34267   2.018   0.693   4.789 -0.2172  0.6508  0.0951
 7603SOL    HW134268   1.979   0.762   4.842  0.9504 -0.0769  1.8800
 7603SOL    HW234269   1.980   0.615   4.830 -3.0786  0.5886 -2.6636
 7604SOL     OW34270   1.321   3.966   6.021  0.8948  0.0155 -0.1844
 7604SOL    HW134271   1.297   4.051   6.058  1.3747 -0.4305  1.1455
 7604SOL    HW234272   1.414   3.957   6.037  0.7767 -0.1014  0.4332
 7605SOL     OW34273   0.018   4.538  16.127 -0.2191 -0.0122  0.2666
 7605SOL    HW134274   4.682   4.604  16.157 -0.2486  0.4533 -0.8170
 7605SOL    HW234275   0.001   4.553  16.034 -0.9516  1.5035  0.6626
 7606SOL     OW34276   3.805   2.042   2.588 -0.0416  0.3384 -0.3224
 7606SOL    HW134277   3.769   2.105   2.651  1.8851  0.6028  0.5129
 7606SOL    HW234278   3.807   2.088   2.504 -1.8852 -0.1089 -0.6112
 7607SOL     OW34279   4.218   1.746  16.231 -0.0663  1.0113 -0.2047
 7607SOL    HW134280   4.307   1.780  16.222  0.4879 -0.1991  0.6394
 7607SOL    HW234281   4.201   1.734  16.137 -1.0905 -0.0598  0.1068
 7608SOL     OW34282   2.301   1.391   7.427  0.6538  0.7600  0.2060
 7608SOL    HW134283   2.224   1.393   7.485  0.5637 -0.2158  0.1252
 7608SOL    HW234284   2.331   1.482   7.426  0.9085  0.6954  2.4617
 7609SOL     OW34285   1.631   0.911  13.392  1.0073 -0.0481 -0.1277
 7609SOL    HW134286   1.661   0.991  13.348  1.0953 -0.4948 -0.8674
 7609SOL    HW234287   1.549   0.942  13.432  0.8928 -0.4645 -0.0461
 7610SOL     OW34288   3.182   1.233   4.581 -0.2256 -0.1715  0.0533
 7610SOL    HW134289   3.210   1.213   4.492  1.2392 -0.8805  0.6770
 7610SOL    HW234290   3.147   1.322   4.570  0.5563  0.2952  1.3557
 7611SOL     OW34291   1.639   0.942  15.226 -0.0099  0.2432  0.4960
 7611SOL    HW134292   1.683   1.026  15.215 -1.1940  0.8597  0.5042
 7611SOL    HW234293   1.716   0.885  15.226  1.4711  2.2652  0.8311
 7612SOL     OW34294   1.196   3.454   8.266  0.1787  0.5661  0.2337
 7612SOL    HW134295   1.253   3.514   8.218  2.7356 -1.3248  0.9625
 7612SOL    HW234296   1.106   3.475   8.240 -0.3045  0.4579  1.8076
 7613SOL     OW34297   0.430   4.505   7.996 -0.4255 -0.1621  0.6148
 7613SOL    HW134298   0.379   4.442   7.945  1.6816 -1.1137 -0.3264
 7613SOL    HW234299   0.480   4.538   7.921  0.1026  0.9035  1.4494
 7614SOL     OW34300   0.577   2.974  10.090 -0.1888  0.3694 -0.3964
 7614SOL    HW134301   0.517   2.928  10.032  0.4350  1.1220 -1.6450
 7614SOL    HW234302   0.656   2.922  10.075  0.0683 -0.0917  2.4146
 7615SOL     OW34303   4.194   3.086  17.314  0.0601  0.4854 -0.0134
 7615SOL    HW134304   4.148   3.053  17.391 -0.1370 -0.7427 -0.6671
 7615SOL    HW234305   4.275   3.038  17.328 -0.4619 -0.6605 -0.9630
 7616SOL     OW34306   2.274   3.860   1.761 -0.0029 -0.3376  0.0140
 7616SOL    HW134307   2.187   3.886   1.732  0.9146  0.1127 -2.3432
 7616SOL    HW234308   2.334   3.917   1.713 -1.2729  0.1461 -0.9980
 7617SOL     OW34309   1.344   2.564   3.808 -0.2797  0.1978  0.2446
 7617SOL    HW134310   1.375   2.648   3.841 -0.9239  1.3429 -2.0031
 7617SOL    HW234311   1.324   2.591   3.718 -0.9620 -1.7747 -0.1891
 7618SOL     OW34312   2.968   3.607   1.530  0.0428  0.6221  0.2694
 7618SOL    HW134313   3.038   3.547   1.505  0.6173  1.2882  0.2745
 7618SOL    HW234314   2.991   3.688   1.483 -0.3178 -0.5884 -1.9765
 7619SOL     OW34315   1.577   1.803   7.309  0.0617 -0.5043  0.7959
 7619SOL    HW134316   1.542   1.871   7.365  1.0676  0.4951  0.2042
 7619SOL    HW234317   1.568   1.724   7.362 -1.7346 -0.2878  0.8257
 7620SOL     OW34318   1.694   0.965   0.888 -0.4918 -0.2150  0.6054
 7620SOL    HW134319   1.696   1.010   0.972  2.4624  0.5332  0.1355
 7620SOL    HW234320   1.609   0.996   0.858 -0.3799  0.9019  1.4382
 7621SOL     OW34321   3.696   0.438   3.076 -0.2578  0.1882  0.4108
 7621SOL    HW134322   3.722   0.439   3.168  1.8027 -2.7119 -0.1576
 7621SOL    HW234323   3.692   0.532   3.060 -1.1943 -0.2687 -2.0719
 7622SOL     OW34324   0.832   2.112   9.047  0.1001  0.1633  0.3900
 7622SOL    HW134325   0.849   2.040   8.986 -0.2345 -1.3173  2.0537
 7622SOL    HW234326   0.738   2.116   9.026 -0.0068 -2.4572  0.2710
 7623SOL     OW34327   0.864   3.445  14.558 -0.3097 -0.4692 -0.5450
 7623SOL    HW134328   0.839   3.521  14.505  0.9232 -0.0859 -0.5831
 7623SOL    HW234329   0.930   3.471  14.622  0.9285 -2.1143 -1.1511
 7624SOL     OW34330   0.565   0.226   6.451  0.2291  0.3540  0.5915
 7624SOL    HW134331   0.609   0.264   6.528  0.1590 -0.1144  0.8608
 7624SOL    HW234332   0.477   0.212   6.487 -1.4039  0.9092 -3.2547
 7625SOL     OW34333   2.714   1.495   8.395 -0.0735 -0.1104  0.2498
 7625SOL    HW134334   2.692   1.580   8.357  0.0836  0.0646  0.5543
 7625SOL    HW234335   2.751   1.525   8.478  2.3345 -1.6063 -0.2429
 7626SOL     OW34336   1.801   3.781  14.502  0.3056 -0.0797 -0.9285
 7626SOL    HW134337   1.814   3.842  14.575  0.6211 -1.0936 -0.1350
 7626SOL    HW234338   1.865   3.713  14.522 -0.5994 -0.0919  1.9235
 7627SOL     OW34339   1.064   3.865   4.818 -0.3816  0.3335 -0.3564
 7627SOL    HW134340   1.004   3.797   4.850 -1.5271  0.7138 -1.7010
 7627SOL    HW234341   1.066   3.922   4.895 -1.1822 -2.0816  1.4357
 7628SOL     OW34342   2.916   2.575  11.614  0.3645 -0.1101 -0.2242
 7628SOL    HW134343   2.967   2.656  11.620 -1.2861  1.0321 -1.5871
 7628SOL    HW234344   2.897   2.550  11.705  0.0630 -1.3642 -0.6363
 7629SOL     OW34345   4.469   2.519   7.487  0.2081 -0.0586 -0.2296
 7629SOL    HW134346   4.426   2.604   7.480  1.0155  0.0525 -4.0925
 7629SOL    HW234347   4.543   2.527   7.427  0.4183  0.0847  0.0531
 7630SOL     OW34348   3.255   2.886   8.779 -0.5218 -0.8328 -0.1289
 7630SOL    HW134349   3.227   2.822   8.844  0.0081 -0.5736  0.3636
 7630SOL    HW234350   3.318   2.831   8.733  0.0094  0.8954 -1.4964
 7631SOL     OW34351   1.529   4.574   2.548 -0.7701 -0.6845  0.2293
 7631SOL    HW134352   1.521   4.658   2.594  1.7086  0.3036 -1.1390
 7631SOL    HW234353   1.520   4.510   2.618 -1.4883 -0.3350  0.4616
 7632SOL     OW34354   1.663   1.249   5.615 -0.2572 -0.0918  0.0874
 7632SOL    HW134355   1.623   1.335   5.605  1.5646  0.4707 -2.2659
 7632SOL    HW234356   1.606   1.197   5.557  1.4919  0.3814 -2.0498
 7633SOL     OW34357   1.149   1.836   4.671 -0.7045 -0.3449  0.3474
 7633SOL    HW134358   1.132   1.871   4.584 -1.8556 -1.7909 -0.0036
 7633SOL    HW234359   1.064   1.794   4.685  0.2029 -1.9396  1.0322
 7634SOL     OW34360   1.559   4.108   3.691  0.1154 -0.4766  0.2692
 7634SOL    HW134361   1.513   4.092   3.774  1.5276 -0.8752  0.9821
 7634SOL    HW234362   1.627   4.161   3.731 -0.9483  0.6074  0.6597
 7635SOL     OW34363   4.235   2.429  15.336  0.6148  0.5407 -0.9013
 7635SOL    HW134364   4.225   2.424  15.240 -1.1692 -2.6374 -0.5439
 7635SOL    HW234365   4.272   2.347  15.368  1.1052  0.6160 -1.2761
 7636SOL     OW34366   0.363   4.037  10.645 -0.0079 -0.7657  0.0878
 7636SOL    HW134367   0.303   4.087  10.701 -0.8367 -0.0793 -1.4372
 7636SOL    HW234368   0.430   4.019  10.711 -0.9124  1.6071  1.6636
 7637SOL     OW34369   4.570   2.384   1.169 -0.0141 -0.4957  0.2520
 7637SOL    HW134370   4.657   2.360   1.138  0.6557  0.6752  1.2704
 7637SOL    HW234371   4.584   2.423   1.255  2.1826 -4.0647  1.5150
 7638SOL     OW34372   0.243   4.216  14.945 -0.4583  0.0144 -0.1753
 7638SOL    HW134373   0.154   4.242  14.968 -0.0762 -1.9269  3.4241
 7638SOL    HW234374   0.238   4.122  14.958 -0.6485 -0.0152 -0.4609
 7639SOL     OW34375   1.298   0.092   3.762 -0.2133 -0.3543  0.0089
 7639SOL    HW134376   1.376   0.089   3.706 -0.1376  1.3354  0.0128
 7639SOL    HW234377   1.311   0.015   3.818 -1.9779 -2.4991 -2.5237
 7640SOL     OW34378   0.554   3.734  13.168 -0.0683 -0.3474 -0.1014
 7640SOL    HW134379   0.517   3.717  13.254 -1.9070  0.1874 -0.7962
 7640SOL    HW234380   0.528   3.658  13.116 -1.2284 -0.0729  0.0919
 7641SOL     OW34381   2.323   3.227   0.467 -0.0988  0.5544 -0.2896
 7641SOL    HW134382   2.316   3.137   0.500  2.1718  0.3749 -0.3175
 7641SOL    HW234383   2.396   3.218   0.406  1.6227 -0.3813  1.9277
 7642SOL     OW34384   4.199   2.462   7.210 -0.4571  0.1900  0.4229
 7642SOL    HW134385   4.262   2.398   7.244 -0.7874 -0.8482 -0.9214
 7642SOL    HW234386   4.177   2.429   7.123  0.1813 -0.6432  0.5692
 7643SOL     OW34387   1.756   3.733   9.314  0.1000 -0.0953  0.0051
 7643SOL    HW134388   1.670   3.691   9.309 -0.4110  1.0603 -0.8922
 7643SOL    HW234389   1.740   3.811   9.262  0.3418  0.2834  0.4939
 7644SOL     OW34390   1.019   1.783  15.982 -0.8556  0.1270  0.3809
 7644SOL    HW134391   0.970   1.707  15.952 -0.1796 -0.3757  0.5315
 7644SOL    HW234392   1.035   1.766  16.075 -2.5166 -3.5207  0.0044
 7645SOL     OW34393   2.347   3.338   8.593 -0.2221  0.5134 -0.0032
 7645SOL    HW134394   2.424   3.386   8.624 -0.1954 -0.0610  0.8276
 7645SOL    HW234395   2.278   3.369   8.652  0.8779 -0.1758  1.6338
 7646SOL     OW34396   3.442   2.279   8.766 -0.4804 -0.3834 -0.4480
 7646SOL    HW134397   3.464   2.203   8.712  1.1927  0.6646 -1.2366
 7646SOL    HW234398   3.437   2.237   8.852 -1.2956 -0.1805 -0.3979
 7647SOL     OW34399   2.556   2.100   4.184 -0.4905  0.3083  0.1096
 7647SOL    HW134400   2.489   2.146   4.133  0.2779  3.9667  2.4002
 7647SOL    HW234401   2.549   2.142   4.270  2.7547 -1.3644  1.1775
 7648SOL     OW34402   3.925   3.681   7.740 -0.5738  0.2227  0.2358
 7648SOL    HW134403   3.976   3.628   7.679 -0.0467  2.0275 -0.8800
 7648SOL    HW234404   3.989   3.677   7.811  0.2964 -0.7137 -0.6053
 7649SOL     OW34405   3.350   3.021   0.285  0.1353  0.4553  0.7183
 7649SOL    HW134406   3.327   3.093   0.227  2.1595 -0.2657 -0.9644
 7649SOL    HW234407   3.442   3.035   0.308  0.5160 -0.5337 -0.2236
 7650SOL     OW34408   0.449   1.644   7.517 -0.5115 -0.4907 -0.5581
 7650SOL    HW134409   0.415   1.653   7.428 -1.7700 -0.1337 -0.0475
 7650SOL    HW234410   0.523   1.589   7.494 -0.9009 -0.7082 -1.3073
 7651SOL     OW34411   1.695   1.975   6.699  0.2366  0.3000 -0.3342
 7651SOL    HW134412   1.779   2.020   6.707  0.1772  0.3087  0.2570
 7651SOL    HW234413   1.664   1.960   6.788 -2.1664 -0.1535 -1.2405
 7652SOL     OW34414   3.858   1.640   5.608 -0.6743  0.0503  0.0184
 7652SOL    HW134415   3.828   1.717   5.657 -1.4657 -0.0856 -0.2458
 7652SOL    HW234416   3.776   1.619   5.564 -1.2373 -0.3610  1.2499
 7653SOL     OW34417   0.090   2.945   5.147  0.6207  0.9182  0.0574
 7653SOL    HW134418   0.000   2.978   5.141  0.0539 -0.5067  0.7544
 7653SOL    HW234419   0.105   2.943   5.053  1.0842 -0.5397  0.1636
 7654SOL     OW34420   2.501   0.840   5.845 -0.0359  0.3840 -0.6691
 7654SOL    HW134421   2.491   0.928   5.882 -0.5441 -0.1268  0.4112
 7654SOL    HW234422   2.413   0.803   5.846  0.1204 -0.0102 -1.8658
 7655SOL     OW34423   0.924   1.888   9.556  0.7336 -0.5401  0.6408
 7655SOL    HW134424   0.915   1.792   9.561  1.4763 -0.6317  0.1545
 7655SOL    HW234425   0.948   1.897   9.648  0.7270 -1.1998  0.7098
 7656SOL     OW34426   1.389   4.383   1.940 -0.0585 -0.3181 -0.4682
 7656SOL    HW134427   1.336   4.379   1.861 -1.8888 -1.5096  0.8054
 7656SOL    HW234428   1.394   4.296   1.980  2.3624 -0.3116 -0.7515
 7657SOL     OW34429   0.267   3.143   5.474 -0.1156  0.2699  0.2472
 7657SOL    HW134430   0.191   3.093   5.446  0.6893  0.1819 -1.7850
 7657SOL    HW234431   0.273   3.218   5.415 -1.1725  2.0670  2.4548
 7658SOL     OW34432   1.635   4.392   1.179  0.1311 -0.1226  0.6814
 7658SOL    HW134433   1.564   4.348   1.132  0.7767  1.5468 -1.8511
 7658SOL    HW234434   1.708   4.352   1.131 -1.1921 -0.5564 -0.9705
 7659SOL     OW34435   3.356   0.087  11.263 -0.4546  0.6450 -0.2185
 7659SOL    HW134436   3.350   0.047  11.350  0.2047  0.4258 -0.2729
 7659SOL    HW234437   3.448   0.080  11.241 -0.5620  0.1183 -0.5067
 7660SOL     OW34438   2.931   0.447  11.883 -0.2811  0.4360 -0.2757
 7660SOL    HW134439   2.966   0.480  11.800  0.1946 -0.6790 -0.5124
 7660SOL    HW234440   2.990   0.486  11.948 -0.0528 -0.1620 -0.1225
 7661SOL     OW34441   2.162   2.461   6.317  0.3425 -0.4293 -0.0742
 7661SOL    HW134442   2.214   2.522   6.369  1.4628 -0.0791 -1.6101
 7661SOL    HW234443   2.074   2.471   6.354  0.1654 -0.7459 -0.4045
 7662SOL     OW34444   0.985   3.759   6.597  0.2837 -0.5049  0.5589
 7662SOL    HW134445   0.926   3.708   6.652 -1.7701  0.4619 -0.7601
 7662SOL    HW234446   1.068   3.711   6.600  0.7503  0.1915 -1.1771
 7663SOL     OW34447   1.507   1.923   9.871 -0.1789  0.2019 -0.0300
 7663SOL    HW134448   1.449   1.981   9.921  0.5170  2.1119 -1.4433
 7663SOL    HW234449   1.548   1.983   9.809 -2.8666  2.6348  0.5282
 7664SOL     OW34450   3.276   3.024  12.843 -0.2501 -0.4658 -0.1571
 7664SOL    HW134451   3.219   3.078  12.899 -1.6889 -1.0959 -1.0153
 7664SOL    HW234452   3.359   3.033  12.889 -1.3853 -0.8671  1.9671
 7665SOL     OW34453   1.917   4.038   1.865  0.0962 -0.1266  0.0646
 7665SOL    HW134454   1.828   4.048   1.900  0.3869  0.3629  0.6729
 7665SOL    HW234455   1.946   4.128   1.854  2.3762 -0.8914 -0.0052
 7666SOL     OW34456   1.296   1.054  14.724  0.5591  0.1059 -0.1652
 7666SOL    HW134457   1.224   1.110  14.753  0.8096  0.2855  0.1104
 7666SOL    HW234458   1.277   0.965  14.755  2.2767 -0.3122 -0.3259
 7667SOL     OW34459   0.318   3.694   8.033  0.6044 -0.1332 -0.7073
 7667SOL    HW134460   0.391   3.666   8.088  0.2805 -0.8859 -0.6711
 7667SOL    HW234461   0.277   3.739   8.107  0.8430 -1.1077  0.0056
 7668SOL     OW34462   0.443   0.948   6.900 -0.0909  0.3910  0.2042
 7668SOL    HW134463   0.494   0.880   6.855 -0.1931  1.6672 -1.8075
 7668SOL    HW234464   0.372   0.887   6.921 -0.8208  1.4665  0.8346
 7669SOL     OW34465   3.402   3.172   7.705  0.3937 -0.1225 -0.4087
 7669SOL    HW134466   3.448   3.088   7.702 -1.4609 -1.0777 -1.6762
 7669SOL    HW234467   3.314   3.146   7.733 -0.3384  1.3497 -1.3286
 7670SOL     OW34468   0.431   2.925   9.166 -0.2665  0.0894 -0.3540
 7670SOL    HW134469   0.469   2.851   9.212  2.6990  0.0075 -2.9358
 7670SOL    HW234470   0.352   2.889   9.125 -0.8056  0.8813 -0.0175
 7671SOL     OW34471   3.769   4.707   8.511  0.1755 -0.1578 -0.2382
 7671SOL    HW134472   3.860   4.689   8.533  0.8260  1.2641 -1.7447
 7671SOL    HW234473   3.735   4.623   8.541 -1.5225  0.7354  0.3592
 7672SOL     OW34474   1.865   1.803  14.864 -0.2278  0.1436 -0.4735
 7672SOL    HW134475   1.921   1.775  14.937  0.0179  0.5185 -0.5196
 7672SOL    HW234476   1.784   1.753  14.875 -0.0037  0.0039  0.5814
 7673SOL     OW34477   3.774   2.872   8.103 -0.6127 -0.7420  0.1800
 7673SOL    HW134478   3.767   2.940   8.170  2.1564  0.8981 -1.2308
 7673SOL    HW234479   3.787   2.797   8.161  0.6266 -0.6114  0.0709
 7674SOL     OW34480   1.450   2.480   6.521  0.0714  0.1715  0.1297
 7674SOL    HW134481   1.384   2.496   6.454 -1.2041 -0.1172  1.3068
 7674SOL    HW234482   1.474   2.571   6.540 -0.5233  0.3845 -0.1247
 7675SOL     OW34483   0.399   2.184   9.042 -0.1248 -0.2050  0.7242
 7675SOL    HW134484   0.423   2.275   9.026  3.3210 -1.1460  0.5352
 7675SOL    HW234485   0.309   2.196   9.013 -0.5168 -1.0869  1.5773
 7676SOL     OW34486   2.785   0.536  12.914  0.1562  0.4329 -0.0255
 7676SOL    HW134487   2.812   0.461  12.966 -2.2550  0.8504  1.8598
 7676SOL    HW234488   2.829   0.517  12.831  1.9594  0.4127  0.9315
 7677SOL     OW34489   2.326   0.290  14.177  0.1415 -0.0802 -0.2638
 7677SOL    HW134490   2.281   0.309  14.094  1.4215  2.5596 -0.3562
 7677SOL    HW234491   2.417   0.288  14.149  0.1347 -0.0704 -0.2871
 7678SOL     OW34492   1.402   1.322   8.997  0.2561 -0.3320 -0.1140
 7678SOL    HW134493   1.435   1.379   8.927 -0.6700 -0.2600 -0.4949
 7678SOL    HW234494   1.372   1.393   9.055 -1.6109 -2.3522  1.3693
 7679SOL     OW34495   4.722   0.333   4.482 -0.4866  0.0532  0.2604
 7679SOL    HW134496   0.053   0.376   4.418 -1.0474 -0.8273 -0.8121
 7679SOL    HW234497   0.044   0.250   4.485 -0.0798  0.2380 -1.1768
 7680SOL     OW34498   0.431   2.479  13.768 -0.3254  0.1919 -0.2696
 7680SOL    HW134499   0.457   2.446  13.682 -0.6377 -0.0273 -0.2811
 7680SOL    HW234500   0.444   2.403  13.825 -2.3962 -0.5145 -0.7393
 7681SOL     OW34501   3.762   1.110   5.968  0.2159 -1.3471  0.5414
 7681SOL    HW134502   3.690   1.173   5.963  1.9637  0.5220 -1.1677
 7681SOL    HW234503   3.720   1.024   5.957 -0.8005 -0.9743  1.4826
 7682SOL     OW34504   2.694   0.186   6.495 -0.5976  0.6500  0.5893
 7682SOL    HW134505   2.771   0.190   6.552 -0.1231  0.7326 -0.0544
 7682SOL    HW234506   2.629   0.253   6.516 -2.1652 -1.1506  1.4552
 7683SOL     OW34507   0.831   2.976  11.662 -0.5500 -0.6764  0.6166
 7683SOL    HW134508   0.772   2.924  11.607  1.0764 -1.5160 -0.3450
 7683SOL    HW234509   0.818   3.062  11.624 -2.9984 -1.1486  0.3587
 7684SOL     OW34510   2.979   2.752   7.625  0.2029 -0.4368  0.5771
 7684SOL    HW134511   3.028   2.670   7.614 -0.0740 -0.4244 -0.7852
 7684SOL    HW234512   2.933   2.726   7.704  2.1571 -0.2960  1.7516
 7685SOL     OW34513   1.570   4.430   0.302  0.8656 -0.0502  0.1849
 7685SOL    HW134514   1.596   4.397   0.388 -0.3583 -4.1559 -1.0051
 7685SOL    HW234515   1.482   4.466   0.310  0.6003  0.1741 -3.4788
 7686SOL     OW34516   0.965   2.693  10.917 -0.3321  0.1886  0.1236
 7686SOL    HW134517   0.902   2.633  10.875 -0.5281 -1.0351  2.1598
 7686SOL    HW234518   0.947   2.668  11.007  0.5496 -0.7127  0.0498
 7687SOL     OW34519   4.188   1.929   5.251 -0.0610  0.2238  0.1850
 7687SOL    HW134520   4.175   1.859   5.316  0.9912  0.0393  0.1949
 7687SOL    HW234521   4.112   1.911   5.196  0.1430 -2.2049  0.6698
 7688SOL     OW34522   2.119   2.033  15.431  0.4618  0.0688 -0.8520
 7688SOL    HW134523   2.039   2.041  15.379 -0.8204 -1.5969  0.8787
 7688SOL    HW234524   2.079   2.023  15.518 -1.9140 -1.1632 -2.0971
 7689SOL     OW34525   0.771   3.816   8.372  0.0579 -0.0423  0.1168
 7689SOL    HW134526   0.753   3.820   8.278  1.1450  1.5689 -0.0354
 7689SOL    HW234527   0.723   3.734   8.384  0.2239  0.0255  1.2318
 7690SOL     OW34528   4.672   1.322   3.650 -0.2936 -0.2348  0.1537
 7690SOL    HW134529   0.038   1.307   3.628 -0.1979  0.8449 -0.1893
 7690SOL    HW234530   4.674   1.277   3.734 -1.0760  0.9262  0.7939
 7691SOL     OW34531   3.232   3.663  14.548  0.4386 -0.2980  0.7340
 7691SOL    HW134532   3.230   3.568  14.535  0.5262 -0.3401  1.0179
 7691SOL    HW234533   3.246   3.660  14.643  1.0506  2.1753  0.7212
 7692SOL     OW34534   3.550   2.394   9.121 -0.4893 -0.6932  0.4573
 7692SOL    HW134535   3.624   2.442   9.156  0.3754  0.3568 -2.8785
 7692SOL    HW234536   3.522   2.456   9.054  3.3575  0.8977  0.3066
 7693SOL     OW34537   4.683   2.918   2.756 -0.3586  0.2553  0.3056
 7693SOL    HW134538   4.665   2.847   2.695 -1.6218 -1.0635  2.1858
 7693SOL    HW234539   4.602   2.966   2.742 -0.1911  0.4604  0.0593
 7694SOL     OW34540   4.222   2.170   2.594  0.3804  0.2951  0.5971
 7694SOL    HW134541   4.187   2.189   2.681 -0.8468  1.5644 -0.1827
 7694SOL    HW234542   4.272   2.090   2.611 -0.0437 -0.2753 -0.7545
 7695SOL     OW34543   0.785   1.718   7.580 -0.4640  0.2623  0.0592
 7695SOL    HW134544   0.812   1.790   7.522 -2.6721  2.5467  1.8645
 7695SOL    HW234545   0.854   1.730   7.646 -0.5104 -0.9261  0.3272
 7696SOL     OW34546   3.687   3.014  17.383  0.0847 -0.0975 -0.0202
 7696SOL    HW134547   3.668   2.923  17.361 -0.2226 -0.4244  1.6139
 7696SOL    HW234548   3.643   3.065  17.315  1.1014  2.8426  1.5191
 7697SOL     OW34549   0.369   0.582   4.908 -0.0605 -0.0496 -0.1037
 7697SOL    HW134550   0.284   0.620   4.927  0.1149 -0.0853  0.7763
 7697SOL    HW234551   0.351   0.580   4.814 -0.1448  2.2359 -0.1185
 7698SOL     OW34552   3.827   0.771   7.380 -0.4476 -0.1910  0.0216
 7698SOL    HW134553   3.803   0.791   7.290 -0.2958  1.9505  0.4558
 7698SOL    HW234554   3.880   0.849   7.398  0.0689 -0.2511 -1.2705
 7699SOL     OW34555   3.622   0.999  17.632 -0.5557  0.1245 -0.0127
 7699SOL    HW134556   3.644   1.041   0.011  0.2201  0.3714 -0.3476
 7699SOL    HW234557   3.711   0.980  17.604  0.2469  1.5685  1.5911
 7700SOL     OW34558   3.139   4.354   6.723  0.1942 -0.8102  0.0689
 7700SOL    HW134559   3.046   4.371   6.708 -0.0983 -1.9696  0.6072
 7700SOL    HW234560   3.131   4.287   6.790  2.2082 -2.1007 -0.9788
 7701SOL     OW34561   2.555   3.819   7.588  0.3075  0.2200 -0.3960
 7701SOL    HW134562   2.591   3.731   7.598  1.4486  0.4368 -2.5374
 7701SOL    HW234563   2.628   3.873   7.557  1.1199 -0.1866  0.8246
 7702SOL     OW34564   1.559   0.587  14.929  0.3949  0.3004 -0.1344
 7702SOL    HW134565   1.550   0.514  14.989  1.2385 -0.1493 -0.5516
 7702SOL    HW234566   1.652   0.582  14.906 -0.2430 -0.4617 -2.5842
 7703SOL     OW34567   2.495   0.684   5.478  0.1205 -0.4249 -0.6397
 7703SOL    HW134568   2.509   0.597   5.441  1.2239 -0.2598 -0.6210
 7703SOL    HW234569   2.433   0.678   5.550 -2.3545 -0.8885 -2.8269
 7704SOL     OW34570   0.198   1.109   6.685 -0.2889 -0.3049 -0.2691
 7704SOL    HW134571   0.290   1.096   6.664 -0.1895  1.0827 -0.6617
 7704SOL    HW234572   0.204   1.139   6.776  0.0270 -0.2143 -0.3224
 7705SOL     OW34573   2.290   1.523   2.714 -0.3427 -0.1028  0.2071
 7705SOL    HW134574   2.223   1.456   2.696  0.5172 -2.1478  4.6369
 7705SOL    HW234575   2.368   1.483   2.674  0.1184  0.5568  0.4499
 7706SOL     OW34576   4.202   4.256   5.366 -0.8146  0.2506  0.3591
 7706SOL    HW134577   4.112   4.241   5.394 -0.7708  1.4892  1.1458
 7706SOL    HW234578   4.191   4.308   5.287  0.4073  1.4114  0.9564
 7707SOL     OW34579   1.279   1.304   3.598  0.0671 -0.2181 -0.0398
 7707SOL    HW134580   1.259   1.309   3.505  0.8594 -0.3815 -0.2212
 7707SOL    HW234581   1.372   1.327   3.596  0.7382 -2.9986 -0.8895
 7708SOL     OW34582   1.606   1.899   5.026 -0.1362 -0.3213 -0.3274
 7708SOL    HW134583   1.521   1.854   5.034 -0.3636  0.1576 -0.0528
 7708SOL    HW234584   1.598   1.986   4.987 -0.8820 -0.0340  0.4483
 7709SOL     OW34585   3.589   0.129   4.232  0.0467  0.2780  0.8293
 7709SOL    HW134586   3.598   0.195   4.163  0.8553 -1.1520 -0.4303
 7709SOL    HW234587   3.586   0.189   4.307  0.3592  1.0778  0.2029
 7710SOL     OW34588   1.012   2.811   2.689 -0.3970  0.2009 -0.2794
 7710SOL    HW134589   0.970   2.725   2.692  0.2043 -0.0940 -0.3532
 7710SOL    HW234590   1.091   2.791   2.739  0.0153  0.9339 -0.6372
 7711SOL     OW34591   1.321   3.068   3.540 -0.0657 -0.1216 -0.4023
 7711SOL    HW134592   1.321   3.028   3.453  3.5010 -2.1100  0.5244
 7711SOL    HW234593   1.258   3.014   3.587 -0.5338 -0.6590 -1.6352
 7712SOL     OW34594   1.895   0.793   5.775 -0.1603 -0.1825  0.5892
 7712SOL    HW134595   1.913   0.740   5.697 -1.4035  1.6860 -0.9922
 7712SOL    HW234596   1.868   0.874   5.732 -2.4053 -0.6621  1.1003
 7713SOL     OW34597   2.105   3.438  15.907 -0.3790 -0.1384  0.2247
 7713SOL    HW134598   2.095   3.523  15.864 -1.7178  0.4669  1.6759
 7713SOL    HW234599   2.199   3.428  15.893 -0.5695 -0.9758 -0.3995
 7714SOL     OW34600   2.480   2.447   7.432  0.1986  0.1002 -0.1314
 7714SOL    HW134601   2.559   2.393   7.434  0.5523  0.5929 -1.4024
 7714SOL    HW234602   2.504   2.540   7.433 -2.4923  0.8305 -2.9591
 7715SOL     OW34603   0.366   2.719   6.415  0.3381 -0.3327 -0.4645
 7715SOL    HW134604   0.299   2.653   6.399 -0.3344  0.3672 -0.5952
 7715SOL    HW234605   0.366   2.729   6.510  0.3311 -3.4682 -0.1534
 7716SOL     OW34606   2.911   2.599   3.309  0.0225 -0.1946  0.7004
 7716SOL    HW134607   2.858   2.645   3.244 -0.8256 -3.3957 -0.8476
 7716SOL    HW234608   2.993   2.646   3.296 -0.0852  0.0275  0.8150
 7717SOL     OW34609   3.039   4.434   3.075  0.6389  0.2407  0.4697
 7717SOL    HW134610   3.080   4.490   3.141  1.5748  0.4351 -0.2821
 7717SOL    HW234611   3.048   4.345   3.110 -1.0696 -0.7099 -1.5119
 7718SOL     OW34612   0.460   3.906   9.795 -0.1554  0.1499 -0.7686
 7718SOL    HW134613   0.517   3.983   9.807  0.5311 -0.8249  2.3454
 7718SOL    HW234614   0.446   3.873   9.884 -0.2055  0.1897 -0.7612
 7719SOL     OW34615   4.302   0.622   0.770  0.4071  0.3923  0.6408
 7719SOL    HW134616   4.283   0.645   0.679 -0.3457 -2.4648  0.0445
 7719SOL    HW234617   4.372   0.557   0.758  1.4445  0.7107  5.0318
 7720SOL     OW34618   1.289   0.320   6.027 -1.0997 -0.3291 -0.0779
 7720SOL    HW134619   1.250   0.255   5.968 -2.1127 -0.9282  1.2566
 7720SOL    HW234620   1.350   0.256   6.064  0.6397  0.9072 -0.8124
 7721SOL     OW34621   3.582   4.185   0.117 -0.3317 -0.0135 -0.6598
 7721SOL    HW134622   3.537   4.234   0.186 -0.3025 -1.4547  0.3655
 7721SOL    HW234623   3.589   4.099   0.157  1.5113  1.1394  1.5257
 7722SOL     OW34624   1.976   2.869  13.874 -0.1744  0.7670 -0.1409
 7722SOL    HW134625   1.896   2.832  13.911 -0.7850 -1.0804 -3.2534
 7722SOL    HW234626   1.971   2.962  13.897  0.1897  1.3186 -2.2616
 7723SOL     OW34627   1.712   3.694   9.957  0.6279  0.1415 -0.7221
 7723SOL    HW134628   1.695   3.630  10.027  0.7866  0.2116 -0.6223
 7723SOL    HW234629   1.663   3.765   9.998  0.0651  0.5122 -2.0174
 7724SOL     OW34630   2.507   2.866   3.236 -0.2393  0.1788 -0.5785
 7724SOL    HW134631   2.534   2.926   3.306  1.4821 -2.2936  0.8845
 7724SOL    HW234632   2.471   2.791   3.282 -0.8991 -0.2153 -1.7486
 7725SOL     OW34633   2.388   2.965  14.766 -0.3106 -0.3009 -1.1475
 7725SOL    HW134634   2.331   3.035  14.736  0.4849  0.6355 -0.4828
 7725SOL    HW234635   2.414   3.001  14.851 -0.1669  1.1705 -1.8157
 7726SOL     OW34636   2.490   3.012   5.953  0.0756  0.5262  0.6593
 7726SOL    HW134637   2.411   3.062   5.971  0.1939  0.6324  0.8830
 7726SOL    HW234638   2.550   3.082   5.927 -0.3111  0.1343 -1.2865
 7727SOL     OW34639   4.449   1.891  16.157 -0.0131  0.3272  0.6028
 7727SOL    HW134640   4.514   1.835  16.198 -0.9691 -1.2652 -0.0505
 7727SOL    HW234641   4.478   1.892  16.065 -0.2816  0.7444  0.5218
 7728SOL     OW34642   3.962   1.987   5.761 -0.2430  0.4811 -0.3632
 7728SOL    HW134643   3.992   2.072   5.729  0.2972  0.3317 -0.2554
 7728SOL    HW234644   4.048   1.944   5.766  0.5351  2.0403 -0.3745
 7729SOL     OW34645   4.133   3.226   8.682  0.1286  0.2230  0.0704
 7729SOL    HW134646   4.208   3.169   8.698  1.3608  1.7681 -0.1302
 7729SOL    HW234647   4.112   3.209   8.591 -2.2142  1.8599  0.2821
 7730SOL     OW34648   2.339   4.191  17.036  0.1040  0.0295  0.0798
 7730SOL    HW134649   2.377   4.184  16.949 -1.6845 -0.9555 -0.6400
 7730SOL    HW234650   2.271   4.125  17.018 -1.2538  2.1569 -2.5289
 7731SOL     OW34651   4.084   4.252   4.806  0.1104 -0.7050  0.4690
 7731SOL    HW134652   4.086   4.222   4.715 -2.0569 -0.4394  0.3481
 7731SOL    HW234653   3.990   4.241   4.816  0.0837  0.5453  1.6972
 7732SOL     OW34654   0.952   3.992   2.812 -0.0883  0.6995  0.4234
 7732SOL    HW134655   1.046   3.993   2.829  0.1162  0.8764 -0.6805
 7732SOL    HW234656   0.924   4.081   2.790 -2.4554 -0.1451 -0.0219
 7733SOL     OW34657   2.102   2.855   7.275  0.7150 -0.5068 -0.1346
 7733SOL    HW134658   2.057   2.913   7.336 -0.2574 -1.8800  0.4511
 7733SOL    HW234659   2.115   2.918   7.203 -0.8923 -0.7084 -0.5914
 7734SOL     OW34660   0.853   3.175   8.251 -0.1053 -0.1014 -0.2238
 7734SOL    HW134661   0.851   3.131   8.336  0.9522 -2.0850 -1.2189
 7734SOL    HW234662   0.787   3.242   8.270  0.7098  0.2268  1.4529
 7735SOL     OW34663   2.571   1.081   3.683  0.0148  0.1354  0.0373
 7735SOL    HW134664   2.525   1.122   3.610 -0.3586  0.5693  0.5053
 7735SOL    HW234665   2.496   1.090   3.743  0.9624  0.1980  1.2114
 7736SOL     OW34666   2.602   0.327   2.667 -0.2727  0.1242  0.0143
 7736SOL    HW134667   2.593   0.413   2.625  1.0732  0.9304  1.3450
 7736SOL    HW234668   2.625   0.359   2.755  0.0755  0.1200 -0.0723
 7737SOL     OW34669   2.205   4.601   5.967 -0.1671  0.2593  0.5757
 7737SOL    HW134670   2.146   4.529   5.990 -0.1474  0.7574  2.1213
 7737SOL    HW234671   2.287   4.579   6.010  0.5457  1.3986 -0.2032
 7738SOL     OW34672   2.147   2.074   8.797  0.4751 -0.4742  0.5053
 7738SOL    HW134673   2.094   2.144   8.835  0.8084 -0.4742  0.9693
 7738SOL    HW234674   2.155   2.018   8.874  1.1991 -1.7242 -0.4797
 7739SOL     OW34675   2.294   4.591   0.895 -0.2236 -1.1314 -0.0042
 7739SOL    HW134676   2.228   4.628   0.837  1.1822 -1.2238 -1.6597
 7739SOL    HW234677   2.369   4.592   0.836  1.0681 -3.7234  1.6155
 7740SOL     OW34678   3.092   4.020   4.936  0.2452 -0.1749 -0.3567
 7740SOL    HW134679   3.032   4.003   4.863 -1.1383  1.8935  0.3196
 7740SOL    HW234680   3.034   4.082   4.980  1.0910  0.4555 -0.1295
 7741SOL     OW34681   3.135   2.799   6.715 -0.2567  0.4537  0.1969
 7741SOL    HW134682   3.075   2.759   6.778  1.1769 -0.2608  1.1007
 7741SOL    HW234683   3.082   2.827   6.640 -1.8498  1.0885  1.5482
 7742SOL     OW34684   0.212   1.294   6.173 -0.0082  0.2644  0.2606
 7742SOL    HW134685   0.145   1.352   6.208 -0.2966  0.9328 -1.3773
 7742SOL    HW234686   0.272   1.327   6.239  1.1511  0.3344 -0.8182
 7743SOL     OW34687   0.438   3.563   1.184  0.4585 -0.1843  0.1021
 7743SOL    HW134688   0.530   3.559   1.211  0.3717 -2.3399  0.0945
 7743SOL    HW234689   0.436   3.485   1.127 -2.0568  0.5024 -0.7354
 7744SOL     OW34690   0.122   1.724   7.821 -0.0993 -0.4936  0.1522
 7744SOL    HW134691   0.193   1.663   7.800 -1.7118 -2.3172  0.0355
 7744SOL    HW234692   0.090   1.664   7.889 -3.1068 -1.4951 -2.1671
 7745SOL     OW34693   2.571   4.133   1.426  0.1006  0.0895 -0.7519
 7745SOL    HW134694   2.516   4.188   1.369  0.2572  0.9612 -0.0644
 7745SOL    HW234695   2.648   4.121   1.371  2.5659  0.9833  2.5215
 7746SOL     OW34696   4.048   2.513   2.796 -0.5142 -0.2564 -0.3721
 7746SOL    HW134697   3.971   2.537   2.848  0.0653 -0.9508  0.7929
 7746SOL    HW234698   3.999   2.473   2.724  0.3617  0.7994 -1.5467
 7747SOL     OW34699   1.359   1.835   3.166  0.2085 -0.2223  0.1364
 7747SOL    HW134700   1.298   1.863   3.234  0.4081  1.1354 -0.2427
 7747SOL    HW234701   1.298   1.791   3.106  2.1567 -5.4027  1.9960
 7748SOL     OW34702   4.086   0.369   9.609 -0.3655 -0.1192 -0.3136
 7748SOL    HW134703   4.131   0.349   9.691 -0.8736 -1.2341 -0.3059
 7748SOL    HW234704   4.165   0.378   9.556  0.4420 -1.8872  0.5892
 7749SOL     OW34705   4.409   4.270   8.228  0.1869  0.2123 -1.0316
 7749SOL    HW134706   4.374   4.287   8.141  0.4725  1.9723 -0.7919
 7749SOL    HW234707   4.466   4.196   8.205  0.1497 -0.1194 -0.0514
 7750SOL     OW34708   3.125   0.420   6.005  0.5271  0.8356  0.6830
 7750SOL    HW134709   3.175   0.377   5.935  1.0931  2.7081 -0.0868
 7750SOL    HW234710   3.099   0.340   6.050 -0.3456 -0.7523 -2.6568
 7751SOL     OW34711   3.407   2.882   3.732 -0.2565 -0.3702 -0.0266
 7751SOL    HW134712   3.441   2.838   3.654 -0.1171 -0.5922  0.1590
 7751SOL    HW234713   3.402   2.972   3.700  1.5392 -0.6685 -1.1356
 7752SOL     OW34714   2.349   3.182  10.176  0.0345 -0.4775  0.3564
 7752SOL    HW134715   2.292   3.236  10.231  0.2611 -0.7296  0.8348
 7752SOL    HW234716   2.329   3.211  10.087  1.5637 -1.3657 -0.2630
 7753SOL     OW34717   4.292   2.726   8.274 -0.3894 -0.0942 -0.0520
 7753SOL    HW134718   4.262   2.817   8.267 -0.2697 -0.0885 -0.4488
 7753SOL    HW234719   4.382   2.742   8.245 -0.6709 -1.4975 -1.6755
 7754SOL     OW34720   2.224   4.556   9.817  0.1521  0.2363  0.3067
 7754SOL    HW134721   2.252   4.609   9.742  0.4655 -0.6364 -0.1914
 7754SOL    HW234722   2.233   4.625   9.882 -0.3316  0.9968 -0.4268
 7755SOL     OW34723   3.777   4.227  15.916 -0.1912  0.6780 -0.3082
 7755SOL    HW134724   3.836   4.299  15.891  0.4417  0.2035 -0.1913
 7755SOL    HW234725   3.794   4.150  15.861 -1.4157 -1.3378  2.1276
 7756SOL     OW34726   2.698   1.079   0.286  0.0668  0.2322  0.3179
 7756SOL    HW134727   2.739   0.995   0.303 -0.0117 -0.3479 -2.3480
 7756SOL    HW234728   2.774   1.137   0.281 -0.6649  1.0875 -0.8867
 7757SOL     OW34729   3.809   4.551  16.053  0.2554  0.2612 -0.1743
 7757SOL    HW134730   3.774   4.623  16.001 -2.4890 -0.9080  0.0515
 7757SOL    HW234731   3.901   4.575  16.062  1.0287 -2.2027 -1.7035
 7758SOL     OW34732   3.315   3.845   2.132 -0.2138  0.3302  0.5425
 7758SOL    HW134733   3.343   3.936   2.121 -1.5921  0.3406 -2.9686
 7758SOL    HW234734   3.250   3.843   2.062 -0.5440  0.6627  0.8329
 7759SOL     OW34735   2.652   3.470   6.018 -0.9145  0.2857 -0.0140
 7759SOL    HW134736   2.688   3.382   6.014  0.1510  0.6659  1.2631
 7759SOL    HW234737   2.594   3.450   6.092 -0.0763  2.3784  1.2003
 7760SOL     OW34738   4.245   2.328   4.879  0.4393 -0.8749  0.1846
 7760SOL    HW134739   4.189   2.393   4.835  0.0092 -0.6436  1.0708
 7760SOL    HW234740   4.251   2.374   4.963 -0.4192  1.9681 -1.2893
 7761SOL     OW34741   1.613   0.613   2.801 -0.1238 -0.5737 -0.4051
 7761SOL    HW134742   1.686   0.671   2.822 -0.2318 -0.7969  0.6033
 7761SOL    HW234743   1.569   0.605   2.886  0.0775 -1.1432 -0.3586
 7762SOL     OW34744   0.072   1.025  10.826  0.6697  0.3076  0.4957
 7762SOL    HW134745   0.089   0.942  10.871  0.9860 -0.3164 -0.7689
 7762SOL    HW234746   0.020   0.982  10.758  0.1708 -2.8260  2.8387
 7763SOL     OW34747   4.540   2.276  14.616 -0.1884 -0.2335  0.5825
 7763SOL    HW134748   4.610   2.312  14.670  2.2465 -2.9495 -0.7468
 7763SOL    HW234749   4.539   2.338  14.543 -2.6448 -1.1605 -0.1854
 7764SOL     OW34750   2.654   0.330  12.087 -0.5361  0.4397  0.1830
 7764SOL    HW134751   2.736   0.289  12.112 -1.8910 -2.5711 -0.3042
 7764SOL    HW234752   2.674   0.424  12.084 -2.4513  0.8090 -0.9144
 7765SOL     OW34753   4.695   0.727  15.484 -0.9523  0.2134 -0.1951
 7765SOL    HW134754   4.713   0.641  15.446 -3.5632 -0.2702 -0.2854
 7765SOL    HW234755   4.601   0.744  15.477 -0.9432 -0.5451 -2.3021
 7766SOL     OW34756   0.898   0.768   0.760  0.7244 -0.7483 -0.5813
 7766SOL    HW134757   0.948   0.702   0.809 -0.0222  1.0094  2.5526
 7766SOL    HW234758   0.863   0.712   0.691 -0.5656  0.2369 -0.7171
 7767SOL     OW34759   1.385   0.292   4.712  0.2862 -0.0156 -0.5714
 7767SOL    HW134760   1.432   0.365   4.673  0.7806  0.5813  1.1488
 7767SOL    HW234761   1.455   0.236   4.747 -1.7035 -2.0820  0.1433
 7768SOL     OW34762   4.385   3.668   6.580  0.5309  0.6524 -0.1515
 7768SOL    HW134763   4.374   3.663   6.675 -0.5039 -0.1347 -0.3160
 7768SOL    HW234764   4.309   3.619   6.548  0.9062  2.3225 -3.5405
 7769SOL     OW34765   2.390   4.295   8.673  0.0659 -0.1196  0.4122
 7769SOL    HW134766   2.459   4.321   8.612 -0.0600 -1.3466 -0.2566
 7769SOL    HW234767   2.311   4.328   8.629  0.1745 -1.2508 -0.6196
 7770SOL     OW34768   3.329   0.366   7.730 -0.7548 -0.2825  0.2722
 7770SOL    HW134769   3.412   0.351   7.774  0.3485  1.3387 -1.2687
 7770SOL    HW234770   3.274   0.342   7.804  0.5869 -1.8622  0.7339
 7771SOL     OW34771   0.906   1.348  15.345 -0.1430 -0.2402 -0.0059
 7771SOL    HW134772   0.828   1.380  15.391  0.5211  0.2993  0.7469
 7771SOL    HW234773   0.915   1.426  15.289 -2.0475  0.8363  1.1668
 7772SOL     OW34774   0.365   1.921  12.543 -0.4268  0.4020 -1.0490
 7772SOL    HW134775   0.449   1.881  12.524 -0.5566 -0.6634  0.6303
 7772SOL    HW234776   0.292   1.861  12.524 -1.2804  0.6055  1.5996
 7773SOL     OW34777   1.636   4.090  12.418  0.7646 -0.0858 -0.0606
 7773SOL    HW134778   1.677   4.010  12.385  0.5053 -0.0144 -0.5480
 7773SOL    HW234779   1.654   4.142  12.340 -0.9347  1.0475  0.3153
 7774SOL     OW34780   1.970   4.050  14.061 -0.3444 -0.3929 -0.8757
 7774SOL    HW134781   1.909   4.103  14.010  1.6787  2.4791 -0.3715
 7774SOL    HW234782   1.930   4.035  14.147  0.4597  1.7540 -0.1136
 7775SOL     OW34783   2.701   0.085   0.572  0.0762  0.2265  0.1787
 7775SOL    HW134784   2.736   0.102   0.485  0.7284 -1.1635  0.1733
 7775SOL    HW234785   2.620   0.136   0.563  0.6278  0.9325 -0.6992
 7776SOL     OW34786   2.812   0.812   8.229  0.4215  0.5949  0.2842
 7776SOL    HW134787   2.759   0.853   8.160  0.5898  2.5672  1.3361
 7776SOL    HW234788   2.895   0.854   8.207  1.0536 -1.6566 -1.7195
 7777SOL     OW34789   3.703   1.900   3.900  0.3927  0.1259 -0.2092
 7777SOL    HW134790   3.794   1.880   3.922  0.5050 -0.1215 -0.8658
 7777SOL    HW234791   3.706   1.963   3.828 -2.7970 -1.8161 -2.0668
 7778SOL     OW34792   3.116   1.677  10.821  0.8682  0.5677  0.2978
 7778SOL    HW134793   3.058   1.601  10.831  0.8553  0.7283  1.3504
 7778SOL    HW234794   3.053   1.748  10.808  0.3560  0.0629 -0.0357
 7779SOL     OW34795   3.330   4.461   7.345  0.3864 -0.0436 -0.0314
 7779SOL    HW134796   3.392   4.418   7.403  2.1986  2.4332 -0.1653
 7779SOL    HW234797   3.360   4.436   7.257  0.1763  0.5337 -0.2658
 7780SOL     OW34798   3.244   1.756   6.748 -0.0996  0.1641  0.4855
 7780SOL    HW134799   3.242   1.681   6.808 -1.0176 -0.1673  0.0298
 7780SOL    HW234800   3.297   1.813   6.805  0.3122 -0.0636  0.3361
 7781SOL     OW34801   3.871   4.081   5.138 -0.1063 -1.0910  0.2305
 7781SOL    HW134802   3.842   4.095   5.048 -1.0562  4.1317  1.3887
 7781SOL    HW234803   3.796   4.119   5.182  0.4188 -0.9644  1.0076
 7782SOL     OW34804   3.557   1.122   6.654 -0.5509 -0.0907 -0.1438
 7782SOL    HW134805   3.481   1.064   6.659  0.1584 -1.1103 -1.1561
 7782SOL    HW234806   3.515   1.208   6.641  1.1989  1.5784  5.4841
 7783SOL     OW34807   2.261   0.390   2.443  0.5890  0.4646 -0.2853
 7783SOL    HW134808   2.266   0.473   2.490  1.9128  0.2355 -0.0307
 7783SOL    HW234809   2.174   0.398   2.403  0.0096  1.0561  1.0796
 7784SOL     OW34810   0.053   1.237   4.881  0.0600  0.4583  0.2992
 7784SOL    HW134811   0.145   1.213   4.893 -0.0754 -0.4005 -0.4358
 7784SOL    HW234812   0.041   1.292   4.958 -1.3882 -1.4220  1.4408
 7785SOL     OW34813   3.146   4.324  14.966  0.2605 -0.3356 -0.1233
 7785SOL    HW134814   3.187   4.409  14.947 -0.3302 -0.0962 -0.3062
 7785SOL    HW234815   3.070   4.337  14.910 -0.7137 -0.5659  1.1646
 7786SOL     OW34816   3.304   2.393   4.046 -0.1189  0.2259 -0.0301
 7786SOL    HW134817   3.295   2.485   4.019  2.7429  0.7766  0.8803
 7786SOL    HW234818   3.312   2.349   3.962  0.1160 -0.0378  0.1325
 7787SOL     OW34819   0.979   4.512   9.030 -0.0451 -0.1791  0.7445
 7787SOL    HW134820   0.912   4.452   9.062 -2.3728  1.2810 -1.4395
 7787SOL    HW234821   0.966   4.588   9.086 -2.6651  0.9837 -1.4517
 7788SOL     OW34822   0.677   4.456   3.812 -0.2930 -0.1359 -0.0416
 7788SOL    HW134823   0.742   4.386   3.816 -3.2099 -2.7168  1.8660
 7788SOL    HW234824   0.609   4.415   3.865 -0.6566  0.2667 -0.1954
 7789SOL     OW34825   1.701   3.587   8.121  0.2346  0.1811 -0.2103
 7789SOL    HW134826   1.712   3.558   8.030  0.7961  2.0772 -0.7316
 7789SOL    HW234827   1.743   3.672   8.120  1.3620 -0.3758 -0.2565
 7790SOL     OW34828   3.242   2.825   0.943  0.8003 -0.5334 -0.1851
 7790SOL    HW134829   3.222   2.789   1.029  1.4199 -0.9145 -0.2047
 7790SOL    HW234830   3.335   2.845   0.953  0.5431  1.5380 -1.7696
 7791SOL     OW34831   2.979   1.642   8.455  1.0017 -0.0794  0.7887
 7791SOL    HW134832   2.997   1.555   8.418 -1.5606 -0.5526  0.6771
 7791SOL    HW234833   3.018   1.639   8.543  1.4765  1.1762  0.6233
 7792SOL     OW34834   1.283   1.917   2.079  0.5919  0.3078 -0.6725
 7792SOL    HW134835   1.245   1.967   2.007 -0.0164 -2.2814 -2.1621
 7792SOL    HW234836   1.237   1.960   2.150 -0.6977 -1.7524 -0.2486
 7793SOL     OW34837   3.537   2.446  16.882 -0.4528  0.5765 -0.2691
 7793SOL    HW134838   3.538   2.415  16.792  2.0248  0.1208 -0.0977
 7793SOL    HW234839   3.479   2.521  16.868 -0.5783  0.5403  0.0589
 7794SOL     OW34840   1.900   3.212   5.693  1.0343 -0.1362  0.1762
 7794SOL    HW134841   1.884   3.300   5.659 -0.6808 -0.1942  0.8294
 7794SOL    HW234842   1.993   3.222   5.711  1.1779 -1.4716  0.1581
 7795SOL     OW34843   3.222   2.577   2.547 -0.6676 -0.0787 -0.6056
 7795SOL    HW134844   3.243   2.504   2.605  1.1173  0.9646  0.0564
 7795SOL    HW234845   3.198   2.640   2.615 -1.7970 -0.0627 -1.0223
 7796SOL     OW34846   1.310   3.113   2.459  0.0243  0.0715  0.6123
 7796SOL    HW134847   1.397   3.130   2.495  0.3142  1.1244 -0.6121
 7796SOL    HW234848   1.322   3.137   2.367 -0.1990 -0.6570  0.3956
 7797SOL     OW34849   4.266   0.929   3.410 -0.1194 -0.4324 -0.1570
 7797SOL    HW134850   4.243   0.948   3.319  1.3451  1.5138 -0.1132
 7797SOL    HW234851   4.190   0.959   3.459 -0.4053  0.4683 -1.1622
 7798SOL     OW34852   2.854   3.583  14.654 -0.0781 -0.5810 -0.2756
 7798SOL    HW134853   2.867   3.538  14.571  3.8621  1.2039 -0.6198
 7798SOL    HW234854   2.929   3.557  14.709 -0.3929 -0.4496  0.2180
 7799SOL     OW34855   3.624   2.371  16.622 -0.1518  0.2062  0.3811
 7799SOL    HW134856   3.598   2.331  16.539  1.3263  2.2466 -1.0673
 7799SOL    HW234857   3.703   2.321  16.646 -0.3491 -0.6090 -0.6711
 7800SOL     OW34858   1.461   4.383  15.110 -0.2583  0.0591  0.2908
 7800SOL    HW134859   1.444   4.290  15.119  1.0173 -0.3959 -1.8161
 7800SOL    HW234860   1.371   4.414  15.113  0.3533  1.8091  1.0236
 7801SOL     OW34861   2.046   2.862   2.202  0.3429 -0.6559  0.1268
 7801SOL    HW134862   1.956   2.892   2.210 -0.1924 -2.2947  0.2268
 7801SOL    HW234863   2.036   2.800   2.130 -0.8406  1.8125 -1.8380
 7802SOL     OW34864   3.514   3.213   0.480 -0.4492 -0.1889 -0.1148
 7802SOL    HW134865   3.530   3.143   0.416  1.3440  0.4200 -0.3211
 7802SOL    HW234866   3.581   3.275   0.452  0.3932 -0.7281  0.7220
 7803SOL     OW34867   4.239   2.335   1.327 -0.8979 -0.4213 -0.3562
 7803SOL    HW134868   4.255   2.417   1.373 -2.7128 -0.7760  0.8877
 7803SOL    HW234869   4.164   2.360   1.272 -0.2242 -3.1596 -2.5230
 7804SOL     OW34870   2.539   1.908   1.713 -0.2180  0.4565  0.1559
 7804SOL    HW134871   2.633   1.888   1.713 -0.1897  0.5864  0.0955
 7804SOL    HW234872   2.528   1.989   1.763  1.1935  0.2603  0.7930
 7805SOL     OW34873   3.857   4.681  13.724  0.1035  0.3171  0.5903
 7805SOL    HW134874   3.951   4.691  13.711 -0.3107  2.0668 -1.0637
 7805SOL    HW234875   3.821   0.039  13.695 -0.4339  0.8080  2.6871
 7806SOL     OW34876   2.843   0.267  16.877  0.2303 -0.1542 -0.2242
 7806SOL    HW134877   2.827   0.192  16.934 -1.1311 -0.0020 -0.4002
 7806SOL    HW234878   2.751   0.273  16.849  0.3919 -0.4984 -0.8327
 7807SOL     OW34879   3.710   1.778   9.484 -0.4294  0.6565 -0.2651
 7807SOL    HW134880   3.695   1.687   9.458 -0.7967  0.6226  0.0452
 7807SOL    HW234881   3.715   1.751   9.576 -2.9095  0.8090 -0.0607
 7808SOL     OW34882   0.272   3.895   0.904  0.1607  0.5266  0.2950
 7808SOL    HW134883   0.297   3.983   0.875 -0.2348  1.1729  1.9642
 7808SOL    HW234884   0.357   3.849   0.899 -0.7347 -1.3608  2.7530
 7809SOL     OW34885   2.539   0.853   7.002 -0.3610  0.6658  0.0667
 7809SOL    HW134886   2.513   0.798   7.076 -0.4977  0.5109 -0.0966
 7809SOL    HW234887   2.457   0.882   6.962  0.2584 -0.1887 -1.8187
 7810SOL     OW34888   2.135   4.072   8.687  0.8173  0.3547 -0.6571
 7810SOL    HW134889   2.053   4.054   8.639  1.1639  1.0408 -1.5089
 7810SOL    HW234890   2.162   4.154   8.646  1.2107  0.0012 -1.1022
 7811SOL     OW34891   3.558   1.062   4.697  0.0881  0.6756 -0.2219
 7811SOL    HW134892   3.511   1.053   4.780 -0.0033  1.0044 -0.2366
 7811SOL    HW234893   3.536   1.153   4.674 -1.1601  0.0443 -1.5151
 7812SOL     OW34894   2.037   1.159  17.430  0.0124 -0.4416  0.6989
 7812SOL    HW134895   1.950   1.162  17.391 -0.2660  0.5707  1.4139
 7812SOL    HW234896   2.069   1.090  17.371  0.0214 -1.7594  2.2291
 7813SOL     OW34897   1.799   4.694   5.374  0.4889  0.5132 -0.3154
 7813SOL    HW134898   1.894   4.708   5.371  0.3972  1.4657  1.2754
 7813SOL    HW234899   1.771   0.057   5.394  1.3637  0.6077  0.4957
 7814SOL     OW34900   0.123   3.832  15.733  0.2626  0.0231 -0.2168
 7814SOL    HW134901   0.110   3.922  15.703 -2.2535 -0.3325 -0.2142
 7814SOL    HW234902   0.147   3.777  15.658 -1.3207 -0.5944 -0.2891
 7815SOL     OW34903   4.373   2.727   0.686  0.5096 -0.7277  0.2360
 7815SOL    HW134904   4.283   2.756   0.698  0.2213 -1.3536 -0.3956
 7815SOL    HW234905   4.407   2.807   0.646 -2.6834 -0.2275 -1.5014
 7816SOL     OW34906   2.758   0.470   3.547 -0.1142 -0.3681 -0.0247
 7816SOL    HW134907   2.800   0.522   3.616  0.4747 -0.7666 -0.0776
 7816SOL    HW234908   2.827   0.478   3.482  2.0163  0.8571  2.3988
 7817SOL     OW34909   0.452   4.245  14.795 -0.4002 -0.1345  0.0653
 7817SOL    HW134910   0.406   4.248  14.710  0.5847 -0.0234 -0.4581
 7817SOL    HW234911   0.376   4.262  14.851 -2.4246 -1.2767 -2.3215
 7818SOL     OW34912   4.031   0.829   5.861  0.0364  0.0748 -0.1696
 7818SOL    HW134913   4.126   0.838   5.871 -0.1293 -0.8257  2.1720
 7818SOL    HW234914   4.000   0.919   5.868  1.5566  0.5446  0.4931
 7819SOL     OW34915   3.835   0.368   8.137 -0.2572 -0.0745  0.1292
 7819SOL    HW134916   3.917   0.407   8.169 -0.7697  0.0800  1.2602
 7819SOL    HW234917   3.865   0.278   8.124  0.2219  0.3270 -1.4757
 7820SOL     OW34918   2.077   0.465   4.083  0.3284 -0.6624  0.3320
 7820SOL    HW134919   2.141   0.535   4.099  0.2717 -0.1416 -1.6521
 7820SOL    HW234920   2.076   0.464   3.987 -2.5996  0.6252  0.3333
 7821SOL     OW34921   2.030   0.181   3.513 -0.1270  0.2236 -0.0678
 7821SOL    HW134922   2.060   0.264   3.477 -0.4520 -0.0911 -1.0888
 7821SOL    HW234923   2.072   0.124   3.448  2.2910  2.2314 -0.2483
 7822SOL     OW34924   0.107   3.986  10.178 -0.3143  0.6175  0.6290
 7822SOL    HW134925   0.057   3.977  10.259  1.6354  0.3385  1.8222
 7822SOL    HW234926   0.096   3.900  10.139 -1.6847  1.1994 -0.2315
 7823SOL     OW34927   3.192   1.668   4.112  0.6924  0.0307 -0.5698
 7823SOL    HW134928   3.214   1.702   4.026 -1.3939 -1.4282 -1.6679
 7823SOL    HW234929   3.251   1.730   4.154  0.1869 -0.4111  0.8067
 7824SOL     OW34930   3.724   3.745   1.054 -0.3505 -0.2351  0.0216
 7824SOL    HW134931   3.685   3.785   0.976 -1.8734  0.9037  1.3765
 7824SOL    HW234932   3.649   3.697   1.089  1.2038 -0.6229  2.8189
 7825SOL     OW34933   2.889   3.096   7.341  0.4350 -0.1644  0.4630
 7825SOL    HW134934   2.957   3.163   7.342  0.8640 -0.5937  0.0448
 7825SOL    HW234935   2.821   3.140   7.392  0.4019  0.1142  0.1774
 7826SOL     OW34936   0.651   4.069   7.671  0.2650  0.1262  0.1948
 7826SOL    HW134937   0.654   3.974   7.659  1.5464  0.0474  1.0967
 7826SOL    HW234938   0.694   4.074   7.757 -1.0411  2.2140  0.7086
 7827SOL     OW34939   2.653   1.697  12.103  0.2083 -0.1140  0.1244
 7827SOL    HW134940   2.685   1.735  12.185  1.3573  1.3176 -0.9882
 7827SOL    HW234941   2.733   1.667  12.061 -0.0043 -0.7255  0.1523
 7828SOL     OW34942   0.283   1.175   9.164 -0.3600 -0.4103 -0.2451
 7828SOL    HW134943   0.225   1.100   9.152  1.6223 -1.9348 -0.2937
 7828SOL    HW234944   0.262   1.200   9.254 -0.4404  1.3340 -0.7413
 7829SOL     OW34945   1.541   3.996   2.726 -0.2689  0.5292  0.9297
 7829SOL    HW134946   1.555   4.050   2.804  1.5532 -0.4887  1.3012
 7829SOL    HW234947   1.614   4.031   2.674 -0.7947 -1.0206 -0.8438
 7830SOL     OW34948   3.969   1.148   7.803 -0.8751 -0.0106 -0.6667
 7830SOL    HW134949   4.012   1.062   7.810 -1.8371 -0.3713  0.7914
 7830SOL    HW234950   3.878   1.120   7.793 -1.1479  0.9007 -0.6942
 7831SOL     OW34951   2.563   4.239   1.846 -0.0742 -0.0049  0.1301
 7831SOL    HW134952   2.471   4.263   1.842  0.2215  1.3295  1.2956
 7831SOL    HW234953   2.550   4.171   1.780 -0.0814  1.8202 -1.7535
 7832SOL     OW34954   3.473   0.134   5.648  0.2363 -0.8315  0.3446
 7832SOL    HW134955   3.537   0.195   5.611 -0.5506  0.7082  1.5088
 7832SOL    HW234956   3.449   0.079   5.574 -2.2009  1.9695 -0.9444
 7833SOL     OW34957   0.567   3.118   3.596  0.0974  0.5485 -0.4058
 7833SOL    HW134958   0.527   3.148   3.514 -1.1012 -0.0522 -0.0372
 7833SOL    HW234959   0.598   3.035   3.560 -0.1018  1.4354 -2.6411
 7834SOL     OW34960   4.317   4.141   8.444 -0.5776 -0.5319 -0.1470
 7834SOL    HW134961   4.323   4.193   8.525  0.0743  0.3358 -0.7492
 7834SOL    HW234962   4.359   4.188   8.372 -1.2480  0.2713 -0.0155
 7835SOL     OW34963   3.897   1.722   2.970  0.3567  0.0652  0.3356
 7835SOL    HW134964   3.911   1.798   2.914  1.3309 -1.4796 -1.4826
 7835SOL    HW234965   3.815   1.692   2.932 -0.5332  1.7603  0.8861
 7836SOL     OW34966   3.764   0.018   8.972 -0.2594 -0.5327 -0.0859
 7836SOL    HW134967   3.726   0.099   9.008  2.3363  0.5653  0.1418
 7836SOL    HW234968   3.693   0.015   8.908  0.9622 -0.9215 -1.3912
 7837SOL     OW34969   2.353   3.432   3.497 -0.5746 -0.3288 -0.4023
 7837SOL    HW134970   2.315   3.408   3.412  0.2421 -2.1687 -0.2522
 7837SOL    HW234971   2.432   3.380   3.483  1.1949  1.1594  4.2431
 7838SOL     OW34972   2.418   4.333   5.062 -0.7372 -0.4110 -0.0323
 7838SOL    HW134973   2.336   4.284   5.063 -1.3273  0.5910  0.5215
 7838SOL    HW234974   2.395   4.414   5.017 -0.3525 -0.1467  0.2494
 7839SOL     OW34975   2.835   3.856  14.582  0.0073 -0.0522  0.2781
 7839SOL    HW134976   2.835   3.771  14.626  2.4667 -0.0446  0.3214
 7839SOL    HW234977   2.795   3.914  14.646  2.2439 -0.2668  1.8541
 7840SOL     OW34978   1.809   0.742  13.515 -0.0265  0.3434 -0.1309
 7840SOL    HW134979   1.747   0.689  13.564  1.2883  0.4710  1.6909
 7840SOL    HW234980   1.757   0.812  13.474  0.3249 -0.0816 -1.3068
 7841SOL     OW34981   0.681   0.428  16.120  0.4090 -0.4115 -0.0749
 7841SOL    HW134982   0.678   0.400  16.029  1.0649  1.3056 -0.6261
 7841SOL    HW234983   0.623   0.373  16.173 -1.4828 -0.9480 -2.7335
 7842SOL     OW34984   0.637   2.148   4.034  0.3977 -0.0441 -0.0843
 7842SOL    HW134985   0.629   2.053   4.039 -0.8858  0.3246  4.3910
 7842SOL    HW234986   0.619   2.166   3.941 -0.5464  0.3823  0.1830
 7843SOL     OW34987   0.392   0.271   1.281 -0.6708 -0.1103  0.3309
 7843SOL    HW134988   0.487   0.259   1.279 -0.8682 -1.3779 -1.4704
 7843SOL    HW234989   0.363   0.236   1.365  2.9946  1.1591  2.1398
 7844SOL     OW34990   2.555   3.483   4.981  0.0544  0.1296  0.4514
 7844SOL    HW134991   2.500   3.426   4.927 -1.3165  2.4245 -0.5833
 7844SOL    HW234992   2.644   3.466   4.951 -0.3234 -1.2984  0.1471
 7845SOL     OW34993   0.165   0.811   4.364  0.3393 -0.0331  0.1911
 7845SOL    HW134994   0.087   0.866   4.364 -0.3452 -0.9959  1.7897
 7845SOL    HW234995   0.225   0.849   4.427  1.8407 -0.6838 -0.8489
 7846SOL     OW34996   0.124   3.024   4.907 -0.2637 -0.4267 -0.5672
 7846SOL    HW134997   0.091   3.025   4.817  1.6315  0.4883 -1.2528
 7846SOL    HW234998   0.196   3.087   4.910  0.8697 -1.8831  1.9683
 7847SOL     OW34999   4.534   4.075   9.885  0.3856 -0.0636  1.2190
 7847SOL    HW135000   4.583   4.156   9.873 -0.5767  0.4324  0.5674
 7847SOL    HW235001   4.604   4.019   9.853 -1.4908 -1.4603 -0.4278
 7848SOL     OW35002   0.546   2.094   2.902  0.1704 -0.8168 -0.3158
 7848SOL    HW135003   0.544   1.998   2.909 -1.9258 -0.7987 -0.4676
 7848SOL    HW235004   0.638   2.116   2.910 -0.1803  0.4025  0.4014
 7849SOL     OW35005   4.155   1.258   3.431 -0.3960  0.0414  0.0434
 7849SOL    HW135006   4.107   1.337   3.406 -0.1696 -0.0452 -0.6572
 7849SOL    HW235007   4.166   1.212   3.348 -3.4508 -1.5044  0.5174
 7850SOL     OW35008   0.496   4.531  10.820 -0.1745  0.0982 -0.6173
 7850SOL    HW135009   0.559   4.464  10.791  0.1010  0.7881 -1.6414
 7850SOL    HW235010   0.479   4.503  10.910 -0.0303 -0.7135 -0.8403
 7851SOL     OW35011   2.076   2.315   9.957  0.2267  0.1257  0.4561
 7851SOL    HW135012   2.051   2.382   9.893  0.3209  0.0469  0.3375
 7851SOL    HW235013   2.002   2.255   9.957 -0.5487  1.0671 -0.5346
 7852SOL     OW35014   4.457   1.695   7.566 -0.2177 -0.4403  0.0182
 7852SOL    HW135015   4.478   1.638   7.640  0.8193  0.0382  0.0962
 7852SOL    HW235016   4.530   1.755   7.584  0.3098 -1.2070  0.4559
 7853SOL     OW35017   4.541   3.313   8.153 -0.1172  0.0015  0.2347
 7853SOL    HW135018   4.580   3.400   8.160  0.5222 -0.3420  0.9643
 7853SOL    HW235019   4.606   3.253   8.116  0.3450 -0.0291  1.0947
 7854SOL     OW35020   2.520   3.145  10.382 -0.1657  0.2850 -0.0966
 7854SOL    HW135021   2.578   3.201  10.329  0.1485  0.2027  0.1615
 7854SOL    HW235022   2.451   3.141  10.315 -1.7115 -1.1805  1.5951
 7855SOL     OW35023   3.670   0.205  15.010  0.2284  0.1689 -0.3418
 7855SOL    HW135024   3.676   0.209  14.915  3.7191  1.2337 -0.0823
 7855SOL    HW235025   3.578   0.188  15.027  0.5661  0.3100  1.6198
 7856SOL     OW35026   0.410   2.299   2.472 -0.1891 -0.2085  0.4840
 7856SOL    HW135027   0.381   2.334   2.387  2.7887  0.7492 -0.1163
 7856SOL    HW235028   0.412   2.381   2.523 -0.3689  1.3050 -1.9264
 7857SOL     OW35029   4.569   3.717   1.304  0.0988  0.2110  0.2529
 7857SOL    HW135030   4.634   3.722   1.375 -0.8472  0.2371  1.1077
 7857SOL    HW235031   4.532   3.805   1.312  1.6257  0.9689 -0.9770
 7858SOL     OW35032   0.266   2.824  17.633 -0.3083 -0.2108 -0.0570
 7858SOL    HW135033   0.242   2.911  17.601  2.9672  0.0772 -1.7610
 7858SOL    HW235034   0.246   2.775  17.553  0.5429  0.1085 -0.4745
 7859SOL     OW35035   1.401   3.048   6.206  0.0897  0.5641  0.1965
 7859SOL    HW135036   1.382   2.954   6.205  3.3505 -0.1243  0.7979
 7859SOL    HW235037   1.497   3.047   6.198 -0.1287 -2.1405 -1.8944
 7860SOL     OW35038   2.971   0.744  15.187  0.6043 -0.5254  0.3176
 7860SOL    HW135039   2.998   0.734  15.095 -0.8404 -0.6342 -0.0958
 7860SOL    HW235040   2.977   0.653  15.217  0.1208 -0.0923  1.7168
 7861SOL     OW35041   0.451   4.046   5.113  0.1422  0.0850 -0.2146
 7861SOL    HW135042   0.522   4.068   5.173 -1.2402 -1.7528  2.1454
 7861SOL    HW235043   0.478   4.090   5.033  0.8734  0.7293  0.3921
 7862SOL     OW35044   4.605   2.687   5.962 -0.3134  0.4345 -0.2592
 7862SOL    HW135045   4.533   2.632   5.931  0.5547  0.0495 -1.6142
 7862SOL    HW235046   4.616   2.728   5.876 -2.1359  2.2133  0.3579
 7863SOL     OW35047   3.002   0.031   5.212 -0.3458 -0.1851 -0.2031
 7863SOL    HW135048   3.045   4.682   5.170  0.4218 -0.3425  0.8795
 7863SOL    HW235049   3.061   0.073   5.273 -0.8020 -0.7603  0.6394
 7864SOL     OW35050   2.320   0.005   2.297 -0.0106  0.0407  0.1211
 7864SOL    HW135051   2.300   0.048   2.213 -0.0168  0.2509  0.2291
 7864SOL    HW235052   2.369   0.073   2.343  0.8875 -0.5315  0.0139
 7865SOL     OW35053   3.303   1.003   1.550  0.3317 -0.5085  0.2700
 7865SOL    HW135054   3.364   0.988   1.622 -2.4856 -1.5639  2.4110
 7865SOL    HW235055   3.229   0.952   1.583 -2.1886  3.0394 -0.0039
 7866SOL     OW35056   3.869   2.675   5.004  0.4728  0.4154 -0.8650
 7866SOL    HW135057   3.821   2.594   5.025  0.3207  0.8337  0.3631
 7866SOL    HW235058   3.837   2.739   5.067  0.9652  0.7026 -0.9158
 7867SOL     OW35059   2.970   2.619   8.720 -0.1904  0.3330  0.1598
 7867SOL    HW135060   2.998   2.566   8.645 -1.6529 -0.9293  0.5171
 7867SOL    HW235061   2.975   2.707   8.682  0.1603  0.0954 -0.3551
 7868SOL     OW35062   0.940   3.403   3.302  0.3932  0.2831  0.3812
 7868SOL    HW135063   0.908   3.313   3.304 -0.4308  0.5286 -2.4934
 7868SOL    HW235064   1.026   3.388   3.263  0.5477 -1.9633  1.5594
 7869SOL     OW35065   2.002   1.452   4.253  0.2590  0.5592 -0.9635
 7869SOL    HW135066   2.075   1.503   4.218  2.3887 -0.1243  2.4444
 7869SOL    HW235067   1.986   1.384   4.187  1.0013 -0.8212  0.2742
 7870SOL     OW35068   1.304   3.542  15.295  0.4541 -0.3478 -0.2141
 7870SOL    HW135069   1.316   3.461  15.344  1.1284 -3.0713 -4.8592
 7870SOL    HW235070   1.355   3.521  15.216  0.5476  0.3627 -0.3435
 7871SOL     OW35071   1.642   2.297   4.456  0.0626 -0.3033  0.1733
 7871SOL    HW135072   1.587   2.220   4.444 -0.5622  0.3718 -1.2841
 7871SOL    HW235073   1.580   2.363   4.425 -0.8957 -1.7152 -0.8618
 7872SOL     OW35074   0.023   1.363   8.270  0.0498 -0.3559  0.6519
 7872SOL    HW135075   0.083   1.425   8.311  1.2746 -0.7232 -0.5729
 7872SOL    HW235076   0.066   1.283   8.300 -1.9923 -2.0522 -0.8908
 7873SOL     OW35077   3.944   0.058   1.091 -0.2676  0.0323  0.2387
 7873SOL    HW135078   3.887   0.076   1.016 -0.2429 -1.7168 -0.2011
 7873SOL    HW235079   3.999   4.717   1.050 -0.2800 -0.1153  0.4591
 7874SOL     OW35080   0.741   2.300  13.070  0.1643  0.1744  0.1666
 7874SOL    HW135081   0.783   2.382  13.043  1.7149 -0.4077  0.7898
 7874SOL    HW235082   0.790   2.241  13.014  1.2496  1.8908 -0.6951
 7875SOL     OW35083   4.384   2.746   9.313  0.0557  0.1180  0.0993
 7875SOL    HW135084   4.291   2.764   9.306 -0.0119  0.5427  2.2451
 7875SOL    HW235085   4.432   2.828   9.302 -0.7612  0.4771 -0.8597
 7876SOL     OW35086   3.000   0.131  15.072 -0.3967  0.0018 -0.5047
 7876SOL    HW135087   2.980   0.140  15.165 -1.4221  1.1285 -0.8312
 7876SOL    HW235088   2.983   0.037  15.068 -1.0770  0.1522 -1.2048
 7877SOL     OW35089   3.110   2.271   4.781  0.1597 -0.0320 -0.1306
 7877SOL    HW135090   3.187   2.239   4.733 -0.3269  0.8741 -1.5326
 7877SOL    HW235091   3.037   2.213   4.758 -0.8395  1.2224 -0.1065
 7878SOL     OW35092   0.170   3.909   6.023 -0.2805  0.4981 -0.1943
 7878SOL    HW135093   0.163   3.859   6.104  0.5914 -1.8234 -1.5482
 7878SOL    HW235094   0.223   3.980   6.059  0.8812 -0.6669  0.3930
 7879SOL     OW35095   0.159   0.610   3.747 -0.3321  0.1862  0.2440
 7879SOL    HW135096   0.218   0.535   3.759 -0.1535  0.5764  1.7435
 7879SOL    HW235097   0.136   0.623   3.839  1.3925  0.3042  0.6618
 7880SOL     OW35098   3.662   1.470   3.094  0.4693 -0.5004 -0.0621
 7880SOL    HW135099   3.678   1.517   3.013  1.1779 -1.7127 -0.6132
 7880SOL    HW235100   3.726   1.400   3.104 -0.8856 -2.1217 -2.6184
 7881SOL     OW35101   3.309   3.932  14.040 -0.5547  0.0934  0.0439
 7881SOL    HW135102   3.302   3.868  14.112 -0.6797 -1.5557 -1.4235
 7881SOL    HW235103   3.232   3.988  14.045 -0.1028  0.9806 -3.2716
 7882SOL     OW35104   0.009   0.712   2.090  0.2997 -0.1135  0.1926
 7882SOL    HW135105   4.684   0.675   2.017  2.0217  1.2944 -1.7048
 7882SOL    HW235106   0.061   0.638   2.122 -1.0340 -1.7930 -1.5350
 7883SOL     OW35107   3.607   2.673   5.750 -0.6055 -0.5972  0.0976
 7883SOL    HW135108   3.645   2.714   5.672 -2.6652  0.5183 -0.3219
 7883SOL    HW235109   3.627   2.582   5.726  0.0204 -0.7804  1.3477
 7884SOL     OW35110   2.789   2.492   9.548 -0.2193 -0.8999 -0.1661
 7884SOL    HW135111   2.704   2.531   9.570  1.1469  1.2130  1.3950
 7884SOL    HW235112   2.770   2.465   9.458  0.1548  0.3836 -0.6242
 7885SOL     OW35113   1.295   3.293   6.115  0.2346  0.3540  0.3678
 7885SOL    HW135114   1.259   3.260   6.033 -1.4921 -0.5388  1.4979
 7885SOL    HW235115   1.319   3.207   6.148 -2.2955 -1.4654 -2.5449
 7886SOL     OW35116   2.808   1.928   1.008  0.3300  0.3211  0.1133
 7886SOL    HW135117   2.777   1.899   1.093 -0.7276 -0.0441 -0.4076
 7886SOL    HW235118   2.788   2.022   1.014  0.7215  0.3171  1.3616
 7887SOL     OW35119   0.904   1.325  16.327 -0.1800 -0.0176  0.3217
 7887SOL    HW135120   0.814   1.291  16.330 -0.5217  0.9468  1.1969
 7887SOL    HW235121   0.952   1.260  16.276  2.8390  0.8032  2.1288
 7888SOL     OW35122   0.937   4.457   7.881 -0.3150  0.7167 -0.0266
 7888SOL    HW135123   0.972   4.536   7.840 -1.2302  0.8728 -0.5085
 7888SOL    HW235124   1.015   4.403   7.892 -0.8378 -0.4973 -2.4020
 7889SOL     OW35125   2.262   0.043   4.208  0.1685 -0.5895 -0.7803
 7889SOL    HW135126   2.257   4.713   4.286 -1.6703  1.6211  0.6844
 7889SOL    HW235127   2.357   0.045   4.195  0.6150 -4.1885  2.1286
 7890SOL     OW35128   3.568   0.684   5.145  0.2050 -0.4935 -0.0369
 7890SOL    HW135129   3.505   0.735   5.196  0.3401  1.6320 -1.9666
 7890SOL    HW235130   3.564   0.737   5.065 -2.8265  0.3033  0.6414
 7891SOL     OW35131   4.654   2.251  15.534 -0.1334 -0.0253 -0.3536
 7891SOL    HW135132   4.565   2.255  15.498 -0.4349 -1.0944  0.2807
 7891SOL    HW235133   4.687   2.327  15.486 -0.2820  0.0142 -0.3933
 7892SOL     OW35134   3.381   1.876  13.703 -0.1615 -0.6310  0.3923
 7892SOL    HW135135   3.436   1.852  13.777 -2.5209  0.2078  2.4126
 7892SOL    HW235136   3.298   1.840  13.733 -0.5939  1.4647  1.7556
 7893SOL     OW35137   1.265   3.295   7.006  0.5729 -0.3241 -0.0118
 7893SOL    HW135138   1.314   3.355   7.063 -0.3904 -1.2951  1.8619
 7893SOL    HW235139   1.264   3.347   6.926  0.9589 -0.3072 -0.0062
 7894SOL     OW35140   3.755   2.050   9.142  0.3196 -0.2684 -0.2918
 7894SOL    HW135141   3.799   1.969   9.167  0.4246 -0.3939 -0.8915
 7894SOL    HW235142   3.729   2.079   9.230 -0.9045 -1.5501 -0.2289
 7895SOL     OW35143   2.870   4.171   8.070  0.4533  0.2320 -0.4016
 7895SOL    HW135144   2.929   4.133   8.006 -0.8763 -0.1207 -1.4042
 7895SOL    HW235145   2.795   4.112   8.070  1.1745 -0.6577 -2.5395
 7896SOL     OW35146   2.579   4.182  14.293  0.2121 -0.2385  0.0404
 7896SOL    HW135147   2.631   4.107  14.322  0.8812  0.2427  0.0772
 7896SOL    HW235148   2.631   4.199  14.214 -0.8444  0.6613 -0.4741
 7897SOL     OW35149   0.894   4.402  13.298  0.0696  0.2919 -0.3967
 7897SOL    HW135150   0.838   4.471  13.333  1.8409  0.2947  2.3816
 7897SOL    HW235151   0.864   4.327  13.350 -0.6890  1.1385  0.4002
 7898SOL     OW35152   4.424   0.149  16.369 -0.1025  0.3624  0.3681
 7898SOL    HW135153   4.407   0.126  16.460 -0.3605  2.1655  0.7627
 7898SOL    HW235154   4.338   0.127  16.333  0.5458 -1.5975  0.0257
 7899SOL     OW35155   2.029   2.573  10.182  0.3384 -0.4411 -0.0594
 7899SOL    HW135156   2.020   2.480  10.162  1.9992 -0.9731  1.6805
 7899SOL    HW235157   2.005   2.572  10.274 -2.3836 -3.2310 -0.7916
 7900SOL     OW35158   2.692   3.043  14.434 -0.0798  0.4179  0.5211
 7900SOL    HW135159   2.734   3.080  14.511  1.4857  1.6438 -0.9177
 7900SOL    HW235160   2.670   2.958  14.471 -1.5455 -0.5026 -2.4115
 7901SOL     OW35161   1.241   1.103   7.015 -0.3187  0.4911  0.4737
 7901SOL    HW135162   1.224   1.035   7.081 -1.0441  0.0663 -0.1547
 7901SOL    HW235163   1.223   1.187   7.059  1.5245 -0.1637  2.4746
 7902SOL     OW35164   4.351   0.110   9.020  0.1690 -0.1962  0.0783
 7902SOL    HW135165   4.380   0.127   8.931  0.7076  0.4935  0.3838
 7902SOL    HW235166   4.256   0.115   9.021  0.0848 -1.5754 -0.9165
 7903SOL     OW35167   2.102   3.618  17.178 -0.2403 -0.2978 -0.1785
 7903SOL    HW135168   2.178   3.663  17.140  1.2540 -0.6490  2.3136
 7903SOL    HW235169   2.039   3.612  17.107 -0.0196 -0.2714 -0.3752
 7904SOL     OW35170   1.302   0.852   5.271 -0.2532 -0.0930  0.1314
 7904SOL    HW135171   1.219   0.889   5.303  1.4030  2.5991  1.2846
 7904SOL    HW235172   1.285   0.823   5.181  1.0830 -1.7414  0.4178
 7905SOL     OW35173   3.420   1.284   5.537 -0.6982 -0.6350 -0.5730
 7905SOL    HW135174   3.412   1.191   5.512 -0.4341 -0.5057 -1.1407
 7905SOL    HW235175   3.341   1.296   5.589 -1.6497 -2.4009 -1.5756
 7906SOL     OW35176   2.264   3.663   7.625  0.1314 -0.4601  0.5376
 7906SOL    HW135177   2.293   3.603   7.693  1.0468 -0.0538  0.5073
 7906SOL    HW235178   2.341   3.720   7.629  0.1017 -0.6075  3.4146
 7907SOL     OW35179   1.426   4.523  17.649  0.0021 -0.2115 -0.0362
 7907SOL    HW135180   1.372   4.600  17.668  1.1829  0.0803  2.1407
 7907SOL    HW235181   1.401   4.511  17.558  0.0618  0.6008 -0.1611
 7908SOL     OW35182   0.505   0.664  16.339 -0.1804 -0.1517  0.3375
 7908SOL    HW135183   0.463   0.698  16.260  1.3136 -0.3081 -0.5339
 7908SOL    HW235184   0.451   0.704  16.407  0.9225  1.0037  0.5421
 7909SOL     OW35185   3.908   0.691   9.288 -0.2304 -0.9625  0.4845
 7909SOL    HW135186   3.909   0.640   9.370 -0.6827 -3.7270 -1.2400
 7909SOL    HW235187   3.997   0.724   9.293  0.1288 -1.8978  0.2891
 7910SOL     OW35188   3.302   1.328   2.515 -0.2894 -0.9854 -0.2665
 7910SOL    HW135189   3.393   1.354   2.525 -1.2500  1.5521  1.8378
 7910SOL    HW235190   3.252   1.406   2.537  0.8157 -0.4930  0.4592
 7911SOL     OW35191   3.686   3.869   4.924 -0.3588 -0.1363 -0.0684
 7911SOL    HW135192   3.749   3.804   4.953  0.1843  0.1904 -0.5102
 7911SOL    HW235193   3.706   3.867   4.831  0.8523 -2.2070  0.2491
 7912SOL     OW35194   2.530   2.529  12.858  0.4670 -0.5529 -0.2633
 7912SOL    HW135195   2.597   2.462  12.843 -0.6088 -1.2184 -2.0907
 7912SOL    HW235196   2.565   2.591  12.794  4.4841 -0.3763  2.1005
 7913SOL     OW35197   2.240   2.452  14.313  0.3273 -0.8773 -0.0894
 7913SOL    HW135198   2.208   2.516  14.377  1.8456  0.1658 -0.3664
 7913SOL    HW235199   2.313   2.504  14.279 -0.6068  2.0637  2.4406
 7914SOL     OW35200   3.378   4.489   5.295 -0.2082  0.2301  0.1851
 7914SOL    HW135201   3.355   4.396   5.299 -0.9235  0.5717  4.6036
 7914SOL    HW235202   3.395   4.500   5.202  0.9721 -0.5863  0.3151
 7915SOL     OW35203   2.179   0.938   4.420  0.2027 -0.2695  0.2999
 7915SOL    HW135204   2.192   0.869   4.485  0.4899 -1.0326 -0.5699
 7915SOL    HW235205   2.090   0.922   4.387 -0.4040 -0.2276  1.9526
 7916SOL     OW35206   2.759   2.947   9.419  0.4102 -0.0817  0.2027
 7916SOL    HW135207   2.806   2.867   9.443  1.1409 -0.1639 -1.5813
 7916SOL    HW235208   2.694   2.940   9.489 -0.2506 -0.2231 -0.4243
 7917SOL     OW35209   0.685   2.384   4.673 -0.7294  0.6438 -0.1012
 7917SOL    HW135210   0.684   2.476   4.648  0.1504  0.6566 -0.0749
 7917SOL    HW235211   0.684   2.392   4.769  0.4950  0.7715 -0.1005
 7918SOL     OW35212   2.265   0.850   8.974  0.0393  0.0492 -0.0941
 7918SOL    HW135213   2.276   0.768   8.925  0.6947  1.2250 -1.9055
 7918SOL    HW235214   2.325   0.830   9.046  1.0112  1.3659 -0.5456
 7919SOL     OW35215   3.728   0.347   5.196  0.0622 -0.2550  0.0249
 7919SOL    HW135216   3.718   0.255   5.171  2.0043 -0.1487 -1.1596
 7919SOL    HW235217   3.801   0.378   5.142 -0.4606 -0.8133 -1.0138
 7920SOL     OW35218   4.428   4.335   7.508  0.2521 -0.2414 -0.3805
 7920SOL    HW135219   4.387   4.270   7.564  0.6353 -1.5029 -1.5784
 7920SOL    HW235220   4.491   4.380   7.564  0.7525 -1.1528 -0.2165
 7921SOL     OW35221   3.460   2.007  10.532  0.0072  0.1806 -0.0313
 7921SOL    HW135222   3.365   2.004  10.521 -0.0255  0.5320  0.1372
 7921SOL    HW235223   3.456   2.036  10.623 -4.5001  0.4079 -0.3013
 7922SOL     OW35224   3.390   3.330  17.014 -0.1688 -0.4890  0.3421
 7922SOL    HW135225   3.337   3.401  16.980  0.1967  0.2467  1.2930
 7922SOL    HW235226   3.364   3.262  16.953 -0.9680 -1.0215  1.2658
 7923SOL     OW35227   2.757   2.741   5.225 -0.6308  0.3727  0.4725
 7923SOL    HW135228   2.674   2.766   5.265 -0.5931  0.5162  0.4621
 7923SOL    HW235229   2.784   2.671   5.283 -1.0038 -1.2734 -1.3339
 7924SOL     OW35230   4.377   0.563  10.079  0.0423  0.1416 -0.4693
 7924SOL    HW135231   4.411   0.474  10.091 -1.9073 -0.5670 -0.2410
 7924SOL    HW235232   4.398   0.614  10.158  0.5573 -1.5935  0.5050
 7925SOL     OW35233   1.873   1.283   2.811  0.3449  0.2781 -0.1821
 7925SOL    HW135234   1.867   1.249   2.900 -1.7419  1.3534  0.0857
 7925SOL    HW235235   1.807   1.352   2.820 -0.8948 -0.7935 -0.9908
 7926SOL     OW35236   3.882   4.597   3.678  0.2177 -0.2718  0.0830
 7926SOL    HW135237   3.834   4.518   3.650 -2.4027  0.8488  1.3713
 7926SOL    HW235238   3.825   4.631   3.747  1.1745  1.5674 -0.0571
 7927SOL     OW35239   0.194   2.679   4.010 -0.3830  0.0493 -0.0087
 7927SOL    HW135240   0.198   2.615   4.081  1.9949 -1.2674 -1.3265
 7927SOL    HW235241   0.100   2.678   3.991 -0.3498  0.6060 -0.1851
 7928SOL     OW35242   4.345   2.310   7.632  0.6055 -0.2581  0.4594
 7928SOL    HW135243   4.432   2.286   7.662  0.1841 -0.7331  1.3005
 7928SOL    HW235244   4.367   2.390   7.583  2.9225 -0.1778  1.6479
 7929SOL     OW35245   4.159   2.970   2.210  0.3143 -0.0483  0.4124
 7929SOL    HW135246   4.069   2.944   2.190  0.0460  0.4038  1.0060
 7929SOL    HW235247   4.144   3.049   2.263 -1.8533 -0.9299  1.1309
 7930SOL     OW35248   3.757   1.515   3.712 -0.1135  0.0150 -0.2610
 7930SOL    HW135249   3.837   1.479   3.751 -1.0529 -1.0095  0.7317
 7930SOL    HW235250   3.777   1.505   3.618  1.7385 -1.7694  0.3129
 7931SOL     OW35251   3.614   2.170   5.645 -0.3957  0.0199 -0.3044
 7931SOL    HW135252   3.651   2.258   5.643 -2.1795  0.7737 -0.7771
 7931SOL    HW235253   3.656   2.118   5.713  0.5940  0.4577 -0.5908
 7932SOL     OW35254   2.179   0.450   4.530 -0.4456 -0.2113  0.3696
 7932SOL    HW135255   2.151   0.401   4.453 -1.0006  1.3897 -0.4385
 7932SOL    HW235256   2.274   0.440   4.533 -0.6402 -2.3771 -1.0934
 7933SOL     OW35257   0.194   4.403   3.225  0.4200 -0.1206  0.0271
 7933SOL    HW135258   0.199   4.379   3.317  0.0354  1.5937  0.4872
 7933SOL    HW235259   0.219   4.323   3.177  1.3153  0.1347  0.0600
 7934SOL     OW35260   2.231   1.149   7.132 -0.1087 -0.9546  0.1528
 7934SOL    HW135261   2.290   1.109   7.197  0.8019 -0.8980 -0.6434
 7934SOL    HW235262   2.288   1.219   7.101  1.1138 -2.2632 -0.5278
 7935SOL     OW35263   1.332   0.778   6.890 -0.0052 -0.0902 -0.2676
 7935SOL    HW135264   1.401   0.833   6.927  2.1152 -2.6385 -0.3605
 7935SOL    HW235265   1.368   0.750   6.806 -1.3272 -1.4051 -0.3930
 7936SOL     OW35266   1.313   2.903   6.701  0.2357 -0.3986  0.6941
 7936SOL    HW135267   1.321   2.818   6.658  0.3193  0.1690 -0.4198
 7936SOL    HW235268   1.358   2.958   6.636 -0.2621  0.8532  1.4037
 7937SOL     OW35269   0.100   1.145  16.579 -0.2006  0.0286  0.2980
 7937SOL    HW135270   0.128   1.091  16.505  1.3950  1.8631 -0.4735
 7937SOL    HW235271   0.131   1.094  16.653 -0.8143  1.1416  1.3230
 7938SOL     OW35272   1.349   2.298   4.846  0.2862  0.2674 -0.2269
 7938SOL    HW135273   1.321   2.209   4.823 -1.1135  0.3636  1.0913
 7938SOL    HW235274   1.407   2.291   4.921  0.5316 -1.1813 -0.5586
 7939SOL     OW35275   0.966   0.307   5.702 -0.2848  0.0108 -0.2512
 7939SOL    HW135276   0.997   0.380   5.649 -0.5964  0.4495  0.1782
 7939SOL    HW235277   0.901   0.353   5.754 -0.2635 -0.3966  0.1370
 7940SOL     OW35278   3.027   0.436   3.481  0.2488  0.4513 -0.0315
 7940SOL    HW135279   3.113   0.439   3.523  0.2420 -0.3117  0.0444
 7940SOL    HW235280   3.012   0.520   3.439  1.2014  0.4367 -0.3934
 7941SOL     OW35281   2.385   3.875   8.461  0.1964 -0.3388 -0.0691
 7941SOL    HW135282   2.377   3.822   8.540 -3.1524  0.6770  0.3081
 7941SOL    HW235283   2.477   3.863   8.440  0.2431 -0.8219  0.4153
 7942SOL     OW35284   3.348   3.404   4.385  0.2511 -0.0334 -0.0463
 7942SOL    HW135285   3.285   3.343   4.424  1.4330 -1.0517  0.2426
 7942SOL    HW235286   3.319   3.482   4.432  0.0286 -0.0043 -0.2303
 7943SOL     OW35287   0.296   0.749   8.557  0.5117  0.0451 -0.6251
 7943SOL    HW135288   0.378   0.720   8.597 -0.0675 -2.4613 -1.2377
 7943SOL    HW235289   0.325   0.826   8.509  1.7130 -0.1069 -0.1379
 7944SOL     OW35290   1.307   2.409  10.515 -0.2902 -0.0687  0.6386
 7944SOL    HW135291   1.277   2.422  10.605  0.7220  1.1237  0.8094
 7944SOL    HW235292   1.396   2.441  10.528 -0.6560  0.8905  0.7974
 7945SOL     OW35293   2.185   4.072   8.056  1.0276 -0.0297  0.0384
 7945SOL    HW135294   2.279   4.067   8.041  1.4964  2.4043  2.0955
 7945SOL    HW235295   2.188   4.116   8.142 -1.7374 -1.1422  0.7102
 7946SOL     OW35296   3.759   0.414  10.887  0.5361  0.0082  0.4451
 7946SOL    HW135297   3.760   0.494  10.939 -1.8530  0.0849  0.3820
 7946SOL    HW235298   3.774   0.453  10.801  1.6815 -2.0385 -0.3020
 7947SOL     OW35299   0.556   3.527   9.447 -0.1775  0.4683 -0.8572
 7947SOL    HW135300   0.573   3.621   9.446 -1.9426  0.8197  0.8520
 7947SOL    HW235301   0.599   3.502   9.529 -0.5612  1.2983 -0.3987
 7948SOL     OW35302   0.695   3.120  13.174 -0.5823 -0.4516  0.2758
 7948SOL    HW135303   0.701   3.172  13.254 -3.6769  0.3889 -0.0289
 7948SOL    HW235304   0.695   3.192  13.112 -3.5752 -1.4844 -0.9261
 7949SOL     OW35305   0.617   1.560  15.127  0.0987 -0.2484  0.0643
 7949SOL    HW135306   0.699   1.552  15.079  1.8699 -2.2370  3.4387
 7949SOL    HW235307   0.568   1.607  15.059 -1.3042  1.5906  2.3593
 7950SOL     OW35308   1.418   1.904  17.678 -0.5105  0.3542  0.5192
 7950SOL    HW135309   1.405   1.972  17.612 -3.4954 -1.2184 -0.5507
 7950SOL    HW235310   1.385   1.830  17.627  2.6637 -0.8114  0.1643
 7951SOL     OW35311   3.572   4.538   2.650  0.2137 -0.3548 -0.8030
 7951SOL    HW135312   3.656   4.582   2.635  0.0665  0.3085  0.3124
 7951SOL    HW235313   3.597   4.484   2.725 -0.1450 -0.2445 -0.6073
 7952SOL     OW35314   0.939   4.250   5.149 -0.2073 -0.0151  0.1063
 7952SOL    HW135315   0.974   4.339   5.155  1.1040 -0.6346  1.5637
 7952SOL    HW235316   0.849   4.270   5.120 -0.9386  1.9833  3.6822
 7953SOL     OW35317   3.432   4.161   1.876  0.2370  0.5094  0.3172
 7953SOL    HW135318   3.506   4.221   1.882  1.4145 -1.1247  2.2441
 7953SOL    HW235319   3.448   4.113   1.958  1.4168 -1.2410 -0.9441
 7954SOL     OW35320   1.281   4.225   7.025 -0.0242 -0.0063 -0.4155
 7954SOL    HW135321   1.229   4.204   6.947 -0.1024  1.1713 -0.6815
 7954SOL    HW235322   1.313   4.312   7.000 -0.3433  0.1757 -0.1828
 7955SOL     OW35323   4.167   1.378  13.376 -0.0756  0.6728  0.0639
 7955SOL    HW135324   4.179   1.407  13.285  0.7616 -1.3210 -0.4466
 7955SOL    HW235325   4.086   1.328  13.375  1.2897 -1.5058 -1.0846
 7956SOL     OW35326   4.316   1.498   2.907  0.7490 -0.1338 -0.0564
 7956SOL    HW135327   4.386   1.462   2.851 -0.8107 -4.2606  0.6229
 7956SOL    HW235328   4.235   1.476   2.861 -0.2150  2.0362  0.6248
 7957SOL     OW35329   1.675   1.833   2.735  0.5676 -0.8155 -0.0944
 7957SOL    HW135330   1.611   1.810   2.803  0.5444 -0.5074 -0.0097
 7957SOL    HW235331   1.732   1.899   2.775 -0.1898 -0.8991  1.1471
 7958SOL     OW35332   2.086   3.181   3.571  0.4830  0.5315  0.2215
 7958SOL    HW135333   2.002   3.152   3.537  0.4932 -1.4382  1.9117
 7958SOL    HW235334   2.130   3.193   3.487  2.4826  1.0203  1.3186
 7959SOL     OW35335   3.718   4.166  12.439  0.3718  0.3157  0.3611
 7959SOL    HW135336   3.803   4.168  12.484 -0.0454  1.0469  1.1386
 7959SOL    HW235337   3.685   4.255  12.453 -0.1162  0.6047 -2.8344
 7960SOL     OW35338   0.855   2.398   9.977  0.0022  0.0833 -0.2135
 7960SOL    HW135339   0.838   2.456  10.051 -0.4452  1.3472 -1.2875
 7960SOL    HW235340   0.861   2.463   9.907 -1.5065 -2.3767 -2.6275
 7961SOL     OW35341   2.118   3.725   8.601 -0.1051 -0.4241  0.3281
 7961SOL    HW135342   2.048   3.665   8.627 -1.8365  0.7766 -1.5395
 7961SOL    HW235343   2.179   3.713   8.674 -0.6442  1.5203  1.1072
 7962SOL     OW35344   3.970   4.595   9.365  1.0037  0.3449  0.0702
 7962SOL    HW135345   3.922   4.592   9.448 -1.0471 -2.1367 -1.2100
 7962SOL    HW235346   4.007   4.681   9.381 -0.8400  1.5502 -2.2598
 7963SOL     OW35347   3.202   2.564  15.809  0.6391 -0.6263 -1.1278
 7963SOL    HW135348   3.182   2.627  15.740 -1.4815  1.5644  1.4708
 7963SOL    HW235349   3.119   2.568  15.856  0.4511 -0.0911 -1.5038
 7964SOL     OW35350   3.046   3.234  11.616  0.1857 -0.3210 -0.4775
 7964SOL    HW135351   3.088   3.306  11.570 -1.6631  1.7542  1.0732
 7964SOL    HW235352   3.013   3.194  11.535 -1.0465 -1.1590  0.4382
 7965SOL     OW35353   2.286   3.568  10.758  0.0475  0.4986 -0.3909
 7965SOL    HW135354   2.335   3.639  10.800 -2.3716  1.5663  0.6496
 7965SOL    HW235355   2.200   3.611  10.755  0.3372  1.1187  0.0238
 7966SOL     OW35356   4.677   3.474   7.201 -0.4346 -0.5651 -0.3935
 7966SOL    HW135357   4.648   3.550   7.252 -4.9753 -1.0504 -2.2044
 7966SOL    HW235358   0.027   3.449   7.254 -0.5912 -0.1580  0.0196
 7967SOL     OW35359   4.119   4.312   9.029  0.2836 -0.5083  0.2520
 7967SOL    HW135360   4.053   4.262   9.078 -0.5445  0.3715  0.0498
 7967SOL    HW235361   4.202   4.310   9.077 -0.3946  2.2844  1.5336
 7968SOL     OW35362   0.662   1.119   1.032 -0.3025  0.8259 -0.1266
 7968SOL    HW135363   0.753   1.095   1.016  0.1430  2.3419  0.1229
 7968SOL    HW235364   0.643   1.173   0.955  0.4045 -0.6871 -1.3726
 7969SOL     OW35365   3.519   3.551   3.644  0.0818  0.1347 -0.1384
 7969SOL    HW135366   3.494   3.588   3.729 -1.3883 -0.2462 -0.4150
 7969SOL    HW235367   3.440   3.574   3.595 -1.0514 -1.8178  0.7654
 7970SOL     OW35368   3.466   2.545   5.974 -0.3830  0.2097 -0.1678
 7970SOL    HW135369   3.514   2.463   5.968  1.9409  1.5361  0.2884
 7970SOL    HW235370   3.497   2.593   5.897  0.4795 -0.2120 -0.0762
 7971SOL     OW35371   0.004   0.102   6.178 -0.2821  0.4678 -0.0929
 7971SOL    HW135372   0.047   0.019   6.199 -1.7737 -0.1099  0.7351
 7971SOL    HW235373   4.640   0.072   6.159 -1.1896  2.3789  1.1478
 7972SOL     OW35374   1.896   2.791   4.784 -0.0390 -0.3058  0.1620
 7972SOL    HW135375   1.863   2.765   4.698  2.0409  0.7296 -0.9848
 7972SOL    HW235376   1.952   2.862   4.750  0.3105 -0.6282  0.0694
 7973SOL     OW35377   0.273   2.764  13.351  0.5393 -0.2825  0.0171
 7973SOL    HW135378   0.249   2.792  13.439  2.4119 -0.9792  0.7364
 7973SOL    HW235379   0.367   2.752  13.357  0.8779  1.1765 -2.1229
 7974SOL     OW35380   0.151   1.895  17.703  0.6017  0.0702  0.2017
 7974SOL    HW135381   0.159   1.800   0.006  0.3281 -0.0119 -0.6958
 7974SOL    HW235382   0.216   1.914  17.635 -0.5015  0.0408 -0.8684
 7975SOL     OW35383   1.119   3.636   4.024 -0.3100  0.1650 -0.1985
 7975SOL    HW135384   1.134   3.549   3.988 -0.0488 -0.2564  0.9540
 7975SOL    HW235385   1.116   3.698   3.951  1.4711 -1.0025 -1.2555
 7976SOL     OW35386   1.758   0.548   6.831  0.2300 -0.2371 -0.4400
 7976SOL    HW135387   1.853   0.552   6.823  0.3717 -3.1301 -0.1893
 7976SOL    HW235388   1.746   0.465   6.879 -1.9083  1.0535  1.2724
 7977SOL     OW35389   4.722   0.657   4.634 -0.5346 -0.4668 -0.3032
 7977SOL    HW135390   4.678   0.602   4.569  0.3815  0.7729 -1.9722
 7977SOL    HW235391   4.655   0.698   4.689 -0.3115 -0.3633 -0.1114
 7978SOL     OW35392   1.240   3.363   5.834  0.7865  0.1103  0.3891
 7978SOL    HW135393   1.158   3.412   5.837  0.1618 -0.8470 -0.9977
 7978SOL    HW235394   1.203   3.287   5.789 -0.6529  0.4827  0.9449
 7979SOL     OW35395   0.796   3.149   6.842  0.3579  0.6999  0.2506
 7979SOL    HW135396   0.864   3.175   6.905  0.8598 -0.2587  0.1038
 7979SOL    HW235397   0.853   3.097   6.785 -0.2482  1.8128 -1.3626
 7980SOL     OW35398   2.443   4.486  17.068  0.0298 -0.4624  0.3576
 7980SOL    HW135399   2.453   4.446  17.154  0.5259 -3.4839 -1.0860
 7980SOL    HW235400   2.483   4.415  17.017 -0.5422 -0.4575 -0.1002
 7981SOL     OW35401   1.349   3.271   0.815 -0.4517  0.3118 -0.0930
 7981SOL    HW135402   1.357   3.335   0.743  0.2522 -0.0003 -0.2927
 7981SOL    HW235403   1.417   3.296   0.878 -0.9839  2.1429 -0.2504
 7982SOL     OW35404   4.005   2.059   7.920  0.1429 -0.3737  0.3490
 7982SOL    HW135405   3.968   2.003   7.989  1.0273 -1.3521  0.0251
 7982SOL    HW235406   4.003   1.993   7.850  0.0387  0.5712 -0.5381
 7983SOL     OW35407   3.903   3.115   5.135 -0.1344 -0.0844  0.0286
 7983SOL    HW135408   3.954   3.166   5.072 -0.2289  0.5365  0.4573
 7983SOL    HW235409   3.844   3.072   5.073 -0.5309 -1.0423  1.0791
 7984SOL     OW35410   3.413   4.664   3.529 -0.2893 -0.5346 -0.0457
 7984SOL    HW135411   3.480   4.614   3.480  0.1945  0.8675 -0.8122
 7984SOL    HW235412   3.459   4.667   3.613 -0.4689  1.9894 -0.0562
 7985SOL     OW35413   1.074   0.060   4.196  0.3178 -0.1098 -0.5062
 7985SOL    HW135414   1.010   0.132   4.197 -1.0661 -1.3379 -3.3551
 7985SOL    HW235415   1.136   0.108   4.141  1.5533  0.0644  1.0393
 7986SOL     OW35416   0.913   3.002   4.996 -0.6211  0.2457  0.1746
 7986SOL    HW135417   0.871   2.996   4.910 -0.8185 -0.2130  0.3047
 7986SOL    HW235418   0.964   2.922   4.987 -0.1426  0.4302  1.2323
 7987SOL     OW35419   3.829   0.166   6.886 -0.0094 -0.1413  0.0774
 7987SOL    HW135420   3.900   0.113   6.850  0.4521 -0.9900  2.1850
 7987SOL    HW235421   3.865   0.255   6.878  1.2997 -0.5745  1.1288
 7988SOL     OW35422   1.947   2.067   8.489 -0.4041  0.0308  0.1234
 7988SOL    HW135423   2.026   2.110   8.522 -1.0909  2.7218 -1.7407
 7988SOL    HW235424   1.976   1.976   8.494  0.7102  0.3754  0.0236
 7989SOL     OW35425   2.789   4.037   7.148  0.0145  0.2041  0.3214
 7989SOL    HW135426   2.776   3.947   7.176  1.3048  0.4584  1.7164
 7989SOL    HW235427   2.701   4.050   7.113 -0.1127  2.3243  1.4235
 7990SOL     OW35428   1.242   0.288   0.107  0.1891 -0.4457 -0.5979
 7990SOL    HW135429   1.222   0.311   0.197  0.1224 -0.5043 -0.5979
 7990SOL    HW235430   1.338   0.296   0.109 -0.1978  3.5444  1.1272
 7991SOL     OW35431   1.184   2.386   3.364 -0.4290  0.0276  0.5572
 7991SOL    HW135432   1.109   2.436   3.332  1.5007  2.2557 -0.4842
 7991SOL    HW235433   1.201   2.326   3.292 -0.2319  0.0094  0.6184
 7992SOL     OW35434   4.220   1.827   6.062 -0.4141 -0.6500 -0.5222
 7992SOL    HW135435   4.301   1.871   6.038 -0.9340  0.9154  0.6036
 7992SOL    HW235436   4.259   1.740   6.067 -0.4520 -0.6191  0.2208
 7993SOL     OW35437   3.884   1.828  12.599 -0.2282  0.4594 -0.4796
 7993SOL    HW135438   3.898   1.757  12.537  0.0432  0.5146 -0.4822
 7993SOL    HW235439   3.871   1.895  12.532  1.3474 -0.9058 -2.1654
 7994SOL     OW35440   0.133   2.162  10.936  0.5545 -0.4943 -0.4364
 7994SOL    HW135441   0.196   2.091  10.928  1.1414  0.1062 -1.1494
 7994SOL    HW235442   0.088   2.142  10.854 -1.4360  2.2841 -0.0238
 7995SOL     OW35443   2.693   4.461   1.328  0.4703  0.5030  0.6447
 7995SOL    HW135444   2.722   4.552   1.318  1.1156  0.2131 -0.0947
 7995SOL    HW235445   2.649   4.481   1.411  1.0055 -1.4070  1.3915
 7996SOL     OW35446   3.396   1.353   5.235  0.1833  0.3735  0.1632
 7996SOL    HW135447   3.483   1.391   5.223  0.5183 -0.2739  0.5458
 7996SOL    HW235448   3.400   1.338   5.329 -2.9584 -0.4071  0.1730
 7997SOL     OW35449   0.863   0.797   2.286  0.2263  0.0020  0.3352
 7997SOL    HW135450   0.958   0.792   2.273  0.1190 -1.2030  0.0676
 7997SOL    HW235451   0.857   0.735   2.359 -0.1064  0.3410  0.5952
 7998SOL     OW35452   0.242   0.599   3.421 -0.6554  0.1719  0.1870
 7998SOL    HW135453   0.208   0.676   3.375  0.4801  0.9886  0.7165
 7998SOL    HW235454   0.166   0.583   3.478  1.2726 -2.8931  1.9312
 7999SOL     OW35455   2.306   2.607  11.893  0.2146  0.1229 -0.1447
 7999SOL    HW135456   2.349   2.542  11.838  0.6065  0.8838 -0.7394
 7999SOL    HW235457   2.313   2.691  11.847  1.4548 -0.3276 -0.7746
 8000SOL     OW35458   1.588   0.906   0.162 -0.2108 -0.0344  0.1542
 8000SOL    HW135459   1.567   0.975   0.226 -0.0135 -0.1360  0.3284
 8000SOL    HW235460   1.561   0.828   0.210  0.5536  1.3243  2.7892
 8001SOL     OW35461   3.297   1.397  13.419  0.2707  0.3721 -0.0667
 8001SOL    HW135462   3.345   1.365  13.342 -2.5114 -0.0822 -1.6007
 8001SOL    HW235463   3.207   1.368  13.404  0.4663  0.7158 -1.8724
 8002SOL     OW35464   1.921   2.849   6.728  0.1596  0.1051 -0.4395
 8002SOL    HW135465   1.908   2.907   6.803  0.6375 -1.5891  0.9471
 8002SOL    HW235466   1.988   2.795   6.770  0.4051  1.8449  1.4134
 8003SOL     OW35467   0.814   0.635  12.311 -0.1874  0.2073 -0.0994
 8003SOL    HW135468   0.886   0.674  12.361  0.6658 -1.6938  0.1196
 8003SOL    HW235469   0.856   0.611  12.229 -0.1032 -0.9941  0.3056
 8004SOL     OW35470   0.358   2.531  10.086  0.2424 -0.2278 -0.3764
 8004SOL    HW135471   0.328   2.516   9.996  1.8002  1.6785 -1.2138
 8004SOL    HW235472   0.320   2.450  10.119  0.6769 -0.1556  0.3033
 8005SOL     OW35473   2.663   0.202  10.488 -0.3569 -0.0702  0.3020
 8005SOL    HW135474   2.620   0.123  10.522  0.0226 -0.3284  0.1829
 8005SOL    HW235475   2.689   0.247  10.568  2.2066  0.1502 -0.6781
 8006SOL     OW35476   1.628   0.095   8.548  0.2368  0.2688  0.1412
 8006SOL    HW135477   1.594   0.018   8.594  0.3581 -0.6678 -1.3234
 8006SOL    HW235478   1.666   0.143   8.621  1.5949 -2.4092  1.1919
 8007SOL     OW35479   0.197   4.090   9.719  0.0609 -0.5995  0.1287
 8007SOL    HW135480   0.147   4.169   9.742  0.8472  0.1244 -0.6281
 8007SOL    HW235481   0.271   4.083   9.780 -0.0590 -1.0288  0.2239
 8008SOL     OW35482   3.268   0.428   5.567  0.3780 -0.0795 -0.3770
 8008SOL    HW135483   3.305   0.352   5.522  0.4405  0.1983 -0.7956
 8008SOL    HW235484   3.207   0.381   5.624 -0.2758 -1.5143 -2.2867
 8009SOL     OW35485   4.483   0.549   5.705 -0.3149 -0.6963 -0.1904
 8009SOL    HW135486   4.499   0.532   5.613  1.5050 -1.5500  0.2905
 8009SOL    HW235487   4.553   0.612   5.721 -2.1606  0.9440  1.5804
 8010SOL     OW35488   1.891   3.598   7.174  0.5067 -0.2231  0.2178
 8010SOL    HW135489   1.925   3.685   7.151  1.3211 -0.7337 -0.4920
 8010SOL    HW235490   1.970   3.544   7.174 -0.6542 -1.9048 -0.9772
 8011SOL     OW35491   3.823   1.838   4.295  0.3680  0.0448  0.3234
 8011SOL    HW135492   3.897   1.857   4.238  0.4223 -2.4488 -0.4446
 8011SOL    HW235493   3.876   1.806   4.368  0.7236  0.7994  0.3945
 8012SOL     OW35494   3.216   1.516   5.100  0.3696 -0.2867  0.6577
 8012SOL    HW135495   3.151   1.549   5.163  0.3083  0.7847  0.0264
 8012SOL    HW235496   3.276   1.468   5.157  1.1727  0.9333  0.8386
 8013SOL     OW35497   3.506   1.212  16.927 -0.0633  0.0592  0.0900
 8013SOL    HW135498   3.534   1.294  16.967 -1.2230 -0.8323  2.7414
 8013SOL    HW235499   3.495   1.240  16.836  0.4462  0.6486  0.2096
 8014SOL     OW35500   2.541   2.124   5.172 -0.2666 -0.2071  0.1544
 8014SOL    HW135501   2.569   2.123   5.080 -1.1346 -2.4785 -0.0896
 8014SOL    HW235502   2.446   2.115   5.171 -0.2324 -0.6132  0.4436
 8015SOL     OW35503   4.158   0.357  17.404 -0.5947 -0.8389  0.2292
 8015SOL    HW135504   4.120   0.430  17.452  0.8172 -0.5046  0.8434
 8015SOL    HW235505   4.238   0.348  17.456 -0.4982  0.3726  0.2764
 8016SOL     OW35506   1.814   3.960  16.554 -0.3388 -0.4721 -0.2029
 8016SOL    HW135507   1.732   3.979  16.507 -1.7867  0.4210  2.6898
 8016SOL    HW235508   1.833   3.869  16.529  3.3595  0.2307  0.1222
 8017SOL     OW35509   4.150   2.298  14.016 -0.0511 -0.0978 -0.6516
 8017SOL    HW135510   4.241   2.305  14.045  0.0807  1.0030 -1.3456
 8017SOL    HW235511   4.130   2.389  13.993 -0.7348 -0.0337  0.1500
 8018SOL     OW35512   4.184   2.906  17.072 -0.4250 -0.0548  0.6696
 8018SOL    HW135513   4.215   2.973  17.011 -1.1418  0.4521  0.8520
 8018SOL    HW235514   4.238   2.907  17.151 -0.0800 -1.9891  0.4453
 8019SOL     OW35515   2.233   0.988   3.086 -0.1009  0.2005 -0.2290
 8019SOL    HW135516   2.225   0.903   3.128  0.9092 -0.5601 -1.6142
 8019SOL    HW235517   2.225   0.952   2.998  0.5405  0.4042 -0.3723
 8020SOL     OW35518   3.855   2.684   4.212 -0.2271  0.4462 -0.0165
 8020SOL    HW135519   3.792   2.626   4.170 -0.3798  0.0143  0.8061
 8020SOL    HW235520   3.789   2.722   4.269  0.0755  0.9761 -0.0258
 8021SOL     OW35521   1.684   4.573   8.158  0.0767 -0.1915  0.3582
 8021SOL    HW135522   1.596   4.573   8.194  0.0255 -2.3747  0.1776
 8021SOL    HW235523   1.713   4.649   8.210 -1.0965  1.5362 -1.5148
 8022SOL     OW35524   0.923   4.267  10.024  0.2907 -0.2586 -0.0566
 8022SOL    HW135525   0.994   4.316  10.066 -0.5694  0.4249  0.6051
 8022SOL    HW235526   0.878   4.334   9.972  1.4299  0.8997  0.4659
 8023SOL     OW35527   3.818   3.987   5.572  0.1870 -0.4432 -0.0085
 8023SOL    HW135528   3.867   3.933   5.510 -1.4721 -1.6272 -0.2982
 8023SOL    HW235529   3.731   3.947   5.563  0.0529  0.6606 -3.7575
 8024SOL     OW35530   3.938   2.086   3.851  0.5192  0.0746  0.7178
 8024SOL    HW135531   4.004   2.051   3.911  0.9764 -1.8474 -0.9123
 8024SOL    HW235532   3.965   2.177   3.839 -0.4754  0.5362  2.0718
 8025SOL     OW35533   3.679   3.082   8.291  0.0219  0.0858 -0.0166
 8025SOL    HW135534   3.631   3.127   8.361 -0.2767  0.9583 -0.7909
 8025SOL    HW235535   3.770   3.113   8.297  0.3561 -1.2872  2.1197
 8026SOL     OW35536   2.267   3.089   4.985  0.5457 -0.4528 -0.1411
 8026SOL    HW135537   2.245   3.134   5.066  2.4570 -1.7503  1.1307
 8026SOL    HW235538   2.184   3.102   4.940 -0.1304  1.5987  1.7139
 8027SOL     OW35539   1.638   1.596   2.903 -0.6299 -0.1359 -0.2232
 8027SOL    HW135540   1.628   1.573   2.811 -1.3503 -1.3159  0.1585
 8027SOL    HW235541   1.727   1.630   2.913  0.0274 -1.4091 -1.7351
 8028SOL     OW35542   3.985   1.020  13.449  0.2419 -0.9301  0.1714
 8028SOL    HW135543   3.925   0.953  13.416 -3.0972  1.9787  0.2253
 8028SOL    HW235544   3.967   1.094  13.392  1.7112 -0.7251 -0.0157
 8029SOL     OW35545   0.009   1.208   3.868  0.5890 -0.0280  0.4410
 8029SOL    HW135546   0.055   1.292   3.875 -1.8502  1.1721  2.0240
 8029SOL    HW235547   4.690   1.199   3.952  1.1583 -1.4209  0.5839
 8030SOL     OW35548   0.168   1.247  16.892  0.1876 -0.1975 -0.6008
 8030SOL    HW135549   0.248   1.297  16.906  0.2955 -0.3685 -0.6101
 8030SOL    HW235550   0.160   1.261  16.798 -0.9850  0.3143 -0.4231
 8031SOL     OW35551   2.067   0.668   8.346  0.1404  0.3680 -0.1734
 8031SOL    HW135552   2.021   0.732   8.291  1.3701  2.4631  1.2195
 8031SOL    HW235553   2.019   0.681   8.428 -0.8906 -0.3309 -0.6660
 8032SOL     OW35554   1.246   4.076   8.017  0.1455 -0.3944 -0.8072
 8032SOL    HW135555   1.314   4.008   8.024  1.2025  0.8888  1.3717
 8032SOL    HW235556   1.210   4.054   8.104 -0.0376  1.8688 -0.3275
 8033SOL     OW35557   1.284   0.011  12.543  0.1072 -0.1653 -0.7858
 8033SOL    HW135558   1.189   0.014  12.531  0.0826 -0.3951 -0.6548
 8033SOL    HW235559   1.288   4.713  12.636 -3.2487  0.0744 -0.5966
 8034SOL     OW35560   4.707   3.645  12.379  0.9853  0.2972  0.4107
 8034SOL    HW135561   4.720   3.644  12.284 -1.3359 -1.5275  0.1017
 8034SOL    HW235562   0.050   3.704  12.410 -0.3169  1.1087  1.7334
 8035SOL     OW35563   4.173   0.262   5.855 -0.0134 -0.2316  0.3508
 8035SOL    HW135564   4.266   0.284   5.851 -0.2147  0.6946  0.8161
 8035SOL    HW235565   4.176   0.169   5.834 -0.6065 -0.6617  2.1705
 8036SOL     OW35566   3.466   2.599   7.371 -0.4166 -0.2035  0.4438
 8036SOL    HW135567   3.457   2.620   7.278 -0.5081  0.4086  0.5886
 8036SOL    HW235568   3.527   2.526   7.368  1.3830  1.3442 -0.7640
 8037SOL     OW35569   0.584   3.862   1.214  0.1914  0.1274  0.2327
 8037SOL    HW135570   0.528   3.919   1.267  0.4952 -0.7798  1.5177
 8037SOL    HW235571   0.631   3.813   1.281  0.3569  0.5715  0.4398
 8038SOL     OW35572   0.354   2.669   2.852 -0.1383  0.2585  0.1886
 8038SOL    HW135573   0.262   2.658   2.877 -0.3270 -0.0300 -0.6282
 8038SOL    HW235574   0.389   2.723   2.922 -1.9325  1.1120  0.4143
 8039SOL     OW35575   3.210   3.798  15.626 -0.2537  0.8937  0.5294
 8039SOL    HW135576   3.268   3.874  15.630  1.9101 -0.7629  0.1956
 8039SOL    HW235577   3.172   3.804  15.538  0.8124  1.8517  0.1373
 8040SOL     OW35578   1.080   3.331   9.366  0.2302 -0.2537 -0.4782
 8040SOL    HW135579   1.110   3.383   9.440  0.5904 -0.6139 -0.3689
 8040SOL    HW235580   0.987   3.351   9.370  0.3123  0.0447 -0.0829
 8041SOL     OW35581   3.444   2.451   5.642 -0.7274 -0.0626 -0.4335
 8041SOL    HW135582   3.438   2.380   5.578  2.7814  0.7265 -1.6495
 8041SOL    HW235583   3.407   2.527   5.598  0.6119  0.4913 -0.6119
 8042SOL     OW35584   3.058   2.233  15.155  0.4022  0.5450 -0.2552
 8042SOL    HW135585   3.067   2.142  15.183 -0.9979  1.2420  2.4110
 8042SOL    HW235586   2.978   2.264  15.198 -1.1872 -1.4096 -1.8293
 8043SOL     OW35587   4.173   1.960   9.428 -0.1671 -0.1951 -0.6281
 8043SOL    HW135588   4.089   1.915   9.426  1.7580 -3.8204 -1.1097
 8043SOL    HW235589   4.146   2.032   9.371 -0.8604  1.1789  1.4344
 8044SOL     OW35590   4.067   3.108   3.921  0.0424  0.1426  0.2093
 8044SOL    HW135591   4.096   3.088   4.010 -0.2737  2.9958  0.9693
 8044SOL    HW235592   4.113   3.041   3.872 -1.5897 -0.3267 -0.7099
 8045SOL     OW35593   3.808   4.311   6.023 -0.4017 -0.2478 -0.7175
 8045SOL    HW135594   3.758   4.289   6.102 -1.6397 -1.4615 -1.8515
 8045SOL    HW235595   3.818   4.225   5.982 -0.7073 -0.6666  0.0604
 8046SOL     OW35596   1.653   1.717   3.723 -0.1329  0.1430 -0.5392
 8046SOL    HW135597   1.634   1.770   3.801 -0.0364 -0.2319 -0.2616
 8046SOL    HW235598   1.745   1.732   3.700  0.3085 -3.4404 -1.1288
 8047SOL     OW35599   3.285   4.707   1.579 -0.2322  0.1307 -0.3506
 8047SOL    HW135600   3.277   4.617   1.611  0.8776  0.9651  2.2408
 8047SOL    HW235601   3.197   0.008   1.551 -0.2591 -0.9443 -1.2643
 8048SOL     OW35602   4.333   4.505   4.013 -0.5805  0.1194 -0.0856
 8048SOL    HW135603   4.272   4.498   4.087 -0.3334 -0.8847  0.0185
 8048SOL    HW235604   4.282   4.443   3.961 -0.5709  1.8092 -2.1202
 8049SOL     OW35605   0.987   1.905  13.391  0.3163 -0.2838  0.3362
 8049SOL    HW135606   0.929   1.900  13.315 -0.2579  0.8420  0.6900
 8049SOL    HW235607   0.991   1.818  13.429 -1.2398 -0.1699  0.7733
 8050SOL     OW35608   0.327   2.367   6.144 -0.4442 -0.0910  0.5589
 8050SOL    HW135609   0.311   2.462   6.147 -0.0479 -0.0020 -0.1749
 8050SOL    HW235610   0.263   2.343   6.077  0.4766 -1.2851  0.1040
 8051SOL     OW35611   4.470   0.432  11.504  0.0773 -0.2279  0.0039
 8051SOL    HW135612   4.495   0.344  11.478 -1.0258 -0.3338 -0.6850
 8051SOL    HW235613   4.522   0.479  11.440 -0.3601 -0.6695 -0.6738
 8052SOL     OW35614   0.659   3.695   9.128  0.3111 -0.0171  0.5625
 8052SOL    HW135615   0.722   3.747   9.078  0.2564 -3.0787 -2.7200
 8052SOL    HW235616   0.684   3.716   9.218  0.9700 -0.4512  0.4784
 8053SOL     OW35617   1.607   3.365   4.541 -0.2299 -0.2102 -0.0004
 8053SOL    HW135618   1.632   3.453   4.514 -0.9243 -0.0376 -0.0725
 8053SOL    HW235619   1.528   3.358   4.487 -0.5433  0.6276  0.3483
 8054SOL     OW35620   0.907   2.689   8.615  0.0854  0.0658 -0.0346
 8054SOL    HW135621   0.812   2.693   8.626  0.2632  0.8487  1.2381
 8054SOL    HW235622   0.911   2.667   8.522 -1.0232  2.6105 -0.6854
 8055SOL     OW35623   3.665   4.485  14.113 -0.3331 -1.0019 -0.1687
 8055SOL    HW135624   3.581   4.526  14.093 -0.5161 -1.8932 -1.2694
 8055SOL    HW235625   3.690   4.440  14.032  2.6571 -0.3833  0.4432
 8056SOL     OW35626   1.132   3.217  15.582 -0.7055 -0.2174  0.1165
 8056SOL    HW135627   1.197   3.270  15.538 -0.0643 -0.7932  0.3744
 8056SOL    HW235628   1.063   3.284  15.577 -0.9478 -0.4946 -0.2174
 8057SOL     OW35629   1.567   0.811   3.911 -0.4264 -0.1572 -0.3802
 8057SOL    HW135630   1.472   0.815   3.914 -0.3931  0.7139 -0.3743
 8057SOL    HW235631   1.585   0.781   3.822  1.8958 -0.3580  0.1467
 8058SOL     OW35632   2.373   3.554  14.912 -0.1828  0.5219 -0.5342
 8058SOL    HW135633   2.459   3.512  14.912 -0.6667 -0.4744  1.3921
 8058SOL    HW235634   2.350   3.547  15.005 -0.8086 -0.6045 -0.7764
 8059SOL     OW35635   3.087   1.079  14.166  0.5908 -0.2338  0.3775
 8059SOL    HW135636   3.134   1.153  14.129 -0.5230 -0.1700 -0.9274
 8059SOL    HW235637   3.153   1.010  14.170 -1.3176 -2.1252 -0.3169
 8060SOL     OW35638   0.915   0.163   5.019  0.2021  0.5790 -0.3461
 8060SOL    HW135639   0.969   0.234   5.053  1.2087  0.2683 -1.3151
 8060SOL    HW235640   0.972   0.145   4.944 -0.0562 -0.3827 -0.3118
 8061SOL     OW35641   3.282   0.742  12.387  0.0429  0.3872  0.2994
 8061SOL    HW135642   3.302   0.698  12.304  0.3219  3.1246 -1.0935
 8061SOL    HW235643   3.188   0.725  12.391  0.0106  0.5226  0.1279
 8062SOL     OW35644   0.925   0.036   4.443 -0.1688  0.1385 -0.3031
 8062SOL    HW135645   0.975   0.053   4.363 -0.3196 -0.7541 -0.5738
 8062SOL    HW235646   0.841   0.020   4.400  1.3638 -1.8847 -2.5599
 8063SOL     OW35647   4.587   0.884   9.424  0.3748 -0.4136  0.0607
 8063SOL    HW135648   4.668   0.895   9.472  0.3861 -0.1426 -0.0182
 8063SOL    HW235649   4.577   0.971   9.385  2.5906  0.1327  0.7482
 8064SOL     OW35650   0.756   1.633   2.967 -0.1156 -0.6429 -0.4292
 8064SOL    HW135651   0.732   1.544   2.993 -2.8983  0.6766  1.4562
 8064SOL    HW235652   0.791   1.617   2.880 -0.2867  0.1717 -0.6467
 8065SOL     OW35653   4.631   3.830  15.521 -0.1888 -0.1574  0.6451
 8065SOL    HW135654   4.612   3.912  15.567  0.3276  2.1371 -3.2864
 8065SOL    HW235655   4.589   3.764  15.577 -0.1610 -0.0349  0.8117
 8066SOL     OW35656   2.045   0.865   3.353  0.6123 -0.0932  0.2499
 8066SOL    HW135657   2.082   0.811   3.283  0.9977  0.0774  0.3167
 8066SOL    HW235658   2.020   0.946   3.307 -0.2444 -1.2500 -1.3051
 8067SOL     OW35659   1.239   2.611   9.850 -0.1142  0.0897 -0.2157
 8067SOL    HW135660   1.190   2.581   9.927  0.2251  0.2045  0.0474
 8067SOL    HW235661   1.203   2.699   9.841 -0.8809 -0.1390  0.5723
 8068SOL     OW35662   4.117   4.619  12.541 -0.8949 -0.0324  0.4732
 8068SOL    HW135663   4.091   4.576  12.460  0.1186  0.2208  0.0151
 8068SOL    HW235664   4.198   4.574  12.566 -1.4648 -0.6205  1.2926
 8069SOL     OW35665   4.463   3.497   0.588 -0.0861  0.2742  0.9916
 8069SOL    HW135666   4.397   3.456   0.644 -0.3060 -1.8212 -0.8311
 8069SOL    HW235667   4.450   3.445   0.509  1.9818 -0.3516  1.0565
 8070SOL     OW35668   1.014   0.934   1.628 -0.0047 -0.3202 -0.0980
 8070SOL    HW135669   1.027   0.982   1.546 -0.7027 -1.0807 -0.6636
 8070SOL    HW235670   1.080   0.980   1.679 -0.8513  0.1347  0.5895
 8071SOL     OW35671   2.709   2.662   4.683  0.5686 -0.4065 -0.3773
 8071SOL    HW135672   2.682   2.724   4.752 -3.7020  0.0867 -2.4959
 8071SOL    HW235673   2.767   2.709   4.623  2.0436 -0.0683  1.2777
 8072SOL     OW35674   0.929   1.523   6.506  0.1444  0.0640 -0.4062
 8072SOL    HW135675   0.978   1.463   6.562 -1.0170 -1.5414 -1.1030
 8072SOL    HW235676   0.840   1.488   6.499  0.4813 -1.0334  0.6913
 8073SOL     OW35677   0.747   2.873   3.947  0.3261  0.4146 -0.1460
 8073SOL    HW135678   0.694   2.832   4.016  0.2882  1.8566  0.6934
 8073SOL    HW235679   0.681   2.923   3.898 -1.8432 -2.2742  0.0149
 8074SOL     OW35680   0.444   3.521   2.018  1.1137  0.2068 -0.5474
 8074SOL    HW135681   0.437   3.513   1.923 -1.1449 -1.3629 -0.2538
 8074SOL    HW235682   0.441   3.615   2.034  0.5013 -0.3877  2.9782
 8075SOL     OW35683   3.582   1.093   8.285  0.0959 -0.1998 -0.2535
 8075SOL    HW135684   3.674   1.103   8.262  0.2500 -0.0728  0.4035
 8075SOL    HW235685   3.589   1.012   8.334  0.7859  0.3121  0.4885
 8076SOL     OW35686   0.059   4.396   7.647  0.4060  0.2320 -0.0257
 8076SOL    HW135687   0.093   4.398   7.558 -1.7918  0.2723 -0.8588
 8076SOL    HW235688   0.003   4.473   7.652 -1.1077 -0.9226  1.0450
 8077SOL     OW35689   4.618   2.754  17.365 -0.6827 -0.1760 -0.2835
 8077SOL    HW135690   4.624   2.846  17.394 -2.3978  0.0575 -0.6706
 8077SOL    HW235691   4.706   2.736  17.334 -0.5180 -1.0994  0.7427
 8078SOL     OW35692   2.313   3.341  15.127 -0.3494  1.2101  0.1866
 8078SOL    HW135693   2.264   3.386  15.195 -0.1281 -0.0764  1.1933
 8078SOL    HW235694   2.396   3.332  15.175 -0.0735  0.2501 -0.4554
 8079SOL     OW35695   1.535   1.889  15.844  0.5857 -0.3134 -0.0107
 8079SOL    HW135696   1.470   1.875  15.913  0.9184 -0.6298  0.2437
 8079SOL    HW235697   1.547   1.802  15.806  0.6753  0.2858 -1.3459
 8080SOL     OW35698   3.666   4.140   0.857  0.4526  0.2366  0.1622
 8080SOL    HW135699   3.708   4.065   0.815 -0.2877  1.3015 -2.4565
 8080SOL    HW235700   3.746   4.172   0.900  0.1108  1.8837 -0.4379
 8081SOL     OW35701   3.961   0.678   5.624 -0.4557  0.0509 -0.1332
 8081SOL    HW135702   3.975   0.723   5.707  0.9708  0.0215 -0.3572
 8081SOL    HW235703   4.043   0.628   5.626 -0.4147  0.1499  1.0904
 8082SOL     OW35704   3.543   2.305   6.723 -0.4102 -0.1772 -0.7566
 8082SOL    HW135705   3.587   2.376   6.676  1.9690 -1.0439  0.1366
 8082SOL    HW235706   3.466   2.349   6.759 -0.9141  0.1116 -2.1763
 8083SOL     OW35707   0.185   1.847   8.125  0.3240 -0.8231 -0.5204
 8083SOL    HW135708   0.278   1.851   8.103 -0.0787 -3.7241 -2.8140
 8083SOL    HW235709   0.164   1.766   8.078 -0.6944 -1.4276  0.9879
 8084SOL     OW35710   3.293   1.136   2.707 -0.3064  0.2941 -0.3994
 8084SOL    HW135711   3.218   1.187   2.739  0.3346  0.6567  0.5251
 8084SOL    HW235712   3.309   1.198   2.635  0.1018  0.8664  0.1811
 8085SOL     OW35713   2.134   4.369   6.086  0.6125 -0.4833 -0.4698
 8085SOL    HW135714   2.119   4.354   6.179  1.9162  3.4350  0.3787
 8085SOL    HW235715   2.203   4.305   6.067 -0.7528 -2.0088 -0.2677
 8086SOL     OW35716   1.676   3.650   5.350  0.0519 -0.0038 -0.1508
 8086SOL    HW135717   1.686   3.684   5.439  0.5254  0.5867 -0.4347
 8086SOL    HW235718   1.598   3.594   5.354 -1.7974  2.6087  0.0796
 8087SOL     OW35719   4.325   2.206   6.174  0.6543 -0.3528 -0.9325
 8087SOL    HW135720   4.239   2.165   6.164 -0.1660  0.9336  0.7644
 8087SOL    HW235721   4.302   2.296   6.197  1.2456 -0.3826 -0.2257
 8088SOL     OW35722   2.560   1.752   2.532 -0.5225  0.6166  0.1327
 8088SOL    HW135723   2.525   1.678   2.482  1.1837 -0.8914  1.1514
 8088SOL    HW235724   2.584   1.716   2.617  2.7708  2.0443 -0.1817
 8089SOL     OW35725   3.630   4.392   2.889  0.0500 -0.3359 -0.4190
 8089SOL    HW135726   3.627   4.436   2.974 -0.4831 -1.8294  0.3286
 8089SOL    HW235727   3.572   4.319   2.911 -0.3028  0.0524 -0.0411
 8090SOL     OW35728   2.156   3.067   7.092 -0.2116 -0.4332 -0.2079
 8090SOL    HW135729   2.221   3.133   7.067 -0.4088  0.1843  0.9108
 8090SOL    HW235730   2.077   3.120   7.092 -0.6688 -1.1341  1.3125
 8091SOL     OW35731   0.230   2.591   8.023  0.3093 -0.3227  0.4125
 8091SOL    HW135732   0.172   2.665   8.006 -2.1723 -2.4815 -0.5748
 8091SOL    HW235733   0.299   2.599   7.958 -0.2530  0.9580 -0.0251
 8092SOL     OW35734   1.842   3.805   8.094 -0.2213  0.3673 -0.3112
 8092SOL    HW135735   1.937   3.793   8.098 -0.5127 -1.9929 -0.3731
 8092SOL    HW235736   1.824   3.874   8.030 -0.8186  0.0785 -0.4498
 8093SOL     OW35737   1.918   3.821   3.094 -0.0823  0.5852  0.6535
 8093SOL    HW135738   1.894   3.905   3.131 -1.8653 -0.0258  0.8849
 8093SOL    HW235739   1.947   3.763   3.164  1.5619  1.3828  0.6315
 8094SOL     OW35740   1.649   3.407   1.458 -0.3367 -0.2181  0.5526
 8094SOL    HW135741   1.569   3.368   1.492 -0.7691 -0.7818 -1.1026
 8094SOL    HW235742   1.635   3.497   1.489 -0.7078 -0.1723  0.2592
 8095SOL     OW35743   0.155   1.246   4.500  0.2946  0.1618  0.2742
 8095SOL    HW135744   0.121   1.284   4.581 -0.3987 -0.4927  0.2881
 8095SOL    HW235745   0.204   1.318   4.460  1.3240 -0.1556  0.9512
 8096SOL     OW35746   2.511   3.825  14.537  0.0137 -0.0042 -0.4392
 8096SOL    HW135747   2.455   3.773  14.594  1.7680 -1.3296  0.0880
 8096SOL    HW235748   2.549   3.885  14.601  0.3639  0.2409 -0.8759
 8097SOL     OW35749   0.585   0.773   8.604  0.3963 -0.4792  0.2876
 8097SOL    HW135750   0.616   0.834   8.537  0.9992 -1.0625  0.0349
 8097SOL    HW235751   0.641   0.695   8.599  0.9027  0.1381 -3.9653
 8098SOL     OW35752   2.555   0.288   4.350 -0.5857  0.2173  0.1993
 8098SOL    HW135753   2.490   0.357   4.334 -2.3013 -1.4144  0.1611
 8098SOL    HW235754   2.600   0.292   4.266 -1.4511 -0.4145 -0.2849
 8099SOL     OW35755   3.940   2.434   8.015  0.4792  0.1504 -0.3285
 8099SOL    HW135756   3.969   2.515   8.058  2.0192 -0.9613  0.7459
 8099SOL    HW235757   4.013   2.381   8.048  0.0481 -0.5787 -0.5629
 8100SOL     OW35758   3.310   3.584  15.915  0.0671 -0.2344 -0.3652
 8100SOL    HW135759   3.230   3.633  15.931  0.9329  0.7160  1.0677
 8100SOL    HW235760   3.314   3.578  15.819 -0.6517  0.3533 -0.4302
 8101SOL     OW35761   3.059   3.496  14.806  0.1663  0.1277 -0.3853
 8101SOL    HW135762   3.148   3.531  14.818  1.0456 -2.0961 -0.4950
 8101SOL    HW235763   3.051   3.472  14.899 -2.8456  2.4653 -0.0466
 8102SOL     OW35764   1.406   0.357   5.490 -0.2802  0.7035 -0.2964
 8102SOL    HW135765   1.421   0.374   5.583 -1.2745  2.5429 -0.4883
 8102SOL    HW235766   1.441   0.433   5.444 -1.3972  1.8807  0.8288
 8103SOL     OW35767   3.136   0.762   8.666  0.0121 -0.3296  0.0366
 8103SOL    HW135768   3.044   0.776   8.691 -0.5050 -3.0051 -0.4304
 8103SOL    HW235769   3.134   0.726   8.578  2.2166 -1.7600  0.5800
 8104SOL     OW35770   4.620   4.026   4.622  0.0266  0.3621 -0.2582
 8104SOL    HW135771   4.649   3.991   4.538 -2.0457  0.3944 -0.9740
 8104SOL    HW235772   4.568   4.100   4.591  1.0445  1.0502 -0.3551
 8105SOL     OW35773   0.181   3.006  11.124  0.0192  0.2353 -0.4046
 8105SOL    HW135774   0.114   2.964  11.070  2.0968 -2.5247 -0.8426
 8105SOL    HW235775   0.249   2.993  11.059 -1.0431 -2.7984 -0.9402
 8106SOL     OW35776   0.267   1.485   1.895  0.4485 -0.4542 -0.1959
 8106SOL    HW135777   0.308   1.416   1.946  1.5294  1.4201  1.4711
 8106SOL    HW235778   0.220   1.541   1.957  1.8377  0.0113  0.4506
 8107SOL     OW35779   3.664   3.591   4.188  0.2894 -0.5390 -0.1829
 8107SOL    HW135780   3.660   3.678   4.227 -1.7090 -0.5341 -0.3655
 8107SOL    HW235781   3.723   3.549   4.251 -0.5922 -0.0903  0.9488
 8108SOL     OW35782   0.677   0.000   4.345 -0.3374  0.2986 -0.5471
 8108SOL    HW135783   0.606   0.038   4.397 -0.8662  0.8210 -1.6424
 8108SOL    HW235784   0.639   4.720   4.257 -2.0255  1.6961  0.0818
 8109SOL     OW35785   2.990   2.609  11.977 -0.4416 -0.3718  0.0155
 8109SOL    HW135786   2.916   2.559  11.944 -0.4267 -0.4089  0.0383
 8109SOL    HW235787   3.069   2.555  11.971  0.0243  0.2098  0.7845
 8110SOL     OW35788   0.331   0.832  17.531 -0.1253 -0.1065  0.0941
 8110SOL    HW135789   0.322   0.784  17.613 -2.3915  1.5451  0.8114
 8110SOL    HW235790   0.410   0.878  17.562 -0.1139  0.4094 -0.7022
 8111SOL     OW35791   3.837   4.166  14.883 -0.6977 -0.7043 -0.2523
 8111SOL    HW135792   3.837   4.087  14.938  0.1454 -0.6041 -0.1070
 8111SOL    HW235793   3.857   4.237  14.944  0.8915  1.8142 -3.7602
 8112SOL     OW35794   3.737   4.327  13.332  0.1302 -0.2977 -0.1063
 8112SOL    HW135795   3.691   4.268  13.392 -1.0440  0.2181 -0.4845
 8112SOL    HW235796   3.752   4.402  13.389 -0.4129  0.7382 -1.3115
 8113SOL     OW35797   1.737   4.670  12.900  0.1687  0.5953 -0.2920
 8113SOL    HW135798   1.772   0.025  12.860  1.7023 -1.1099 -2.4090
 8113SOL    HW235799   1.666   4.660  12.836 -1.6235 -2.6342  2.2032
 8114SOL     OW35800   3.440   0.214   6.375 -0.4461  0.3078  0.5580
 8114SOL    HW135801   3.412   0.302   6.352 -2.9521 -0.2548  1.5304
 8114SOL    HW235802   3.381   0.153   6.330  0.8680  0.1173 -0.9102
 8115SOL     OW35803   3.793   3.621   5.005  0.4138  0.2435  0.3352
 8115SOL    HW135804   3.871   3.617   5.061 -0.0508 -2.1784  0.8048
 8115SOL    HW235805   3.773   3.532   4.977  2.9022 -0.0375 -0.5257
 8116SOL     OW35806   3.920   1.166   5.380  0.2843 -0.2149  0.0729
 8116SOL    HW135807   3.980   1.104   5.421 -0.9128 -1.9352 -0.7854
 8116SOL    HW235808   3.926   1.139   5.288 -2.4545 -1.0643  0.1526
 8117SOL     OW35809   2.023   3.810  16.757  0.3460  0.1550  0.2202
 8117SOL    HW135810   1.943   3.857  16.781  1.6588  2.2262  0.5626
 8117SOL    HW235811   2.041   3.826  16.665 -2.2833  1.5561 -0.0377
 8118SOL     OW35812   2.732   0.891   6.417  0.5842  0.3050 -0.7753
 8118SOL    HW135813   2.781   0.972   6.435 -2.4456  1.8751  0.3688
 8118SOL    HW235814   2.677   0.880   6.494 -2.1698 -0.5741 -2.8670
 8119SOL     OW35815   0.887   4.010   1.610 -0.0756  0.6552 -0.7842
 8119SOL    HW135816   0.900   4.007   1.515 -2.4484  2.8882 -1.1668
 8119SOL    HW235817   0.949   4.080   1.632 -1.2466  1.1451  0.9778
 8120SOL     OW35818   1.566   3.237   4.044 -0.1889  0.6416 -0.1348
 8120SOL    HW135819   1.652   3.270   4.067 -0.2135  0.8289 -0.3029
 8120SOL    HW235820   1.518   3.320   4.037  1.1505  1.3953 -0.4633
 8121SOL     OW35821   1.986   1.137   5.440 -0.1311  0.3693  0.3055
 8121SOL    HW135822   2.036   1.085   5.502  0.6100  0.9519  0.2110
 8121SOL    HW235823   1.894   1.117   5.457  0.0030 -0.5339 -0.0439
 8122SOL     OW35824   2.023   1.365   4.610 -0.0513  0.2654  0.3133
 8122SOL    HW135825   1.940   1.394   4.572 -1.5151 -2.1407  1.6283
 8122SOL    HW235826   2.076   1.322   4.543  2.0549 -0.1025  2.2083
 8123SOL     OW35827   2.356   4.592   1.936  0.5621 -0.9714 -0.4838
 8123SOL    HW135828   2.335   4.673   1.982 -2.8913 -1.8403 -0.5274
 8123SOL    HW235829   2.272   4.570   1.896 -1.1533  0.1624  2.5089
 8124SOL     OW35830   4.646   2.341   4.754  0.0676  0.1050 -0.4898
 8124SOL    HW135831   4.664   2.401   4.825 -1.6795  1.5841 -1.2930
 8124SOL    HW235832   4.569   2.293   4.787 -1.1335  0.2575 -2.9979
 8125SOL     OW35833   1.007   2.423  10.687 -0.0459 -0.2957  0.3931
 8125SOL    HW135834   1.088   2.441  10.735 -1.2058 -1.0949  2.6093
 8125SOL    HW235835   0.986   2.338  10.726 -0.7560 -0.4816 -0.3990
 8126SOL     OW35836   3.267   0.724  11.822  0.3748  0.1290  0.0585
 8126SOL    HW135837   3.352   0.766  11.828  0.7675 -0.2825 -2.7678
 8126SOL    HW235838   3.274   0.661  11.893  1.7835 -0.8952 -1.0030
 8127SOL     OW35839   0.293   2.867   6.952  0.2053 -0.2927  0.2446
 8127SOL    HW135840   0.337   2.823   7.025  3.3147  0.5105 -1.1058
 8127SOL    HW235841   0.343   2.948   6.938 -1.1211 -0.0939 -3.1877
 8128SOL     OW35842   4.090   0.205   3.563  0.0244 -0.1342 -0.4246
 8128SOL    HW135843   4.176   0.184   3.524 -0.4180  0.1119 -1.5315
 8128SOL    HW235844   4.116   0.200   3.655  1.0762  1.7015 -0.6321
 8129SOL     OW35845   2.433   3.667   3.666  0.2369 -0.0968  0.4607
 8129SOL    HW135846   2.422   3.591   3.609  0.7644  0.6346 -0.6243
 8129SOL    HW235847   2.527   3.655   3.682  0.6820  1.1910 -1.1121
 8130SOL     OW35848   3.333   0.362   8.442 -0.0687 -0.1593  0.7823
 8130SOL    HW135849   3.317   0.380   8.535  1.1394  1.7747  0.6282
 8130SOL    HW235850   3.381   0.438   8.408  1.4531 -0.8120  1.4822
 8131SOL     OW35851   1.834   1.928   8.962  0.5926  0.0988 -0.5864
 8131SOL    HW135852   1.919   1.913   9.004 -0.4217  2.5304  2.3352
 8131SOL    HW235853   1.837   2.023   8.968 -1.0610  0.1798 -1.0685
 8132SOL     OW35854   4.250   0.952   7.076 -0.6605 -0.1300 -0.6590
 8132SOL    HW135855   4.232   0.887   7.144 -1.6628  0.3140 -0.4993
 8132SOL    HW235856   4.179   1.016   7.082 -1.9900 -1.4696 -1.7425
 8133SOL     OW35857   4.434   2.338   4.156 -0.4677  0.3918  0.1883
 8133SOL    HW135858   4.453   2.246   4.134  0.8570  0.3336  1.6266
 8133SOL    HW235859   4.511   2.387   4.127 -0.7181  1.4096  1.2719
 8134SOL     OW35860   1.172   2.967   2.175 -0.1941  0.0237  0.3445
 8134SOL    HW135861   1.130   2.964   2.261 -1.1742 -2.3935 -0.2150
 8134SOL    HW235862   1.264   2.943   2.190 -0.2007  0.2951  0.8303
 8135SOL     OW35863   2.285   1.431   8.469 -0.2178 -0.1430  0.3395
 8135SOL    HW135864   2.304   1.337   8.466  0.7919  0.0860 -0.3430
 8135SOL    HW235865   2.364   1.466   8.512  0.9075 -2.4706  0.1611
 8136SOL     OW35866   0.541   3.102   8.046 -0.2520  0.1499 -0.0163
 8136SOL    HW135867   0.561   3.126   8.136 -1.4645  2.0505 -0.2339
 8136SOL    HW235868   0.562   3.009   8.043 -1.4696 -0.1121 -0.5723
 8137SOL     OW35869   1.814   4.461   6.867 -0.4058  0.5136 -0.7381
 8137SOL    HW135870   1.807   4.461   6.963  1.6709  1.0629 -0.5785
 8137SOL    HW235871   1.840   4.371   6.847 -1.0683 -0.1965  1.5452
 8138SOL     OW35872   2.633   1.816  16.765  0.1290  0.0793 -0.4621
 8138SOL    HW135873   2.606   1.905  16.742 -1.4435 -0.2371  0.1613
 8138SOL    HW235874   2.718   1.846  16.797 -0.1791 -1.2019  1.5784
 8139SOL     OW35875   4.394   0.938   4.934  0.5896 -0.1138  0.0835
 8139SOL    HW135876   4.455   0.914   5.004  2.3442 -0.5234 -1.5925
 8139SOL    HW235877   4.437   1.018   4.903 -0.1766  0.7823  1.3251
 8140SOL     OW35878   4.302   2.600   2.380 -0.0339  0.2122 -0.3139
 8140SOL    HW135879   4.268   2.518   2.416 -0.3514 -1.3498 -4.1321
 8140SOL    HW235880   4.325   2.564   2.294  1.5356  1.3955 -0.3942
 8141SOL     OW35881   3.146   0.539  12.033  0.0334 -0.3550 -0.0695
 8141SOL    HW135882   3.223   0.566  12.083 -0.8981  2.6009 -0.1965
 8141SOL    HW235883   3.169   0.448  12.014  1.0605 -0.2491  0.6757
 8142SOL     OW35884   2.854   0.845   5.065 -0.1592 -0.4940 -0.1374
 8142SOL    HW135885   2.763   0.874   5.072 -0.3273 -0.5238 -2.0724
 8142SOL    HW235886   2.900   0.905   5.123  1.3953 -1.0292 -0.8211
 8143SOL     OW35887   2.373   0.205  10.606 -0.2253  0.1345  0.6567
 8143SOL    HW135888   2.453   0.173  10.648 -0.6528 -0.3969  1.0611
 8143SOL    HW235889   2.366   0.291  10.646  0.8644  0.7862 -0.5591
 8144SOL     OW35890   4.485   2.116   1.118 -0.3732 -0.0988 -0.0345
 8144SOL    HW135891   4.496   2.211   1.125  1.6366 -0.3108 -0.5290
 8144SOL    HW235892   4.417   2.120   1.185 -1.2540  0.6432 -0.9629
 8145SOL     OW35893   0.851   0.750   6.186 -0.0693 -0.8020 -0.1283
 8145SOL    HW135894   0.819   0.669   6.148  0.5943 -0.7784 -0.7400
 8145SOL    HW235895   0.771   0.788   6.220  0.5186  2.0518 -1.9262
 8146SOL     OW35896   3.691   2.539   7.926  0.2873  0.2887  0.0833
 8146SOL    HW135897   3.785   2.540   7.945 -0.4127 -0.4224  3.5536
 8146SOL    HW235898   3.662   2.490   8.003 -0.8544 -0.4174 -0.7943
 8147SOL     OW35899   1.054   4.278   8.555 -0.1407  0.2686 -0.2775
 8147SOL    HW135900   0.984   4.326   8.600 -0.0753  0.5936 -0.5223
 8147SOL    HW235901   1.015   4.238   8.476 -0.2600  0.7869 -0.4822
 8148SOL     OW35902   0.414   4.545   4.948 -0.4130 -0.2377  0.0603
 8148SOL    HW135903   0.470   4.585   4.882 -0.1363 -1.0438 -0.1793
 8148SOL    HW235904   0.341   4.514   4.895 -1.2585 -1.4615  1.9382
 8149SOL     OW35905   3.317   0.853  14.715 -0.0673  0.1994  0.0948
 8149SOL    HW135906   3.270   0.819  14.638 -1.5982  1.3553  0.5046
 8149SOL    HW235907   3.388   0.901  14.672  0.2738  0.0026  0.4441
 8150SOL     OW35908   4.336   0.043   2.076 -0.0225 -0.0492  0.6860
 8150SOL    HW135909   4.307   0.107   2.011  0.5467 -0.6333 -0.1401
 8150SOL    HW235910   4.431   0.048   2.066  0.2437 -1.1259  2.7465
 8151SOL     OW35911   4.272   1.801   7.000  0.0017 -0.8619  0.0774
 8151SOL    HW135912   4.325   1.852   6.939 -2.0194 -1.5209 -2.2211
 8151SOL    HW235913   4.283   1.840   7.087 -0.2836 -0.5773 -0.0145
 8152SOL     OW35914   0.073   2.935   3.731 -0.2949 -0.4392  0.3117
 8152SOL    HW135915   0.139   3.005   3.730 -0.1135 -0.5894  1.9578
 8152SOL    HW235916   0.043   2.941   3.822 -1.6700 -0.9248 -0.1126
 8153SOL     OW35917   0.125   1.341   5.484  0.4241 -0.1017  0.1736
 8153SOL    HW135918   0.128   1.435   5.502 -0.7201 -0.0102 -0.0995
 8153SOL    HW235919   0.217   1.315   5.476  0.3995 -0.2234  0.2767
 8154SOL     OW35920   3.004   0.226   5.755  0.1312 -0.3720  0.4558
 8154SOL    HW135921   3.091   0.198   5.783 -0.5040 -2.4822  0.2650
 8154SOL    HW235922   2.967   0.229   5.843  1.0019 -0.5984  0.8305
 8155SOL     OW35923   4.702   0.202   5.497 -0.4841 -0.1421 -0.6707
 8155SOL    HW135924   4.724   0.165   5.582  1.2697  0.3890 -0.8861
 8155SOL    HW235925   4.607   0.198   5.488 -0.6002 -0.2725  0.6786
 8156SOL     OW35926   2.010   1.880   2.737  0.2054 -0.4794  0.4959
 8156SOL    HW135927   2.100   1.860   2.765  0.2291  0.4576  1.0911
 8156SOL    HW235928   1.971   1.793   2.749 -1.4702  0.2436  0.2012
 8157SOL     OW35929   2.157   0.370   2.983 -0.1566  0.0513 -0.1157
 8157SOL    HW135930   2.209   0.339   2.909  1.1852  0.2555  0.7509
 8157SOL    HW235931   2.103   0.294   3.006 -0.0781 -0.6557 -2.2562
 8158SOL     OW35932   3.199   1.778   3.594 -0.2188  0.2674 -0.2005
 8158SOL    HW135933   3.239   1.859   3.563 -0.1837  1.0853  1.9337
 8158SOL    HW235934   3.136   1.771   3.523 -0.5913 -2.8524  0.4393
 8159SOL     OW35935   0.416   3.554   1.737  0.0995  0.0199 -0.1012
 8159SOL    HW135936   0.467   3.586   1.663  1.0147  1.0376  0.9610
 8159SOL    HW235937   0.327   3.568   1.705 -0.5078  0.8346  1.9186
 8160SOL     OW35938   1.033   4.064   2.517 -0.1970  0.3650  0.8816
 8160SOL    HW135939   0.985   4.071   2.600 -1.0922  1.2261  0.2978
 8160SOL    HW235940   1.110   4.010   2.535  0.0369  0.1185 -0.8591
 8161SOL     OW35941   2.216   4.677   1.419  0.3339  0.3150  0.3886
 8161SOL    HW135942   2.184   4.704   1.333  1.3283 -0.5020 -0.2377
 8161SOL    HW235943   2.267   4.605   1.383 -0.5906  1.0200 -2.2655
 8162SOL     OW35944   0.839   1.257   0.533  0.1901  0.6791  0.4141
 8162SOL    HW135945   0.854   1.335   0.480  2.5942  0.2674  0.4807
 8162SOL    HW235946   0.812   1.196   0.464 -0.6380  0.4034  0.9847
 8163SOL     OW35947   1.051   0.525  13.471  0.6061 -0.1552  0.0903
 8163SOL    HW135948   1.110   0.599  13.475  1.2551 -0.5955 -1.5247
 8163SOL    HW235949   0.974   0.574  13.444  1.8582  1.0198 -1.3173
 8164SOL     OW35950   2.591   0.671  12.760 -0.3559 -0.0217 -0.0286
 8164SOL    HW135951   2.635   0.620  12.828 -0.3357 -0.5470 -0.4351
 8164SOL    HW235952   2.506   0.682  12.804 -0.6313  0.1060 -0.5874
 8165SOL     OW35953   2.582   4.202   3.519  0.6655 -0.1136  0.5871
 8165SOL    HW135954   2.551   4.112   3.530 -0.8845  0.3043 -0.5664
 8165SOL    HW235955   2.640   4.213   3.595 -0.3255  0.8724  1.2139
 8166SOL     OW35956   1.835   0.535  13.887  0.6656  0.2577 -0.5229
 8166SOL    HW135957   1.776   0.542  13.812  0.2441  1.6793 -0.0575
 8166SOL    HW235958   1.820   0.614  13.940 -0.2487 -0.5511  0.4215
 8167SOL     OW35959   2.896   2.150   6.210 -0.2595  0.1909 -0.1872
 8167SOL    HW135960   2.906   2.086   6.140  0.0979  1.5985 -1.4297
 8167SOL    HW235961   2.970   2.121   6.263  0.6982 -2.0865 -2.8040
 8168SOL     OW35962   3.251   4.419   4.697 -0.0010  0.3885 -0.0921
 8168SOL    HW135963   3.290   4.506   4.701  2.1214 -0.5231 -1.1070
 8168SOL    HW235964   3.179   4.438   4.638 -0.5502  2.1127  1.1325
 8169SOL     OW35965   2.046   2.804   3.068  0.0986  0.1997  0.0831
 8169SOL    HW135966   1.965   2.788   3.117 -0.3154 -2.6532 -1.5037
 8169SOL    HW235967   2.020   2.799   2.976 -0.5412 -1.7857  0.3687
 8170SOL     OW35968   1.485   2.986  10.122  0.4098 -0.0390 -0.5500
 8170SOL    HW135969   1.464   2.895  10.144  0.2779  0.1575  0.1346
 8170SOL    HW235970   1.562   2.968  10.068 -1.2972 -0.4203 -2.8652
 8171SOL     OW35971   1.333   4.431   2.930 -0.9436  0.4817  0.7742
 8171SOL    HW135972   1.280   4.490   2.876 -2.7069 -0.3588  1.5739
 8171SOL    HW235973   1.378   4.496   2.984 -3.6134  2.4707  0.6162
 8172SOL     OW35974   0.055   2.219   2.386 -0.6426 -0.0847  0.7202
 8172SOL    HW135975   0.137   2.204   2.434 -1.0850 -0.9419  1.2023
 8172SOL    HW235976   0.039   2.129   2.360 -0.0505  0.7948 -2.6655
 8173SOL     OW35977   0.646   2.832   8.738 -1.0420 -0.2483 -0.1185
 8173SOL    HW135978   0.614   2.902   8.796  0.8424  1.2893 -0.9287
 8173SOL    HW235979   0.681   2.880   8.663  0.9092  1.3072  1.7704
 8174SOL     OW35980   2.708   2.358   2.466 -0.5869 -0.0183 -0.3356
 8174SOL    HW135981   2.792   2.313   2.457 -0.4596 -0.2131  1.8024
 8174SOL    HW235982   2.693   2.404   2.384 -0.7643  0.4630 -0.0323
 8175SOL     OW35983   0.396   3.274  10.245  0.8010  0.0736  0.4554
 8175SOL    HW135984   0.419   3.220  10.169 -0.2415  0.0771  0.1405
 8175SOL    HW235985   0.431   3.362  10.231 -0.7763  0.4431 -1.1742
 8176SOL     OW35986   1.063   1.404   4.064 -0.2299 -0.2458 -0.4003
 8176SOL    HW135987   1.030   1.387   3.975 -1.3892  0.9842 -0.2090
 8176SOL    HW235988   1.057   1.499   4.070  2.4178 -0.1223  0.3641
 8177SOL     OW35989   0.191   2.597  13.773  0.3642 -0.4677 -0.5863
 8177SOL    HW135990   0.203   2.682  13.729  1.1558 -0.7511 -0.9273
 8177SOL    HW235991   0.282   2.566  13.769  0.1991 -0.9529 -0.4788
 8178SOL     OW35992   2.928   3.955  16.673 -0.2547 -0.3012  0.7113
 8178SOL    HW135993   3.003   3.912  16.632 -0.8294 -1.8394  1.2723
 8178SOL    HW235994   2.938   4.046  16.644  1.8343 -0.0101  2.3494
 8179SOL     OW35995   2.972   0.568   7.782  0.5099 -0.2989  0.5597
 8179SOL    HW135996   3.067   0.557   7.778  0.7192  1.6717  0.2553
 8179SOL    HW235997   2.957   0.537   7.871  1.8017 -3.2048 -0.2470
 8180SOL     OW35998   3.173   1.833   2.585 -0.2569  0.0013  0.1327
 8180SOL    HW135999   3.247   1.893   2.597 -0.7680  0.6565  0.0499
 8180SOL    HW236000   3.125   1.854   2.505 -1.4129 -0.6815  0.6457
 8181SOL     OW36001   1.972   2.314   2.895  0.2691  0.4562 -0.0109
 8181SOL    HW136002   2.032   2.247   2.863  1.0743  0.2298  1.9416
 8181SOL    HW236003   1.891   2.299   2.847 -0.2229  2.6134  0.1302
 8182SOL     OW36004   0.902   3.954   2.318 -0.4488  0.3087 -0.2587
 8182SOL    HW136005   0.898   4.015   2.244  3.4937 -0.6110 -1.2119
 8182SOL    HW236006   0.950   4.004   2.384 -1.5240  0.8679  0.1085
 8183SOL     OW36007   4.046   1.381   2.747 -0.1123 -0.3244 -0.0110
 8183SOL    HW136008   3.981   1.373   2.678 -1.1091  1.7084  0.6963
 8183SOL    HW236009   4.126   1.344   2.710 -0.8053 -3.0938  1.2745
 8184SOL     OW36010   1.369   0.801   1.602 -0.2096  0.1447 -0.3418
 8184SOL    HW136011   1.381   0.881   1.551 -1.5431  1.9188  2.1236
 8184SOL    HW236012   1.397   0.826   1.690 -3.5498  0.9784  0.4487
 8185SOL     OW36013   1.649   3.966  11.464  0.4342 -0.5228  0.2423
 8185SOL    HW136014   1.609   3.917  11.393 -1.5578  3.3155 -1.2702
 8185SOL    HW236015   1.652   4.049  11.417  0.1196  1.1746  3.1839
 8186SOL     OW36016   0.450   2.026  12.850 -0.2861 -0.3009 -0.1136
 8186SOL    HW136017   0.501   2.023  12.932 -0.1124 -1.1369 -0.2484
 8186SOL    HW236018   0.435   2.120  12.841  2.6340  0.0984 -0.8285
 8187SOL     OW36019   2.774   0.292   9.496  0.0350  0.2408 -0.5564
 8187SOL    HW136020   2.870   0.298   9.492  0.1179 -1.4767 -0.9951
 8187SOL    HW236021   2.753   0.202   9.517  1.1887  0.2633  0.6697
 8188SOL     OW36022   3.317   3.113  14.136 -0.2190 -0.5263 -0.1565
 8188SOL    HW136023   3.357   3.028  14.119  0.1500 -0.0481 -1.7324
 8188SOL    HW236024   3.302   3.141  14.045  0.2488  1.1308  0.2680
 8189SOL     OW36025   0.139   0.100   4.507  0.3108 -0.1256 -1.3569
 8189SOL    HW136026   0.081   0.031   4.542  0.3784  0.5007 -0.0145
 8189SOL    HW236027   0.201   0.037   4.471 -0.0858  0.4079 -2.9559
 8190SOL     OW36028   4.269   0.813   2.882  0.4443 -0.1776  0.7306
 8190SOL    HW136029   4.185   0.795   2.841  0.3823 -0.4861  0.9946
 8190SOL    HW236030   4.271   0.762   2.963 -1.4798  0.7237  1.3459
 8191SOL     OW36031   2.013   3.614   7.450  0.4542  0.7395 -0.4179
 8191SOL    HW136032   2.108   3.618   7.450  0.4248  1.3471 -2.7994
 8191SOL    HW236033   1.990   3.652   7.366 -0.5186 -2.6718 -1.6953
 8192SOL     OW36034   3.154   4.522  15.472 -0.2135  0.2918 -0.1688
 8192SOL    HW136035   3.122   4.445  15.425 -1.4654  1.0867 -0.6256
 8192SOL    HW236036   3.165   4.583  15.398  1.4810 -0.0235 -0.1623
 8193SOL     OW36037   4.641   4.094  15.579  0.2508  0.0725  0.6466
 8193SOL    HW136038   4.649   4.094  15.675 -2.4457 -0.1599  0.8954
 8193SOL    HW236039   4.620   4.185  15.561 -1.5023 -0.3421  0.5370
 8194SOL     OW36040   0.539   1.327  10.214 -0.3708 -0.3209 -0.4471
 8194SOL    HW136041   0.511   1.365  10.297  1.8614 -1.3119  0.7560
 8194SOL    HW236042   0.634   1.334  10.208 -0.1676 -0.2257  3.3646
 8195SOL     OW36043   1.170   2.767  16.683  0.5094 -0.1687 -0.6758
 8195SOL    HW136044   1.184   2.815  16.765 -0.6983  0.9339 -1.1197
 8195SOL    HW236045   1.229   2.692  16.691  0.1688 -0.3532  0.1010
 8196SOL     OW36046   0.003   2.479   8.424  0.0458  0.2402 -0.4204
 8196SOL    HW136047   0.071   2.534   8.387  2.7365 -2.5479  0.3626
 8196SOL    HW236048   0.051   2.399   8.447 -0.8772 -0.1546  0.1222
 8197SOL     OW36049   2.256   4.115  17.519 -0.1788 -0.3093 -0.0640
 8197SOL    HW136050   2.194   4.147  17.584 -0.2949  1.1363 -0.8797
 8197SOL    HW236051   2.237   4.162  17.438 -1.3044 -0.4383  0.1251
 8198SOL     OW36052   4.607   3.006   3.028  0.5226  0.8771 -0.3697
 8198SOL    HW136053   4.603   3.085   2.974 -0.1891  1.4990  0.5974
 8198SOL    HW236054   4.658   2.946   2.974  1.3507  0.6737  0.6327
 8199SOL     OW36055   1.122   2.216   4.613  0.5202 -0.4379 -0.4222
 8199SOL    HW136056   1.119   2.287   4.677 -1.0550 -1.3878  0.5564
 8199SOL    HW236057   1.029   2.199   4.603  1.0396 -3.1079 -0.7997
 8200SOL     OW36058   1.136   2.851   7.599  0.2146 -0.2383  0.2079
 8200SOL    HW136059   1.224   2.889   7.599  0.9405 -1.9215 -0.9184
 8200SOL    HW236060   1.139   2.791   7.674 -0.4425  0.1339  0.5306
 8201SOL     OW36061   3.881   3.818   7.460 -0.3201  0.1943  0.7845
 8201SOL    HW136062   3.910   3.727   7.464  2.3981  0.9605 -1.3966
 8201SOL    HW236063   3.948   3.867   7.508  0.7352  0.1870 -0.6969
 8202SOL     OW36064   3.688   1.322   2.759  0.2247  0.4178  0.2157
 8202SOL    HW136065   3.624   1.332   2.688  0.8086 -0.6448 -0.4539
 8202SOL    HW236066   3.656   1.244   2.802  0.3854  0.0739 -0.2850
 8203SOL     OW36067   1.381   3.576   8.000 -0.7403  0.5070 -0.3905
 8203SOL    HW136068   1.449   3.583   8.067 -1.1427 -1.2866  0.1882
 8203SOL    HW236069   1.418   3.644   7.943 -1.0633  1.1517  0.1689
 8204SOL     OW36070   1.741   3.567  17.664  0.1557 -0.2982  0.7426
 8204SOL    HW136071   1.671   3.530  17.608 -1.3730  4.0166 -0.1767
 8204SOL    HW236072   1.686   3.585   0.037 -0.7397 -2.1944  0.5484
 8205SOL     OW36073   0.174   3.832  12.408  0.1693 -0.1348  0.1839
 8205SOL    HW136074   0.135   3.919  12.394  1.6790  0.3768 -0.8678
 8205SOL    HW236075   0.264   3.844  12.438 -0.3233  1.6843  0.9661
 8206SOL     OW36076   0.796   3.613   6.779  0.1489  0.7939 -0.7120
 8206SOL    HW136077   0.775   3.609   6.685  1.4782  2.9008 -1.0993
 8206SOL    HW236078   0.737   3.547   6.816  1.0427 -0.8268 -2.1510
 8207SOL     OW36079   2.073   2.461   4.835 -0.6738  0.2598  0.0660
 8207SOL    HW136080   2.145   2.488   4.778 -1.0414  1.0598 -0.0251
 8207SOL    HW236081   2.054   2.538   4.889 -0.1457 -0.0531  0.6816
 8208SOL     OW36082   3.177   2.805   8.504 -0.3133  0.0912 -0.1922
 8208SOL    HW136083   3.135   2.828   8.587  1.0758 -0.2181  0.5844
 8208SOL    HW236084   3.264   2.844   8.515  0.9187 -2.2409 -1.5171
 8209SOL     OW36085   1.615   3.732   3.017 -0.0968  0.1432  0.4552
 8209SOL    HW136086   1.650   3.821   3.013 -0.8786  0.3659 -1.3970
 8209SOL    HW236087   1.686   3.681   2.978 -0.4044  1.1695 -1.4568
 8210SOL     OW36088   1.983   2.714  14.209  0.2508  0.4228 -0.2753
 8210SOL    HW136089   2.068   2.754  14.229  0.6870 -0.8104  0.3561
 8210SOL    HW236090   2.013   2.654  14.140 -0.9294  2.0613 -2.1761
 8211SOL     OW36091   4.147   0.497  17.624  0.1522  1.4026 -0.7903
 8211SOL    HW136092   4.101   0.461  17.700  2.2136 -1.4913 -0.9105
 8211SOL    HW236093   4.202   0.560  17.670 -1.1863  2.6951 -0.9383
 8212SOL     OW36094   4.259   4.021  13.634 -0.1403  0.0666  0.2519
 8212SOL    HW136095   4.214   4.065  13.561 -1.3206 -0.8968  0.3985
 8212SOL    HW236096   4.319   3.959  13.594 -1.1094 -0.5230 -0.2893
 8213SOL     OW36097   2.214   3.413   3.998 -0.1041 -0.2453 -0.1277
 8213SOL    HW136098   2.211   3.369   3.913  2.0099  1.9587 -1.3588
 8213SOL    HW236099   2.130   3.386   4.035 -0.0247 -0.3595 -0.0317
 8214SOL     OW36100   1.965   4.499  17.650  0.3076 -0.4388  0.2816
 8214SOL    HW136101   1.960   4.426  17.588 -0.0345  0.2250 -0.4849
 8214SOL    HW236102   1.875   4.498  17.683  0.6059  1.5820  1.1659
 8215SOL     OW36103   1.168   0.200   6.428  0.4154  0.5109 -0.1577
 8215SOL    HW136104   1.155   0.272   6.367 -0.2960 -0.5062 -1.1970
 8215SOL    HW236105   1.079   0.184   6.461  0.6004 -1.2497 -0.5380
 8216SOL     OW36106   4.635   1.558   4.433  0.1817  0.2815 -0.7008
 8216SOL    HW136107   0.001   1.575   4.413  0.2854 -0.7993 -1.1447
 8216SOL    HW236108   4.604   1.634   4.482  1.0102  0.0133  0.2455
 8217SOL     OW36109   2.491   3.877   4.323  0.0165 -0.1284 -0.2136
 8217SOL    HW136110   2.464   3.817   4.253 -0.2322 -0.1599 -0.0905
 8217SOL    HW236111   2.403   3.909   4.343  0.3040  1.4923 -1.4624
 8218SOL     OW36112   2.251   4.090   2.779  0.2867  0.5074  0.3268
 8218SOL    HW136113   2.190   4.029   2.820  0.3252 -1.1285 -2.0325
 8218SOL    HW236114   2.302   4.124   2.852  0.1934  0.8064  0.2567
 8219SOL     OW36115   3.321   1.419   9.233 -0.2820  0.2375 -0.1246
 8219SOL    HW136116   3.354   1.359   9.165 -0.6311 -0.4639  0.3253
 8219SOL    HW236117   3.314   1.348   9.297  2.1204  0.2025  0.0862
 8220SOL     OW36118   2.310   2.436   5.240 -0.2261 -0.0011  0.0413
 8220SOL    HW136119   2.322   2.341   5.235  0.1168 -0.0297  1.3616
 8220SOL    HW236120   2.215   2.447   5.228 -0.0258  2.3941  0.5814
 8221SOL     OW36121   0.807   4.098   6.375  0.3737  0.6791 -0.6226
 8221SOL    HW136122   0.869   4.056   6.316  1.9522  0.6935  1.0174
 8221SOL    HW236123   0.787   4.182   6.334 -0.1426  1.0537  0.3794
 8222SOL     OW36124   3.836   3.250   3.866  0.6395  0.0907  0.2410
 8222SOL    HW136125   3.912   3.215   3.912  0.2666 -2.0531 -0.7613
 8222SOL    HW236126   3.878   3.265   3.781  2.4103  0.5747  1.2111
 8223SOL     OW36127   0.913   0.508  15.464  0.3372 -0.3428 -0.2177
 8223SOL    HW136128   0.819   0.520  15.450  0.6035  1.9975  0.0862
 8223SOL    HW236129   0.926   0.421  15.426 -0.2781 -0.9732  1.0110
 8224SOL     OW36130   4.415   3.962   6.529 -0.8407  0.3558 -0.1374
 8224SOL    HW136131   4.421   3.867   6.535  2.6520  0.4907 -1.5197
 8224SOL    HW236132   4.359   3.974   6.452 -2.9174  0.2516  1.3470
 8225SOL     OW36133   0.343   3.451   9.216  0.3494  0.4721  0.0105
 8225SOL    HW136134   0.384   3.486   9.295  0.5176 -2.2028  1.0962
 8225SOL    HW236135   0.282   3.389   9.255  0.7631 -0.5520 -0.9535
 8226SOL     OW36136   2.667   1.787  17.256  0.1646  0.7189 -0.1104
 8226SOL    HW136137   2.591   1.728  17.256  1.6731 -1.1998 -0.4576
 8226SOL    HW236138   2.698   1.796  17.166 -1.0101 -0.3238 -0.6170
 8227SOL     OW36139   1.755   4.649   5.873 -0.0871  0.5961  0.4613
 8227SOL    HW136140   1.818   4.704   5.920  1.5404 -1.1119  0.2895
 8227SOL    HW236141   1.725   4.591   5.943  0.4222  0.2990  0.4349
 8228SOL     OW36142   2.209   4.372   0.643  0.3232  0.3201  0.0043
 8228SOL    HW136143   2.131   4.351   0.591  0.7758 -2.2860  0.3737
 8228SOL    HW236144   2.191   4.359   0.736 -1.2717 -0.8695 -0.4635
 8229SOL     OW36145   0.317   0.894   4.117 -0.8381 -0.4056 -0.2780
 8229SOL    HW136146   0.285   0.883   4.207  0.4506  2.1128  0.4570
 8229SOL    HW236147   0.263   0.970   4.094 -0.2752  0.4095  1.0939
 8230SOL     OW36148   1.320   3.227  10.933 -0.7011  0.2121  0.5981
 8230SOL    HW136149   1.237   3.242  10.888 -0.3293 -1.4392 -0.6575
 8230SOL    HW236150   1.381   3.230  10.859 -1.9015  0.6951 -0.3673
 8231SOL     OW36151   1.022   3.630  10.033 -0.4544 -0.4586  0.4284
 8231SOL    HW136152   1.066   3.713  10.054 -0.2148  0.0321 -1.9881
 8231SOL    HW236153   1.058   3.569  10.097 -0.4347 -1.9928 -1.0449
 8232SOL     OW36154   2.405   2.649   3.367  0.5025  0.0231  0.0793
 8232SOL    HW136155   2.315   2.675   3.387  0.3287 -0.6281  0.1525
 8232SOL    HW236156   2.421   2.596   3.445 -0.6154  3.1197  2.4509
 8233SOL     OW36157   0.527   1.816   0.280  0.0278 -0.2284 -0.4519
 8233SOL    HW136158   0.541   1.885   0.345 -3.8559  1.4118 -1.3359
 8233SOL    HW236159   0.447   1.776   0.314 -0.3706  0.9421  0.0145
 8234SOL     OW36160   1.750   0.107   0.105  0.0566 -0.3610 -0.7249
 8234SOL    HW136161   1.747   0.014   0.130 -2.7173  0.3521  1.6098
 8234SOL    HW236162   1.842   0.129   0.089  0.2557 -1.1043 -0.6353
 8235SOL     OW36163   1.342   4.617   1.342 -0.0117  0.0649  0.3857
 8235SOL    HW136164   1.407   4.684   1.324 -1.5334  1.7480  1.1533
 8235SOL    HW236165   1.324   4.640   1.433 -2.1889  0.6769 -0.1819
 8236SOL     OW36166   0.902   0.654   0.215  0.0812  0.2287  0.4130
 8236SOL    HW136167   0.864   0.698   0.140  0.4765 -0.7526 -0.3639
 8236SOL    HW236168   0.916   0.731   0.270  1.8864 -0.6062  1.1104
 8237SOL     OW36169   4.690   4.705  14.762 -0.0168  0.2460  0.1310
 8237SOL    HW136170   4.604   4.674  14.734 -0.5990  0.8883  1.2129
 8237SOL    HW236171   4.683   4.718  14.856  2.6792  1.4994  0.1705
 8238SOL     OW36172   0.067   3.713   5.837 -0.5890 -0.2255 -0.5337
 8238SOL    HW136173   0.078   3.619   5.853  1.5659  0.5512  2.5791
 8238SOL    HW236174   0.153   3.750   5.856  0.1376 -0.9567 -2.3697
 8239SOL     OW36175   0.211   0.403  14.818  0.4270  0.5196  0.4264
 8239SOL    HW136176   0.196   0.392  14.912  0.2361 -0.3898  0.2833
 8239SOL    HW236177   0.206   0.309  14.801  1.1783  0.6718 -0.6153
 8240SOL     OW36178   0.206   3.763  13.239  0.2427 -0.1694  0.3534
 8240SOL    HW136179   0.287   3.751  13.289  0.6957  0.7911 -0.1465
 8240SOL    HW236180   0.232   3.813  13.162 -0.1258  1.4250  1.2613
 8241SOL     OW36181   3.548   3.285   6.351 -0.7310  0.3119 -0.0861
 8241SOL    HW136182   3.618   3.346   6.375  1.1856 -0.6644 -3.2878
 8241SOL    HW236183   3.594   3.231   6.287  1.2364  0.5906  1.0828
 8242SOL     OW36184   1.080   4.663   1.110 -0.3489  0.2469 -0.4385
 8242SOL    HW136185   1.049   4.591   1.055  1.8057 -0.7139 -0.3581
 8242SOL    HW236186   1.172   4.640   1.098 -0.1724 -0.1613  1.6662
 8243SOL     OW36187   2.102   0.401   3.360  0.0568 -0.5922  0.0238
 8243SOL    HW136188   2.036   0.454   3.316 -1.1065 -1.6327  0.5225
 8243SOL    HW236189   2.177   0.401   3.301  1.8614 -2.4329  2.3217
 8244SOL     OW36190   0.162   1.665   4.327  0.1736  0.7137 -0.3979
 8244SOL    HW136191   0.136   1.751   4.359 -0.5901  0.5220 -0.5042
 8244SOL    HW236192   0.166   1.684   4.233  1.6163 -1.9324 -0.8743
 8245SOL     OW36193   1.333   3.569   6.144  0.0203 -0.0814 -0.2500
 8245SOL    HW136194   1.311   3.587   6.235 -1.7489 -0.0532 -0.6883
 8245SOL    HW236195   1.329   3.474   6.133 -0.3509  0.0758 -1.4386
 8246SOL     OW36196   0.274   3.264   1.838  0.5063  0.1527 -0.1670
 8246SOL    HW136197   0.260   3.345   1.788  0.0336  0.2994  0.1955
 8246SOL    HW236198   0.201   3.208   1.811 -0.8666  1.4533  0.7862
 8247SOL     OW36199   4.002   0.579  10.469  0.2798  0.4455  0.2183
 8247SOL    HW136200   4.070   0.540  10.414 -0.4696 -0.9747  0.2943
 8247SOL    HW236201   4.018   0.672  10.453  0.3404  1.0177  3.4885
 8248SOL     OW36202   4.560   0.888   8.222 -0.0581  0.5098 -0.0262
 8248SOL    HW136203   4.607   0.931   8.151  1.2192 -0.7397  0.0599
 8248SOL    HW236204   4.513   0.960   8.265  0.8190  0.4522  1.0033
 8249SOL     OW36205   3.668   1.131  14.166 -0.3442  0.0354  0.6193
 8249SOL    HW136206   3.716   1.201  14.211  0.3157 -0.1602  0.2009
 8249SOL    HW236207   3.710   1.057  14.209 -1.4868 -1.0321 -0.0855
 8250SOL     OW36208   1.011   1.030   1.379  0.0275 -0.4894 -0.1608
 8250SOL    HW136209   0.949   1.092   1.338  1.8725  1.2474 -0.3189
 8250SOL    HW236210   1.093   1.059   1.340  0.7253 -2.1225  0.0950
 8251SOL     OW36211   2.881   0.354   4.527 -0.0203 -0.1044 -0.2672
 8251SOL    HW136212   2.860   0.266   4.494  0.2951 -0.7934  1.3843
 8251SOL    HW236213   2.910   0.405   4.451  0.5460 -0.4438 -0.2783
 8252SOL     OW36214   2.115   1.126  13.989 -0.9778 -0.2043 -0.1231
 8252SOL    HW136215   2.200   1.088  13.968 -1.5411 -2.6452  2.0893
 8252SOL    HW236216   2.140   1.219  13.985 -1.5063 -0.0370  0.3692
 8253SOL     OW36217   1.183   0.077  10.517  0.3534  0.5464  0.5468
 8253SOL    HW136218   1.242   0.117  10.581  1.9802 -0.7003 -0.1950
 8253SOL    HW236219   1.214   0.118  10.436  1.4484 -0.5991  0.3963
 8254SOL     OW36220   1.144   0.649   3.756  0.3740 -0.1940 -0.8776
 8254SOL    HW136221   1.130   0.579   3.820 -2.5709 -0.3617 -1.6947
 8254SOL    HW236222   1.190   0.712   3.812  0.9444 -0.9564 -0.4820
 8255SOL     OW36223   0.583   4.681   3.687  0.1768  0.3189 -0.9127
 8255SOL    HW136224   0.617   4.597   3.717 -0.1200  0.4022 -0.3368
 8255SOL    HW236225   0.563   4.675   3.594 -1.1248 -2.6737 -0.4542
 8256SOL     OW36226   2.234   4.528  13.832 -0.1757  0.0454  0.0705
 8256SOL    HW136227   2.237   4.444  13.878 -2.3005 -0.3528 -0.5240
 8256SOL    HW236228   2.139   4.529  13.820 -0.4126  0.4924  1.9763
 8257SOL     OW36229   3.698   2.284   3.100 -0.0801 -0.3920 -0.1745
 8257SOL    HW136230   3.685   2.377   3.119 -0.7541 -0.5570  0.1466
 8257SOL    HW236231   3.609   2.251   3.105 -0.4833  0.4916 -1.4409
 8258SOL     OW36232   2.435   3.484   8.052 -0.4518 -0.4820 -0.4628
 8258SOL    HW136233   2.529   3.477   8.041 -0.6377 -2.1997 -0.9751
 8258SOL    HW236234   2.405   3.434   8.128 -1.3707  2.1608  0.8924
 8259SOL     OW36235   3.758   0.679  10.961 -0.4057  0.2138  0.4748
 8259SOL    HW136236   3.680   0.710  10.915  0.5202 -0.3147 -1.4522
 8259SOL    HW236237   3.774   0.735  11.037  2.5200  2.3957 -1.7465
 8260SOL     OW36238   3.152   2.698   7.866  0.3957 -0.1118 -0.4300
 8260SOL    HW136239   3.058   2.682   7.872  0.4125 -0.0908 -0.1343
 8260SOL    HW236240   3.174   2.626   7.806  1.0791  0.2808 -0.6497
 8261SOL     OW36241   4.669   4.143  17.546  0.2562  0.3161 -0.6838
 8261SOL    HW136242   4.641   4.090  17.472  0.0010  0.5000 -0.7190
 8261SOL    HW236243   4.586   4.145  17.594  0.2867  0.6991 -0.6462
 8262SOL     OW36244   1.528   1.586   4.925 -0.1061 -0.3134 -0.6488
 8262SOL    HW136245   1.470   1.601   4.850  0.9855  1.9569 -1.0201
 8262SOL    HW236246   1.574   1.669   4.935  0.3454 -0.8359  1.5883
 8263SOL     OW36247   0.906   1.054   9.311 -0.2867 -0.2214 -0.0265
 8263SOL    HW136248   0.955   1.070   9.391  2.4014 -2.3688 -1.2428
 8263SOL    HW236249   0.877   0.964   9.323  1.5703 -0.5299  2.0806
 8264SOL     OW36250   2.751   1.401   5.123  0.3690 -0.3835  0.2108
 8264SOL    HW136251   2.790   1.406   5.210 -2.9518  2.0017  1.5711
 8264SOL    HW236252   2.717   1.312   5.119 -0.6729  0.0304 -0.2564
 8265SOL     OW36253   1.705   3.914   1.402 -0.0170  0.0688  0.2636
 8265SOL    HW136254   1.629   3.915   1.345  1.0410  4.6278 -1.0112
 8265SOL    HW236255   1.705   3.998   1.447  1.0164  0.4602 -0.4756
 8266SOL     OW36256   3.149   4.093   7.079  0.4745 -0.2776  0.2027
 8266SOL    HW136257   3.139   4.021   7.142  0.1694  1.8136  2.5100
 8266SOL    HW236258   3.228   4.062   7.034 -0.3079  0.6840 -1.8209
 8267SOL     OW36259   4.510   2.547  15.443  0.3377  0.2549 -0.5105
 8267SOL    HW136260   4.451   2.475  15.467 -1.0022  1.4420 -0.2723
 8267SOL    HW236261   4.550   2.509  15.364 -1.1335  1.8735 -2.0223
 8268SOL     OW36262   0.621   2.589   4.355  0.3475 -0.0108 -0.1917
 8268SOL    HW136263   0.567   2.620   4.282 -0.2775  2.3277  1.2518
 8268SOL    HW236264   0.635   2.671   4.402  2.0483 -0.0578 -0.6096
 8269SOL     OW36265   4.171   1.376  14.993 -0.0003  0.0256 -0.0610
 8269SOL    HW136266   4.214   1.355  14.910  0.9614 -0.7764  0.6562
 8269SOL    HW236267   4.083   1.409  14.971  1.0782  4.3959  2.0836
 8270SOL     OW36268   3.661   3.466   8.194 -0.6140 -0.0817  0.5120
 8270SOL    HW136269   3.673   3.560   8.205 -1.4172  0.2429 -1.3334
 8270SOL    HW236270   3.727   3.414   8.241  0.9330  0.8465 -0.6321
 8271SOL     OW36271   3.729   3.853   4.661 -0.0635  0.0358  0.2818
 8271SOL    HW136272   3.750   3.917   4.593  0.3438  1.3502  1.6283
 8271SOL    HW236273   3.788   3.781   4.638 -0.8522 -1.1575  2.0401
 8272SOL     OW36274   4.387   0.354   5.060 -0.4639  0.0383 -0.5181
 8272SOL    HW136275   4.370   0.309   5.143  0.4286  0.0160 -0.3438
 8272SOL    HW236276   4.413   0.273   5.016 -0.2338 -1.0118  1.5532
 8273SOL     OW36277   4.062   4.603  16.025  0.2413  0.1688  0.0744
 8273SOL    HW136278   4.104   4.680  15.987  0.0381  1.1807  1.8997
 8273SOL    HW236279   4.134   4.560  16.072  0.0093  0.4665  0.7081
 8274SOL     OW36280   0.031   3.998   1.128 -0.2739 -0.0300 -0.7856
 8274SOL    HW136281   0.024   4.082   1.084  1.3813  0.7476  0.4081
 8274SOL    HW236282   4.669   3.986   1.163 -0.8537 -1.1483 -2.6149
 8275SOL     OW36283   1.639   2.496  14.189 -0.9634  0.1585 -0.0765
 8275SOL    HW136284   1.630   2.513  14.095  1.8522 -3.1773 -0.9358
 8275SOL    HW236285   1.729   2.463  14.193 -1.2809 -0.5800  1.0861
 8276SOL     OW36286   1.052   4.088  17.699  0.4469  0.1131  0.5650
 8276SOL    HW136287   1.053   4.176   0.034  1.0470 -0.3867  1.7282
 8276SOL    HW236288   0.993   4.041   0.055 -0.7363  0.1204 -0.6367
 8277SOL     OW36289   2.035   3.137  15.721  0.1884  0.5594 -0.7493
 8277SOL    HW136290   1.946   3.160  15.747  0.3544 -0.4169  0.6585
 8277SOL    HW236291   2.029   3.042  15.720 -2.0399  0.7099 -0.7358
 8278SOL     OW36292   2.814   0.812  12.629  0.3691 -0.0917 -0.6842
 8278SOL    HW136293   2.779   0.810  12.539 -1.5200 -0.7644  0.0659
 8278SOL    HW236294   2.741   0.768  12.672  1.9253  0.5796  2.5876
 8279SOL     OW36295   2.056   0.184   6.286 -0.0866 -0.4571 -0.3241
 8279SOL    HW136296   2.129   0.164   6.228 -0.2623 -1.6801 -0.1257
 8279SOL    HW236297   2.008   0.250   6.237  0.8735 -0.9225 -1.8682
 8280SOL     OW36298   3.386   4.455   5.726  0.2893  0.2643 -0.6559
 8280SOL    HW136299   3.427   4.498   5.801  0.1204  0.3063 -0.5873
 8280SOL    HW236300   3.335   4.390   5.774 -0.8316  0.8677 -1.0258
 8281SOL     OW36301   0.355   2.301   6.504  0.0545  0.1767 -0.1423
 8281SOL    HW136302   0.377   2.239   6.434 -2.0741  1.4216 -1.9110
 8281SOL    HW236303   0.417   2.281   6.575  0.0185 -0.9995 -0.4423
 8282SOL     OW36304   2.523   2.519   8.844  0.2865 -0.0009  0.2003
 8282SOL    HW136305   2.438   2.477   8.852  0.6911 -0.5021  1.8630
 8282SOL    HW236306   2.518   2.604   8.888 -0.1950 -0.0826  0.3027
 8283SOL     OW36307   3.980   3.241   3.259 -0.6627 -0.3170 -0.0512
 8283SOL    HW136308   3.966   3.147   3.244  0.6720 -0.4493 -0.4878
 8283SOL    HW236309   3.895   3.272   3.290  1.3721  2.4614  2.7037
 8284SOL     OW36310   4.407   0.336   7.445  0.3847 -0.1184  0.7348
 8284SOL    HW136311   4.405   0.248   7.408  0.5172 -1.0613  2.9825
 8284SOL    HW236312   4.320   0.347   7.484 -0.5966 -2.5425 -0.8041
 8285SOL     OW36313   4.050   0.564   6.037  0.1243 -0.1974  0.3044
 8285SOL    HW136314   4.141   0.586   6.055  0.4042 -1.1361  0.0579
 8285SOL    HW236315   4.008   0.647   6.016 -2.7494 -1.3287  1.5138
 8286SOL     OW36316   0.821   3.701  11.016 -0.1032  0.0571  0.1509
 8286SOL    HW136317   0.779   3.701  10.930  0.6287 -0.0890 -0.2025
 8286SOL    HW236318   0.827   3.796  11.027 -0.1748  0.3798 -2.6854
 8287SOL     OW36319   3.029   3.247   8.462 -0.8867 -0.3727 -0.0567
 8287SOL    HW136320   3.004   3.263   8.553 -0.5175 -0.4920  0.0669
 8287SOL    HW236321   2.997   3.329   8.424  1.3626  0.7416  0.4522
 8288SOL     OW36322   0.149   0.483  15.198  0.3756 -0.3810 -0.3836
 8288SOL    HW136323   0.061   0.451  15.218 -0.1110  1.0703 -0.2377
 8288SOL    HW236324   0.128   0.573  15.176 -0.0896 -0.5989 -0.8253
 8289SOL     OW36325   1.693   0.867   0.545 -0.2552  0.1313 -0.3478
 8289SOL    HW136326   1.603   0.896   0.561  0.0021  0.6959  0.0931
 8289SOL    HW236327   1.701   0.805   0.472  1.6006  2.4233 -2.0893
 8290SOL     OW36328   4.444   1.415   3.363 -0.2441 -0.3134 -0.2846
 8290SOL    HW136329   4.415   1.502   3.390 -0.6565 -0.6476  0.3643
 8290SOL    HW236330   4.401   1.363   3.432 -0.4559  1.6727  1.0897
 8291SOL     OW36331   3.772   4.421  13.048  0.0453  0.1684  0.3473
 8291SOL    HW136332   3.850   4.476  13.056  0.3633 -0.2122 -0.1920
 8291SOL    HW236333   3.766   4.380  13.135  0.2126 -0.4629  0.0597
 8292SOL     OW36334   2.727   2.580  10.898  0.2169  0.1405  0.2589
 8292SOL    HW136335   2.811   2.590  10.854  0.6566 -1.0219  0.8293
 8292SOL    HW236336   2.692   2.668  10.886  0.6561  0.2724 -0.0227
 8293SOL     OW36337   1.941   4.073   5.488 -0.2776 -0.6510  0.3200
 8293SOL    HW136338   2.009   4.033   5.434  1.1351  0.6301  1.1637
 8293SOL    HW236339   1.862   4.060   5.435 -0.3385 -4.8423  1.4238
 8294SOL     OW36340   0.304   3.399   7.936  0.1697  0.1973  0.4973
 8294SOL    HW136341   0.395   3.395   7.965  0.2088  2.8517  0.7643
 8294SOL    HW236342   0.273   3.485   7.965  2.1796  1.1024 -0.0508
 8295SOL     OW36343   0.211   1.063   7.846  0.3803 -0.3032 -0.3913
 8295SOL    HW136344   0.231   1.111   7.926  0.6038  0.4931 -0.9231
 8295SOL    HW236345   0.291   1.012   7.846  0.7083  0.2212  0.2694
 8296SOL     OW36346   2.263   2.739  10.343 -0.3466 -0.1273 -0.5115
 8296SOL    HW136347   2.241   2.815  10.289  1.1309 -1.3263 -2.8257
 8296SOL    HW236348   2.252   2.670  10.276  0.6266  1.1441 -1.9750
 8297SOL     OW36349   2.298   3.812   4.739 -0.9374 -0.1645 -0.0960
 8297SOL    HW136350   2.282   3.719   4.722  0.3218 -0.2124 -1.0025
 8297SOL    HW236351   2.333   3.799   4.826 -2.1275 -0.3340  0.3659
 8298SOL     OW36352   1.559   3.635   3.537 -0.0366  0.2166 -0.1198
 8298SOL    HW136353   1.520   3.681   3.611  1.2560 -1.4093  1.5776
 8298SOL    HW236354   1.481   3.602   3.492  0.2235 -0.6498  0.0574
 8299SOL     OW36355   2.712   3.496   5.410 -0.6925 -0.3060  0.1938
 8299SOL    HW136356   2.749   3.583   5.428  0.3822 -0.5072 -1.1012
 8299SOL    HW236357   2.739   3.479   5.320  0.6546  2.0206  0.1610
 8300SOL     OW36358   3.444   3.102   8.155 -0.2034  0.3782 -0.1690
 8300SOL    HW136359   3.534   3.086   8.183 -0.7870 -1.4207  0.6879
 8300SOL    HW236360   3.404   3.024   8.194  1.6307 -0.3546  0.2527
 8301SOL     OW36361   1.202   4.445   5.836  0.0748 -0.5369  0.2317
 8301SOL    HW136362   1.146   4.417   5.764  1.1386 -1.6720 -0.1474
 8301SOL    HW236363   1.132   4.486   5.887 -0.4284  0.2440 -1.0770
 8302SOL     OW36364   1.369   2.665   8.760  0.0805  0.3187  0.0460
 8302SOL    HW136365   1.378   2.761   8.756  0.3441  0.3301  1.0127
 8302SOL    HW236366   1.320   2.650   8.679  0.2630  0.0536 -0.0150
 8303SOL     OW36367   0.033   2.673  13.187  0.6065 -0.0251 -0.6605
 8303SOL    HW136368   0.074   2.635  13.109 -0.7938  0.8976 -1.8660
 8303SOL    HW236369   0.111   2.708  13.229  0.3848  0.1218 -0.3699
 8304SOL     OW36370   2.929   0.570   8.234  0.7022 -0.4645 -0.4664
 8304SOL    HW136371   2.880   0.651   8.224  2.4686  0.5069 -1.2775
 8304SOL    HW236372   2.947   0.539   8.145  1.2241 -0.4212 -0.3750
 8305SOL     OW36373   1.908   4.718   0.659 -0.0557 -0.3248 -0.2810
 8305SOL    HW136374   1.828   4.674   0.630 -0.6225 -0.4566  1.4547
 8305SOL    HW236375   1.896   0.083   0.629  0.1215 -0.1569  0.1607
 8306SOL     OW36376   4.084   0.966   2.361 -0.8299  0.0482  0.1721
 8306SOL    HW136377   4.046   0.933   2.443  1.9010 -2.4913  0.4535
 8306SOL    HW236378   4.005   0.961   2.308 -1.9061 -0.3622  1.7839
 8307SOL     OW36379   0.398   4.697   2.801 -0.1995 -0.1983 -0.0081
 8307SOL    HW136380   0.390   4.618   2.855  1.8707 -0.7962 -0.5583
 8307SOL    HW236381   0.405   0.039   2.869 -3.2306  1.2194 -1.1237
 8308SOL     OW36382   1.113   1.426   2.249  0.7423  0.2933 -0.3168
 8308SOL    HW136383   1.075   1.430   2.162  0.5669 -0.6904 -0.2889
 8308SOL    HW236384   1.040   1.405   2.307  0.7521  1.1997  0.0114
 8309SOL     OW36385   2.864   2.299   8.348  0.6286  0.3997  0.5600
 8309SOL    HW136386   2.814   2.381   8.348  0.6478  0.4051 -0.3937
 8309SOL    HW236387   2.856   2.297   8.444 -2.4756 -0.7048  0.2941
 8310SOL     OW36388   2.893   4.537   3.674  0.0839 -0.1603 -0.4015
 8310SOL    HW136389   2.958   4.481   3.716  0.7576  0.1243 -1.0547
 8310SOL    HW236390   2.931   4.625   3.683 -1.9053  0.6708 -0.1854
 8311SOL     OW36391   0.463   0.493   6.848  0.9456  0.5685 -0.0022
 8311SOL    HW136392   0.369   0.483   6.835  0.6445  2.1606  0.8197
 8311SOL    HW236393   0.463   0.556   6.921 -0.2563 -0.8444  1.2129
 8312SOL     OW36394   2.699   2.770   9.207  0.1891  0.2467  0.0779
 8312SOL    HW136395   2.699   2.853   9.256 -0.3591  0.6934 -0.6871
 8312SOL    HW236396   2.713   2.794   9.115 -0.6049 -1.9412 -0.6049
 8313SOL     OW36397   3.130   4.542   2.128  0.3089  0.2187  0.5260
 8313SOL    HW136398   3.075   4.501   2.195 -0.2485  0.7172  0.3728
 8313SOL    HW236399   3.110   4.503   2.042 -2.2803 -0.7008  1.5634
 8314SOL     OW36400   3.347   4.031  15.558 -0.0953  0.0223 -0.1036
 8314SOL    HW136401   3.432   4.062  15.588 -0.3774  0.4170  0.2939
 8314SOL    HW236402   3.280   4.097  15.577 -1.9638 -2.4930  2.2457
 8315SOL     OW36403   4.465   4.501  17.534 -0.4494 -0.7601  0.3931
 8315SOL    HW136404   4.520   4.441  17.585 -1.0958 -0.7418  1.1088
 8315SOL    HW236405   4.389   4.500  17.592  1.0445 -4.0620  2.2532
 8316SOL     OW36406   3.084   1.549   8.744  0.7654  0.9166 -0.2870
 8316SOL    HW136407   3.051   1.639   8.741 -2.5577 -0.1918  2.0905
 8316SOL    HW236408   3.116   1.555   8.834  1.5306  1.2099 -0.5791
 8317SOL     OW36409   4.270   0.651   5.048  0.1030  0.3644  0.5820
 8317SOL    HW136410   4.191   0.675   4.999  0.2327  0.3746  0.3752
 8317SOL    HW236411   4.315   0.601   4.980 -0.1513  1.7554 -0.6181
 8318SOL     OW36412   2.193   2.941  10.184 -0.3533 -0.2096  0.3113
 8318SOL    HW136413   2.123   2.951  10.119 -0.9979 -1.9698  0.7431
 8318SOL    HW236414   2.212   3.034  10.196 -0.5042  0.0318 -1.2340
 8319SOL     OW36415   3.362   4.272   2.502  0.6868 -0.1305  0.0735
 8319SOL    HW136416   3.374   4.344   2.564 -0.7610  0.4078 -0.2591
 8319SOL    HW236417   3.269   4.258   2.521  0.5395  1.7385  0.6947
 8320SOL     OW36418   3.222   2.574   7.169  0.2836 -0.6638  0.0410
 8320SOL    HW136419   3.241   2.665   7.145 -0.9747 -0.5529 -0.5234
 8320SOL    HW236420   3.201   2.595   7.260 -0.6862 -0.0496 -0.3233
 8321SOL     OW36421   0.860   3.197   0.613  0.0238  0.9831 -0.3661
 8321SOL    HW136422   0.832   3.283   0.582  1.3303  1.4379 -0.2831
 8321SOL    HW236423   0.847   3.148   0.532 -0.7606  0.2147  0.2186
 8322SOL     OW36424   2.401   2.118   8.097  0.2449  0.1054 -0.6217
 8322SOL    HW136425   2.454   2.116   8.017 -0.3050  0.4178 -0.9990
 8322SOL    HW236426   2.379   2.211   8.097  0.5022  0.1605  1.4577
 8323SOL     OW36427   3.937   1.598  13.278  0.2795 -0.4996  0.6861
 8323SOL    HW136428   4.029   1.617  13.261  0.3822 -1.9586 -0.3785
 8323SOL    HW236429   3.893   1.679  13.304  1.6189  0.1636  0.8617
 8324SOL     OW36430   0.284   3.335   8.361 -0.0212 -0.0257  0.0308
 8324SOL    HW136431   0.192   3.347   8.335 -0.4836 -0.2919  1.5696
 8324SOL    HW236432   0.301   3.425   8.389  0.7138  0.0181 -0.5851
 8325SOL     OW36433   0.951   3.284  15.205 -0.3879  0.0425 -0.5961
 8325SOL    HW136434   0.924   3.292  15.297  3.2426  1.6053  0.3221
 8325SOL    HW236435   0.997   3.199  15.201  1.0585  0.8391 -0.8819
 8326SOL     OW36436   4.330   0.599   5.965  0.2986  0.8621  0.4203
 8326SOL    HW136437   4.396   0.669   5.973 -0.5955  1.5595  1.7508
 8326SOL    HW236438   4.361   0.550   5.889 -3.0652  0.7109 -0.8585
 8327SOL     OW36439   0.782   3.513   2.566 -0.1199 -0.0381  0.6976
 8327SOL    HW136440   0.792   3.591   2.621  1.8907  1.1318 -1.3122
 8327SOL    HW236441   0.689   3.492   2.559 -0.7603  2.9681  0.4606
 8328SOL     OW36442   3.870   3.468   6.583 -0.0734 -0.1310  0.3563
 8328SOL    HW136443   3.836   3.554   6.559  2.1214  0.8596  0.8856
 8328SOL    HW236444   3.792   3.434   6.628 -0.3216  0.1902  0.1669
 8329SOL     OW36445   1.925   2.307  11.439  0.4311 -0.8265  0.2469
 8329SOL    HW136446   1.865   2.301  11.365  0.7614 -0.1731 -0.0732
 8329SOL    HW236447   1.998   2.263  11.395  0.6085 -0.9934  0.7070
 8330SOL     OW36448   3.600   0.552   2.612 -0.0857  0.1908 -0.0231
 8330SOL    HW136449   3.520   0.510   2.580  0.8477 -1.2990 -0.4027
 8330SOL    HW236450   3.662   0.507   2.554  1.7383  0.6337  1.5976
 8331SOL     OW36451   2.105   1.889   6.256  0.0918  0.2362 -0.0048
 8331SOL    HW136452   2.037   1.957   6.255  0.1701  0.3223  3.1322
 8331SOL    HW236453   2.159   1.939   6.317  0.3292  0.6894 -0.5777
 8332SOL     OW36454   2.146   2.759   3.903  0.1298  0.3045 -0.0875
 8332SOL    HW136455   2.057   2.794   3.898 -0.8644 -2.4001 -1.3225
 8332SOL    HW236456   2.165   2.748   3.810  2.7113  1.9206  0.2396
 8333SOL     OW36457   3.696   4.252   1.662 -0.1825  0.1467  0.5653
 8333SOL    HW136458   3.718   4.158   1.663  2.1390  0.6677 -1.6660
 8333SOL    HW236459   3.689   4.265   1.757  0.6019 -0.2444  0.6828
 8334SOL     OW36460   3.888   0.680   7.665 -0.2006 -0.8266 -0.0421
 8334SOL    HW136461   3.887   0.728   7.582 -2.1276  0.0571  0.4905
 8334SOL    HW236462   3.907   0.590   7.641  0.2049 -0.8907  0.5260
 8335SOL     OW36463   2.222   3.306  15.554 -0.0892 -0.1047  0.3415
 8335SOL    HW136464   2.179   3.249  15.617  0.5574 -1.3005 -0.3156
 8335SOL    HW236465   2.295   3.256  15.518  0.5927  0.3304  1.1366
 8336SOL     OW36466   0.486   3.645  14.977  0.1346 -0.5689  0.2696
 8336SOL    HW136467   0.554   3.603  14.922 -0.3902 -2.9699  1.4445
 8336SOL    HW236468   0.471   3.732  14.940 -1.5771 -1.5533 -1.3541
 8337SOL     OW36469   2.549   0.152   3.167  0.1053 -0.1255  0.2501
 8337SOL    HW136470   2.639   0.173   3.143  0.6383 -2.4641  0.2686
 8337SOL    HW236471   2.568   0.108   3.249 -1.9109 -1.6158 -0.0790
 8338SOL     OW36472   1.617   3.431   8.339  0.1691  0.2375 -0.0793
 8338SOL    HW136473   1.684   3.364   8.321 -0.6805 -1.0547  1.5829
 8338SOL    HW236474   1.617   3.476   8.254  0.6007  0.1676 -0.1133
 8339SOL     OW36475   1.286   2.075   2.837 -0.2729 -0.2157 -0.3956
 8339SOL    HW136476   1.275   1.994   2.887  2.7154 -0.2329  0.2735
 8339SOL    HW236477   1.339   2.042   2.764 -0.3615  0.2366 -0.6623
 8340SOL     OW36478   3.130   4.321   7.475 -0.5288  0.3390 -0.5133
 8340SOL    HW136479   3.183   4.383   7.427  1.1934 -0.8149 -0.0889
 8340SOL    HW236480   3.193   4.297   7.543 -0.1332  2.3990 -0.1613
 8341SOL     OW36481   3.672   2.372   5.942  0.0964 -0.1616  0.6071
 8341SOL    HW136482   3.731   2.431   5.989  0.1720  1.7075 -1.8381
 8341SOL    HW236483   3.715   2.369   5.856 -0.5127  0.7096  0.2789
 8342SOL     OW36484   4.309   2.078   2.958  0.0502  0.4161 -0.4680
 8342SOL    HW136485   4.390   2.115   2.922  1.8830 -0.8175  2.3642
 8342SOL    HW236486   4.343   2.023   3.029 -2.2865  0.5625  0.7471
 8343SOL     OW36487   4.352   1.172   9.977 -0.3462  0.0831 -0.4155
 8343SOL    HW136488   4.439   1.212   9.968 -0.2766  0.2814  1.1213
 8343SOL    HW236489   4.352   1.113   9.902  1.0696 -1.5144  0.8480
 8344SOL     OW36490   3.884   4.342  10.627  0.5250 -0.0920  0.4221
 8344SOL    HW136491   3.849   4.388  10.550  1.0380 -0.8693 -0.2610
 8344SOL    HW236492   3.828   4.265  10.637  0.2617  0.4040  2.9938
 8345SOL     OW36493   0.373   0.302   5.549  0.7372 -0.8026 -0.5321
 8345SOL    HW136494   0.343   0.235   5.487  1.2040 -1.1879 -0.3362
 8345SOL    HW236495   0.456   0.331   5.511  0.2087  0.0168 -1.0773
 8346SOL     OW36496   2.829   2.636  10.060  0.5506  0.4397  0.0494
 8346SOL    HW136497   2.866   2.583  10.132 -0.0820  2.0950  1.5860
 8346SOL    HW236498   2.734   2.634  10.073  0.7275  2.7394  1.6706
 8347SOL     OW36499   4.245   3.268   3.581  0.2195  0.3454 -0.6757
 8347SOL    HW136500   4.238   3.213   3.503  1.2278 -0.3714 -0.2630
 8347SOL    HW236501   4.338   3.275   3.601 -0.3153  0.0577  2.0636
 8348SOL     OW36502   2.711   3.439   0.264 -0.1839 -0.0289  0.2686
 8348SOL    HW136503   2.791   3.437   0.212 -0.2256  0.1663  0.1975
 8348SOL    HW236504   2.712   3.344   0.272 -1.6826  0.0742  1.7242
 8349SOL     OW36505   3.364   3.130   5.340  0.0055 -0.1395  0.1595
 8349SOL    HW136506   3.316   3.183   5.402 -1.6277  0.5250 -1.6795
 8349SOL    HW236507   3.319   3.050   5.365  1.5603 -0.4469  1.9728
 8350SOL     OW36508   1.486   0.410   2.665  0.3555 -0.1110 -0.3577
 8350SOL    HW136509   1.563   0.373   2.620 -0.2248  2.5343 -3.5568
 8350SOL    HW236510   1.528   0.475   2.721 -2.0300  0.0144  1.2971
 8351SOL     OW36511   2.074   0.617   2.823 -0.4392 -0.3292 -0.2344
 8351SOL    HW136512   2.098   0.544   2.880 -0.2701  0.6807  0.9918
 8351SOL    HW236513   1.996   0.582   2.780  0.4530 -1.3444 -1.0458
 8352SOL     OW36514   2.045   4.460  10.148 -0.3697 -0.2460  0.3850
 8352SOL    HW136515   2.054   4.405  10.070 -1.4186  0.9552 -0.5816
 8352SOL    HW236516   1.970   4.423  10.195  0.7671  0.0832  2.4888
 8353SOL     OW36517   0.604   4.302   9.614 -0.3682  0.1683  0.0652
 8353SOL    HW136518   0.571   4.339   9.696 -2.0030  0.0944 -0.5701
 8353SOL    HW236519   0.650   4.383   9.592 -0.5218  0.6415  1.4699
 8354SOL     OW36520   2.812   2.995   5.601  0.1551 -0.0796  0.3736
 8354SOL    HW136521   2.816   3.078   5.555 -1.1194 -0.4538 -0.3954
 8354SOL    HW236522   2.718   2.993   5.617  0.4302  2.4015  2.4287
 8355SOL     OW36523   3.190   4.225   0.227 -0.3590 -0.4183 -0.0157
 8355SOL    HW136524   3.275   4.264   0.248 -1.6430  2.3190  0.1802
 8355SOL    HW236525   3.220   4.144   0.187  3.1507  1.8207 -1.9707
 8356SOL     OW36526   4.218   2.661  11.524  0.0464 -0.0712  0.8983
 8356SOL    HW136527   4.286   2.712  11.568  0.1597  2.7597 -2.4771
 8356SOL    HW236528   4.150   2.659  11.591 -1.1257  2.1431 -0.1905
 8357SOL     OW36529   3.485   0.638   6.093 -0.0339 -0.2298 -0.7776
 8357SOL    HW136530   3.543   0.621   6.019  0.8074 -0.7631 -0.0042
 8357SOL    HW236531   3.548   0.674   6.156  0.0320  1.2947 -1.7174
 8358SOL     OW36532   1.821   4.644   7.900  0.4703 -0.1336  0.0650
 8358SOL    HW136533   1.750   4.698   7.864  0.6784 -0.1612 -0.3843
 8358SOL    HW236534   1.783   4.604   7.979 -0.7906  0.5358 -0.1999
 8359SOL     OW36535   3.788   0.443   2.433 -0.7247  0.1965  0.2332
 8359SOL    HW136536   3.880   0.443   2.407 -0.5344  0.1257  0.9171
 8359SOL    HW236537   3.746   0.428   2.348  1.9354  0.5634 -1.1697
 8360SOL     OW36538   1.590   2.587   1.951  0.8337 -0.6754  0.0322
 8360SOL    HW136539   1.514   2.645   1.952 -0.7487 -2.7476 -0.5066
 8360SOL    HW236540   1.589   2.571   1.856  2.2772 -0.3312 -0.0436
 8361SOL     OW36541   4.546   0.785   5.979 -0.7193  0.1564  0.0274
 8361SOL    HW136542   4.602   0.815   5.907 -0.0124 -1.5228 -0.1218
 8361SOL    HW236543   4.536   0.866   6.030  1.1387  0.1537  0.3914
 8362SOL     OW36544   0.947   1.759   8.915 -0.0059 -0.1326  0.3394
 8362SOL    HW136545   0.976   1.690   8.855 -2.6942 -0.8116 -0.1544
 8362SOL    HW236546   1.007   1.741   8.987  1.3086 -0.4956 -0.8272
 8363SOL     OW36547   1.260   2.463   6.352  0.5869  0.2635 -0.8619
 8363SOL    HW136548   1.286   2.492   6.264 -0.1436  0.5598 -0.9827
 8363SOL    HW236549   1.193   2.529   6.369  0.8140  0.3956 -0.4908
 8364SOL     OW36550   1.697   3.350   7.453  0.1984 -0.5128  0.0715
 8364SOL    HW136551   1.747   3.291   7.508  1.8779 -0.0706 -0.9767
 8364SOL    HW236552   1.722   3.346   7.360  1.4042 -0.1095  0.3814
 8365SOL     OW36553   2.654   2.667   6.756 -0.4425  0.2477 -0.3726
 8365SOL    HW136554   2.719   2.681   6.687 -1.0637 -2.4079 -1.4759
 8365SOL    HW236555   2.713   2.626   6.819  0.5721 -0.7972 -1.9920
 8366SOL     OW36556   4.574   1.891   2.779  0.6759  0.0956  0.2878
 8366SOL    HW136557   4.570   1.796   2.769  0.2524  0.2810 -1.2626
 8366SOL    HW236558   4.660   1.902   2.739  0.6591  0.1017  0.2540
 8367SOL     OW36559   3.196   0.746   6.738 -0.3474 -0.2939 -0.0187
 8367SOL    HW136560   3.277   0.695   6.727 -0.3410 -0.0284 -1.1293
 8367SOL    HW236561   3.136   0.674   6.759 -1.3972  0.6246  0.1347
 8368SOL     OW36562   1.481   3.187   2.190 -0.2178 -0.3290  0.1128
 8368SOL    HW136563   1.533   3.252   2.237  0.4041  0.7650 -2.0791
 8368SOL    HW236564   1.532   3.106   2.203  0.2704 -0.0170  0.1479
 8369SOL     OW36565   4.629   0.029   5.236 -0.3197 -0.2038 -0.2282
 8369SOL    HW136566   4.680   0.087   5.294 -0.7922  0.2986 -0.3178
 8369SOL    HW236567   4.655   0.061   5.150 -0.5921 -2.3153 -1.1006
 8370SOL     OW36568   1.704   4.536  15.909 -0.1643 -0.3525  0.0383
 8370SOL    HW136569   1.686   4.572  15.822 -2.0823 -1.5838 -0.0819
 8370SOL    HW236570   1.690   4.441  15.916 -2.3069  0.1500  2.5643
 8371SOL     OW36571   2.486   2.144   7.839 -0.1693 -0.1678 -0.4684
 8371SOL    HW136572   2.416   2.209   7.837 -2.1169 -2.2190  0.8963
 8371SOL    HW236573   2.568   2.192   7.829 -0.3683  0.5854  1.6696
 8372SOL     OW36574   3.779   0.018   2.177 -0.7915 -0.2419  0.4278
 8372SOL    HW136575   3.816   4.717   2.092 -0.2830 -0.0452  0.5869
 8372SOL    HW236576   3.828   4.701   2.247  0.8089 -0.7197 -0.9583
 8373SOL     OW36577   2.757   4.487  17.457  0.1056 -0.6509  0.1301
 8373SOL    HW136578   2.767   4.477  17.362 -1.2506 -1.7522  0.1059
 8373SOL    HW236579   2.775   4.397  17.486  0.3056 -1.1577 -1.5832
 8374SOL     OW36580   2.291   4.421   1.611 -0.1705 -0.3524 -0.8981
 8374SOL    HW136581   2.259   4.500   1.654  0.1972  0.5345 -2.2812
 8374SOL    HW236582   2.224   4.407   1.544 -2.2686  1.8788  0.7522
 8375SOL     OW36583   4.421   0.426  17.179 -0.0002  1.2379  0.0101
 8375SOL    HW136584   4.436   0.337  17.210 -0.0634  1.1630 -0.1742
 8375SOL    HW236585   4.494   0.463  17.228 -0.2478 -1.1077  2.1020
 8376SOL     OW36586   2.022   4.486  11.276  0.1328 -0.4293  0.2247
 8376SOL    HW136587   2.037   4.465  11.184 -2.1322 -1.0947  0.0048
 8376SOL    HW236588   1.990   4.576  11.280  1.2276 -0.0535  0.6184
 8377SOL     OW36589   1.653   4.702  15.686 -0.2336  0.0648  0.4744
 8377SOL    HW136590   1.608   0.042  15.634 -0.2032 -0.1491  0.1813
 8377SOL    HW236591   1.745   0.002  15.686 -0.7345  1.8074  0.2459
 8378SOL     OW36592   2.527   4.228  12.110  0.1806 -0.0055 -0.2078
 8378SOL    HW136593   2.448   4.280  12.125  1.2077  1.1846  1.1174
 8378SOL    HW236594   2.599   4.290  12.098  0.5191 -0.4639 -0.5227
 8379SOL     OW36595   1.795   0.284  16.133 -0.2420  0.6851 -0.2429
 8379SOL    HW136596   1.816   0.191  16.128 -0.8405  0.6460 -1.9561
 8379SOL    HW236597   1.772   0.303  16.224  2.2569  1.3472  0.2552
 8380SOL     OW36598   3.404   4.594   9.900 -0.0157  0.3024 -0.5349
 8380SOL    HW136599   3.476   4.603   9.837  0.0008  0.6692 -0.4679
 8380SOL    HW236600   3.406   4.684   9.932  2.8324 -0.6994  2.0749
 8381SOL     OW36601   3.715   0.679  10.163 -0.8116  0.0183  0.2944
 8381SOL    HW136602   3.662   0.751  10.131 -0.2236 -0.0896 -0.9251
 8381SOL    HW236603   3.805   0.713  10.162 -1.2590  1.1376 -1.5656
 8382SOL     OW36604   3.869   2.319   4.815  0.2639  0.5838  0.0782
 8382SOL    HW136605   3.942   2.377   4.796  0.1458  0.0240 -2.0361
 8382SOL    HW236606   3.860   2.288   4.725 -2.5842 -1.0380  0.9010
 8383SOL     OW36607   3.575   4.067   7.882  0.1630  0.2950  0.6706
 8383SOL    HW136608   3.602   4.117   7.960  0.5048  1.1423  0.0045
 8383SOL    HW236609   3.554   3.988   7.931 -1.8463 -0.1106 -0.8495
 8384SOL     OW36610   0.238   1.081   0.932  0.5140 -0.4130 -0.2703
 8384SOL    HW136611   0.309   1.098   0.871 -0.2922 -0.9687 -1.3579
 8384SOL    HW236612   0.280   1.031   1.002 -0.3679  0.7297  1.0700
 8385SOL     OW36613   4.510   1.694  11.207  0.1159 -0.1879 -0.3142
 8385SOL    HW136614   4.569   1.767  11.189  2.8990 -2.0402  1.4498
 8385SOL    HW236615   4.575   1.636  11.245  0.4078  0.3055 -0.0680
 8386SOL     OW36616   3.838   1.077   0.420 -0.6768 -0.1186 -0.1305
 8386SOL    HW136617   3.812   1.031   0.500 -1.8029  0.0557 -0.3953
 8386SOL    HW236618   3.815   1.164   0.451 -1.4162  0.7505 -3.2082
 8387SOL     OW36619   2.411   3.415   7.761  0.0343 -0.1391  0.8451
 8387SOL    HW136620   2.355   3.339   7.745  0.2130 -0.4402  1.6854
 8387SOL    HW236621   2.413   3.425   7.856  0.5690 -0.3745  0.8596
 8388SOL     OW36622   0.265   0.690   0.934 -0.0447 -0.1938 -0.2831
 8388SOL    HW136623   0.272   0.602   0.971  1.8150 -0.6716 -1.8098
 8388SOL    HW236624   0.177   0.721   0.958  0.1532  0.1677 -0.0189
 8389SOL     OW36625   3.765   2.738   7.199 -0.1494  0.6169  0.0608
 8389SOL    HW136626   3.847   2.714   7.241 -0.4877  1.6302  1.2756
 8389SOL    HW236627   3.772   2.717   7.105 -1.3144  1.9085 -0.3106
 8390SOL     OW36628   0.460   0.330  12.599  0.6527 -0.1376  0.6268
 8390SOL    HW136629   0.437   0.261  12.537  0.7457  0.4902 -0.1155
 8390SOL    HW236630   0.459   0.282  12.682 -0.3368 -1.5879 -0.2348
 8391SOL     OW36631   4.584   1.768   4.576  0.0263 -0.0009  0.2249
 8391SOL    HW136632   4.546   1.823   4.507  0.4333 -0.8159 -0.6538
 8391SOL    HW236633   4.558   1.823   4.650 -0.1504 -0.7677  0.7283
 8392SOL     OW36634   4.111   3.244   5.013  0.2236 -0.0764 -0.3706
 8392SOL    HW136635   4.136   3.334   4.990  0.9009  0.0716  0.9211
 8392SOL    HW236636   4.151   3.204   4.936  2.3280  0.6992  0.3357
 8393SOL     OW36637   3.143   3.519   2.017  0.1138 -0.0152 -0.1674
 8393SOL    HW136638   3.132   3.454   1.948 -0.6007  0.6832 -0.7149
 8393SOL    HW236639   3.113   3.596   1.968 -0.6061 -0.3069 -0.1849
 8394SOL     OW36640   1.000   3.454  15.619  0.1307 -0.1148 -0.2368
 8394SOL    HW136641   0.956   3.536  15.596 -0.8948 -0.5485  0.1852
 8394SOL    HW236642   0.929   3.392  15.599  0.1412 -0.0706 -0.4118
 8395SOL     OW36643   3.556   3.219   6.079  0.4221 -0.3339  0.0461
 8395SOL    HW136644   3.613   3.155   6.122 -2.4289 -1.5888  1.9677
 8395SOL    HW236645   3.482   3.163   6.053  0.6928 -0.1028 -1.2428
 8396SOL     OW36646   1.965   3.773   0.055  0.1081 -0.0308 -0.1135
 8396SOL    HW136647   1.945   3.832  17.686 -0.4667 -0.7354 -0.5299
 8396SOL    HW236648   1.912   3.699   0.025 -0.5654  0.2113  0.4547
 8397SOL     OW36649   0.132   2.237   5.968  0.3971  0.4169 -0.4097
 8397SOL    HW136650   0.123   2.267   5.877  0.0275 -2.3211 -1.2633
 8397SOL    HW236651   0.046   2.254   6.006  1.6173  2.3862  1.4593
 8398SOL     OW36652   4.304   1.482   3.975 -0.2087  0.6926  0.7544
 8398SOL    HW136653   4.359   1.405   3.988 -1.2348 -0.2262 -0.4133
 8398SOL    HW236654   4.216   1.449   3.991 -0.2017  1.4637  2.3359
 8399SOL     OW36655   0.916   1.509   2.781 -0.1127  0.2473 -0.3083
 8399SOL    HW136656   0.898   1.418   2.759  0.2313  0.3043 -0.8311
 8399SOL    HW236657   0.971   1.532   2.706  1.1779  0.5729  0.7234
 8400SOL     OW36658   3.235   1.632   0.333  0.0098 -0.7226 -0.3939
 8400SOL    HW136659   3.236   1.542   0.365  0.3212 -1.2552 -1.9107
 8400SOL    HW236660   3.298   1.635   0.261  0.3069 -1.2977 -0.1519
 8401SOL     OW36661   2.704   0.819   4.174 -0.4433 -0.7758  0.1819
 8401SOL    HW136662   2.639   0.873   4.129 -0.3985 -1.4454 -0.6723
 8401SOL    HW236663   2.775   0.884   4.177 -2.6407  1.6883 -0.4691
 8402SOL     OW36664   3.898   1.458   8.423  0.1266 -0.8811 -0.1026
 8402SOL    HW136665   3.990   1.462   8.449  0.1284  0.8611 -0.4281
 8402SOL    HW236666   3.861   1.445   8.511  0.6791  1.1105  0.4246
 8403SOL     OW36667   1.141   3.861   6.940 -0.1564  0.3964  0.6669
 8403SOL    HW136668   1.217   3.913   6.967  0.5947  0.6908 -2.0123
 8403SOL    HW236669   1.099   3.844   7.024  2.6990 -0.6938  1.8922
 8404SOL     OW36670   4.296   3.705   1.598  0.3120 -0.3820 -0.7096
 8404SOL    HW136671   4.298   3.765   1.523  1.6785 -0.3896 -0.6855
 8404SOL    HW236672   4.203   3.723   1.615  0.5488  0.9582 -0.8284
 8405SOL     OW36673   3.069   0.839   3.786 -0.0902  0.1016 -0.2798
 8405SOL    HW136674   3.056   0.864   3.878 -3.0791  1.5009 -1.0746
 8405SOL    HW236675   3.044   0.925   3.750 -0.0683 -0.2263 -1.0741
 8406SOL     OW36676   3.103   4.146   1.800  0.1300  0.0820 -0.0848
 8406SOL    HW136677   3.028   4.087   1.801  0.5339 -0.4182  0.8418
 8406SOL    HW236678   3.139   4.153   1.711  0.3853  0.7541  0.0680
 8407SOL     OW36679   1.974   4.025   4.527  0.1501 -0.4748 -0.2167
 8407SOL    HW136680   2.003   4.116   4.529  0.0974 -0.4798  0.9519
 8407SOL    HW236681   1.964   4.003   4.435 -1.6019 -1.0512  0.1206
 8408SOL     OW36682   2.004   0.405   2.326  0.6223 -0.0331 -0.6557
 8408SOL    HW136683   1.968   0.359   2.251  0.1275  1.5682 -1.3910
 8408SOL    HW236684   1.977   0.494   2.306 -1.0391 -0.4664 -0.2937
 8409SOL     OW36685   1.084   0.969   8.207  0.1130 -0.3962 -0.1884
 8409SOL    HW136686   1.051   0.990   8.295 -1.3288 -0.7654 -0.6441
 8409SOL    HW236687   1.121   1.054   8.184  2.4049 -0.4650  3.1163
 8410SOL     OW36688   2.732   1.221   0.760  0.3173  0.2081  0.0335
 8410SOL    HW136689   2.784   1.188   0.833  1.6180  0.5837 -0.7171
 8410SOL    HW236690   2.653   1.254   0.803 -0.3578 -0.7105 -0.4785
 8411SOL     OW36691   1.590   3.356  17.242  0.3727 -0.3793 -0.5589
 8411SOL    HW136692   1.593   3.447  17.271  0.1192 -0.4550 -0.2907
 8411SOL    HW236693   1.677   3.325  17.266  0.2697  1.1139  1.7195
 8412SOL     OW36694   1.053   1.762  12.970  0.0221  0.4145 -0.0433
 8412SOL    HW136695   1.047   1.683  12.916  0.8582  0.7203 -0.5787
 8412SOL    HW236696   0.962   1.791  12.963 -0.1332 -0.5112 -1.8856
 8413SOL     OW36697   2.628   1.724   9.725 -0.3103  0.4789 -0.0126
 8413SOL    HW136698   2.720   1.716   9.747  0.0190 -0.2473 -1.6888
 8413SOL    HW236699   2.598   1.635   9.744  0.8351 -0.1213 -1.0201
 8414SOL     OW36700   2.587   3.319   3.440 -0.0195 -0.1662 -0.9446
 8414SOL    HW136701   2.607   3.348   3.529  0.1470  0.7427 -1.2746
 8414SOL    HW236702   2.651   3.358   3.381  2.2558 -1.5348  0.6333
 8415SOL     OW36703   0.814   1.434   3.564  0.4182  0.5032 -0.3651
 8415SOL    HW136704   0.905   1.458   3.546  0.5331  0.1907 -0.2032
 8415SOL    HW236705   0.797   1.381   3.486  0.0176 -0.0190  0.0820
 8416SOL     OW36706   0.104   1.544   0.435 -0.2487  0.1265  0.2674
 8416SOL    HW136707   0.117   1.558   0.529  0.8070 -0.0515  0.1460
 8416SOL    HW236708   0.130   1.630   0.400  1.2394 -0.4479 -0.0314
 8417SOL     OW36709   1.477   4.132   2.249 -0.1997 -0.3713 -0.2724
 8417SOL    HW136710   1.425   4.086   2.314 -0.0741  0.7327  0.6122
 8417SOL    HW236711   1.410   4.134   2.180 -0.0282  1.1393 -0.4009
 8418SOL     OW36712   1.627   4.322  16.502  0.2563  0.5646 -0.4313
 8418SOL    HW136713   1.719   4.345  16.511  0.0123  0.7525  1.7255
 8418SOL    HW236714   1.585   4.408  16.504 -0.0756  0.3509  1.7738
 8419SOL     OW36715   3.713   4.356  16.546 -0.1412 -0.3726  0.1754
 8419SOL    HW136716   3.681   4.445  16.528  0.4679  0.1900  1.8726
 8419SOL    HW236717   3.802   4.374  16.577  0.5868 -1.4485 -1.3069
 8420SOL     OW36718   0.035   2.791   3.451 -0.6053  0.0625  0.1951
 8420SOL    HW136719   0.126   2.782   3.423 -0.7284 -0.4928 -0.0239
 8420SOL    HW236720   0.044   2.815   3.544 -0.7706 -2.7593  0.9629
 8421SOL     OW36721   2.558   0.413  14.761 -0.3173 -0.1782 -0.4630
 8421SOL    HW136722   2.503   0.438  14.834  1.4945  1.2523  0.3888
 8421SOL    HW236723   2.613   0.349  14.806  0.4501  0.1485 -0.9244
 8422SOL     OW36724   1.365   1.017   2.729  0.6901 -0.0177  0.3878
 8422SOL    HW136725   1.435   0.974   2.680 -0.0812  0.7622 -1.4071
 8422SOL    HW236726   1.396   1.107   2.739  0.8972 -0.2574  1.8823
 8423SOL     OW36727   1.831   3.840  15.034  0.7697 -0.5061  0.6219
 8423SOL    HW136728   1.883   3.908  14.991  0.5830 -1.2335 -0.7715
 8423SOL    HW236729   1.891   3.822  15.106  1.9735 -0.8957 -0.4838
 8424SOL     OW36730   3.862   1.823  13.413  0.0309  0.0891  0.4248
 8424SOL    HW136731   3.874   1.892  13.348 -2.4247  0.9038  0.8309
 8424SOL    HW236732   3.892   1.860  13.496  2.0678 -2.0445  0.6451
 8425SOL     OW36733   4.700   0.819   0.694  0.1619 -0.2419  0.1882
 8425SOL    HW136734   4.670   0.760   0.625 -1.1101  1.0677 -0.3822
 8425SOL    HW236735   0.033   0.755   0.735  0.1154  0.1404  0.8461
 8426SOL     OW36736   1.510   0.923  12.354 -0.2651 -0.4769  0.1548
 8426SOL    HW136737   1.520   0.896  12.263  1.3085 -1.1772  0.5419
 8426SOL    HW236738   1.603   0.935  12.372 -0.2196 -2.3011  1.1393
 8427SOL     OW36739   3.890   4.437   4.245  0.5067  0.0293  0.0869
 8427SOL    HW136740   3.850   4.514   4.284  0.2079  0.1981 -0.5480
 8427SOL    HW236741   3.883   4.371   4.314 -1.2368 -1.7898 -1.8338
 8428SOL     OW36742   4.532   3.552  14.238 -0.1131  0.4701  0.5172
 8428SOL    HW136743   4.457   3.611  14.241  0.4282  1.1377  0.8114
 8428SOL    HW236744   4.573   3.590  14.316  1.2060  0.5888 -0.2375
 8429SOL     OW36745   4.094   3.087   4.233  0.2785 -0.2238  0.1830
 8429SOL    HW136746   4.002   3.086   4.206 -0.0820 -0.6752  1.4126
 8429SOL    HW236747   4.076   3.115   4.323  0.2019  2.2080 -0.5875
 8430SOL     OW36748   2.573   1.210   0.521 -0.0282 -0.2912 -0.0872
 8430SOL    HW136749   2.628   1.202   0.600 -1.3942 -2.9894  0.5835
 8430SOL    HW236750   2.626   1.151   0.468  1.3110  1.2854 -0.4992
 8431SOL     OW36751   3.862   3.591   5.350  0.0891 -0.2030  0.0317
 8431SOL    HW136752   3.844   3.605   5.443 -1.8716  0.4497 -0.4364
 8431SOL    HW236753   3.957   3.582   5.347 -0.1138 -2.1991  0.0580
 8432SOL     OW36754   2.965   0.673  10.018  0.0300  0.4858  0.1925
 8432SOL    HW136755   2.962   0.685  10.113  0.8067  0.3945  0.2253
 8432SOL    HW236756   2.902   0.602  10.004  1.0363 -0.4376  0.3648
 8433SOL     OW36757   2.993   3.748   1.895  0.2203  0.1385  0.6918
 8433SOL    HW136758   2.964   3.813   1.831 -2.1191  0.3281  1.9597
 8433SOL    HW236759   2.921   3.772   1.954 -0.2783  0.5743 -0.0905
 8434SOL     OW36760   1.703   3.321   5.114 -0.1551 -0.2855  0.0214
 8434SOL    HW136761   1.642   3.295   5.183 -0.1117  2.6460  1.1490
 8434SOL    HW236762   1.768   3.375   5.159  0.7757 -0.1768 -1.4455
 8435SOL     OW36763   0.646   2.674   0.057  0.8400  0.8289  0.6955
 8435SOL    HW136764   0.564   2.673   0.107 -0.1047  0.3852 -0.8688
 8435SOL    HW236765   0.705   2.732   0.104  1.1199  1.0099  0.1119
 8436SOL     OW36766   3.517   3.069  12.612  0.4863 -0.1425 -0.0227
 8436SOL    HW136767   3.601   3.065  12.565  0.5704  1.3462  0.0086
 8436SOL    HW236768   3.458   3.064  12.536  1.2505 -1.6344 -0.5147
 8437SOL     OW36769   1.886   2.296  10.298  0.3788  0.0060  0.1381
 8437SOL    HW136770   1.844   2.347  10.367 -0.1821 -1.4734  0.8858
 8437SOL    HW236771   1.843   2.339  10.225 -0.7502 -2.2100 -0.4848
 8438SOL     OW36772   0.783   4.168   3.783  0.3576  0.0962 -0.6739
 8438SOL    HW136773   0.874   4.160   3.811 -0.0524 -4.0894 -0.5438
 8438SOL    HW236774   0.789   4.153   3.689 -1.2175  0.5267 -0.8501
 8439SOL     OW36775   3.005   3.663   7.416 -0.0148 -0.1490 -0.0397
 8439SOL    HW136776   2.968   3.626   7.496  0.5023 -1.1468 -0.2674
 8439SOL    HW236777   3.094   3.636   7.436  0.1269  1.3301  1.3288
 8440SOL     OW36778   2.025   2.784   1.891 -0.4369  0.2989 -0.0271
 8440SOL    HW136779   2.014   2.870   1.850 -1.4584 -1.0696 -2.5750
 8440SOL    HW236780   1.997   2.727   1.820 -0.6818 -1.6573  1.6402
 8441SOL     OW36781   4.652   3.859  14.611  0.0326 -0.1667 -0.0234
 8441SOL    HW136782   4.590   3.918  14.569 -1.3613 -0.6245  1.3999
 8441SOL    HW236783   0.003   3.917  14.610  0.3658 -0.6232 -1.2176
 8442SOL     OW36784   0.131   2.122   5.470  0.4571  0.0290  0.5315
 8442SOL    HW136785   0.185   2.044   5.484  0.2891  0.2141  2.1846
 8442SOL    HW236786   0.048   2.074   5.465  0.2557  0.5476 -1.3649
 8443SOL     OW36787   0.742   0.996   5.493  0.4428  0.4761  0.0437
 8443SOL    HW136788   0.680   1.019   5.563 -0.1439  1.1667 -0.7006
 8443SOL    HW236789   0.821   1.008   5.545 -0.6431 -0.3611  1.8867
 8444SOL     OW36790   3.214   2.323   7.481 -0.1546 -0.4493  0.0338
 8444SOL    HW136791   3.244   2.240   7.520  1.8720  0.7712  1.0754
 8444SOL    HW236792   3.197   2.304   7.389 -0.3147  1.2603 -0.2820
 8445SOL     OW36793   3.664   0.723   8.189  0.6647 -0.7516  0.0881
 8445SOL    HW136794   3.644   0.792   8.252  2.7361  1.0604 -1.2200
 8445SOL    HW236795   3.671   0.651   8.252 -3.2304 -0.6759  0.5735
 8446SOL     OW36796   1.901   0.919   0.734 -0.1769 -0.2544  0.4698
 8446SOL    HW136797   1.837   0.919   0.806  0.7156 -0.4175  1.2553
 8446SOL    HW236798   1.841   0.895   0.663  0.4738  0.4677 -0.3233
 8447SOL     OW36799   4.422   0.990   9.779 -0.6911  0.0956  0.3325
 8447SOL    HW136800   4.485   0.932   9.823 -0.4687  0.3855  0.3963
 8447SOL    HW236801   4.450   0.987   9.688 -0.4440 -1.4304  0.4524
 8448SOL     OW36802   1.278   0.162   5.212 -0.2272  0.5838 -0.0654
 8448SOL    HW136803   1.218   0.157   5.287  0.9634  1.6716  0.9771
 8448SOL    HW236804   1.366   0.169   5.249 -0.5037  1.4454  0.4333
 8449SOL     OW36805   4.302   0.941   4.031  0.3428  0.7174  0.7052
 8449SOL    HW136806   4.261   0.926   4.116  1.6890  0.9706  1.3991
 8449SOL    HW236807   4.255   0.869   3.990  0.8011 -1.4538  4.0295
 8450SOL     OW36808   0.464   3.786   8.707  0.0354 -0.2799 -0.0756
 8450SOL    HW136809   0.462   3.835   8.789  1.9546 -1.7444  0.8292
 8450SOL    HW236810   0.429   3.850   8.645 -2.6263 -0.7411  0.9332
 8451SOL     OW36811   4.306   2.080  14.612  0.4502  0.2521  0.0170
 8451SOL    HW136812   4.255   2.095  14.533  0.9815  2.3539  0.0701
 8451SOL    HW236813   4.369   2.152  14.610  1.4948 -0.6245  1.0419
 8452SOL     OW36814   1.448   4.330   8.895 -0.2885 -0.4565  0.3540
 8452SOL    HW136815   1.416   4.410   8.938  0.2282 -0.4227  0.6788
 8452SOL    HW236816   1.370   4.276   8.881 -0.6287 -0.5422  2.4619
 8453SOL     OW36817   2.665   4.064  13.372 -0.3896  0.5476 -0.2429
 8453SOL    HW136818   2.571   4.049  13.374 -0.0026 -1.3549  3.9423
 8453SOL    HW236819   2.664   4.080  13.467 -0.4684 -3.4196  0.4334
 8454SOL     OW36820   4.576   2.231   8.330 -0.1312  0.5308 -0.1132
 8454SOL    HW136821   4.644   2.197   8.272  0.2738  0.3163  0.4877
 8454SOL    HW236822   4.618   2.239   8.416 -0.8411 -0.6899  0.3525
 8455SOL     OW36823   0.818   4.155   4.689  0.0831 -1.0721  0.2431
 8455SOL    HW136824   0.887   4.190   4.632  0.8886 -0.4995  1.5542
 8455SOL    HW236825   0.866   4.113   4.761  0.1214 -0.1977  0.7342
 8456SOL     OW36826   0.700   2.659   4.748  0.0015  0.3334  0.5539
 8456SOL    HW136827   0.771   2.634   4.807  0.5011  0.3595 -0.0280
 8456SOL    HW236828   0.633   2.696   4.806 -0.5671  0.3189 -0.0984
 8457SOL     OW36829   4.410   3.862   5.146 -0.7592 -0.0871  0.2942
 8457SOL    HW136830   4.489   3.915   5.152 -0.4931 -0.3645 -0.6458
 8457SOL    HW236831   4.365   3.898   5.222 -1.6576 -0.0743 -0.2364
 8458SOL     OW36832   2.607   4.172   2.647 -0.2029  0.5876  0.2965
 8458SOL    HW136833   2.693   4.208   2.624  0.8484 -2.9666 -1.3048
 8458SOL    HW236834   2.607   4.203   2.738 -1.1938  2.3485 -0.3164
 8459SOL     OW36835   1.029   0.289  14.465 -0.4791  0.1270 -0.2143
 8459SOL    HW136836   0.950   0.330  14.429  0.9315 -0.9528 -4.5467
 8459SOL    HW236837   1.066   0.361  14.516  1.3606 -0.5800 -0.5591
 8460SOL     OW36838   2.638   2.269  13.343  0.1600 -0.0527 -0.2595
 8460SOL    HW136839   2.628   2.270  13.438  1.0072 -0.0775 -0.1751
 8460SOL    HW236840   2.617   2.362  13.331 -0.4216 -0.1868 -0.3133
 8461SOL     OW36841   1.154   3.515  10.619  0.0350  0.5357 -0.1671
 8461SOL    HW136842   1.131   3.570  10.694 -4.2795  1.3239 -2.1165
 8461SOL    HW236843   1.139   3.431  10.663  0.5475 -0.6144 -2.1743
 8462SOL     OW36844   2.786   4.289   2.852 -0.2920  0.2007 -0.0369
 8462SOL    HW136845   2.757   4.218   2.908 -2.6263  2.1092  1.1835
 8462SOL    HW236846   2.880   4.270   2.849 -0.5928 -1.3300  0.5309
 8463SOL     OW36847   3.427   1.049   7.770  0.1140 -0.2030  0.2133
 8463SOL    HW136848   3.406   1.005   7.687  2.6523 -0.7954 -0.1206
 8463SOL    HW236849   3.380   0.994   7.832  0.5972  0.5394  1.2348
 8464SOL     OW36850   1.210   3.142   5.629 -0.6621  0.0955  0.2162
 8464SOL    HW136851   1.304   3.122   5.636 -0.6984 -0.1623 -0.0244
 8464SOL    HW236852   1.178   3.052   5.626 -0.0376 -0.1168 -0.2035
 8465SOL     OW36853   4.518   2.542   8.561  0.4654 -0.1744  0.3240
 8465SOL    HW136854   4.562   2.517   8.643 -0.9560 -0.4197  1.0116
 8465SOL    HW236855   4.579   2.509   8.496  1.4661  0.8783  0.7236
 8466SOL     OW36856   4.436   2.492   3.366  0.0745 -0.2111  0.2049
 8466SOL    HW136857   4.509   2.540   3.328 -0.2176 -0.4007 -0.5999
 8466SOL    HW236858   4.401   2.455   3.285 -0.2311 -0.1717  0.3195
 8467SOL     OW36859   3.402   2.121  12.942  0.7668 -0.2659  0.4068
 8467SOL    HW136860   3.311   2.090  12.937  0.9562 -1.1227  2.3645
 8467SOL    HW236861   3.398   2.186  13.011  2.4897  0.2699 -0.0027
 8468SOL     OW36862   3.360   1.062  17.662  0.1777 -0.0491 -0.0722
 8468SOL    HW136863   3.454   1.044  17.658  0.0222 -1.1298  1.3702
 8468SOL    HW236864   3.352   1.126   0.030  2.3232  0.7411 -0.5273
 8469SOL     OW36865   3.389   4.321   4.352 -0.1805  0.1584 -0.0754
 8469SOL    HW136866   3.382   4.246   4.412 -0.6329  0.2619  0.0055
 8469SOL    HW236867   3.319   4.304   4.289  0.9969  0.7445 -1.5269
 8470SOL     OW36868   1.997   3.539  17.553 -0.4608 -0.0636  0.2097
 8470SOL    HW136869   1.908   3.560  17.582 -0.5851  1.3120 -1.1566
 8470SOL    HW236870   2.000   3.594  17.475 -1.7010 -1.3721 -0.7440
 8471SOL     OW36871   1.785   4.268   3.701  0.4359  0.3926 -0.5387
 8471SOL    HW136872   1.809   4.357   3.727 -1.5364  0.3469  1.5271
 8471SOL    HW236873   1.825   4.215   3.770 -1.7840  0.3038  0.7081
 8472SOL     OW36874   4.337   2.656  15.109  0.5941 -0.0121  0.5045
 8472SOL    HW136875   4.271   2.711  15.150 -0.4476  0.0494 -1.2569
 8472SOL    HW236876   4.281   2.582  15.085 -0.7501  0.9674  0.6562
 8473SOL     OW36877   1.890   0.480  11.987 -0.3206  0.5238  0.0421
 8473SOL    HW136878   1.949   0.553  11.966 -1.1307  0.7355 -1.5250
 8473SOL    HW236879   1.894   0.441  11.899  0.2316 -2.3509  1.3421
 8474SOL     OW36880   1.445   0.249   7.780 -0.5519 -0.0368 -0.1788
 8474SOL    HW136881   1.363   0.273   7.736  0.5932  3.6377 -0.3135
 8474SOL    HW236882   1.445   0.314   7.850 -2.0299  0.1919 -0.3707
 8475SOL     OW36883   2.951   2.329   3.304 -0.2520  0.7335 -0.5407
 8475SOL    HW136884   2.944   2.423   3.325 -1.1080  0.7760 -1.0040
 8475SOL    HW236885   2.886   2.333   3.233 -1.2313  3.1376  0.4772
 8476SOL     OW36886   1.691   3.612   4.449  0.6363  0.6192  0.2734
 8476SOL    HW136887   1.664   3.669   4.377  1.1572 -0.2828 -0.6368
 8476SOL    HW236888   1.771   3.651   4.484  0.7501  0.7721 -0.1570
 8477SOL     OW36889   0.771   1.524  13.993  0.1155  0.2293  0.4404
 8477SOL    HW136890   0.745   1.475  14.072  0.8128 -0.4734  0.2310
 8477SOL    HW236891   0.700   1.511  13.930  0.2798  1.1425  0.0682
 8478SOL     OW36892   0.452   1.094   6.350 -0.6887 -0.1218 -0.2752
 8478SOL    HW136893   0.503   1.090   6.431 -1.6966  0.4781  0.3767
 8478SOL    HW236894   0.379   1.033   6.362  0.1420 -0.7019  1.9128
 8479SOL     OW36895   3.948   0.551   6.543 -0.3352 -0.3544  0.4087
 8479SOL    HW136896   3.991   0.471   6.512 -1.4579 -0.2967 -1.2782
 8479SOL    HW236897   3.886   0.514   6.605 -0.3358 -2.0225 -0.5978
 8480SOL     OW36898   1.254   4.217  16.995 -0.2051  0.3599  0.4928
 8480SOL    HW136899   1.329   4.161  16.973 -3.1018 -3.1089 -0.4529
 8480SOL    HW236900   1.269   4.214  17.089  0.7522  1.6993  0.3870
 8481SOL     OW36901   2.206   4.508  11.497 -0.1951  0.3229 -1.1108
 8481SOL    HW136902   2.143   4.522  11.427 -0.6285 -1.1545 -1.0066
 8481SOL    HW236903   2.278   4.463  11.454  2.1247  2.4347  0.5202
 8482SOL     OW36904   1.291   2.320   6.742 -0.0949  0.6189  0.4168
 8482SOL    HW136905   1.352   2.292   6.674 -1.5765  1.1835 -1.1417
 8482SOL    HW236906   1.304   2.415   6.742 -0.0991  0.6245 -2.2189
 8483SOL     OW36907   0.776   4.651   3.218  0.4637 -0.0221  0.8103
 8483SOL    HW136908   0.773   0.019   3.199  4.6969  0.4482  2.4922
 8483SOL    HW236909   0.867   4.644   3.246  1.2064 -0.0370 -1.5988
 8484SOL     OW36910   0.616   3.930  15.019 -0.1924 -0.1357  0.1686
 8484SOL    HW136911   0.658   3.918  14.934 -0.0499  0.0294  0.2166
 8484SOL    HW236912   0.656   3.860  15.071  0.8551 -0.0391 -0.5207
 8485SOL     OW36913   2.075   0.904   3.781 -0.2318  0.0799  0.1166
 8485SOL    HW136914   2.079   0.812   3.756 -0.9624 -0.0908  0.6405
 8485SOL    HW236915   2.047   0.900   3.873  0.1718 -2.6219  0.1055
 8486SOL     OW36916   0.991   2.359  16.721  0.8509 -0.1319 -0.0376
 8486SOL    HW136917   0.946   2.333  16.641  0.0917 -0.0580  0.3642
 8486SOL    HW236918   0.975   2.276  16.765 -1.0250 -0.6974 -1.8113
 8487SOL     OW36919   3.528   3.108   8.522 -0.8273 -0.3437  0.4757
 8487SOL    HW136920   3.441   3.144   8.504  0.2230  1.2035 -1.3829
 8487SOL    HW236921   3.541   3.142   8.611 -1.4069 -0.2393  0.5201
 8488SOL     OW36922   3.068   2.120   1.579 -0.2843 -0.0959  0.0423
 8488SOL    HW136923   3.089   2.151   1.666  2.0839 -1.1366 -0.1593
 8488SOL    HW236924   3.157   2.104   1.547  0.1343 -0.9604  1.6369
 8489SOL     OW36925   3.612   4.040  13.461  0.0440  0.2735 -0.6217
 8489SOL    HW136926   3.681   3.993  13.507  1.6570  2.7514 -0.4704
 8489SOL    HW236927   3.558   3.971  13.423  1.4590 -0.5809 -1.0652
 8490SOL     OW36928   4.715   3.240  16.345 -0.1699 -0.4131 -0.2489
 8490SOL    HW136929   4.636   3.262  16.295 -0.8276 -0.5691  0.7080
 8490SOL    HW236930   0.044   3.215  16.271  1.0762 -0.6632  0.7547
 8491SOL     OW36931   1.193   4.557   0.184 -0.0859 -0.2563 -0.0810
 8491SOL    HW136932   1.190   4.628   0.248  1.9618 -0.5024  0.2869
 8491SOL    HW236933   1.212   4.614   0.110  1.7507 -2.2962 -1.1674
 8492SOL     OW36934   0.753   2.653  15.930  0.0161  0.3867 -0.1139
 8492SOL    HW136935   0.813   2.709  15.879  0.2639 -0.7296 -1.0376
 8492SOL    HW236936   0.678   2.635  15.873 -0.6496 -1.4772  1.3768
 8493SOL     OW36937   2.330   2.118   6.713  0.7323  0.5429 -0.3716
 8493SOL    HW136938   2.289   2.182   6.771 -0.3168  0.6786 -1.2496
 8493SOL    HW236939   2.358   2.042   6.762 -0.1730  1.2779  1.2859
 8494SOL     OW36940   4.648   1.862   3.165  0.5939 -0.3877 -0.1505
 8494SOL    HW136941   4.560   1.897   3.152  1.6098  1.4767 -1.9942
 8494SOL    HW236942   4.657   1.857   3.260  2.7121 -1.5409 -0.4017
 8495SOL     OW36943   1.355   4.068   8.476  0.4903  0.4806 -0.4261
 8495SOL    HW136944   1.371   4.153   8.518  0.5258  1.9184 -3.3704
 8495SOL    HW236945   1.302   4.096   8.402  0.3794 -1.5633 -1.1167
 8496SOL     OW36946   2.624   1.741   3.127 -0.7855 -0.0422  0.3037
 8496SOL    HW136947   2.611   1.809   3.061 -0.7102 -0.0190  0.3128
 8496SOL    HW236948   2.702   1.778   3.169 -0.9188 -1.5935  1.9022
 8497SOL     OW36949   3.069   1.712   7.627 -0.3877  0.3229  0.0765
 8497SOL    HW136950   3.120   1.648   7.677 -0.7054  1.4565  1.8182
 8497SOL    HW236951   3.099   1.796   7.660 -1.3089  1.5096 -2.1041
 8498SOL     OW36952   3.477   4.701   3.791  0.1969  0.2348 -0.0787
 8498SOL    HW136953   3.511   4.658   3.870 -0.7098 -0.8258 -0.2754
 8498SOL    HW236954   3.544   0.044   3.782 -1.2586  1.3965 -2.0382
 8499SOL     OW36955   1.617   4.126   1.516  0.2391  0.4767 -0.7456
 8499SOL    HW136956   1.565   4.199   1.483  0.5383  1.3211  0.6764
 8499SOL    HW236957   1.648   4.157   1.601  0.1315  2.0104 -1.2623
 8500SOL     OW36958   2.579   2.197  10.990  0.8723  0.0353  0.4646
 8500SOL    HW136959   2.564   2.109  10.955  0.5239 -0.0105  0.7347
 8500SOL    HW236960   2.639   2.184  11.064  0.6663 -1.0333  0.4323
 8501SOL     OW36961   3.911   1.593   2.461  0.2038  0.4064 -0.2477
 8501SOL    HW136962   3.850   1.619   2.531 -1.6722 -2.2072 -0.9108
 8501SOL    HW236963   3.976   1.662   2.477 -2.7489  2.5074  2.7582
 8502SOL     OW36964   3.270   1.217   0.260 -0.0924  0.4337 -0.0459
 8502SOL    HW136965   3.281   1.247   0.351 -1.2317  2.5828 -0.6309
 8502SOL    HW236966   3.299   1.294   0.212 -2.5210  1.7871  0.6338
 8503SOL     OW36967   0.091   4.671  17.598 -0.2459  0.2076  0.1153
 8503SOL    HW136968   0.105   4.580  17.624 -0.2643  0.4274  0.8693
 8503SOL    HW236969   0.076   4.658  17.504  0.0556 -0.1075  0.1132
 8504SOL     OW36970   3.676   4.129   9.668 -0.7878 -0.6598  0.0079
 8504SOL    HW136971   3.612   4.197   9.646 -0.1289  0.4595  1.5745
 8504SOL    HW236972   3.668   4.073   9.591 -0.3597 -3.0364  1.7053
 8505SOL     OW36973   3.150   4.397   0.578 -0.7026  0.1959 -0.7517
 8505SOL    HW136974   3.063   4.384   0.615  0.0775  1.2398  1.4811
 8505SOL    HW236975   3.124   4.394   0.486  0.9553  2.2296 -1.3129
 8506SOL     OW36976   4.401   0.508   9.002  0.7991 -0.1125  0.1310
 8506SOL    HW136977   4.448   0.433   9.038  0.0889 -0.2460  0.7864
 8506SOL    HW236978   4.468   0.557   8.955  1.4858 -0.4806  0.7301
 8507SOL     OW36979   4.214   0.672   5.304  0.0264  0.3194 -0.4254
 8507SOL    HW136980   4.158   0.749   5.315  0.2631  0.6909 -1.9406
 8507SOL    HW236981   4.224   0.665   5.209  0.1059 -2.5128 -0.2210
 8508SOL     OW36982   3.350   4.174  13.858  0.1962 -0.3143 -0.5566
 8508SOL    HW136983   3.323   4.099  13.911 -0.6169  0.2935 -0.1239
 8508SOL    HW236984   3.349   4.138  13.769 -1.3842 -1.3178 -0.1217
 8509SOL     OW36985   0.514   1.882   5.393 -0.0272 -0.0861  0.0200
 8509SOL    HW136986   0.497   1.802   5.343 -0.3749 -0.8229  1.3236
 8509SOL    HW236987   0.538   1.945   5.325  2.5750 -1.0790  0.0293
 8510SOL     OW36988   4.101   0.949   4.900 -0.4683 -0.4629 -0.3448
 8510SOL    HW136989   4.190   0.936   4.931  0.8176  1.7580 -3.1388
 8510SOL    HW236990   4.100   0.873   4.840 -2.4270 -0.7859  0.0855
 8511SOL     OW36991   2.870   0.941  14.074 -0.1653  0.7555 -0.2392
 8511SOL    HW136992   2.952   0.985  14.095  0.5583 -0.5879 -0.2764
 8511SOL    HW236993   2.822   1.019  14.044 -0.8077 -0.0473 -1.2672
 8512SOL     OW36994   2.685   3.542   7.912  0.0438  0.2429 -0.2410
 8512SOL    HW136995   2.651   3.527   7.823 -1.2975  0.9895  0.1508
 8512SOL    HW236996   2.738   3.463   7.925  0.1844  0.5737  1.2033
 8513SOL     OW36997   1.183   1.687   2.339 -0.0832  0.2254  0.1794
 8513SOL    HW136998   1.165   1.606   2.292 -1.0719  1.4961 -1.6240
 8513SOL    HW236999   1.277   1.690   2.324 -0.1355 -1.1074 -0.4218
 8514SOL     OW37000   2.658   2.968   6.177 -0.4253  0.0388 -0.5006
 8514SOL    HW137001   2.616   2.970   6.091 -1.1794  1.5046 -0.0942
 8514SOL    HW237002   2.625   3.048   6.217 -4.8678 -1.1272 -1.7927
 8515SOL     OW37003   2.084   0.855   2.637  0.1524 -0.2452 -0.5857
 8515SOL    HW137004   2.080   0.941   2.679 -0.8321 -0.1166 -0.9655
 8515SOL    HW237005   2.024   0.866   2.564  0.6586 -0.0583 -0.9749
 8516SOL     OW37006   1.314   3.666   5.630  0.0177  0.5157 -0.0055
 8516SOL    HW137007   1.225   3.695   5.650 -0.5860 -1.2929 -0.0801
 8516SOL    HW237008   1.306   3.581   5.588 -0.8518 -0.1062  1.4253
 8517SOL     OW37009   0.008   3.177  15.806 -0.0811 -0.2091  0.1074
 8517SOL    HW137010   0.080   3.117  15.827 -1.2500 -1.2220  1.1651
 8517SOL    HW237011   0.014   3.174  15.711  3.1765  3.2272  0.2009
 8518SOL     OW37012   1.872   2.393   5.700 -0.4977 -0.4351  0.6655
 8518SOL    HW137013   1.843   2.431   5.782 -1.1302  0.4979  0.0123
 8518SOL    HW237014   1.949   2.344   5.730  1.3283  1.3641 -1.0820
 8519SOL     OW37015   3.831   4.499   5.836  0.0441 -0.0555  0.1174
 8519SOL    HW137016   3.804   4.425   5.889 -1.1929 -1.8505 -3.0384
 8519SOL    HW237017   3.879   4.455   5.765  1.0034  0.5635  0.3765
 8520SOL     OW37018   0.078   2.606   5.283 -0.1489  0.2545  0.0003
 8520SOL    HW137019   0.108   2.516   5.278  0.5256  0.3589  2.6571
 8520SOL    HW237020   0.032   2.611   5.367  1.9670  0.8722  1.1138
 8521SOL     OW37021   4.379   2.277   7.272  0.0798 -0.2621  0.3759
 8521SOL    HW137022   4.451   2.292   7.211  0.1033  0.9107  0.6823
 8521SOL    HW237023   4.423   2.228   7.342 -0.4703  1.5299  1.9989
 8522SOL     OW37024   0.584   4.550  13.752 -0.2739 -0.1183  0.4854
 8522SOL    HW137025   0.560   4.458  13.766  1.5921 -0.3717  2.0566
 8522SOL    HW237026   0.516   4.596  13.802  1.0854  1.1283  1.1650
 8523SOL     OW37027   1.266   2.425  10.789  0.2259 -0.0747  1.0383
 8523SOL    HW137028   1.293   2.348  10.839  3.6930 -1.5005 -2.9670
 8523SOL    HW237029   1.256   2.491  10.858  0.3210  0.3483  0.6504
 8524SOL     OW37030   3.800   4.405   3.989 -0.0376 -0.1630  0.0018
 8524SOL    HW137031   3.866   4.355   3.940 -2.1059 -2.5579 -0.3582
 8524SOL    HW237032   3.831   4.393   4.078  0.1522  0.0314 -0.0365
 8525SOL     OW37033   1.746   2.121   7.078  0.3631  0.2837 -0.9102
 8525SOL    HW137034   1.785   2.039   7.048 -0.7683  0.4257 -2.7717
 8525SOL    HW237035   1.739   2.104   7.172  1.0284 -0.3823 -0.9865
 8526SOL     OW37036   0.405   2.019   3.548  0.5403  0.6308 -0.3585
 8526SOL    HW137037   0.388   1.988   3.459 -0.7831  0.2591  0.0314
 8526SOL    HW237038   0.443   2.105   3.528 -2.3123  1.7788 -0.8126
 8527SOL     OW37039   4.701   3.179   9.341  0.1148  0.0638 -0.1371
 8527SOL    HW137040   0.067   3.207   9.339  0.0316  0.1024 -2.5793
 8527SOL    HW237041   4.663   3.246   9.398  0.6548 -0.0735  0.3902
 8528SOL     OW37042   0.014   0.893   4.943  0.1570 -0.1933 -0.2886
 8528SOL    HW137043   4.721   0.952   5.016  0.9858  0.6421 -0.7578
 8528SOL    HW237044   0.017   0.949   4.865 -0.9537  0.3942  0.0790
 8529SOL     OW37045   1.693   0.469   6.184  0.3925 -0.2996  0.0620
 8529SOL    HW137046   1.613   0.466   6.236 -1.7820 -0.3421 -3.2782
 8529SOL    HW237047   1.726   0.547   6.228  0.9870 -0.7556  0.4159
 8530SOL     OW37048   4.468   0.866   1.788 -0.4927  0.1328 -0.4476
 8530SOL    HW137049   4.508   0.946   1.753  0.7796  0.0247  0.7922
 8530SOL    HW237050   4.459   0.885   1.881 -0.8299 -4.7347  0.4697
 8531SOL     OW37051   3.745   3.855   6.054 -0.0036  0.3562  0.0176
 8531SOL    HW137052   3.783   3.927   6.105 -2.0850 -0.1425  2.2355
 8531SOL    HW237053   3.778   3.889   5.970 -0.5311  0.0273 -0.3227
 8532SOL     OW37054   0.433   1.406   6.934  0.5274  0.1368  0.2085
 8532SOL    HW137055   0.408   1.498   6.932  0.5749  0.1330 -0.5235
 8532SOL    HW237056   0.517   1.410   6.980  0.0075  1.2220  1.0477
 8533SOL     OW37057   4.138   4.502   1.088  0.0311  0.4826  0.3990
 8533SOL    HW137058   4.166   4.464   1.171  0.8954 -0.4228 -0.3084
 8533SOL    HW237059   4.123   4.424   1.034 -1.0710 -0.7159  2.4140
 8534SOL     OW37060   2.631   3.430  15.669  0.1615  0.0325  0.9978
 8534SOL    HW137061   2.636   3.336  15.682  1.8596 -0.0611 -0.3216
 8534SOL    HW237062   2.699   3.464  15.729 -0.1450 -0.2518  1.5023
 8535SOL     OW37063   1.102   1.275   7.374 -0.0692  0.4925 -0.3740
 8535SOL    HW137064   1.017   1.232   7.370  1.0689 -1.8282  0.6994
 8535SOL    HW237065   1.105   1.317   7.287 -0.4895  1.8755  0.2855
 8536SOL     OW37066   3.953   3.592  15.251 -0.5655  0.4308 -0.0460
 8536SOL    HW137067   3.890   3.535  15.205  0.5512  0.1710 -1.2368
 8536SOL    HW237068   3.912   3.677  15.233  1.8462  1.5388 -0.2632
 8537SOL     OW37069   0.469   4.049   3.948  0.3161  0.2145  0.5204
 8537SOL    HW137070   0.455   3.958   3.924 -0.0885  0.8826 -1.8022
 8537SOL    HW237071   0.432   4.049   4.036 -0.9174  0.4916  0.0065
 8538SOL     OW37072   2.668   4.463  16.702  0.2010 -0.5690  0.3861
 8538SOL    HW137073   2.687   4.523  16.630  0.5482 -1.0698  0.0576
 8538SOL    HW237074   2.737   4.399  16.685  2.2997  1.7739  0.0840
 8539SOL     OW37075   3.378   3.348   9.676  0.2415 -0.0863  0.2022
 8539SOL    HW137076   3.294   3.327   9.717 -0.4082 -3.4093 -2.8028
 8539SOL    HW237077   3.358   3.314   9.589  3.9230 -0.9470 -0.2689
 8540SOL     OW37078   3.650   2.805   3.035 -0.5583  0.2648 -0.3377
 8540SOL    HW137079   3.709   2.769   2.970  1.7871  1.5955  1.0706
 8540SOL    HW237080   3.571   2.810   2.981  0.9017 -0.3597 -2.5151
 8541SOL     OW37081   3.952   3.511   0.029  0.0901  0.3180  0.3633
 8541SOL    HW137082   3.940   3.420   0.057 -0.7441  0.9993  2.2679
 8541SOL    HW237083   3.975   3.562   0.107 -2.7045  3.0235 -0.5694
 8542SOL     OW37084   0.041   3.352  14.808 -0.2266 -0.2098 -0.1384
 8542SOL    HW137085   0.035   3.447  14.815  2.0023  0.0320 -1.3173
 8542SOL    HW237086   4.702   3.324  14.873  2.1710 -0.1433  2.2682
 8543SOL     OW37087   3.094   3.348   9.343  0.0197  0.5959 -0.4361
 8543SOL    HW137088   3.031   3.295   9.391 -0.1565  0.8839 -0.3507
 8543SOL    HW237089   3.058   3.355   9.254 -0.6888 -2.1118 -0.3531
 8544SOL     OW37090   3.304   1.657  13.505  0.2619  0.7557  0.0766
 8544SOL    HW137091   3.303   1.566  13.474  1.8478  0.4819  0.8153
 8544SOL    HW237092   3.263   1.635  13.588  1.2465 -1.2686  0.0319
 8545SOL     OW37093   1.389   2.824   4.883 -0.4767 -0.1359  0.4526
 8545SOL    HW137094   1.389   2.731   4.861  0.4148  0.3580 -1.5892
 8545SOL    HW237095   1.483   2.833   4.898  0.0066 -3.0742 -0.8555
 8546SOL     OW37096   2.594   0.161  14.081  0.1824  0.0002  0.0984
 8546SOL    HW137097   2.653   0.233  14.105  1.6304 -0.5821 -1.7223
 8546SOL    HW237098   2.646   0.134  14.005  0.6804 -1.5500  1.0018
 8547SOL     OW37099   3.629   1.687  13.484 -0.5095  0.0748 -1.0157
 8547SOL    HW137100   3.667   1.605  13.517 -0.6378 -0.1801 -1.5025
 8547SOL    HW237101   3.697   1.711  13.422  0.5595 -2.6464 -0.9053
 8548SOL     OW37102   4.262   0.906   0.208 -0.2325 -0.1155  0.0387
 8548SOL    HW137103   4.225   0.905   0.296  1.6243  2.1930  0.8651
 8548SOL    HW237104   4.207   0.976   0.173  1.1589 -0.2662 -2.4663
 8549SOL     OW37105   3.235   2.040   2.225  0.0674 -0.2023  1.0236
 8549SOL    HW137106   3.242   2.115   2.165  0.1078  0.3176  1.6746
 8549SOL    HW237107   3.257   1.968   2.166  0.1603  0.0531  0.7457
 8550SOL     OW37108   2.492   0.961  17.258  0.3351 -0.3014 -0.1077
 8550SOL    HW137109   2.420   0.947  17.197  0.3786  1.7172 -0.6331
 8550SOL    HW237110   2.537   0.877  17.253  0.2315 -0.4368  1.3022
 8551SOL     OW37111   2.197   4.201   4.094 -0.1877  0.2224 -0.1057
 8551SOL    HW137112   2.170   4.124   4.043  0.2119  1.0981 -1.6312
 8551SOL    HW237113   2.293   4.205   4.090 -0.2523  1.2569 -0.4746
 8552SOL     OW37114   1.772   2.080   1.439  0.0138 -0.7293  0.4310
 8552SOL    HW137115   1.677   2.085   1.456 -0.5882 -1.6725 -2.7639
 8552SOL    HW237116   1.805   2.158   1.483 -1.9923  0.5468 -0.3265
 8553SOL     OW37117   1.493   4.298   9.581  0.5912 -0.1406  0.2068
 8553SOL    HW137118   1.560   4.251   9.531  0.8323 -0.4162  0.7879
 8553SOL    HW237119   1.416   4.248   9.554  1.8267 -1.0729 -1.5698
 8554SOL     OW37120   2.531   3.557   1.433  0.1931 -1.0860 -0.7416
 8554SOL    HW137121   2.624   3.578   1.440 -0.5943  2.4329 -0.8679
 8554SOL    HW237122   2.518   3.477   1.484  1.5314 -2.2680 -2.2291
 8555SOL     OW37123   0.871   1.511  13.266  0.1345  0.8568 -0.5308
 8555SOL    HW137124   0.840   1.465  13.188 -0.3362  0.3329 -0.0293
 8555SOL    HW237125   0.844   1.601  13.247 -1.1570  0.6337  0.2438
 8556SOL     OW37126   3.720   3.041   5.768  0.2443  0.0797 -0.0137
 8556SOL    HW137127   3.758   3.129   5.778  1.6399 -0.5659  0.3597
 8556SOL    HW237128   3.654   3.051   5.700 -0.6291  0.0498  0.8257
 8557SOL     OW37129   0.397   2.889   9.873 -0.3398  0.0102  0.2542
 8557SOL    HW137130   0.359   2.802   9.864 -3.3683  1.2146  1.3864
 8557SOL    HW237131   0.423   2.915   9.784 -1.0463  0.9778  0.3363
 8558SOL     OW37132   3.811   4.577  13.420 -0.0110 -0.4530  0.0784
 8558SOL    HW137133   3.821   4.594  13.513 -0.9456  0.2457  0.0458
 8558SOL    HW237134   3.853   4.658  13.393 -2.0247  0.7528  0.5792
 8559SOL     OW37135   2.669   1.973  12.323  0.1218  0.3136  0.4436
 8559SOL    HW137136   2.586   1.930  12.304  0.3188  0.7970 -1.5271
 8559SOL    HW237137   2.724   1.906  12.363 -0.0059 -0.7180 -1.0986
 8560SOL     OW37138   1.707   2.879   4.280 -0.3894  0.4046  0.5543
 8560SOL    HW137139   1.680   2.843   4.195  1.3960 -0.1802  0.2457
 8560SOL    HW237140   1.801   2.865   4.283 -0.4955 -0.2707  0.8090
 8561SOL     OW37141   4.486   4.318  15.539 -0.0151 -0.2296 -0.3162
 8561SOL    HW137142   4.459   4.371  15.614 -2.4953  2.9582 -3.4698
 8561SOL    HW237143   4.401   4.284  15.513  0.7730 -0.5473 -2.5490
 8562SOL     OW37144   2.276   2.828   6.130  0.4238 -0.0695  0.0823
 8562SOL    HW137145   2.351   2.794   6.080 -1.7687 -0.6270 -2.8547
 8562SOL    HW237146   2.209   2.848   6.064 -2.0380 -1.2119  2.2396
 8563SOL     OW37147   2.018   1.519   8.538  0.1161  0.0529 -0.5897
 8563SOL    HW137148   1.954   1.473   8.483  1.9867 -3.2726  0.0013
 8563SOL    HW237149   2.083   1.448   8.542 -0.6731 -0.5993  0.7895
 8564SOL     OW37150   3.283   3.748   9.928  0.2112  0.1329  0.3714
 8564SOL    HW137151   3.205   3.796   9.901  0.4116  0.2167 -0.0583
 8564SOL    HW237152   3.338   3.822   9.956  1.6779 -1.1328  0.8777
 8565SOL     OW37153   2.467   1.905   4.418  0.3219 -0.1386 -0.4942
 8565SOL    HW137154   2.507   1.881   4.335 -0.9782  0.6019 -1.3216
 8565SOL    HW237155   2.533   1.874   4.481 -2.5516 -0.7245  2.2669
 8566SOL     OW37156   3.393   3.105   3.088  0.1853 -0.4035 -0.3027
 8566SOL    HW137157   3.452   3.175   3.114 -0.0069 -0.9273  1.5592
 8566SOL    HW237158   3.402   3.104   2.993 -1.4468  0.7746 -0.4671
 8567SOL     OW37159   3.397   0.651   2.809 -0.2658 -0.2262 -0.2133
 8567SOL    HW137160   3.392   0.565   2.851 -0.8906  0.5726  1.3514
 8567SOL    HW237161   3.491   0.656   2.791 -0.2047 -1.2207 -0.1571
 8568SOL     OW37162   4.700   0.499  10.120  0.1606 -0.6180 -0.1676
 8568SOL    HW137163   4.657   0.416  10.097 -2.6689  0.3886  1.5929
 8568SOL    HW237164   4.666   0.553  10.049 -3.7825 -0.6903  1.6846
 8569SOL     OW37165   0.399   1.757   6.264 -0.0901 -0.4015 -0.2169
 8569SOL    HW137166   0.361   1.810   6.333 -2.0359  0.5018 -1.9696
 8569SOL    HW237167   0.491   1.777   6.281  0.4014 -2.7902 -0.0310
 8570SOL     OW37168   3.712   4.454   8.552 -0.2294  0.2677  0.6731
 8570SOL    HW137169   3.749   4.392   8.615  3.2421  2.2683  0.6158
 8570SOL    HW237170   3.619   4.432   8.548  0.2261 -1.5315 -0.2141
 8571SOL     OW37171   3.829   4.533   9.135  0.6715 -0.0655 -0.0557
 8571SOL    HW137172   3.903   4.561   9.188 -0.5976 -0.1917  1.7913
 8571SOL    HW237173   3.792   4.607   9.086 -2.1247 -2.6639 -1.8807
 8572SOL     OW37174   2.498   2.551  11.611  0.2425 -0.5051  0.5505
 8572SOL    HW137175   2.548   2.475  11.641 -0.3252 -2.1095 -2.6010
 8572SOL    HW237176   2.456   2.515  11.533  1.1050  1.2654 -0.7331
 8573SOL     OW37177   2.349   0.849   3.756  0.3394  0.2285  0.0088
 8573SOL    HW137178   2.354   0.863   3.662 -3.1053 -2.0425 -0.4882
 8573SOL    HW237179   2.260   0.878   3.775 -0.3302 -1.1127 -1.1049
 8574SOL     OW37180   4.481   1.898   0.147  0.9804 -0.3933 -0.1945
 8574SOL    HW137181   4.404   1.905   0.203  0.9484  1.6455 -0.4783
 8574SOL    HW237182   4.544   1.908   0.218  1.8303 -2.1541 -0.7163
 8575SOL     OW37183   2.340   0.879   6.111 -0.4016  0.0704  0.5534
 8575SOL    HW137184   2.425   0.850   6.146 -0.7354 -1.6490 -0.0515
 8575SOL    HW237185   2.336   0.962   6.159 -1.7494 -1.1840  2.6294
 8576SOL     OW37186   3.887   3.126   4.757 -0.2199 -0.0933 -0.2996
 8576SOL    HW137187   3.822   3.080   4.810 -0.9118  0.7604 -0.4039
 8576SOL    HW237188   3.968   3.096   4.798  0.3741 -1.2012 -2.2712
 8577SOL     OW37189   3.516   1.448   2.261 -0.2505  0.3840  0.2876
 8577SOL    HW137190   3.510   1.384   2.190 -0.2094  0.2491  0.4043
 8577SOL    HW237191   3.598   1.487   2.230 -0.8092  1.8608  0.6737
 8578SOL     OW37192   3.939   1.835   9.337  0.4450  0.2179 -0.3685
 8578SOL    HW137193   3.958   1.741   9.341  2.8704  0.7376  0.2080
 8578SOL    HW237194   3.844   1.830   9.344  0.4997 -0.0667  0.1439
 8579SOL     OW37195   1.785   1.785   8.713 -0.1031  0.6511 -0.0561
 8579SOL    HW137196   1.739   1.787   8.796  2.8523  0.1184  1.5952
 8579SOL    HW237197   1.865   1.743   8.746 -0.7070 -0.0398  0.5231
 8580SOL     OW37198   1.196   0.169   1.173  0.2652  0.0248 -0.2245
 8580SOL    HW137199   1.167   0.081   1.151  2.8422 -1.5223  2.5135
 8580SOL    HW237200   1.289   0.164   1.152  0.5846 -2.6806  1.8436
 8581SOL     OW37201   4.639   4.698   2.328 -0.5194 -0.4981 -0.0631
 8581SOL    HW137202   4.628   4.609   2.362  0.7033 -0.2297  1.0278
 8581SOL    HW237203   4.568   0.014   2.376 -0.4671 -1.1873  0.6025
 8582SOL     OW37204   2.856   3.958   1.757 -0.4565 -0.0832  0.0604
 8582SOL    HW137205   2.805   3.937   1.835  1.0571  1.1516  1.3933
 8582SOL    HW237206   2.797   4.015   1.708 -2.5812 -1.3737  1.1167
 8583SOL     OW37207   0.240   0.307   0.525 -0.0711  0.2799  0.2111
 8583SOL    HW137208   0.269   0.371   0.589 -0.0306  0.6483 -0.1782
 8583SOL    HW237209   0.187   0.363   0.468 -0.4609 -0.7283 -0.4306
 8584SOL     OW37210   1.889   3.770  13.761 -0.2607 -0.5059  0.5524
 8584SOL    HW137211   1.867   3.682  13.730 -1.8637  0.0635  0.1075
 8584SOL    HW237212   1.816   3.787  13.820 -3.4249 -0.8222 -3.3114
 8585SOL     OW37213   2.137   3.857  13.963 -0.0659 -0.6111 -0.1274
 8585SOL    HW137214   2.089   3.900  14.033  1.6962 -0.2016  0.8455
 8585SOL    HW237215   2.077   3.880  13.893  0.6796 -0.1061 -0.5968
 8586SOL     OW37216   1.356   1.491   3.392  0.3382  0.2828 -0.1160
 8586SOL    HW137217   1.442   1.455   3.416  0.8132 -0.0173 -2.2669
 8586SOL    HW237218   1.343   1.549   3.467  0.8873  1.4559 -0.9286
 8587SOL     OW37219   4.644   0.481  17.605  0.0993  0.2174 -0.0633
 8587SOL    HW137220   0.011   0.456  17.598 -0.0446 -0.7049  1.3508
 8587SOL    HW237221   4.644   0.542  17.532 -2.0884  0.9008  0.5187
 8588SOL     OW37222   0.598   1.397   2.572 -0.3034 -0.2682  0.5783
 8588SOL    HW137223   0.641   1.344   2.639  1.6540  2.2058  1.2673
 8588SOL    HW237224   0.609   1.329   2.506  0.1931  0.5615 -0.1864
 8589SOL     OW37225   1.493   1.553   7.431 -0.0178 -0.1306  0.3326
 8589SOL    HW137226   1.407   1.572   7.469 -0.7853  0.5835 -1.8154
 8589SOL    HW237227   1.470   1.493   7.360  2.3660 -1.6374  0.8421
 8590SOL     OW37228   3.697   4.066   2.626  0.1878  0.6056 -0.0264
 8590SOL    HW137229   3.708   3.989   2.571 -2.1816 -0.5710  1.1765
 8590SOL    HW237230   3.603   4.080   2.628  0.2203  0.7375  0.6678
 8591SOL     OW37231   3.828   3.435   4.357  0.4792 -0.1334 -0.4965
 8591SOL    HW137232   3.757   3.380   4.390 -0.2305  0.2022 -1.4503
 8591SOL    HW237233   3.875   3.437   4.440 -0.6983  1.2027  0.1447
 8592SOL     OW37234   0.603   1.794   9.095 -0.2754 -0.2096 -0.2894
 8592SOL    HW137235   0.683   1.768   9.049  0.0407 -0.3746  0.3454
 8592SOL    HW237236   0.579   1.704   9.118  3.5695 -0.8868  1.1264
 8593SOL     OW37237   2.218   2.495   0.240  0.2409 -0.4853 -0.4624
 8593SOL    HW137238   2.204   2.528   0.329  1.0527  0.4906 -0.7114
 8593SOL    HW237239   2.151   2.543   0.192 -0.7466 -0.0374  1.3468
 8594SOL     OW37240   2.214   1.455   7.131 -0.5187  0.4617  0.6434
 8594SOL    HW137241   2.307   1.477   7.130 -0.5168  0.4045 -0.3280
 8594SOL    HW237242   2.208   1.431   7.223  1.0381 -1.3103  0.2739
 8595SOL     OW37243   3.592   4.220   2.383 -0.5331 -0.3590  0.0127
 8595SOL    HW137244   3.638   4.205   2.465 -0.6488  2.1272  0.5174
 8595SOL    HW237245   3.502   4.238   2.412 -0.3881  4.0683 -2.3968
 8596SOL     OW37246   4.721   1.732  13.810 -0.0657 -0.5479  0.2615
 8596SOL    HW137247   4.707   1.757  13.902  1.9166 -0.3041  0.4868
 8596SOL    HW237248   0.023   1.640  13.804  1.0839 -0.1219 -0.7901
 8597SOL     OW37249   2.009   1.007   8.443  0.1699  0.1450  0.8400
 8597SOL    HW137250   2.032   1.094   8.474  0.2660  1.1675 -2.0683
 8597SOL    HW237251   2.094   0.962   8.438  0.6193  0.9602  1.1819
 8598SOL     OW37252   0.557   3.462   9.050 -0.4611 -0.1394  0.2699
 8598SOL    HW137253   0.598   3.544   9.075  3.1189 -1.6052 -0.8064
 8598SOL    HW237254   0.489   3.451   9.116  0.5428  0.6462  1.4084
 8599SOL     OW37255   3.038   1.709   3.390 -0.3288  0.3309  0.1236
 8599SOL    HW137256   3.100   1.716   3.318  0.5532 -1.1742  0.7378
 8599SOL    HW237257   2.947   1.695   3.362 -0.5782  0.5248  0.8159
 8600SOL     OW37258   0.524   1.659   5.219 -0.6138 -0.2737 -0.6524
 8600SOL    HW137259   0.468   1.581   5.210  0.2916 -0.8554 -1.2836
 8600SOL    HW237260   0.595   1.619   5.270 -0.8752 -0.5524 -0.5089
 8601SOL     OW37261   4.077   3.325   2.766 -0.3721 -0.1952  0.2399
 8601SOL    HW137262   4.023   3.247   2.755  0.1744 -0.6942  1.0724
 8601SOL    HW237263   4.014   3.384   2.808  1.1607  2.0867 -0.6719
 8602SOL     OW37264   2.904   1.519   6.902  0.5714 -0.1135  0.4991
 8602SOL    HW137265   2.964   1.472   6.960 -1.0120 -1.0034  1.3825
 8602SOL    HW237266   2.906   1.605   6.944  1.5053  0.5508 -0.8983
 8603SOL     OW37267   4.028   4.038  16.243 -0.2111  0.0653 -0.3819
 8603SOL    HW137268   4.033   4.134  16.242 -2.7393  0.2118  0.6490
 8603SOL    HW237269   4.055   4.016  16.154 -0.1578 -1.3319 -0.0164
 8604SOL     OW37270   4.254   3.373   6.052  0.6224  0.2832 -0.0727
 8604SOL    HW137271   4.192   3.312   6.092  0.9975  0.4135  0.7237
 8604SOL    HW237272   4.189   3.435   6.018 -0.2999 -1.0851 -0.7717
 8605SOL     OW37273   2.728   0.631   6.376 -0.3935  0.5834  0.1319
 8605SOL    HW137274   2.702   0.719   6.403 -1.4789  0.9503 -2.1297
 8605SOL    HW237275   2.824   0.639   6.381 -0.3061 -2.0929  3.3240
 8606SOL     OW37276   1.053   1.906   5.094  0.0355  0.2584 -0.1470
 8606SOL    HW137277   0.973   1.863   5.125  0.6709  0.6148  1.9372
 8606SOL    HW237278   1.087   1.851   5.024 -0.8715 -1.9451  1.1699
 8607SOL     OW37279   1.508   0.628   6.704  0.0873  0.1120 -0.1102
 8607SOL    HW137280   1.582   0.586   6.747 -1.4481 -2.8784 -0.3794
 8607SOL    HW237281   1.476   0.556   6.649  0.1708  0.1857 -0.2548
 8608SOL     OW37282   0.960   1.960  11.879 -0.4861  0.6361  0.3802
 8608SOL    HW137283   1.055   1.974  11.885 -0.6458  1.8030  0.1652
 8608SOL    HW237284   0.929   2.048  11.899  2.0854  1.0199  2.6910
 8609SOL     OW37285   0.641   4.481   9.090 -0.6458 -0.2804  0.8311
 8609SOL    HW137286   0.684   4.542   9.150  0.2266 -1.4075  1.3427
 8609SOL    HW237287   0.682   4.400   9.122  1.3682  0.4280  0.0093
 8610SOL     OW37288   0.398   0.462   7.169  0.1806 -0.0728 -0.2598
 8610SOL    HW137289   0.391   0.370   7.195  1.9239 -0.2125 -0.2765
 8610SOL    HW237290   0.317   0.475   7.120  1.4484  0.4050 -2.2190
 8611SOL     OW37291   0.903   2.182   3.801 -0.8815 -0.7416  0.5431
 8611SOL    HW137292   0.996   2.158   3.803 -1.1124 -1.6104  1.1452
 8611SOL    HW237293   0.871   2.124   3.871  1.0568 -0.6208  1.5319
 8612SOL     OW37294   0.281   0.595   7.983 -0.4936 -1.1468  0.6596
 8612SOL    HW137295   0.371   0.613   8.010 -0.8900  0.2317  1.0170
 8612SOL    HW237296   0.256   0.676   7.938  2.8575 -0.6790 -0.3519
 8613SOL     OW37297   3.747   2.820   5.183  0.3982  0.4828 -0.0013
 8613SOL    HW137298   3.767   2.906   5.221 -0.8469  1.3151 -1.2204
 8613SOL    HW237299   3.664   2.801   5.229  0.5086  0.4310  0.1783
 8614SOL     OW37300   1.016   1.310   1.939  0.2507  0.5856 -0.2305
 8614SOL    HW137301   1.045   1.250   2.008  0.7435 -1.5735 -2.3227
 8614SOL    HW237302   0.947   1.363   1.978  0.9253  2.0653 -1.0452
 8615SOL     OW37303   1.416   3.493   7.130 -0.3550  0.5353 -0.2458
 8615SOL    HW137304   1.448   3.441   7.204 -1.2782  1.5935  0.9015
 8615SOL    HW237305   1.400   3.582   7.163 -2.2981  0.4997 -1.1254
 8616SOL     OW37306   0.043   3.383   7.805  0.1243 -0.7722  0.0008
 8616SOL    HW137307   0.124   3.393   7.855 -1.2755  1.8417  1.7628
 8616SOL    HW237308   0.057   3.456   7.744  1.3072  0.6535  1.9867
 8617SOL     OW37309   0.077   0.448  10.367  0.0454  0.0765 -0.7223
 8617SOL    HW137310   0.037   0.362  10.380 -0.6418  0.1659 -2.2751
 8617SOL    HW237311   0.043   0.468  10.280  0.5872  0.6868 -0.7909
 8618SOL     OW37312   1.739   2.978   1.199 -0.5772 -0.0353  0.3909
 8618SOL    HW137313   1.680   2.947   1.268 -0.0587  0.4458  1.0462
 8618SOL    HW237314   1.757   2.896   1.153 -1.6486  1.2803 -2.3551
 8619SOL     OW37315   1.774   2.401  16.092  0.1482  0.5711 -0.0028
 8619SOL    HW137316   1.779   2.436  16.181 -1.5043  1.4493 -0.2492
 8619SOL    HW237317   1.704   2.336  16.103 -1.9519  2.8131 -0.0709
 8620SOL     OW37318   1.142   3.223   4.611  0.0506  0.0914  0.7558
 8620SOL    HW137319   1.175   3.302   4.653  0.5896  1.2221 -1.7954
 8620SOL    HW237320   1.170   3.160   4.678 -1.8013  1.7173  3.0738
 8621SOL     OW37321   1.843   1.406   6.224  0.0102  0.3333  0.2187
 8621SOL    HW137322   1.906   1.450   6.280  0.5006  0.5792 -0.5282
 8621SOL    HW237323   1.888   1.423   6.141 -1.1400  1.0179 -0.2635
 8622SOL     OW37324   3.025   1.938   5.060 -0.0237  0.2880  0.1521
 8622SOL    HW137325   2.974   1.864   5.094 -1.4185  1.6360  0.9839
 8622SOL    HW237326   3.092   1.889   5.012 -2.0824 -2.5256  0.1874
 8623SOL     OW37327   0.184   0.884  14.935 -1.0221 -0.3525 -0.4897
 8623SOL    HW137328   0.096   0.917  14.955 -0.1209  2.3048 -0.8810
 8623SOL    HW237329   0.238   0.896  15.013 -1.3365  0.5675 -0.4128
 8624SOL     OW37330   3.412   4.021   2.600  0.9086 -0.4344  0.8029
 8624SOL    HW137331   3.387   4.079   2.529  3.1046  2.2153  2.1633
 8624SOL    HW237332   3.333   3.968   2.597  1.3585 -1.0674  0.1618
 8625SOL     OW37333   0.891   3.595   1.822  0.9099  0.4366  0.0773
 8625SOL    HW137334   0.935   3.574   1.904 -1.5467  1.7535  1.7246
 8625SOL    HW237335   0.901   3.690   1.822 -0.6013  0.5732  1.2744
 8626SOL     OW37336   1.165   1.896   3.365  0.3871  0.2618 -0.2562
 8626SOL    HW137337   1.100   1.966   3.363 -0.6713 -0.6291  2.0216
 8626SOL    HW237338   1.135   1.833   3.431  0.4330  0.3043 -0.1952
 8627SOL     OW37339   2.765   3.884   4.035  0.2717 -0.5929  0.5025
 8627SOL    HW137340   2.860   3.892   4.033  0.2744 -0.7883 -0.2346
 8627SOL    HW237341   2.742   3.796   4.003  1.5882  0.2306 -2.7431
 8628SOL     OW37342   4.479   1.406   0.906  0.3863  0.0037 -0.0272
 8628SOL    HW137343   4.500   1.379   0.817  1.5258  0.2923  0.1514
 8628SOL    HW237344   4.455   1.495   0.881  1.5466 -0.1048 -1.5244
 8629SOL     OW37345   2.779   3.678  10.038  0.5296 -0.3189 -0.3894
 8629SOL    HW137346   2.781   3.719  10.124 -1.4539 -1.8235  0.3825
 8629SOL    HW237347   2.811   3.743   9.976  0.0035  1.0749  0.8102
 8630SOL     OW37348   3.880   1.482  16.033  0.3394 -0.2631 -0.3979
 8630SOL    HW137349   3.826   1.501  15.956  1.4620  1.9606 -0.6323
 8630SOL    HW237350   3.966   1.520  16.015 -0.2615  1.3193  0.0530
 8631SOL     OW37351   4.020   3.623  12.714 -0.4856  0.5506  0.1792
 8631SOL    HW137352   4.000   3.535  12.746  1.1666 -0.2235 -0.9560
 8631SOL    HW237353   4.018   3.613  12.619 -2.2851 -1.0234  0.3866
 8632SOL     OW37354   4.111   3.779   6.338  0.4078 -0.4199 -0.6762
 8632SOL    HW137355   4.163   3.704   6.366 -0.7059 -0.1242  2.2481
 8632SOL    HW237356   4.062   3.730   6.273 -0.6632  0.3256 -0.4466
 8633SOL     OW37357   2.639   2.217   6.024 -0.3963  0.4111  0.1111
 8633SOL    HW137358   2.711   2.169   6.065 -1.6735 -2.0717 -0.5604
 8633SOL    HW237359   2.612   2.291   6.078 -0.9432 -0.4585  1.0170
 8634SOL     OW37360   0.422   4.673  17.094 -0.2328  0.2965 -0.0644
 8634SOL    HW137361   0.368   4.627  17.029  0.8877 -0.5582 -0.3927
 8634SOL    HW237362   0.436   0.029  17.046 -0.3988 -0.2573 -1.0620
 8635SOL     OW37363   1.305   0.690   0.782  0.1349 -0.1951 -0.1907
 8635SOL    HW137364   1.216   0.657   0.772  0.7249 -1.1140 -2.4818
 8635SOL    HW237365   1.341   0.634   0.850 -1.4941  0.0506  0.8464
 8636SOL     OW37366   2.915   1.957   4.594 -0.0298  0.1873 -0.4202
 8636SOL    HW137367   2.995   2.009   4.586  0.3041 -0.1411  0.7296
 8636SOL    HW237368   2.922   1.925   4.684  0.5511 -0.4975 -0.7099
 8637SOL     OW37369   2.388   3.617  14.268 -0.2346 -0.1823 -0.2973
 8637SOL    HW137370   2.392   3.708  14.237  1.1915  0.3708  1.5316
 8637SOL    HW237371   2.442   3.576  14.199 -0.5821 -2.0884  0.5601
 8638SOL     OW37372   3.741   2.813  15.007  0.7121  0.2134  0.7934
 8638SOL    HW137373   3.754   2.723  14.974  0.6341 -0.4448  2.5936
 8638SOL    HW237374   3.813   2.812  15.070  1.3599 -0.1866  0.0499
 8639SOL     OW37375   2.544   1.311   3.493 -0.0156  0.1981  0.3141
 8639SOL    HW137376   2.577   1.392   3.454  1.7637  0.3552  2.1585
 8639SOL    HW237377   2.543   1.332   3.586  1.7665  2.5022 -0.1998
 8640SOL     OW37378   2.827   4.420   7.622 -0.2342 -0.2041 -0.3460
 8640SOL    HW137379   2.752   4.361   7.627 -0.4928  0.3011  1.5707
 8640SOL    HW237380   2.817   4.444   7.714 -2.7179 -0.8538 -0.4543
 8641SOL     OW37381   1.170   1.656   1.965 -0.4942 -0.3933 -0.1121
 8641SOL    HW137382   1.088   1.702   1.947 -0.2991 -0.5290 -1.4092
 8641SOL    HW237383   1.232   1.722   1.996  1.1140 -2.5170  1.1428
 8642SOL     OW37384   0.120   0.456   9.844 -0.1861  0.0390 -0.4710
 8642SOL    HW137385   0.045   0.506   9.878  0.3138  0.7663 -0.4403
 8642SOL    HW237386   0.151   0.508   9.770  0.7118  0.4220  0.1715
 8643SOL     OW37387   1.454   0.031   3.988 -0.4607  0.0337  0.0423
 8643SOL    HW137388   1.529   0.090   3.989  0.2600 -0.8418 -1.2606
 8643SOL    HW237389   1.503   4.677   3.968 -1.1421 -0.5250  0.5817
 8644SOL     OW37390   1.561   4.464  13.315 -0.0119  0.8601 -0.0137
 8644SOL    HW137391   1.498   4.500  13.251 -3.3119 -1.6088  1.8278
 8644SOL    HW237392   1.495   4.424  13.372  0.0187 -0.2045 -0.7221
 8645SOL     OW37393   3.951   4.541   6.324  0.0821 -0.2466 -0.0081
 8645SOL    HW137394   3.986   4.624   6.292 -1.5509  1.0209  1.5173
 8645SOL    HW237395   3.984   4.479   6.259  2.5770 -0.0065  1.0589
 8646SOL     OW37396   3.085   2.300   2.222 -0.0293  0.8766 -0.0264
 8646SOL    HW137397   3.130   2.381   2.200 -0.9113  1.3585 -0.0363
 8646SOL    HW237398   3.041   2.287   2.138  3.1121  0.0269 -1.5241
 8647SOL     OW37399   1.161   1.709   3.024 -0.1699 -0.0083 -0.2046
 8647SOL    HW137400   1.102   1.716   2.949  0.3246 -0.1208 -0.5934
 8647SOL    HW237401   1.093   1.695   3.090  0.6320  1.2497  0.8930
 8648SOL     OW37402   2.723   1.071  10.092 -0.0551  0.1323 -0.6984
 8648SOL    HW137403   2.739   1.007  10.161 -0.0050  0.2204 -0.6277
 8648SOL    HW237404   2.727   1.148  10.149  0.9254 -0.8138  0.5262
 8649SOL     OW37405   0.724   4.686   7.985  0.3026  0.3853  0.5114
 8649SOL    HW137406   0.725   4.684   7.889 -1.2104  0.0913  0.5120
 8649SOL    HW237407   0.650   0.017   8.004 -0.4713 -1.3946  2.6862
 8650SOL     OW37408   4.035   1.522   3.432 -0.3451  0.0309 -0.2447
 8650SOL    HW137409   3.948   1.485   3.417 -0.5178  0.3083  0.0441
 8650SOL    HW237410   4.045   1.581   3.357  0.7179 -1.4087 -1.2126
 8651SOL     OW37411   2.159   1.146  15.890  0.1026 -0.0603  0.1575
 8651SOL    HW137412   2.073   1.137  15.849 -0.5646 -0.7611  1.7241
 8651SOL    HW237413   2.142   1.236  15.919 -2.6191 -0.6462  0.3436
 8652SOL     OW37414   4.257   0.350   1.437 -0.1823  0.5700 -0.0177
 8652SOL    HW137415   4.249   0.260   1.403  2.4282 -0.0649  1.0347
 8652SOL    HW237416   4.284   0.397   1.358  0.8824  0.7162  0.4258
 8653SOL     OW37417   2.034   4.249   0.477 -0.1508  0.2005  0.0267
 8653SOL    HW137418   2.088   4.178   0.443 -0.3342 -0.9871  2.2002
 8653SOL    HW237419   1.968   4.197   0.522 -1.9945  0.8477 -1.9603
 8654SOL     OW37420   0.886   1.251   4.305 -0.4315  0.0616  0.3907
 8654SOL    HW137421   0.952   1.286   4.245 -0.3592  0.3869  0.6563
 8654SOL    HW237422   0.806   1.299   4.282  0.5323  0.1333 -2.9306
 8655SOL     OW37423   0.866   1.157   7.329  0.6418 -0.0948 -0.3946
 8655SOL    HW137424   0.841   1.109   7.250  0.8877 -0.1685 -0.4286
 8655SOL    HW237425   0.790   1.141   7.384  1.7161  0.2583  1.1904
 8656SOL     OW37426   0.046   0.288   5.257  0.5084  0.1249 -0.1198
 8656SOL    HW137427   0.028   0.278   5.351 -0.8273  0.5219 -0.3354
 8656SOL    HW237428   0.140   0.267   5.253  0.6675  1.1573 -1.7837
 8657SOL     OW37429   0.628   4.040   9.595  0.2663 -0.1285  0.9448
 8657SOL    HW137430   0.536   4.019   9.576 -0.4598  2.7711  1.2074
 8657SOL    HW237431   0.627   4.135   9.607 -1.1440 -0.1098  0.7232
 8658SOL     OW37432   0.939   4.631   2.633  0.2129  0.0079 -0.1005
 8658SOL    HW137433   0.940   4.715   2.586 -2.5853 -1.4283 -2.7901
 8658SOL    HW237434   0.851   4.641   2.670  0.5153 -0.1288  0.6491
 8659SOL     OW37435   3.652   0.720  14.659 -0.3912  0.2975 -0.0002
 8659SOL    HW137436   3.609   0.649  14.708  1.3136  0.3825  1.6191
 8659SOL    HW237437   3.694   0.670  14.589 -0.3734 -0.3223  0.4510
 8660SOL     OW37438   2.367   2.466  15.628 -0.3338  0.1500 -0.4860
 8660SOL    HW137439   2.296   2.471  15.692 -0.8013  1.7713 -1.1292
 8660SOL    HW237440   2.438   2.450  15.691  1.0669  1.2774 -1.7883
 8661SOL     OW37441   0.497   4.383  15.430  0.9921 -0.5841  0.3012
 8661SOL    HW137442   0.434   4.317  15.402 -0.0227  0.6297 -0.2879
 8661SOL    HW237443   0.551   4.394  15.352 -0.3947 -0.7912 -0.6981
 8662SOL     OW37444   1.734   3.207  10.428 -0.0563 -0.1764  0.0357
 8662SOL    HW137445   1.702   3.155  10.502 -1.1232 -0.5734 -0.7056
 8662SOL    HW237446   1.645   3.223  10.396  0.0379 -1.6452 -0.9478
 8663SOL     OW37447   1.072   2.017   5.493  0.1512  0.8878 -0.3918
 8663SOL    HW137448   1.095   2.051   5.579 -1.0612  0.5138  0.0735
 8663SOL    HW237449   1.046   1.928   5.516 -1.4077  1.9616  1.9216
 8664SOL     OW37450   1.091   4.118   3.840  0.2847  0.0540 -0.1265
 8664SOL    HW137451   1.103   4.203   3.883 -0.9658 -0.9927  2.2801
 8664SOL    HW237452   1.096   4.138   3.747 -3.3530  3.6407  0.4716
 8665SOL     OW37453   0.410   3.715   5.860  0.6893  0.0749 -0.6098
 8665SOL    HW137454   0.407   3.772   5.937 -0.9240 -0.9099  0.0515
 8665SOL    HW237455   0.485   3.748   5.810  0.5497 -1.0239 -1.5324
 8666SOL     OW37456   2.478   1.969   8.315  0.1608  0.2461 -0.4962
 8666SOL    HW137457   2.455   2.021   8.239 -1.4593 -0.9473 -0.8420
 8666SOL    HW237458   2.423   1.991   8.391 -0.7086  0.0968 -1.0781
 8667SOL     OW37459   4.173   2.881   2.959  0.3771 -0.5646 -0.1161
 8667SOL    HW137460   4.188   2.790   2.987  1.9080 -1.1325 -2.7747
 8667SOL    HW237461   4.166   2.870   2.865 -1.8726  1.1537 -0.1336
 8668SOL     OW37462   3.817   3.588   2.864 -0.3932 -0.5584  0.9302
 8668SOL    HW137463   3.753   3.627   2.923 -3.0875 -1.2656 -1.5224
 8668SOL    HW237464   3.856   3.666   2.823 -0.1360 -0.6679  0.9625
 8669SOL     OW37465   0.057   1.067   3.396 -0.6272 -0.5118 -0.5819
 8669SOL    HW137466   4.703   1.064   3.343  1.1430  1.0415 -3.2999
 8669SOL    HW237467   0.090   1.157   3.393  0.1989 -0.7808  0.3340
 8670SOL     OW37468   4.208   1.160   4.589 -0.4699 -0.1300 -0.3231
 8670SOL    HW137469   4.275   1.215   4.630 -0.2067  0.9692 -2.2428
 8670SOL    HW237470   4.147   1.227   4.559  0.3047  2.9848  4.9684
 8671SOL     OW37471   4.177   1.103   1.626 -0.6732  0.0128 -0.1277
 8671SOL    HW137472   4.241   1.125   1.559  1.3724 -2.2250  1.0899
 8671SOL    HW237473   4.228   1.124   1.703 -1.0504 -0.3210  0.2182
 8672SOL     OW37474   3.681   0.655   8.870 -0.0540  0.1494 -0.1311
 8672SOL    HW137475   3.614   0.604   8.915  0.4946 -0.9441 -0.5450
 8672SOL    HW237476   3.763   0.636   8.917 -0.8394 -0.1299  1.1306
 8673SOL     OW37477   4.649   2.464   0.147  0.2786  0.1480 -0.4505
 8673SOL    HW137478   4.622   2.450   0.057  1.0754 -2.2732 -0.3132
 8673SOL    HW237479   0.016   2.487   0.134  0.6991 -1.8186 -0.8714
 8674SOL     OW37480   4.364   0.383   1.679  0.0558 -1.0132 -0.5183
 8674SOL    HW137481   4.332   0.373   1.589 -2.3433  0.0746  0.2219
 8674SOL    HW237482   4.430   0.451   1.664 -1.9249  0.8513 -0.6683
 8675SOL     OW37483   2.061   3.186  10.918  0.9505 -0.1246  0.5514
 8675SOL    HW137484   2.128   3.245  10.883  0.1100  0.7967  0.4963
 8675SOL    HW237485   2.001   3.249  10.957 -1.4074 -2.6867  1.0328
 8676SOL     OW37486   3.023   2.179   2.713 -0.0128 -0.1354 -0.0211
 8676SOL    HW137487   3.030   2.175   2.617 -2.2917  0.3275 -0.2199
 8676SOL    HW237488   2.951   2.242   2.720 -0.2471 -0.2943 -0.9954
 8677SOL     OW37489   0.952   0.555   2.930  0.4981  0.1530  0.4526
 8677SOL    HW137490   0.880   0.608   2.896 -0.4080 -0.3172  1.6190
 8677SOL    HW237491   0.980   0.516   2.847 -0.9164 -1.2122  0.6211
 8678SOL     OW37492   4.251   2.761   4.991 -0.1206 -0.1550 -0.8953
 8678SOL    HW137493   4.259   2.686   5.050 -0.7492  0.9751  0.6201
 8678SOL    HW237494   4.336   2.764   4.947 -0.5810  1.3732 -1.6706
 8679SOL     OW37495   3.130   0.687   5.543 -0.2076 -0.1790 -0.0331
 8679SOL    HW137496   3.202   0.641   5.586  0.8729  0.7641 -0.8298
 8679SOL    HW237497   3.055   0.628   5.555 -0.7427  0.7263  1.0784
 8680SOL     OW37498   4.452   0.555   6.401  0.1806 -0.1663  0.4077
 8680SOL    HW137499   4.367   0.598   6.399 -0.4707 -1.4853 -0.4508
 8680SOL    HW237500   4.429   0.474   6.356  1.9185 -1.3628  1.6638
 8681SOL     OW37501   1.664   4.007   3.009  0.5793 -0.6015  0.3362
 8681SOL    HW137502   1.709   4.063   3.073  0.5741 -2.6428  2.1370
 8681SOL    HW237503   1.608   4.077   2.976 -0.5610 -1.7749 -0.2180
 8682SOL     OW37504   3.168   0.898  10.724  0.1148  0.0236  0.3467
 8682SOL    HW137505   3.165   0.848  10.642  1.1150 -1.0348  0.9464
 8682SOL    HW237506   3.078   0.926  10.741 -0.4387  0.4204 -3.3123
 8683SOL     OW37507   1.292   2.093   7.615  0.1517 -0.5548 -0.2603
 8683SOL    HW137508   1.321   2.080   7.705 -1.1901 -1.4325  0.0446
 8683SOL    HW237509   1.241   2.016   7.591 -0.7540  0.0001 -0.1302
 8684SOL     OW37510   3.456   1.842  11.470 -0.0458 -0.4979 -0.6185
 8684SOL    HW137511   3.389   1.907  11.447 -0.6087 -1.9311 -3.0388
 8684SOL    HW237512   3.533   1.895  11.448  1.1310 -2.6415 -1.6747
 8685SOL     OW37513   2.465   4.022   8.688 -0.5417  0.0422  0.3568
 8685SOL    HW137514   2.416   3.991   8.612 -0.2558  0.1348  0.1332
 8685SOL    HW237515   2.443   4.115   8.683 -0.6744 -0.0982 -1.9026
 8686SOL     OW37516   2.014   3.159   6.248  0.0492 -0.0950  0.5832
 8686SOL    HW137517   1.925   3.182   6.276  0.4993  1.8658  0.3583
 8686SOL    HW237518   1.993   3.127   6.160  1.7251  0.2420  0.0708
 8687SOL     OW37519   1.023   2.519   1.614  0.3978 -0.0163  0.3934
 8687SOL    HW137520   0.995   2.588   1.554 -0.4705 -1.1775 -0.5329
 8687SOL    HW237521   0.996   2.551   1.700  0.4093 -0.3051  0.5034
 8688SOL     OW37522   0.080   0.806   3.332 -0.3814  0.2598  0.0202
 8688SOL    HW137523   0.092   0.896   3.363 -3.1443  0.1556  1.4496
 8688SOL    HW237524   4.709   0.806   3.330 -0.3535 -0.0714 -1.5917
 8689SOL     OW37525   1.411   1.915   8.466  0.2761  0.2883 -0.6147
 8689SOL    HW137526   1.425   1.991   8.522  1.7634 -0.4371 -0.0303
 8689SOL    HW237527   1.492   1.907   8.416  0.1198  0.0420 -0.8357
 8690SOL     OW37528   4.619   3.321   5.536  0.1672 -0.1421  0.6135
 8690SOL    HW137529   4.531   3.344   5.566  0.8059  0.2513  2.1427
 8690SOL    HW237530   4.588   3.236   5.505 -1.3955  1.0015 -0.9419
 8691SOL     OW37531   2.286   2.549  12.721  0.0127 -0.7379 -0.4260
 8691SOL    HW137532   2.246   2.569  12.805  1.9691  0.7297  0.1692
 8691SOL    HW237533   2.367   2.513  12.758  0.4830  0.6780 -0.0739
 8692SOL     OW37534   3.391   1.537   2.837 -0.0144  0.0110 -0.0440
 8692SOL    HW137535   3.461   1.583   2.883 -0.9892  2.9311 -1.4844
 8692SOL    HW237536   3.351   1.482   2.904  0.6180  1.5970  1.6186
 8693SOL     OW37537   3.324   1.674   1.000  0.5691  0.2906  0.2522
 8693SOL    HW137538   3.252   1.616   1.021  0.4464  0.2559 -0.2558
 8693SOL    HW237539   3.376   1.655   1.078  1.6015  1.1757 -0.2024
 8694SOL     OW37540   4.043   0.111   9.452 -0.3580 -0.3563 -0.2639
 8694SOL    HW137541   3.984   0.177   9.417 -1.6279 -1.7067 -0.7028
 8694SOL    HW237542   4.127   0.155   9.443 -1.5867  1.5772 -2.3644
 8695SOL     OW37543   2.774   3.356   4.617 -0.1448 -0.2216  0.0390
 8695SOL    HW137544   2.722   3.427   4.579 -0.2576 -0.9477 -1.1640
 8695SOL    HW237545   2.863   3.390   4.604 -0.7262  1.2086 -0.1832
 8696SOL     OW37546   4.194   1.618   6.781 -0.7440  0.7032  0.0894
 8696SOL    HW137547   4.133   1.550   6.810  0.6759  0.1261  1.7004
 8696SOL    HW237548   4.189   1.676   6.857 -1.1157 -0.5049  0.9890
 8697SOL     OW37549   0.519   2.680   4.078 -0.4412 -0.0413  0.5036
 8697SOL    HW137550   0.428   2.650   4.068  0.4107 -2.0066 -1.2969
 8697SOL    HW237551   0.573   2.636   4.013 -1.1889  0.5592 -0.5124
 8698SOL     OW37552   4.580   1.624   8.413  0.0121 -0.5392 -0.1549
 8698SOL    HW137553   4.595   1.549   8.355 -0.2311  0.5761 -1.6474
 8698SOL    HW237554   4.589   1.706   8.365  2.0039 -1.1295 -0.7995
 8699SOL     OW37555   2.135   1.138   6.870 -0.3605  0.3358 -0.2100
 8699SOL    HW137556   2.180   1.150   6.954  0.3158  1.5856 -0.7422
 8699SOL    HW237557   2.200   1.094   6.815  0.8181  1.2387  0.4612
 8700SOL     OW37558   3.776   1.935   0.561  0.3064  0.3924  0.2686
 8700SOL    HW137559   3.772   1.889   0.645 -0.8451  0.1998  0.1151
 8700SOL    HW237560   3.818   2.018   0.583  0.5639  0.8570 -1.9360
 8701SOL     OW37561   3.282   0.428   7.018  0.1293 -0.3936  0.2135
 8701SOL    HW137562   3.252   0.495   7.079  3.1069  0.2543  0.9722
 8701SOL    HW237563   3.276   0.348   7.071 -0.8916  0.2247  1.0475
 8702SOL     OW37564   1.244   0.658   2.882 -0.4610  0.7786 -0.9009
 8702SOL    HW137565   1.218   0.710   2.806  1.4264 -1.7416 -3.2461
 8702SOL    HW237566   1.185   0.692   2.950  0.6353  1.9577 -0.5250
 8703SOL     OW37567   3.149   0.424   7.420  0.1538  0.3015 -0.0321
 8703SOL    HW137568   3.151   0.329   7.431 -1.5066  0.1392 -1.1800
 8703SOL    HW237569   3.241   0.443   7.437 -0.4759  3.3379 -0.0427
 8704SOL     OW37570   1.371   0.747   5.930  0.3226 -0.1582 -0.1682
 8704SOL    HW137571   1.367   0.715   5.840 -0.1091 -0.4391 -0.0451
 8704SOL    HW237572   1.467   0.750   5.935  0.2419  1.5656  0.5633
 8705SOL     OW37573   0.721   1.409  13.474  0.4780 -0.4622  0.0312
 8705SOL    HW137574   0.798   1.438  13.425 -0.2894  0.4491 -0.6432
 8705SOL    HW237575   0.662   1.393  13.401  1.8805  1.1383 -1.4636
 8706SOL     OW37576   3.305   3.533   5.309 -0.2369  0.1675 -0.3177
 8706SOL    HW137577   3.215   3.541   5.338 -0.3920 -2.7353  0.0247
 8706SOL    HW237578   3.328   3.626   5.300 -1.5579  0.5545  0.3148
 8707SOL     OW37579   1.852   2.761   6.460 -0.2876 -0.1215  0.3407
 8707SOL    HW137580   1.884   2.672   6.468  0.3417  0.0433 -0.4120
 8707SOL    HW237581   1.877   2.789   6.548  3.0912 -0.8464 -0.4160
 8708SOL     OW37582   0.252   1.249   5.890 -0.0539 -0.3423  0.7071
 8708SOL    HW137583   0.184   1.191   5.858 -0.8259  0.3222  1.1494
 8708SOL    HW237584   0.218   1.276   5.975 -1.8295  1.8946 -0.7173
 8709SOL     OW37585   0.821   4.016   0.513 -0.8892 -0.1253  0.1797
 8709SOL    HW137586   0.767   4.093   0.532  0.6502  1.0201 -0.0091
 8709SOL    HW237587   0.865   4.005   0.597 -1.3380  2.8873  0.8128
 8710SOL     OW37588   2.470   0.360   2.986 -0.1253  0.1189  0.0649
 8710SOL    HW137589   2.455   0.292   3.052 -0.3312  0.0415 -0.0613
 8710SOL    HW237590   2.434   0.320   2.907 -1.1776  0.2228  0.4925
 8711SOL     OW37591   0.108   0.770   8.763  0.1767 -0.0110 -0.2677
 8711SOL    HW137592   0.161   0.751   8.685 -1.4043  0.3138 -1.4298
 8711SOL    HW237593   0.150   0.848   8.798 -1.2867  1.6624 -2.2070
 8712SOL     OW37594   3.366   1.323   6.585 -0.0816  0.4144 -0.6800
 8712SOL    HW137595   3.301   1.367   6.530 -0.6406  3.0363  2.1422
 8712SOL    HW237596   3.340   1.356   6.670  1.8431 -0.3239  0.2134
 8713SOL     OW37597   4.077   3.719   1.821  0.3574 -0.2002 -0.2185
 8713SOL    HW137598   4.000   3.663   1.835 -0.3799  0.7388 -0.4995
 8713SOL    HW237599   4.044   3.770   1.746  1.2179  2.0698  0.9768
 8714SOL     OW37600   0.143   4.015  17.678 -0.5099  0.1975 -0.3098
 8714SOL    HW137601   0.185   4.089   0.019  0.0088 -0.4501  0.2822
 8714SOL    HW237602   0.059   4.052  17.652 -1.4575 -1.8702 -0.1948
 8715SOL     OW37603   2.609   2.246   5.664  0.4375 -0.5823  0.1952
 8715SOL    HW137604   2.668   2.182   5.703  0.7218 -0.2831  0.2572
 8715SOL    HW237605   2.606   2.221   5.572  1.7692  0.8063 -0.2269
 8716SOL     OW37606   3.223   2.148   5.073 -0.1506  0.6584  0.7176
 8716SOL    HW137607   3.145   2.097   5.092 -0.7596  1.0506 -0.6906
 8716SOL    HW237608   3.187   2.196   4.998 -0.3391 -2.3987 -1.1554
 8717SOL     OW37609   0.975   0.750   7.899 -0.4263 -0.2561 -0.6622
 8717SOL    HW137610   1.025   0.790   7.828  0.2097  0.2739  0.0899
 8717SOL    HW237611   0.932   0.694   7.834  0.9932 -0.6862 -1.2299
 8718SOL     OW37612   0.155   2.432   3.643 -0.1601 -0.0377  0.0534
 8718SOL    HW137613   0.071   2.437   3.597  0.5212  2.7704 -0.8950
 8718SOL    HW237614   0.201   2.382   3.576 -2.7422 -2.4311  0.0655
 8719SOL     OW37615   4.564   2.211   8.020 -0.0473 -0.4711 -0.1029
 8719SOL    HW137616   4.501   2.179   8.085 -0.3511 -0.2201 -0.2760
 8719SOL    HW237617   4.644   2.187   8.068 -0.3525  0.9426  1.1306
 8720SOL     OW37618   3.572   4.297   4.870  0.0331  0.0608  0.1597
 8720SOL    HW137619   3.484   4.261   4.859  0.5445 -1.4125  0.8645
 8720SOL    HW237620   3.555   4.380   4.914  2.9281  0.4647  0.5211
 8721SOL     OW37621   3.727   1.593   7.403 -0.3046 -0.2380  0.0850
 8721SOL    HW137622   3.822   1.606   7.397 -0.7019  0.6628 -4.0147
 8721SOL    HW237623   3.708   1.544   7.323 -1.8091 -1.1226  0.9840
 8722SOL     OW37624   1.617   3.346   5.705 -0.7303  0.3369 -0.3273
 8722SOL    HW137625   1.577   3.421   5.749 -1.2856  0.8291 -1.6583
 8722SOL    HW237626   1.690   3.390   5.662 -0.1761 -1.0359 -0.8013
 8723SOL     OW37627   1.164   2.804  13.136 -0.0285  0.2972  0.0913
 8723SOL    HW137628   1.209   2.830  13.217 -1.0117 -1.8223  1.3159
 8723SOL    HW237629   1.191   2.713  13.126 -0.3794 -0.2439  3.8150
 8724SOL     OW37630   3.607   4.687   1.683  0.3079 -0.1080 -0.0517
 8724SOL    HW137631   3.526   4.717   1.723  1.3066  0.5264  1.5171
 8724SOL    HW237632   3.588   4.685   1.590 -1.2370 -1.0763  0.2869
 8725SOL     OW37633   1.469   1.471   8.793 -0.8879  0.0962 -0.2636
 8725SOL    HW137634   1.558   1.507   8.785 -0.5264 -0.7121  0.1451
 8725SOL    HW237635   1.453   1.442   8.703  3.1865  1.0834 -1.3431
 8726SOL     OW37636   3.068   3.217   3.976 -0.2945  0.1124 -0.6560
 8726SOL    HW137637   3.162   3.232   3.988 -0.1475 -0.7958 -0.6920
 8726SOL    HW237638   3.071   3.122   3.980  0.3780  0.2358  1.8751
 8727SOL     OW37639   3.367   4.002  10.864 -0.2914 -0.1674  0.2152
 8727SOL    HW137640   3.399   4.049  10.787 -0.1753 -0.8100 -0.1334
 8727SOL    HW237641   3.442   3.958  10.904 -0.0927 -1.4430 -1.5538
 8728SOL     OW37642   2.337   4.301   5.350  0.1150 -0.3065  0.4071
 8728SOL    HW137643   2.432   4.299   5.338 -0.3266 -0.4476 -3.1412
 8728SOL    HW237644   2.323   4.226   5.408  0.8843  0.1720  1.2195
 8729SOL     OW37645   1.339   3.736  17.427  0.0581 -0.0202  0.8137
 8729SOL    HW137646   1.277   3.807  17.440  0.2825 -0.2087  2.9240
 8729SOL    HW237647   1.344   3.699  17.515 -1.1668 -1.4507  0.2816
 8730SOL     OW37648   4.532   2.333   9.001  0.4163  0.8085 -0.7081
 8730SOL    HW137649   4.573   2.361   8.920 -1.8902 -0.1287 -2.2131
 8730SOL    HW237650   4.596   2.361   9.066 -1.5328 -0.3561  1.7205
 8731SOL     OW37651   0.584   1.550   1.721  0.3734 -0.4143  0.1979
 8731SOL    HW137652   0.636   1.472   1.702 -2.9402 -2.7787  0.8904
 8731SOL    HW237653   0.565   1.581   1.633  0.3491 -1.7790 -0.2823
 8732SOL     OW37654   2.587   1.968   5.544  0.1301 -0.3889  0.0641
 8732SOL    HW137655   2.623   2.036   5.486  2.3323 -0.9552  0.7589
 8732SOL    HW237656   2.495   1.994   5.550  0.5982  1.1593  0.6044
 8733SOL     OW37657   0.247   3.770  17.240  0.5549  0.4575 -0.2391
 8733SOL    HW137658   0.229   3.845  17.183 -0.5956 -0.9614 -1.7502
 8733SOL    HW237659   0.173   3.770  17.300 -1.1818 -0.2652 -2.4002
 8734SOL     OW37660   1.177   3.770   8.315  0.3782  0.1019 -0.2382
 8734SOL    HW137661   1.273   3.768   8.320  0.4116 -1.6228 -1.7088
 8734SOL    HW237662   1.177   3.863   8.294 -0.3445 -0.4095 -2.4575
 8735SOL     OW37663   1.994   4.095   7.806  0.7361 -0.1292 -0.2474
 8735SOL    HW137664   2.067   4.087   7.867  1.9390 -0.0274 -1.6614
 8735SOL    HW237665   2.023   4.063   7.720  1.9077 -1.2967  0.5796
 8736SOL     OW37666   2.100   2.857   7.718  0.1242  0.5434  0.4790
 8736SOL    HW137667   2.076   2.804   7.642 -0.8935  0.8147  0.6117
 8736SOL    HW237668   2.010   2.887   7.733 -0.7011 -0.8703 -1.6174
 8737SOL     OW37669   1.040   4.188   7.191  0.2501 -0.1775 -0.3702
 8737SOL    HW137670   1.127   4.226   7.181  0.1779 -0.2103 -1.1052
 8737SOL    HW237671   0.992   4.222   7.115 -0.3687  1.8048  0.8999
 8738SOL     OW37672   1.613   0.450   8.182  0.4146  0.4234  0.2159
 8738SOL    HW137673   1.670   0.491   8.247  0.2946 -0.3221  0.7956
 8738SOL    HW237674   1.531   0.492   8.205 -0.2825 -0.0434 -1.4421
 8739SOL     OW37675   4.646   0.232   1.112 -0.1529  0.1293 -0.0769
 8739SOL    HW137676   4.556   0.199   1.110  0.9435 -2.8699  0.5233
 8739SOL    HW237677   4.648   0.269   1.023 -2.5817 -0.8482 -0.5238
 8740SOL     OW37678   2.955   0.472   5.584  0.4153 -0.0762  0.1738
 8740SOL    HW137679   2.958   0.413   5.509  0.6374  2.2636 -1.6624
 8740SOL    HW237680   2.976   0.408   5.652  0.0421 -2.8318 -2.2915
 8741SOL     OW37681   0.278   1.953   8.728 -0.1399 -0.5426 -0.5757
 8741SOL    HW137682   0.344   1.947   8.797 -0.1639 -1.2814 -0.6155
 8741SOL    HW237683   0.200   1.921   8.773 -0.3041  0.0615 -0.4289
 8742SOL     OW37684   1.734   0.635  17.145  0.2204  0.1923  0.1270
 8742SOL    HW137685   1.700   0.708  17.093 -0.2027  0.3102  0.5612
 8742SOL    HW237686   1.654   0.610  17.191 -0.3925  0.1772 -0.9587
 8743SOL     OW37687   2.034   0.583  17.359 -0.0133  0.7067 -1.0149
 8743SOL    HW137688   1.998   0.505  17.317 -1.1906  0.8224 -0.2381
 8743SOL    HW237689   1.993   0.573  17.445  2.2153 -0.0862 -0.0446
 8744SOL     OW37690   1.370   4.387  11.252 -0.1355 -0.2003 -0.6278
 8744SOL    HW137691   1.387   4.481  11.253 -1.3200 -0.0219  1.1823
 8744SOL    HW237692   1.357   4.354  11.163 -0.2904  0.5043 -0.8697
 8745SOL     OW37693   1.985   2.561  15.945  0.3872  0.6397  0.3576
 8745SOL    HW137694   1.973   2.617  16.022  4.8390 -0.1748  1.6201
 8745SOL    HW237695   1.920   2.492  15.962  2.1185 -1.4841 -1.6728
 8746SOL     OW37696   1.429   0.876   0.613 -0.0423  0.3390 -0.0581
 8746SOL    HW137697   1.389   0.796   0.646  0.3885  0.2715  0.2885
 8746SOL    HW237698   1.417   0.935   0.687 -0.8859 -0.8093  0.7086
 8747SOL     OW37699   2.579   2.253  12.146  0.0403  0.5447 -0.1372
 8747SOL    HW137700   2.654   2.221  12.095 -1.0432 -0.0146 -1.3727
 8747SOL    HW237701   2.569   2.343  12.116  0.7269  0.2164 -1.3398
 8748SOL     OW37702   2.364   1.657  12.730 -0.4621  0.6602 -0.2815
 8748SOL    HW137703   2.370   1.645  12.636  0.1166  0.7396 -0.2505
 8748SOL    HW237704   2.406   1.741  12.748  0.5740  0.0631  0.0605
 8749SOL     OW37705   2.897   2.515  15.421  0.0710 -0.2046  0.0494
 8749SOL    HW137706   2.926   2.534  15.510  1.6107  0.3294 -0.5652
 8749SOL    HW237707   2.902   2.595  15.370  1.5091  0.2069  0.8351
 8750SOL     OW37708   1.005   3.031   0.794 -0.2921 -0.0005  0.2676
 8750SOL    HW137709   0.956   3.094   0.742  0.7181 -1.4885 -2.5442
 8750SOL    HW237710   1.083   3.012   0.741  0.2842 -0.5882  1.3260
 8751SOL     OW37711   1.728   1.571  11.249 -0.4137 -0.2368  0.9054
 8751SOL    HW137712   1.795   1.526  11.198 -2.3914 -0.2805 -1.6711
 8751SOL    HW237713   1.672   1.607  11.180  0.2718 -0.0678  0.4283
 8752SOL     OW37714   0.570   0.793   4.293  0.2667 -0.1219 -0.2001
 8752SOL    HW137715   0.663   0.792   4.314 -0.3738  1.3380  2.8156
 8752SOL    HW237716   0.579   0.859   4.225  0.5321  0.0962  0.0460
 8753SOL     OW37717   1.025   3.891   7.650  0.2165  0.0936 -0.0519
 8753SOL    HW137718   0.963   3.932   7.591  2.0661  1.6085 -0.9612
 8753SOL    HW237719   1.026   3.806   7.606  0.4453  0.5159 -0.8674
 8754SOL     OW37720   0.364   2.511  11.835  0.0282  0.5993 -0.1252
 8754SOL    HW137721   0.450   2.503  11.795 -0.6084  1.1752 -1.6009
 8754SOL    HW237722   0.343   2.424  11.870 -1.1172  0.5525 -0.9184
 8755SOL     OW37723   2.707   3.612   9.333 -0.1617  0.3727  0.1695
 8755SOL    HW137724   2.783   3.650   9.288 -0.9876 -0.7630 -2.1695
 8755SOL    HW237725   2.646   3.618   9.260 -1.5653 -3.4509  1.0401
 8756SOL     OW37726   0.501   1.949   8.908  0.4529 -0.2760 -0.2694
 8756SOL    HW137727   0.459   2.017   8.961 -2.3767 -1.9396 -0.3517
 8756SOL    HW237728   0.529   1.882   8.970 -3.0621 -2.3763 -0.9044
 8757SOL     OW37729   1.143   1.426   1.345  0.4647  0.6552  0.3485
 8757SOL    HW137730   1.210   1.492   1.326 -0.0340  0.4532 -2.1512
 8757SOL    HW237731   1.078   1.475   1.396 -2.5970 -3.2065  0.1693
 8758SOL     OW37732   3.207   2.820  12.195  0.4201  0.0734  0.1530
 8758SOL    HW137733   3.159   2.897  12.166 -2.1400 -1.2555  0.8948
 8758SOL    HW237734   3.295   2.849  12.172 -0.7461  1.8536 -2.0464
 8759SOL     OW37735   2.172   1.551   4.013  0.2261 -0.0769  0.1532
 8759SOL    HW137736   2.175   1.630   4.066 -0.1224 -1.4620  2.2330
 8759SOL    HW237737   2.261   1.553   3.976  1.0791  1.5673  2.2950
 8760SOL     OW37738   3.709   3.363   4.937 -0.0251 -0.2647 -0.7422
 8760SOL    HW137739   3.720   3.304   4.862 -0.7681 -2.3518  0.7980
 8760SOL    HW237740   3.709   3.296   5.006  0.4578  1.7700  1.2123
 8761SOL     OW37741   3.605   0.054   7.491 -0.7492  0.6820 -0.0426
 8761SOL    HW137742   3.565   0.045   7.577  1.4331  0.7910  1.0004
 8761SOL    HW237743   3.612   0.149   7.491  3.0013  0.4168  0.4132
 8762SOL     OW37744   1.069   3.495   4.294 -0.0188 -0.1223  0.5310
 8762SOL    HW137745   1.071   3.572   4.237  2.1369 -1.3478 -1.0242
 8762SOL    HW237746   1.095   3.434   4.225  0.2800  0.1395  0.4143
 8763SOL     OW37747   2.599   4.375  14.802 -0.1118  0.6566 -0.2675
 8763SOL    HW137748   2.589   4.293  14.850 -2.2057  1.2651  0.3819
 8763SOL    HW237749   2.522   4.389  14.747 -0.3655  1.3501  0.2573
 8764SOL     OW37750   4.293   3.995  17.244  0.7738 -0.0557 -0.2029
 8764SOL    HW137751   4.205   3.987  17.209 -0.4433 -0.1819  2.8821
 8764SOL    HW237752   4.309   4.090  17.242  3.7824 -0.5924 -1.0288
 8765SOL     OW37753   2.263   0.259   6.807  0.0616 -0.4829 -0.1260
 8765SOL    HW137754   2.170   0.235   6.799 -0.0369 -0.2279  0.2405
 8765SOL    HW237755   2.301   0.260   6.719 -0.6883 -0.7775 -0.4630
 8766SOL     OW37756   1.281   4.035   6.574  0.1252 -0.1809 -0.0451
 8766SOL    HW137757   1.352   3.984   6.611  0.5332  2.4273  2.7924
 8766SOL    HW237758   1.243   3.972   6.514  1.6225  0.0435 -1.2260
 8767SOL     OW37759   3.003   1.996   8.052  0.1031 -0.6103 -0.1453
 8767SOL    HW137760   2.930   2.000   7.990 -0.1200  0.4514  0.1753
 8767SOL    HW237761   2.957   1.999   8.136  0.8357 -1.4010  0.2838
 8768SOL     OW37762   2.226   2.007  11.813 -0.3599 -0.2799  0.0986
 8768SOL    HW137763   2.186   1.920  11.810  0.1248 -0.4388 -1.3514
 8768SOL    HW237764   2.273   2.009  11.897  0.2866 -1.3215 -0.2354
 8769SOL     OW37765   0.260   3.992   8.178 -0.3877 -0.1752 -0.2844
 8769SOL    HW137766   0.219   4.046   8.246  2.0292  1.6124 -0.2690
 8769SOL    HW237767   0.206   4.007   8.100 -0.5800  1.5601  0.1818
 8770SOL     OW37768   2.245   2.362   1.886  0.0179  0.1906  0.2246
 8770SOL    HW137769   2.152   2.367   1.909  0.1242  0.1776  0.6449
 8770SOL    HW237770   2.246   2.324   1.798  0.8593  1.3675 -0.2777
 8771SOL     OW37771   1.718   3.269   8.634 -0.7506 -0.0681  0.4332
 8771SOL    HW137772   1.766   3.348   8.608  0.0237 -1.0823 -1.2344
 8771SOL    HW237773   1.748   3.202   8.572 -2.4428 -0.6150  0.2013
 8772SOL     OW37774   1.011   1.957   7.004  0.0574 -0.1600 -0.6403
 8772SOL    HW137775   1.035   1.964   6.912 -1.1537  0.0708 -0.9304
 8772SOL    HW237776   1.072   2.014   7.050 -0.4772 -0.3273  0.2802
 8773SOL     OW37777   3.109   1.012   5.887  0.0919  0.1270  0.3477
 8773SOL    HW137778   3.077   0.948   5.824 -2.4992  0.4266  1.3959
 8773SOL    HW237779   3.172   1.066   5.840 -1.2087 -0.3202 -1.9138
 8774SOL     OW37780   1.814   3.043   6.441  0.6090 -0.1628  0.2489
 8774SOL    HW137781   1.774   3.040   6.354  0.3533  0.7438  0.3357
 8774SOL    HW237782   1.839   2.953   6.461  1.1833  0.2787  1.6029
 8775SOL     OW37783   1.293   3.882   0.865 -0.1303  0.1594 -0.1427
 8775SOL    HW137784   1.307   3.788   0.877  0.1121  0.0030 -1.6013
 8775SOL    HW237785   1.295   3.884   0.769 -2.7807  3.7411 -0.1268
 8776SOL     OW37786   2.476   2.600   5.725  0.0438 -0.6026  0.2221
 8776SOL    HW137787   2.531   2.545   5.670  0.8242  0.2792  0.1243
 8776SOL    HW237788   2.471   2.673   5.665  0.2708 -2.0664 -1.5668
 8777SOL     OW37789   4.074   1.385  16.903 -0.4955  0.0810 -0.3100
 8777SOL    HW137790   4.046   1.386  16.994 -3.3493  1.8038 -1.1907
 8777SOL    HW237791   4.169   1.383  16.899 -0.4122  2.1447  0.5919
 8778SOL     OW37792   1.886   2.623  17.324  0.0155 -0.5293 -0.9498
 8778SOL    HW137793   1.973   2.586  17.333  0.0470 -0.3551 -0.5721
 8778SOL    HW237794   1.870   2.597  17.233 -0.5785 -2.6702 -0.2358
 8779SOL     OW37795   4.429   3.571   7.420 -0.1737 -0.0772 -0.0014
 8779SOL    HW137796   4.509   3.625   7.417  0.3307 -0.8413 -0.4423
 8779SOL    HW237797   4.437   3.537   7.509 -1.8224 -1.3771 -0.3654
 8780SOL     OW37798   4.647   0.667   0.958  0.2665 -0.5166  0.1530
 8780SOL    HW137799   4.633   0.654   1.052  1.6375 -1.5290  0.2166
 8780SOL    HW237800   4.609   0.754   0.948 -1.1454 -0.7777  3.2325
 8781SOL     OW37801   2.081   0.054   2.917  0.2435 -0.0028  0.1363
 8781SOL    HW137802   2.133   0.063   2.837 -0.4268 -1.0145 -0.4131
 8781SOL    HW237803   2.125   4.710   2.966 -0.4799  0.1655  1.0174
 8782SOL     OW37804   4.341   0.144   8.729 -0.0379 -0.4205  0.6177
 8782SOL    HW137805   4.412   0.181   8.677 -0.1796 -1.2104 -0.1457
 8782SOL    HW237806   4.264   0.169   8.677  1.5074  1.1001 -0.9339
 8783SOL     OW37807   3.296   3.908   3.256 -0.1923 -0.0459  0.3305
 8783SOL    HW137808   3.294   3.976   3.324  0.7736 -0.0615  0.3767
 8783SOL    HW237809   3.246   3.843   3.306 -0.8700  0.5707  0.4601
 8784SOL     OW37810   2.524   4.456   4.687  0.1468  0.2996 -0.1646
 8784SOL    HW137811   2.520   4.536   4.739 -1.1791  1.4038 -1.9839
 8784SOL    HW237812   2.619   4.444   4.681  0.2532  1.0168  0.1485
 8785SOL     OW37813   3.387   0.825   6.363 -0.0702  0.3147  0.0240
 8785SOL    HW137814   3.335   0.775   6.300  1.8886 -1.4315 -0.2220
 8785SOL    HW237815   3.451   0.866   6.305  0.5354 -0.6825 -0.0223
 8786SOL     OW37816   1.172   4.063  10.433  0.2407  0.2322  0.3792
 8786SOL    HW137817   1.178   4.113  10.352 -0.0551  0.8050  0.7098
 8786SOL    HW237818   1.204   4.122  10.502 -0.0031  1.9136 -0.9294
 8787SOL     OW37819   3.453   1.566   3.250  0.5628 -0.3962 -0.3799
 8787SOL    HW137820   3.523   1.529   3.195  0.3777  0.0590 -0.9275
 8787SOL    HW237821   3.497   1.646   3.280  2.1209 -1.2773 -0.2946
 8788SOL     OW37822   4.379   0.035   2.420 -0.0307 -0.2349 -0.0266
 8788SOL    HW137823   4.305   0.075   2.374  0.0502 -1.4375 -1.1933
 8788SOL    HW237824   4.348   0.036   2.511  1.1230 -0.4242  0.3588
 8789SOL     OW37825   0.074   0.983   9.144 -0.6785 -0.4343  0.4875
 8789SOL    HW137826   0.002   1.006   9.203 -0.5793 -0.4471  0.6144
 8789SOL    HW237827   0.039   0.925   9.077  0.4825 -0.7921  0.1789
 8790SOL     OW37828   4.313   2.523  11.156 -0.3928  0.4617  0.2888
 8790SOL    HW137829   4.288   2.437  11.122  0.8297  0.4678 -0.6209
 8790SOL    HW237830   4.344   2.514  11.246  1.3106  0.0100 -0.3482
 8791SOL     OW37831   1.607   3.490   9.728  0.3306 -0.4265  0.0196
 8791SOL    HW137832   1.626   3.562   9.789 -1.6443 -0.6115  0.8588
 8791SOL    HW237833   1.645   3.424   9.787  1.9418  0.0184 -0.5163
 8792SOL     OW37834   0.945   3.978   7.917 -0.3846 -0.2701  0.1791
 8792SOL    HW137835   0.894   4.056   7.893 -1.7504 -0.7033  1.7280
 8792SOL    HW237836   0.960   3.943   7.829  2.5206  1.6133 -0.0644
 8793SOL     OW37837   3.003   3.259   0.105 -0.0359 -0.0540 -0.0243
 8793SOL    HW137838   2.936   3.223   0.163  2.9618 -1.9394  2.2311
 8793SOL    HW237839   2.973   3.241   0.016  0.1310 -0.6599  0.0382
 8794SOL     OW37840   1.872   3.627   2.910  0.0204  0.2504  0.7256
 8794SOL    HW137841   1.921   3.649   2.832 -2.1335  0.6514 -0.5193
 8794SOL    HW237842   1.909   3.686   2.976 -1.7711  1.3683  0.7270
 8795SOL     OW37843   2.280   2.977   8.413 -0.4373 -0.1363  0.2024
 8795SOL    HW137844   2.243   2.989   8.500  0.8019  3.0978  0.2736
 8795SOL    HW237845   2.201   2.983   8.360 -1.0433  1.2337  1.2798
 8796SOL     OW37846   4.402   3.662   4.886 -0.4150 -0.1978 -0.1062
 8796SOL    HW137847   4.471   3.714   4.927  1.7942 -1.4690 -2.2320
 8796SOL    HW237848   4.409   3.713   4.805  4.2608 -1.4378 -0.4924
 8797SOL     OW37849   1.595   3.192   3.505  0.1802 -0.1437 -0.1835
 8797SOL    HW137850   1.514   3.152   3.537 -1.1122  2.7051  0.0913
 8797SOL    HW237851   1.574   3.242   3.427  1.3100 -0.3821 -0.6390
 8798SOL     OW37852   1.101   2.931  10.281  0.0416 -0.1692  0.3692
 8798SOL    HW137853   1.097   3.022  10.310  0.1211  0.8912 -2.9290
 8798SOL    HW237854   1.148   2.891  10.354  0.8823 -2.4762 -1.4355
 8799SOL     OW37855   2.224   1.352   0.983  0.7900  0.1787 -0.3197
 8799SOL    HW137856   2.162   1.422   0.964  0.8080  0.4871  0.7522
 8799SOL    HW237857   2.177   1.279   0.943 -1.5364  2.1003 -1.1304
 8800SOL     OW37858   1.901   4.210   8.144 -0.3002  0.0689  0.1883
 8800SOL    HW137859   1.982   4.207   8.094  0.4180 -0.0945  1.3755
 8800SOL    HW237860   1.865   4.126   8.117 -1.0370 -0.0524  1.5414
 8801SOL     OW37861   1.390   3.610   9.946 -0.0922  0.2817  0.6260
 8801SOL    HW137862   1.401   3.560  10.027  1.3764 -1.2260 -0.4889
 8801SOL    HW237863   1.352   3.690   9.982 -0.4885  0.3161  0.1308
 8802SOL     OW37864   1.865   1.786   8.213 -0.3180  0.1684  0.0036
 8802SOL    HW137865   1.781   1.795   8.258 -0.6077  0.3768 -0.5877
 8802SOL    HW237866   1.918   1.814   8.288  1.3923  2.2783 -1.9879
 8803SOL     OW37867   0.081   4.536   7.955  0.6844 -0.4721  0.0357
 8803SOL    HW137868   0.083   4.632   7.948 -2.6882 -0.4871 -0.8837
 8803SOL    HW237869   0.143   4.498   7.893  1.0324  0.8514 -0.4419
 8804SOL     OW37870   0.074   1.223   8.936 -0.3137 -0.2542 -0.0101
 8804SOL    HW137871   0.099   1.160   9.003 -3.0973 -0.3474  0.9484
 8804SOL    HW237872   0.121   1.193   8.858  1.1859  1.9986  0.0143
 8805SOL     OW37873   0.305   0.330   8.063  0.1308 -0.1873 -0.2833
 8805SOL    HW137874   0.236   0.311   8.126  0.7764 -0.3426  0.3842
 8805SOL    HW237875   0.274   0.409   8.020 -1.6925  0.0506  1.4817
 8806SOL     OW37876   4.253   2.942   3.784 -0.6711 -0.4197  0.1264
 8806SOL    HW137877   4.329   2.998   3.767 -1.6508 -0.1151 -3.1206
 8806SOL    HW237878   4.292   2.879   3.843  0.9981  1.1569  0.7122
 8807SOL     OW37879   1.374   3.479  16.031 -0.1961 -0.0635 -0.1897
 8807SOL    HW137880   1.332   3.552  16.078  1.1646 -0.5700  1.7986
 8807SOL    HW237881   1.312   3.475  15.958  0.3993 -0.8132 -0.6408
 8808SOL     OW37882   2.024   4.416  13.681  0.0872 -0.4154  0.4237
 8808SOL    HW137883   2.097   4.372  13.636 -0.0251  0.0913 -0.2603
 8808SOL    HW237884   1.946   4.413  13.625  1.7002  1.2883 -1.9558
 8809SOL     OW37885   0.726   1.561   3.968  0.3397  0.1393  0.0331
 8809SOL    HW137886   0.736   1.468   3.990  0.5337  0.7896  2.7802
 8809SOL    HW237887   0.750   1.602   4.052 -2.3849 -0.7450  1.2525
 8810SOL     OW37888   3.506   2.899   5.898  0.6183  0.2741 -0.1863
 8810SOL    HW137889   3.521   2.821   5.845  2.4581 -1.5660  2.9995
 8810SOL    HW237890   3.576   2.956   5.866  1.4690 -0.3842  0.4951
 8811SOL     OW37891   1.553   3.918   3.313 -0.3436  0.3121  0.0869
 8811SOL    HW137892   1.646   3.906   3.333 -0.5159 -0.2598  0.5574
 8811SOL    HW237893   1.548   4.011   3.290  1.2060  0.0658 -1.2381
 8812SOL     OW37894   4.327   1.244   1.053 -0.1559  0.5145 -0.0887
 8812SOL    HW137895   4.390   1.302   1.009  0.9480 -0.8851 -0.3683
 8812SOL    HW237896   4.383   1.172   1.083 -0.7531  0.1797  0.2256
 8813SOL     OW37897   3.150   4.700   8.498 -0.3321 -0.1129  0.2681
 8813SOL    HW137898   3.139   4.608   8.475  1.4241 -0.2235 -0.0961
 8813SOL    HW237899   3.232   0.002   8.458  0.4883 -3.9017 -0.5696
 8814SOL     OW37900   2.246   4.386   6.654  0.0563 -0.7129  0.3162
 8814SOL    HW137901   2.217   4.297   6.633  0.7013 -0.3858 -2.0057
 8814SOL    HW237902   2.200   4.405   6.735  1.8843 -1.2802  1.4889
 8815SOL     OW37903   3.290   1.810   5.022  0.1156 -0.0614 -0.3352
 8815SOL    HW137904   3.319   1.855   5.102  2.0470 -0.7827 -0.6254
 8815SOL    HW237905   3.295   1.719   5.049 -0.5144  1.0113  3.3912
 8816SOL     OW37906   4.436   0.175  17.306 -0.6604 -0.7624  0.4312
 8816SOL    HW137907   4.457   0.085  17.332 -2.2922 -1.2366  0.0936
 8816SOL    HW237908   4.416   0.207  17.394  0.0759 -0.3908  0.4659
 8817SOL     OW37909   2.133   3.656   1.350  0.3583  0.2698 -0.0718
 8817SOL    HW137910   2.166   3.578   1.306 -0.7649 -0.3983  0.2400
 8817SOL    HW237911   2.215   3.702   1.365 -0.7487  2.2179  0.0011
 8818SOL     OW37912   4.260   0.441   2.851  0.0748  0.1119  0.0460
 8818SOL    HW137913   4.184   0.442   2.794  0.6636 -0.8031 -0.7569
 8818SOL    HW237914   4.289   0.354   2.823 -1.7232  0.5992 -3.2781
 8819SOL     OW37915   2.741   1.307  13.743  0.5451 -0.2155  0.1002
 8819SOL    HW137916   2.732   1.402  13.735  2.6162  0.0864  1.3623
 8819SOL    HW237917   2.719   1.276  13.655  0.5961 -1.9598  0.6988
 8820SOL     OW37918   0.113   0.288   7.655 -0.0685 -0.1527  0.2640
 8820SOL    HW137919   0.183   0.227   7.633 -1.3125 -1.5055  0.1418
 8820SOL    HW237920   0.040   0.236   7.623 -1.5014  0.8900  1.8236
 8821SOL     OW37921   3.742   1.872   6.213 -0.0667 -0.0943 -0.0427
 8821SOL    HW137922   3.813   1.899   6.154 -1.1268  2.3287 -0.1932
 8821SOL    HW237923   3.710   1.957   6.244 -1.8846 -0.1875 -1.6803
 8822SOL     OW37924   0.124   3.089  14.915 -0.4689  0.5477 -0.1409
 8822SOL    HW137925   0.041   3.042  14.916  0.4117 -1.0081 -0.5328
 8822SOL    HW237926   0.169   3.033  14.978 -2.9738 -2.5166 -1.0961
 8823SOL     OW37927   4.305   3.592  15.276 -0.4969 -0.2691  0.2362
 8823SOL    HW137928   4.267   3.651  15.211  0.5106 -2.1486 -2.0771
 8823SOL    HW237929   4.297   3.654  15.348  0.1486  1.2889 -1.0292
 8824SOL     OW37930   0.602   2.770  12.743  0.8605  0.5437 -0.0440
 8824SOL    HW137931   0.599   2.795  12.650 -0.0302  0.2199 -0.1055
 8824SOL    HW237932   0.623   2.858  12.775 -0.0697  0.1548  1.5941
 8825SOL     OW37933   1.830   0.685  14.646 -0.4960  0.5220 -0.6114
 8825SOL    HW137934   1.918   0.671  14.613 -1.1274 -0.1100 -2.0202
 8825SOL    HW237935   1.823   0.615  14.711  0.8477  1.6621  0.7548
 8826SOL     OW37936   2.814   0.808  15.966  0.0615 -0.2217  0.4298
 8826SOL    HW137937   2.735   0.762  15.995 -1.5442  1.2093 -1.7162
 8826SOL    HW237938   2.868   0.809  16.045 -0.1982 -0.6075  0.6149
 8827SOL     OW37939   1.860   3.602  16.064  0.4586 -0.6093 -0.5141
 8827SOL    HW137940   1.939   3.644  16.032  0.8040 -0.5349  0.4361
 8827SOL    HW237941   1.802   3.671  16.030  0.2245  0.2245  1.5644
 8828SOL     OW37942   3.882   0.881   2.607  0.1396  0.4266  0.6681
 8828SOL    HW137943   3.930   0.866   2.688 -0.0141 -1.3919  0.4375
 8828SOL    HW237944   3.869   0.975   2.600 -1.2389  0.2060  0.2113
 8829SOL     OW37945   0.778   0.368   7.835  0.4084 -0.1952  0.3929
 8829SOL    HW137946   0.759   0.454   7.872 -0.0603  0.3111 -1.0069
 8829SOL    HW237947   0.861   0.346   7.878 -0.2764 -0.4719  1.5684
 8830SOL     OW37948   3.592   2.399  11.420 -0.0255 -0.1004  0.0470
 8830SOL    HW137949   3.574   2.315  11.379 -0.4398 -0.0418  0.1103
 8830SOL    HW237950   3.687   2.387  11.428 -0.0387 -1.2330 -1.6069
 8831SOL     OW37951   4.455   3.359   4.799 -0.0511 -0.2297  0.5859
 8831SOL    HW137952   4.538   3.343   4.755 -0.0097 -1.0710  0.9613
 8831SOL    HW237953   4.450   3.454   4.810  1.7125 -0.2718  1.8178
 8832SOL     OW37954   1.550   2.079   4.696  0.0172  0.4027  0.2963
 8832SOL    HW137955   1.477   2.018   4.710 -0.6446  1.0066 -0.4980
 8832SOL    HW237956   1.504   2.140   4.638  1.6308  0.4830 -0.9110
 8833SOL     OW37957   1.768   3.403   2.737 -0.2874  0.4408  0.0071
 8833SOL    HW137958   1.791   3.317   2.773 -0.9327 -0.6049 -2.0787
 8833SOL    HW237959   1.745   3.458   2.812  1.3432  0.0238  0.8138
 8834SOL     OW37960   3.136   1.310   5.638 -0.1905  0.4757 -0.2148
 8834SOL    HW137961   3.047   1.323   5.669 -0.3986 -2.9331  0.6025
 8834SOL    HW237962   3.166   1.401   5.641  0.4113  0.2092  1.9458
 8835SOL     OW37963   3.858   0.045   5.453 -0.1087  0.4281  0.9418
 8835SOL    HW137964   3.804   0.120   5.478 -0.7837  0.3086 -0.1333
 8835SOL    HW237965   3.795   4.698   5.450 -1.2759  1.4842 -0.3535
 8836SOL     OW37966   2.966   0.753  11.837  0.0929  0.4271  0.2518
 8836SOL    HW137967   2.957   0.809  11.914 -2.5712 -0.1788  0.3838
 8836SOL    HW237968   3.057   0.761  11.807 -0.8110 -0.5833 -2.7749
 8837SOL     OW37969   4.059   3.583   3.035 -0.0171 -0.6161  0.3904
 8837SOL    HW137970   4.045   3.653   3.099  0.3439 -0.8254  0.6955
 8837SOL    HW237971   3.967   3.581   3.010  0.5291  2.0525 -1.8085
 8838SOL     OW37972   1.233   2.545   3.080 -0.0455  0.1631 -0.6116
 8838SOL    HW137973   1.269   2.456   3.071 -1.7451 -0.6540  0.6223
 8838SOL    HW237974   1.292   2.586   3.142 -0.3687  1.1383 -0.9537
 8839SOL     OW37975   3.795   4.255   6.517  0.1402 -0.0078 -0.3788
 8839SOL    HW137976   3.774   4.202   6.593  0.3177 -0.0852 -0.3838
 8839SOL    HW237977   3.889   4.272   6.528  0.2996 -0.5589 -0.8901
 8840SOL     OW37978   4.709   1.843   6.152  0.8298  0.0860  0.4557
 8840SOL    HW137979   4.645   1.912   6.162  0.8954  0.3076 -0.7260
 8840SOL    HW237980   0.049   1.894   6.105  0.7986 -0.3680 -0.0781
 8841SOL     OW37981   3.902   0.412   7.576 -0.3414 -0.2182 -0.7137
 8841SOL    HW137982   3.961   0.370   7.512  0.7925  0.2729  0.0012
 8841SOL    HW237983   3.881   0.338   7.632  3.6843 -2.3486 -1.9836
 8842SOL     OW37984   3.078   0.339   9.090 -0.0200  0.4652  0.2286
 8842SOL    HW137985   3.092   0.244   9.085 -0.4768  0.3586  0.9468
 8842SOL    HW237986   3.014   0.345   9.019 -1.0700  1.3169  1.2497
 8843SOL     OW37987   1.431   0.641  16.573 -0.3063 -0.0934  0.7853
 8843SOL    HW137988   1.457   0.561  16.619 -1.3933 -0.6759  0.3881
 8843SOL    HW237989   1.339   0.641  16.600 -0.4038  0.6922  0.4650
 8844SOL     OW37990   0.908   3.443  17.197  0.5425 -0.8359  0.1173
 8844SOL    HW137991   0.981   3.389  17.227  1.3633  0.4371  0.4275
 8844SOL    HW237992   0.926   3.458  17.105  2.4359  0.5663  0.7026
 8845SOL     OW37993   2.569   2.511  15.415  0.3661 -0.2180 -0.0964
 8845SOL    HW137994   2.506   2.492  15.484 -0.7216  0.5264 -0.8839
 8845SOL    HW237995   2.542   2.447  15.348  0.2200 -0.9891  0.7041
 8846SOL     OW37996   0.691   1.993  14.929 -0.1245 -0.1281  0.1154
 8846SOL    HW137997   0.634   1.918  14.912  0.1610 -0.2729 -0.2112
 8846SOL    HW237998   0.674   2.040  14.848 -1.5352  1.2410  1.2276
 8847SOL     OW37999   1.272   2.260   3.597 -0.0789  0.4181 -0.2240
 8847SOL    HW138000   1.313   2.212   3.525 -1.0212  0.1417 -0.5870
 8847SOL    HW238001   1.227   2.322   3.539  1.1191  1.6959  0.2125
 8848SOL     OW38002   2.622   2.712  17.407 -0.0606 -0.2733  0.2895
 8848SOL    HW138003   2.564   2.636  17.398 -1.5199  0.5417  2.8431
 8848SOL    HW238004   2.582   2.777  17.350  2.1132  1.5258  0.8374
 8849SOL     OW38005   0.695   3.028  13.482  0.3386  0.5182 -0.4824
 8849SOL    HW138006   0.687   3.104  13.539 -0.2685 -0.1268  0.2841
 8849SOL    HW238007   0.790   3.024  13.466  0.5238  1.2586  0.4391
 8850SOL     OW38008   0.366   2.829   7.854  0.2722 -0.2304 -0.1190
 8850SOL    HW138009   0.461   2.825   7.859  0.0985  0.5391  3.2148
 8850SOL    HW238010   0.336   2.895   7.916 -0.9206 -0.1727 -0.7441
 8851SOL     OW38011   1.342   0.453   6.547 -0.3069 -0.4728  0.0022
 8851SOL    HW138012   1.293   0.532   6.524 -0.2202 -0.6339 -0.7458
 8851SOL    HW238013   1.283   0.412   6.611  0.1006 -1.4360 -0.2426
 8852SOL     OW38014   1.916   0.369  17.271 -0.3037 -0.4750  0.4691
 8852SOL    HW138015   1.821   0.364  17.258 -0.3872  1.6627  0.3208
 8852SOL    HW238016   1.943   0.330  17.188  0.0323 -1.6897  1.1472
 8853SOL     OW38017   2.224   1.109   4.890 -0.0343 -0.1945  0.2969
 8853SOL    HW138018   2.247   1.146   4.804 -1.0040  1.2412  0.6544
 8853SOL    HW238019   2.135   1.144   4.888  0.8531  2.1365  1.8132
 8854SOL     OW38020   0.917   2.942   9.849  0.4502  0.3293 -0.0255
 8854SOL    HW138021   0.904   2.975   9.760  0.1013  1.5987  0.4935
 8854SOL    HW238022   0.903   3.023   9.898  1.3463  1.4929 -1.7156
 8855SOL     OW38023   2.229   3.922   5.157 -0.5166 -0.0184  0.9476
 8855SOL    HW138024   2.248   3.852   5.219  0.5663 -1.6594 -1.2506
 8855SOL    HW238025   2.317   3.954   5.137  0.1959 -1.7488  1.3043
 8856SOL     OW38026   1.326   4.720   9.194  0.1483 -0.3554 -0.7219
 8856SOL    HW138027   1.403   4.699   9.246 -1.5533 -1.0989  1.4745
 8856SOL    HW238028   1.267   0.010   9.268  1.7989 -0.5996  0.6244
 8857SOL     OW38029   0.784   1.033   5.214 -0.3627  0.1549  0.2417
 8857SOL    HW138030   0.861   1.087   5.199  0.1242 -0.3798  0.8327
 8857SOL    HW238031   0.777   1.027   5.310 -0.0133  1.1792  0.3286
 8858SOL     OW38032   3.438   3.418  10.227 -0.2312  0.0756 -0.1403
 8858SOL    HW138033   3.475   3.427  10.139  0.5554  2.0420  0.3890
 8858SOL    HW238034   3.383   3.495  10.216  0.5141  0.6909  0.5006
 8859SOL     OW38035   1.999   3.551  12.866 -0.4179 -0.3640 -0.4078
 8859SOL    HW138036   2.043   3.472  12.834  0.2192 -0.5159  0.8401
 8859SOL    HW238037   2.021   3.548  12.959 -0.8138 -1.0354 -0.3351
 8860SOL     OW38038   2.158   0.489   5.981  0.2683 -0.0713 -0.2238
 8860SOL    HW138039   2.227   0.491   6.047 -0.8655  2.0681  0.9041
 8860SOL    HW238040   2.163   0.573   5.936  0.8144  0.0385  0.0408
 8861SOL     OW38041   1.941   3.240  17.101  0.5406  0.6990 -0.8516
 8861SOL    HW138042   1.913   3.306  17.038 -0.5255  1.9184  0.9065
 8861SOL    HW238043   1.913   3.284  17.181  0.4050  1.0199 -1.0790
 8862SOL     OW38044   3.173   4.644   7.497  0.4472  0.0793 -0.2237
 8862SOL    HW138045   3.218   4.582   7.440 -0.6257 -0.1420 -0.8253
 8862SOL    HW238046   3.230   4.644   7.574  1.7466  2.5650 -1.2008
 8863SOL     OW38047   2.280   0.198  12.188  0.4286 -0.3631 -0.3886
 8863SOL    HW138048   2.272   0.122  12.129 -0.4943  0.0937 -0.8532
 8863SOL    HW238049   2.196   0.240  12.169  0.4665  0.2928  0.9037
 8864SOL     OW38050   2.759   2.277   8.039  0.0261 -0.2006 -0.1106
 8864SOL    HW138051   2.831   2.326   7.997 -0.0140 -0.6345 -0.6821
 8864SOL    HW238052   2.727   2.345   8.098 -0.7015 -2.2575  1.8807
 8865SOL     OW38053   4.155   2.150   7.645 -0.1440  0.0016  0.6950
 8865SOL    HW138054   4.216   2.084   7.611 -0.6646 -0.7400  1.2064
 8865SOL    HW238055   4.219   2.218   7.666  2.4232 -1.8531 -1.1094
 8866SOL     OW38056   0.337   1.055   9.529 -0.5633 -0.0021 -0.1789
 8866SOL    HW138057   0.394   1.027   9.601 -1.8772 -0.7769  0.5787
 8866SOL    HW238058   0.392   1.124   9.491 -2.2564  1.4340 -0.0210
 8867SOL     OW38059   0.920   3.697   6.218 -0.4470 -0.1916  0.3551
 8867SOL    HW138060   0.954   3.610   6.238 -0.8348 -0.3451  0.3486
 8867SOL    HW238061   0.832   3.698   6.256 -0.1462  2.8229  0.9722
 8868SOL     OW38062   1.217   1.126   1.681  0.2883 -0.1274  0.3538
 8868SOL    HW138063   1.261   1.130   1.765 -2.5833 -1.5414  1.9367
 8868SOL    HW238064   1.282   1.151   1.615 -0.2840  0.5350  0.0359
 8869SOL     OW38065   1.730   1.723  16.638 -0.1320 -0.0877 -0.5079
 8869SOL    HW138066   1.817   1.763  16.648  0.6229 -1.4933 -1.4043
 8869SOL    HW238067   1.742   1.637  16.678  0.6396 -0.1033 -0.7768
 8870SOL     OW38068   2.638   4.247   7.706  0.1368  0.0416 -0.0643
 8870SOL    HW138069   2.642   4.280   7.796 -1.1447  0.6558 -0.2243
 8870SOL    HW238070   2.624   4.153   7.703  2.0362 -0.2203 -0.7947
 8871SOL     OW38071   2.825   0.215   7.751 -0.4788  0.0508  0.0370
 8871SOL    HW138072   2.762   0.273   7.793 -0.2246  0.3753 -0.0294
 8871SOL    HW238073   2.797   0.214   7.659 -3.4750 -3.1575  1.0080
 8872SOL     OW38074   3.326   4.142   6.139 -0.3946 -0.1503  0.8865
 8872SOL    HW138075   3.276   4.076   6.187 -1.5622 -0.1241 -0.2939
 8872SOL    HW238076   3.409   4.097   6.124  0.2007  0.6016  1.9555
 8873SOL     OW38077   0.887   0.602   7.646 -0.2914 -0.0200  0.3185
 8873SOL    HW138078   0.973   0.560   7.638 -0.5012 -0.4305  0.2179
 8873SOL    HW238079   0.863   0.607   7.554  1.9441 -0.2419 -0.2858
 8874SOL     OW38080   3.507   0.300   4.414 -0.2171  0.1172  0.7463
 8874SOL    HW138081   3.505   0.266   4.504  0.1168 -0.3143  0.5925
 8874SOL    HW238082   3.413   0.311   4.405 -0.0002 -0.5002 -2.0142
 8875SOL     OW38083   1.303   2.762  14.840 -0.4772 -0.3773 -0.0222
 8875SOL    HW138084   1.373   2.806  14.886 -2.4128  2.1571  0.5203
 8875SOL    HW238085   1.341   2.766  14.752  2.0625 -1.1714  1.0668
 8876SOL     OW38086   3.451   4.402   3.744 -0.1468 -0.3453  0.5886
 8876SOL    HW138087   3.490   4.379   3.660 -2.0650  1.0020 -0.6495
 8876SOL    HW238088   3.390   4.468   3.712  0.2832 -0.4253 -0.3896
 8877SOL     OW38089   1.360   3.155   4.240  0.2121 -0.9188 -0.1145
 8877SOL    HW138090   1.359   3.238   4.288 -1.2219 -0.8049 -0.3256
 8877SOL    HW238091   1.437   3.162   4.183  0.4822 -0.6128  0.2890
 8878SOL     OW38092   1.814   2.214   2.118  0.5763 -0.3870  0.0793
 8878SOL    HW138093   1.803   2.145   2.183 -1.6070 -1.2076 -1.1766
 8878SOL    HW238094   1.858   2.169   2.045 -0.0244 -0.7612 -0.0478
 8879SOL     OW38095   4.632   0.049   2.744  0.1123 -0.3220 -0.5189
 8879SOL    HW138096   4.562   0.095   2.698  1.4151  3.1148  1.0194
 8879SOL    HW238097   4.701   0.093   2.695  0.2818 -0.2055 -0.1689
 8880SOL     OW38098   0.751   2.618   2.968  0.5084  0.0921 -0.8120
 8880SOL    HW138099   0.745   2.682   2.897 -1.3946 -1.3913 -1.9864
 8880SOL    HW238100   0.836   2.578   2.950  0.0554 -1.7304  1.1845
 8881SOL     OW38101   4.623   1.309   0.692  0.0924  0.0871  0.7531
 8881SOL    HW138102   4.623   1.297   0.597  0.9291  0.3854  0.7209
 8881SOL    HW238103   4.649   1.223   0.725  2.6603  0.8843  0.8056
 8882SOL     OW38104   2.542   4.155   4.768 -0.6685  0.3477  0.0973
 8882SOL    HW138105   2.530   4.238   4.723  0.1392  0.8226  0.7556
 8882SOL    HW238106   2.478   4.113   4.710 -0.3394 -0.2530  0.1666
 8883SOL     OW38107   4.600   1.274  14.466  0.5429  0.2263 -0.0127
 8883SOL    HW138108   4.641   1.320  14.540 -2.7865 -0.9550  2.5270
 8883SOL    HW238109   4.509   1.299  14.478 -0.3312 -2.4181 -1.0842
 8884SOL     OW38110   2.558   3.818   8.922  0.4356  0.0452 -0.4772
 8884SOL    HW138111   2.622   3.803   8.852  2.9774  2.6161  1.3188
 8884SOL    HW238112   2.474   3.804   8.878  0.1662  1.3840 -0.3723
 8885SOL     OW38113   2.151   1.791   4.667  0.1502 -0.1426  0.0093
 8885SOL    HW138114   2.191   1.750   4.591 -0.9758  0.2103 -0.7687
 8885SOL    HW238115   2.151   1.723   4.734  0.5965 -1.1436 -1.0235
 8886SOL     OW38116   4.167   0.461   2.569  0.3223 -0.1844 -0.5039
 8886SOL    HW138117   4.169   0.556   2.561 -2.2506 -0.2869 -2.5728
 8886SOL    HW238118   4.251   0.437   2.531 -0.8473 -0.4664 -2.9632
 8887SOL     OW38119   1.879   3.529   0.334 -0.5970  0.4321 -0.0496
 8887SOL    HW138120   1.960   3.559   0.293  0.0922 -1.2812  0.0512
 8887SOL    HW238121   1.908   3.446   0.370 -1.5216 -0.8267 -2.2235
 8888SOL     OW38122   0.465   0.254  13.111  0.6720  0.0191 -0.3584
 8888SOL    HW138123   0.493   0.216  13.195  1.5005  0.2399 -0.5436
 8888SOL    HW238124   0.419   0.332  13.142 -0.9070 -0.6032 -1.1364
 8889SOL     OW38125   1.288   2.884  16.462 -0.2495  0.2864 -0.7788
 8889SOL    HW138126   1.266   2.808  16.408 -1.9030 -0.1123  0.4454
 8889SOL    HW238127   1.234   2.864  16.539 -0.2691  1.2879 -0.5353
 8890SOL     OW38128   0.793   1.045   6.200 -1.3238 -0.0591  0.3390
 8890SOL    HW138129   0.750   1.129   6.213 -1.4554 -0.5250  2.9071
 8890SOL    HW238130   0.765   0.994   6.276 -1.3132  2.1239  1.8185
 8891SOL     OW38131   3.618   1.774   4.131  0.7065 -0.0488  0.4624
 8891SOL    HW138132   3.651   1.822   4.056 -0.0773  1.3680  1.0176
 8891SOL    HW238133   3.690   1.794   4.191 -0.1863  1.3537  1.0706
 8892SOL     OW38134   2.283   1.403   7.999 -0.6053  0.1554 -0.1035
 8892SOL    HW138135   2.221   1.408   8.071 -0.9310 -0.1871 -0.3588
 8892SOL    HW238136   2.332   1.484   8.013 -0.3727 -0.0666  0.3403
 8893SOL     OW38137   2.719   0.709   5.925 -0.1000 -0.4860  0.2576
 8893SOL    HW138138   2.635   0.747   5.900  0.5381  0.3108 -0.6667
 8893SOL    HW238139   2.766   0.786   5.957 -1.0163 -0.3536  1.3036
 8894SOL     OW38140   2.798   1.343   2.297  0.0051  0.4529  0.5440
 8894SOL    HW138141   2.881   1.297   2.282  0.1790  1.8979 -3.1647
 8894SOL    HW238142   2.731   1.286   2.260  0.2924  0.9184 -0.7188
 8895SOL     OW38143   1.392   0.757   2.316  0.2981  0.1244 -0.0532
 8895SOL    HW138144   1.397   0.721   2.404  0.4560  2.8969  1.0713
 8895SOL    HW238145   1.481   0.734   2.291 -0.2069  0.8972 -2.6635
 8896SOL     OW38146   1.382   4.325   0.835 -0.4498  0.0399 -0.1135
 8896SOL    HW138147   1.415   4.304   0.923 -1.1076 -0.0032  0.1249
 8896SOL    HW238148   1.455   4.363   0.787 -1.7007 -0.0951 -2.1110
 8897SOL     OW38149   2.689   1.087   7.001 -0.0847  0.2583 -0.2111
 8897SOL    HW138150   2.703   1.095   6.907  0.2126 -1.2777 -0.2936
 8897SOL    HW238151   2.632   1.010   6.993  0.4253 -0.2747  1.1906
 8898SOL     OW38152   0.219   0.003   2.571 -0.2390 -0.0734  0.2950
 8898SOL    HW138153   0.174   4.645   2.584 -1.5629  0.8504  1.7532
 8898SOL    HW238154   0.276   4.724   2.648  3.6351  0.1503 -2.5645
 8899SOL     OW38155   3.588   2.135   2.380  0.2811  0.2014 -0.2003
 8899SOL    HW138156   3.610   2.081   2.304  1.3270 -0.2899  0.4544
 8899SOL    HW238157   3.658   2.200   2.380  0.3085  0.1660  0.4401
 8900SOL     OW38158   1.483   3.103   4.632  0.2122  0.8134 -0.4964
 8900SOL    HW138159   1.421   3.110   4.704  0.2910 -0.0537 -0.3408
 8900SOL    HW238160   1.482   3.007   4.625  0.0087  0.7177  1.0242
 8901SOL     OW38161   2.854   3.005   5.145  0.8962 -0.3008  0.1264
 8901SOL    HW138162   2.814   2.919   5.150 -1.9945  1.1245  1.2402
 8901SOL    HW238163   2.876   3.014   5.238  3.2675  3.6892 -0.8218
 8902SOL     OW38164   1.832   1.928   3.044 -0.0467  0.7016 -0.4626
 8902SOL    HW138165   1.761   1.883   3.090  1.0373  2.3613  2.8433
 8902SOL    HW238166   1.879   1.962   3.120  1.3684 -1.1325 -0.5256
 8903SOL     OW38167   1.358   4.619  10.886  0.3947 -0.5328 -0.1643
 8903SOL    HW138168   1.306   4.544  10.912  0.1726  1.0437  3.8639
 8903SOL    HW238169   1.372   4.657  10.973  0.3009  1.0938 -0.8512
 8904SOL     OW38170   3.844   4.294   0.176  0.0213 -0.3783  0.3817
 8904SOL    HW138171   3.808   4.373   0.135 -2.0286 -0.8691  1.2267
 8904SOL    HW238172   3.821   4.231   0.108 -1.6010  2.4394 -1.6806
 8905SOL     OW38173   3.473   0.538   2.276 -0.5589 -0.0878  0.0689
 8905SOL    HW138174   3.447   0.490   2.354 -0.9586 -0.9703 -0.6061
 8905SOL    HW238175   3.403   0.603   2.274  0.7549  1.2912 -0.5670
 8906SOL     OW38176   1.271   1.810   2.671  0.0032 -0.4344 -0.4734
 8906SOL    HW138177   1.287   1.717   2.655 -0.4263 -0.6033  0.0859
 8906SOL    HW238178   1.179   1.815   2.697 -0.2007  2.3450 -1.7593
 8907SOL     OW38179   0.273   4.189   7.205  0.1592  0.3854 -0.3926
 8907SOL    HW138180   0.275   4.281   7.231 -0.1012  0.7250 -1.5739
 8907SOL    HW238181   0.343   4.157   7.261  0.0551  0.1434 -0.4020
 8908SOL     OW38182   0.173   3.407   2.089 -0.5083  0.6396 -0.1736
 8908SOL    HW138183   0.261   3.437   2.064 -0.4829  0.6221 -0.1054
 8908SOL    HW238184   0.157   3.358   2.008  2.4271 -0.8272  0.1047
 8909SOL     OW38185   3.985   4.717   1.973 -0.4442 -0.4536 -0.0755
 8909SOL    HW138186   3.918   4.667   1.927  0.4154 -0.1462 -1.6770
 8909SOL    HW238187   4.047   0.001   1.901 -1.1561 -0.4828 -0.6998
 8910SOL     OW38188   4.488   1.384   4.274  0.4743  0.1655 -0.3961
 8910SOL    HW138189   4.473   1.457   4.214 -1.0831  0.2480  0.1067
 8910SOL    HW238190   4.540   1.437   4.334 -0.4504 -0.9946  1.4379
 8911SOL     OW38191   0.258   4.361   7.831 -0.2397 -0.3086 -0.0907
 8911SOL    HW138192   0.175   4.322   7.804  0.7697 -2.4036 -0.1577
 8911SOL    HW238193   0.299   4.369   7.745  0.3233  1.2616  0.3338
 8912SOL     OW38194   2.412   1.875  12.305  0.1877  0.0647  0.6269
 8912SOL    HW138195   2.337   1.928  12.331 -0.7136 -0.2737 -1.2971
 8912SOL    HW238196   2.389   1.783  12.313  1.9064 -0.3651  0.5714
 8913SOL     OW38197   0.506   2.913   4.617 -0.2477  0.2022 -0.1706
 8913SOL    HW138198   0.596   2.881   4.615 -0.4812 -0.3913 -0.9690
 8913SOL    HW238199   0.512   2.961   4.535  1.6438  1.7837  0.8829
 8914SOL     OW38200   2.521   2.852  14.557  0.7063  0.1432 -0.0167
 8914SOL    HW138201   2.461   2.891  14.620  0.8576 -2.2235  1.6031
 8914SOL    HW238202   2.475   2.776  14.521  2.4736 -0.6128 -0.6873
 8915SOL     OW38203   3.563   4.323   5.492  0.0721  0.6431  0.0152
 8915SOL    HW138204   3.494   4.386   5.471 -1.6034 -0.8716  0.9538
 8915SOL    HW238205   3.534   4.294   5.578  2.0777 -0.1313  0.4288
 8916SOL     OW38206   2.181   4.304   1.247  0.0600  0.6395 -0.4160
 8916SOL    HW138207   2.249   4.360   1.208  1.4765  0.1415  1.3040
 8916SOL    HW238208   2.232   4.223   1.255 -1.2076 -0.1000  0.1389
 8917SOL     OW38209   2.375   3.582  10.482  0.3378 -0.1675 -0.7223
 8917SOL    HW138210   2.365   3.568  10.576 -1.4565  0.3652 -0.8233
 8917SOL    HW238211   2.368   3.677  10.478 -0.5973 -0.1279  1.7544
 8918SOL     OW38212   3.936   4.249   1.982 -0.5418  0.0252  0.7057
 8918SOL    HW138213   3.978   4.187   2.041  1.1692 -1.1030 -1.6815
 8918SOL    HW238214   3.981   4.333   1.989  0.6111 -0.3803 -1.6637
 8919SOL     OW38215   1.720   1.489   3.163 -0.5583 -0.4702  0.0387
 8919SOL    HW138216   1.766   1.557   3.213  2.1273 -0.9327 -1.8660
 8919SOL    HW238217   1.663   1.543   3.108  1.7578  0.5300 -1.3211
 8920SOL     OW38218   2.102   4.704   1.186 -0.1337 -0.2753  0.1715
 8920SOL    HW138219   2.015   4.724   1.221  0.0937  3.4972 -1.3551
 8920SOL    HW238220   2.078   4.688   1.094 -1.8158  0.1531  0.5411
 8921SOL     OW38221   2.228   4.169  14.644 -0.2725 -0.3649 -0.5420
 8921SOL    HW138222   2.224   4.085  14.599 -0.3652 -0.8990  0.4692
 8921SOL    HW238223   2.157   4.170  14.709 -0.7908 -0.2016 -1.1151
 8922SOL     OW38224   0.521   3.749   3.900 -0.1137 -0.1172  0.1848
 8922SOL    HW138225   0.589   3.728   3.964  0.7494  1.0992 -0.3113
 8922SOL    HW238226   0.580   3.780   3.831 -1.5291  2.7871  0.2638
 8923SOL     OW38227   2.403   1.903   3.379 -0.3137  0.7939 -0.6506
 8923SOL    HW138228   2.492   1.872   3.399 -1.0289  0.3828  1.9123
 8923SOL    HW238229   2.419   1.989   3.340  2.2551 -0.9461 -3.4734
 8924SOL     OW38230   2.297   4.292  11.753 -0.2198  0.5573  0.5287
 8924SOL    HW138231   2.381   4.251  11.775  0.7626  1.4443 -1.5085
 8924SOL    HW238232   2.326   4.309  11.663  0.7352  0.4999  0.8222
 8925SOL     OW38233   3.994   1.054   6.191 -0.1876  0.2136  0.0029
 8925SOL    HW138234   4.027   1.127   6.140 -1.1436  0.5684 -0.1145
 8925SOL    HW238235   3.899   1.056   6.182 -0.0024  2.1086 -1.4728
 8926SOL     OW38236   3.042   0.489  15.270 -0.0877  0.2756 -0.3864
 8926SOL    HW138237   3.099   0.422  15.309  1.6591  1.3412 -1.1244
 8926SOL    HW238238   2.973   0.485  15.336  1.5114  0.0879  1.2672
 8927SOL     OW38239   3.576   1.929  12.784  0.2258 -0.3291 -0.1386
 8927SOL    HW138240   3.520   1.950  12.709 -0.9073  1.9346  1.3182
 8927SOL    HW238241   3.520   1.956  12.858 -0.8778 -0.8774 -0.7694
 8928SOL     OW38242   3.025   2.683   2.255 -0.2822 -0.1439 -0.5341
 8928SOL    HW138243   3.010   2.677   2.349  2.8335 -1.0488 -0.0996
 8928SOL    HW238244   3.085   2.757   2.249  1.3880 -1.1743  3.6624
 8929SOL     OW38245   2.170   2.227   4.224 -0.0946  0.5540 -0.0340
 8929SOL    HW138246   2.213   2.207   4.307  0.3007  0.5912 -0.2313
 8929SOL    HW238247   2.101   2.287   4.252 -0.7066 -0.0105 -0.3160
 8930SOL     OW38248   1.076   1.948   2.286 -0.6368 -0.3611  0.1908
 8930SOL    HW138249   0.981   1.936   2.285 -0.6583 -0.3220  1.5168
 8930SOL    HW238250   1.105   1.880   2.347 -0.7292 -1.0056 -0.4870
 8931SOL     OW38251   2.110   3.122   2.947 -0.5826  0.2232  0.1696
 8931SOL    HW138252   2.167   3.064   2.996  1.7690  0.8065 -1.8945
 8931SOL    HW238253   2.147   3.209   2.963 -1.4999 -0.2094  4.7188
 8932SOL     OW38254   3.376   2.344   2.390 -0.2292 -0.5896 -0.3521
 8932SOL    HW138255   3.353   2.266   2.340  0.1214 -0.5437 -0.5833
 8932SOL    HW238256   3.431   2.390   2.327 -0.3894  0.2172  0.0986
 8933SOL     OW38257   2.426   1.663   7.526  0.2304  0.3393 -0.0230
 8933SOL    HW138258   2.347   1.676   7.475  0.0557 -0.3813  0.0712
 8933SOL    HW238259   2.412   1.720   7.602  2.6638  0.4694  0.3600
 8934SOL     OW38260   2.430   4.624   5.407  0.6474  0.6972  0.5858
 8934SOL    HW138261   2.394   4.628   5.496  2.6656 -1.0226  1.4594
 8934SOL    HW238262   2.367   4.567   5.363 -1.2014  2.3834  1.0153
 8935SOL     OW38263   1.029   2.090  14.567  0.4571 -0.4386 -0.3226
 8935SOL    HW138264   1.060   2.123  14.651  1.5989  1.2834 -1.4035
 8935SOL    HW238265   1.097   2.024  14.561 -0.0776 -0.9232 -1.1018
 8936SOL     OW38266   1.279   1.043   9.390 -0.3746 -0.1418  0.2798
 8936SOL    HW138267   1.333   1.012   9.317  0.3949  3.1694 -0.5953
 8936SOL    HW238268   1.218   1.097   9.340  0.5670 -0.6655 -1.4322
 8937SOL     OW38269   4.438   1.960   8.476 -0.8424  0.1802 -0.0658
 8937SOL    HW138270   4.506   2.021   8.448 -1.1576  0.2478 -0.6913
 8937SOL    HW238271   4.410   1.919   8.394 -3.0811 -0.4421  1.0099
 8938SOL     OW38272   2.243   1.844   4.944  0.2818 -0.1926  0.5867
 8938SOL    HW138273   2.319   1.786   4.947  1.4148  1.1178 -2.4690
 8938SOL    HW238274   2.251   1.878   4.855 -0.3479 -2.1626 -0.2143
 8939SOL     OW38275   2.773   1.881   1.801  0.1959 -0.3954  0.1465
 8939SOL    HW138276   2.857   1.836   1.810  1.1714  1.7436  1.4312
 8939SOL    HW238277   2.785   1.952   1.863  2.9255 -0.0121 -0.8457
 8940SOL     OW38278   4.227   2.091   6.920 -0.7318 -0.3902  0.2353
 8940SOL    HW138279   4.166   2.110   6.849 -1.1151  1.3659  1.0215
 8940SOL    HW238280   4.307   2.084   6.868 -1.2989  0.0594 -0.6964
 8941SOL     OW38281   4.128   3.241   2.318  0.7100 -0.0863 -0.0564
 8941SOL    HW138282   4.151   3.308   2.383 -4.5949  0.8242  0.8469
 8941SOL    HW238283   4.165   3.284   2.240  1.9582 -1.5719 -0.2847
 8942SOL     OW38284   3.716   1.547  15.819  0.1076 -0.6931  0.1586
 8942SOL    HW138285   3.668   1.617  15.863  1.1666  0.3117 -0.2751
 8942SOL    HW238286   3.675   1.556  15.733  1.2519  0.3390 -0.2706
 8943SOL     OW38287   2.552   0.801  10.622  0.1530 -0.3674  0.3016
 8943SOL    HW138288   2.549   0.854  10.701  0.1056 -1.1528  0.8172
 8943SOL    HW238289   2.598   0.863  10.565  0.7975  0.1236  1.3649
 8944SOL     OW38290   1.034   0.913   6.315 -0.5717 -0.0415  0.0375
 8944SOL    HW138291   0.971   0.985   6.308 -2.3775 -1.6033  0.1189
 8944SOL    HW238292   0.994   0.838   6.271  1.0309 -1.0339  0.2941
 8945SOL     OW38293   2.104   1.778  11.816  0.4541  0.2090 -0.1874
 8945SOL    HW138294   2.057   1.754  11.736 -0.0242 -2.0445  0.7501
 8945SOL    HW238295   2.126   1.687  11.840 -0.9658  0.0654  0.5979
 8946SOL     OW38296   0.244   1.279   7.207 -0.1910  0.2510  0.5052
 8946SOL    HW138297   0.217   1.367   7.236  1.7598  0.7406  0.8431
 8946SOL    HW238298   0.242   1.285   7.111 -1.0068  2.2777  0.6249
 8947SOL     OW38299   4.636   3.782   1.713  0.2191 -0.7195 -0.5560
 8947SOL    HW138300   4.584   3.859   1.738  1.5864  0.0543 -0.0766
 8947SOL    HW238301   4.646   3.793   1.619  2.6347 -2.3579 -0.4822
 8948SOL     OW38302   0.598   3.942   4.489 -0.0107  0.3403  0.9049
 8948SOL    HW138303   0.618   3.921   4.580 -1.7966 -4.9162  0.0856
 8948SOL    HW238304   0.579   4.035   4.503  1.8464  1.0529 -1.4276
 8949SOL     OW38305   0.641   0.754   3.660  0.0616  0.1821 -0.7784
 8949SOL    HW138306   0.547   0.772   3.665  0.1342  0.7959 -1.6048
 8949SOL    HW238307   0.664   0.774   3.569  2.8462  1.7111  0.2626
 8950SOL     OW38308   3.443   1.701   8.229 -0.4802  0.0785 -0.0757
 8950SOL    HW138309   3.360   1.743   8.206  1.9078  3.5677 -2.3278
 8950SOL    HW238310   3.440   1.619   8.180  1.4593  0.1118 -0.2439
 8951SOL     OW38311   1.035   1.592   2.541  0.5824  0.1487  0.6500
 8951SOL    HW138312   1.112   1.608   2.487 -1.2005  0.6547 -1.7483
 8951SOL    HW238313   0.969   1.642   2.493 -1.1881 -1.1808  1.7140
 8952SOL     OW38314   1.849   3.017  10.278  0.0149 -0.2118  0.4346
 8952SOL    HW138315   1.796   3.090  10.312  1.5032  1.3521 -0.5583
 8952SOL    HW238316   1.875   2.970  10.357 -2.6777  1.4547  2.2994
 8953SOL     OW38317   0.176   3.411   3.409  0.3432 -0.2536 -0.1437
 8953SOL    HW138318   0.136   3.419   3.496 -0.0625 -0.3353 -0.3229
 8953SOL    HW238319   0.105   3.366   3.364  0.1683  0.2741 -0.3990
 8954SOL     OW38320   0.955   4.023   7.425  0.2599 -0.0408  0.1668
 8954SOL    HW138321   1.014   4.088   7.463  2.2449 -0.5221 -2.0062
 8954SOL    HW238322   0.882   4.077   7.398  1.0622  1.0517  0.1840
 8955SOL     OW38323   1.657   4.446   5.700 -0.9273 -0.2210 -0.9102
 8955SOL    HW138324   1.725   4.386   5.669 -0.2983 -0.6047  1.2447
 8955SOL    HW238325   1.709   4.506   5.754 -1.8026 -0.0285 -0.2855
 8956SOL     OW38326   4.001   2.692   2.163 -0.5814  0.1189 -0.0157
 8956SOL    HW138327   4.044   2.613   2.132 -1.1196  0.3799 -1.4050
 8956SOL    HW238328   3.969   2.740   2.087 -0.7777 -0.5577 -0.3526
 8957SOL     OW38329   2.709   3.880   3.378 -0.3261 -0.7588 -0.4045
 8957SOL    HW138330   2.655   3.801   3.380 -0.8285 -0.4319 -0.9031
 8957SOL    HW238331   2.719   3.886   3.472 -0.7655  0.5945 -0.4431
 8958SOL     OW38332   0.017   4.559   0.273  0.4206 -0.6812  0.0520
 8958SOL    HW138333   4.667   4.544   0.330 -1.6451 -0.0289 -2.5112
 8958SOL    HW238334   4.700   4.533   0.192  1.4749  0.3741 -0.8302
 8959SOL     OW38335   0.806   0.406   0.205  0.3614  0.1807  0.4947
 8959SOL    HW138336   0.890   0.369   0.234 -1.0118 -0.7909  3.1501
 8959SOL    HW238337   0.825   0.500   0.197  1.4146 -0.1793 -1.4388
 8960SOL     OW38338   0.815   3.877   4.350  0.4572 -0.0450  0.0456
 8960SOL    HW138339   0.868   3.827   4.413  0.1643  1.0189  1.1257
 8960SOL    HW238340   0.730   3.887   4.392 -0.7223  1.4425 -2.6598
 8961SOL     OW38341   3.478   0.623   7.947  0.5467  0.6705 -0.3188
 8961SOL    HW138342   3.556   0.577   7.978 -0.9244 -1.8837 -0.4732
 8961SOL    HW238343   3.525   0.683   7.889 -1.4801  1.4587 -1.1189
 8962SOL     OW38344   1.940   0.205   2.513 -0.0740 -0.4935 -0.4820
 8962SOL    HW138345   1.978   0.265   2.449  0.4431 -0.3821 -0.0683
 8962SOL    HW238346   1.987   0.121   2.505 -0.3386 -0.5932 -1.0074
 8963SOL     OW38347   4.573   2.642   6.853  0.0315 -0.5842  0.1254
 8963SOL    HW138348   4.478   2.627   6.847 -0.0805  0.0310  0.3673
 8963SOL    HW238349   4.578   2.652   6.948 -2.2569  0.2117  0.1692
 8964SOL     OW38350   2.361   0.381  10.371  0.3300  0.6198 -0.1476
 8964SOL    HW138351   2.378   0.474  10.382 -2.3762  1.3481 -1.8969
 8964SOL    HW238352   2.336   0.365  10.462 -1.8637 -0.7008 -0.9667
 8965SOL     OW38353   1.999   1.053   9.645 -0.7228  0.2749  0.4631
 8965SOL    HW138354   2.036   0.981   9.594 -0.7975  1.4929 -1.3112
 8965SOL    HW238355   1.907   1.033   9.627 -1.5326  1.9740  2.6736
 8966SOL     OW38356   0.610   0.321   4.199 -0.6190 -0.6198  0.0988
 8966SOL    HW138357   0.528   0.295   4.242 -0.0486  0.0584  1.5906
 8966SOL    HW238358   0.659   0.356   4.274 -0.1326 -1.6493  0.2657
 8967SOL     OW38359   0.613   4.159  12.757  0.0687 -0.0447  1.1661
 8967SOL    HW138360   0.673   4.086  12.745 -1.0744 -0.7528 -0.2173
 8967SOL    HW238361   0.554   4.117  12.821 -1.0430 -2.3160 -1.3670
 8968SOL     OW38362   2.970   3.865   6.758 -0.4993 -0.1147  0.2078
 8968SOL    HW138363   2.933   3.910   6.834  2.2418 -1.2041  2.2102
 8968SOL    HW238364   2.991   3.943   6.707  1.6747 -1.6473 -1.2328
 8969SOL     OW38365   1.625   3.118   3.107 -0.1589  0.6406 -0.2151
 8969SOL    HW138366   1.642   3.141   3.015  2.3845  0.9194  0.3082
 8969SOL    HW238367   1.713   3.132   3.143 -0.0938 -1.1357  0.2817
 8970SOL     OW38368   2.227   1.087  15.350 -0.4652 -0.7303  0.5584
 8970SOL    HW138369   2.134   1.094  15.328 -0.7770 -1.9140  1.4859
 8970SOL    HW238370   2.222   1.082  15.445  3.5013 -0.3033  0.7727
 8971SOL     OW38371   2.934   2.476   4.836  0.2489 -0.3392  0.4919
 8971SOL    HW138372   2.971   2.388   4.834 -0.5408 -0.7070  1.6862
 8971SOL    HW238373   2.849   2.468   4.792  0.4383  3.2525 -0.5043
 8972SOL     OW38374   3.671   1.140   5.094  0.0152 -0.0944 -0.2186
 8972SOL    HW138375   3.667   1.220   5.041 -2.9208 -0.8453 -1.1427
 8972SOL    HW238376   3.751   1.101   5.061  0.0462  0.2316 -0.5334
 8973SOL     OW38377   3.288   2.161  15.988 -0.0339  0.1556  0.3698
 8973SOL    HW138378   3.370   2.169  16.036  0.0999  1.8702 -0.1551
 8973SOL    HW238379   3.305   2.214  15.910  1.0867 -0.2445  0.3409
 8974SOL     OW38380   2.060   1.475  11.822 -0.2555 -0.1466  0.3435
 8974SOL    HW138381   2.149   1.441  11.811 -0.3713  0.3433 -2.2824
 8974SOL    HW238382   2.049   1.519  11.738  0.6549  1.4333  1.0736
 8975SOL     OW38383   0.643   0.212   5.199  0.1376  0.5258  0.3253
 8975SOL    HW138384   0.628   0.230   5.292 -0.3747 -1.3207  0.6108
 8975SOL    HW238385   0.733   0.183   5.187 -0.8554 -1.7588 -1.6751
 8976SOL     OW38386   2.928   0.164   4.962 -0.3632 -0.1354 -0.3337
 8976SOL    HW138387   2.850   0.188   5.011  1.0283 -1.2024  2.4223
 8976SOL    HW238388   2.965   0.121   5.039  0.9071 -0.7847 -1.2897
 8977SOL     OW38389   4.592   4.043   1.531  0.6945 -0.4336  0.2020
 8977SOL    HW138390   4.545   4.023   1.613  0.4554  1.5632  0.5575
 8977SOL    HW238391   4.611   4.134   1.553  1.2705 -0.5447  0.1618
 8978SOL     OW38392   3.915   0.201   3.854 -0.1872 -0.2392 -0.0571
 8978SOL    HW138393   3.995   0.173   3.808 -0.7257 -3.0420  0.7457
 8978SOL    HW238394   3.856   0.203   3.779  0.5139  0.7070 -0.5902
 8979SOL     OW38395   0.666   3.363  13.312 -0.2010  0.0748  0.4726
 8979SOL    HW138396   0.618   3.382  13.231 -0.0449  0.0000  0.3625
 8979SOL    HW238397   0.655   3.445  13.360  2.1066 -0.6424  2.2231
 8980SOL     OW38398   3.801   3.682   6.452  0.0711 -0.3987 -0.2562
 8980SOL    HW138399   3.753   3.762   6.431 -1.8554 -1.8237 -1.2609
 8980SOL    HW238400   3.851   3.655   6.375  0.2520 -0.5302 -0.0911
 8981SOL     OW38401   1.202   0.050   7.940 -0.0478 -0.4260  0.0999
 8981SOL    HW138402   1.274   4.712   7.933  0.0148 -0.2003 -1.4726
 8981SOL    HW238403   1.256   0.130   7.939 -1.9680  0.8720 -1.3138
 8982SOL     OW38404   0.330   4.002  17.477  0.2442 -0.6873  0.1808
 8982SOL    HW138405   0.253   3.981  17.530  1.6395  2.6209  3.4888
 8982SOL    HW238406   0.288   4.080  17.441 -0.2174 -1.0067  0.0174
 8983SOL     OW38407   0.772   2.918   7.649  0.2633  0.0379  0.8379
 8983SOL    HW138408   0.818   2.882   7.573  0.3229  0.9771  0.4303
 8983SOL    HW238409   0.840   2.967   7.695 -0.1352 -0.8608  2.4005
 8984SOL     OW38410   0.751   4.352   6.258  0.4262 -0.4265  0.0522
 8984SOL    HW138411   0.695   4.282   6.223 -0.7836 -0.0444  1.2387
 8984SOL    HW238412   0.697   4.430   6.265 -1.4079 -1.7481  0.5080
 8985SOL     OW38413   2.106   0.168   9.945  0.0251 -0.2679  0.0350
 8985SOL    HW138414   2.151   0.211   9.872  0.8508 -1.0359  0.0908
 8985SOL    HW238415   2.023   0.210   9.925 -1.3991 -3.0619  0.2123
 8986SOL     OW38416   3.898   2.622   8.783 -0.4667 -0.0306  0.2205
 8986SOL    HW138417   3.919   2.645   8.693 -0.5255  1.2064  0.5205
 8986SOL    HW238418   3.873   2.530   8.782  1.1813 -0.5433  3.3312
 8987SOL     OW38419   4.271   1.816   4.947  0.4282 -0.4943 -0.0245
 8987SOL    HW138420   4.187   1.851   4.976  0.5046  0.9325 -1.5327
 8987SOL    HW238421   4.254   1.722   4.951 -0.3418 -0.2938  1.4684
 8988SOL     OW38422   1.317   4.028   7.214  0.5821  0.1943  0.2280
 8988SOL    HW138423   1.224   4.005   7.212  0.2663  1.3471  1.3837
 8988SOL    HW238424   1.317   4.097   7.148  0.0015 -1.1559 -1.1595
 8989SOL     OW38425   3.456   3.960   5.745  0.4278  0.1127  0.3925
 8989SOL    HW138426   3.424   3.940   5.833  3.2504 -1.1688  1.1125
 8989SOL    HW238427   3.388   4.024   5.725  2.0069  2.0475  1.2073
 8990SOL     OW38428   1.146   4.600  15.438  0.7625  0.0352 -0.7020
 8990SOL    HW138429   1.110   4.523  15.481  1.3910  0.0937 -0.0649
 8990SOL    HW238430   1.163   4.645  15.521 -0.1597 -1.2458  0.1720
 8991SOL     OW38431   1.175   0.193   5.500 -0.2014 -0.5235 -0.0233
 8991SOL    HW138432   1.244   0.257   5.517 -0.6551  0.3841 -1.5844
 8991SOL    HW238433   1.213   0.124   5.555  1.5616 -0.2597 -0.8943
 8992SOL     OW38434   4.371   2.764   1.569  0.2518 -0.8018  0.3989
 8992SOL    HW138435   4.446   2.752   1.511  1.2054  1.0072  1.2568
 8992SOL    HW238436   4.397   2.725   1.652 -0.9716 -0.9372  0.7273
 8993SOL     OW38437   0.908   3.547   3.722 -0.4125  0.0591  0.2260
 8993SOL    HW138438   0.986   3.603   3.722  0.3104 -0.9539  0.2761
 8993SOL    HW238439   0.918   3.510   3.635  0.9973 -0.9200  0.8105
 8994SOL     OW38440   1.433   4.515   5.562 -0.6770 -0.2501 -0.1879
 8994SOL    HW138441   1.521   4.497   5.596 -0.6722  0.5373  0.2096
 8994SOL    HW238442   1.462   4.561   5.483  3.8299 -0.6888  1.2118
 8995SOL     OW38443   0.850   2.929   7.339 -0.1819 -0.3569  0.4843
 8995SOL    HW138444   0.801   2.937   7.257 -2.7653  1.0269  2.1399
 8995SOL    HW238445   0.897   2.845   7.330 -0.4213 -0.4442  0.0357
 8996SOL     OW38446   1.674   4.525   6.107  0.1124  0.1756 -0.5769
 8996SOL    HW138447   1.608   4.475   6.155  1.1141 -0.0216  0.5933
 8996SOL    HW238448   1.748   4.526   6.169  1.3431  3.6400 -2.1080
 8997SOL     OW38449   4.539   2.409   1.742  0.7683 -0.1167 -0.0481
 8997SOL    HW138450   4.506   2.481   1.797  0.2740 -0.8510  0.6090
 8997SOL    HW238451   4.607   2.369   1.797  2.3545  2.4559 -0.0815
 8998SOL     OW38452   1.463   0.287   5.747  0.1386 -0.5876 -0.2612
 8998SOL    HW138453   1.506   0.204   5.766 -2.4067 -2.4313 -2.6306
 8998SOL    HW238454   1.380   0.274   5.794  1.0941  0.6368  1.7960
 8999SOL     OW38455   0.725   4.419  11.006  0.2293 -0.2084  0.1585
 8999SOL    HW138456   0.638   4.457  11.019 -0.7213 -1.8980 -1.1479
 8999SOL    HW238457   0.715   4.325  11.017  3.1508 -0.6046 -0.4757
 9000SOL     OW38458   2.940   4.358   1.308  0.3161 -0.3998 -0.4933
 9000SOL    HW138459   2.962   4.387   1.397  0.3017 -0.0916 -0.5890
 9000SOL    HW238460   2.855   4.403   1.310  1.7761  2.4541 -2.6812
 9001SOL     OW38461   2.514   2.565   2.930  0.1235 -0.1183 -0.4028
 9001SOL    HW138462   2.496   2.554   3.023 -0.4532 -0.6524 -0.5737
 9001SOL    HW238463   2.427   2.592   2.899  0.2450  0.2187 -0.4577
 9002SOL     OW38464   2.255   2.073   5.098 -0.6287  0.2535  0.0197
 9002SOL    HW138465   2.184   2.113   5.049 -1.3054  1.3210  1.8674
 9002SOL    HW238466   2.271   1.991   5.051  2.3093  0.3880  0.7254
 9003SOL     OW38467   2.744   2.446   5.221  0.4722  0.2690  0.4935
 9003SOL    HW138468   2.714   2.450   5.130  1.7635 -2.1161 -0.0476
 9003SOL    HW238469   2.673   2.489   5.268 -0.3147  0.4947 -0.8943
 9004SOL     OW38470   3.641   4.642  16.553 -0.7783  0.1449  0.3286
 9004SOL    HW138471   3.570   4.652  16.490 -1.3317  0.9840  1.0693
 9004SOL    HW238472   3.598   4.686  16.627  0.2604  0.9827  0.4336
 9005SOL     OW38473   3.576   4.054   6.385  0.3513  0.5720 -0.3069
 9005SOL    HW138474   3.640   4.115   6.347  1.6509  0.5879  1.8818
 9005SOL    HW238475   3.625   4.010   6.454 -0.3286  0.3525  0.0267
 9006SOL     OW38476   2.031   3.719  14.644  0.2639 -0.1857 -0.1440
 9006SOL    HW138477   2.015   3.686  14.733  0.0676 -0.2603 -0.2079
 9006SOL    HW238478   2.112   3.671  14.625 -0.7123 -1.4527 -1.0799
 9007SOL     OW38479   2.430   1.674   9.088 -0.0476 -0.5946 -0.0238
 9007SOL    HW138480   2.416   1.767   9.067 -0.3375 -0.3583  1.2152
 9007SOL    HW238481   2.520   1.671   9.057  0.3285  2.7171  0.7106
 9008SOL     OW38482   1.413   4.614   5.898  0.3463  0.1436 -0.4150
 9008SOL    HW138483   1.336   4.624   5.842  1.0225  1.6990 -1.0810
 9008SOL    HW238484   1.405   4.522   5.923  2.0786 -0.3027 -1.5305
 9009SOL     OW38485   0.889   3.194   9.960  0.2198 -0.4137  0.4410
 9009SOL    HW138486   0.832   3.258  10.002 -0.5047 -0.7611 -0.0203
 9009SOL    HW238487   0.966   3.193  10.017 -0.7683 -2.6836  1.7639
 9010SOL     OW38488   3.569   1.728   0.451  0.1636  0.5853  0.0266
 9010SOL    HW138489   3.590   1.640   0.480 -0.8074  0.7837  1.3230
 9010SOL    HW238490   3.488   1.711   0.403 -0.6845 -1.7993  2.3483
 9011SOL     OW38491   2.281   1.125   6.226 -0.5645  0.2782 -0.1546
 9011SOL    HW138492   2.336   1.151   6.299 -0.2404 -0.5784 -0.0992
 9011SOL    HW238493   2.269   1.208   6.179 -1.1652  0.8902  1.0891
 9012SOL     OW38494   4.126   0.852   3.743 -0.2482 -0.2993  0.2256
 9012SOL    HW138495   4.095   0.893   3.662 -4.4790  0.0637  1.9913
 9012SOL    HW238496   4.177   0.778   3.710 -1.7297 -0.3162 -2.0168
 9013SOL     OW38497   0.983   4.683  12.505  0.0930 -0.0013  0.2627
 9013SOL    HW138498   0.912   4.640  12.458  1.6722 -0.2856 -1.8851
 9013SOL    HW238499   0.937   0.023  12.558  0.2974  0.9292 -0.7149
 9014SOL     OW38500   2.759   4.275   4.130 -0.7074  0.0153  0.0991
 9014SOL    HW138501   2.799   4.350   4.085  1.1648 -0.3952  1.0723
 9014SOL    HW238502   2.733   4.315   4.213 -1.9400 -0.4644 -0.0518
 9015SOL     OW38503   3.474   2.963   3.982 -0.1712 -0.1190  0.3869
 9015SOL    HW138504   3.545   2.915   3.938 -0.2079  1.5865 -1.5102
 9015SOL    HW238505   3.474   3.036   3.920  3.4971 -1.7659 -1.5639
 9016SOL     OW38506   1.720   0.270  16.387 -0.0948  0.2606 -0.3238
 9016SOL    HW138507   1.711   0.350  16.440 -2.3569  0.3503 -0.8716
 9016SOL    HW238508   1.641   0.227  16.419 -0.8615  0.8111 -1.4955
 9017SOL     OW38509   4.303   2.202   3.322  0.4348 -0.1975  0.3829
 9017SOL    HW138510   4.386   2.173   3.360  1.4657  1.5010 -0.5730
 9017SOL    HW238511   4.282   2.283   3.369  1.8982  0.9881 -0.9979
 9018SOL     OW38512   4.179   1.618   1.934 -0.6902 -0.1934  0.2293
 9018SOL    HW138513   4.168   1.526   1.908 -0.2033 -0.3362  0.5371
 9018SOL    HW238514   4.088   1.645   1.951 -0.7358  0.8379 -1.6978
 9019SOL     OW38515   2.257   3.167   5.956 -0.6894  0.4400  0.5841
 9019SOL    HW138516   2.171   3.127   5.968  0.1643 -1.0841  1.6714
 9019SOL    HW238517   2.247   3.242   6.014 -0.4861  0.9133  0.0014
 9020SOL     OW38518   3.948   1.453  14.844  0.1089 -0.0019 -0.2998
 9020SOL    HW138519   3.965   1.517  14.775  1.3402  0.5029  0.4844
 9020SOL    HW238520   3.854   1.440  14.829 -0.0627  3.2557 -2.0043
 9021SOL     OW38521   1.493   2.190   2.448  0.3168 -0.4902 -0.0612
 9021SOL    HW138522   1.586   2.165   2.449  0.9416  1.8565  0.7515
 9021SOL    HW238523   1.471   2.120   2.510 -2.6737 -1.1032 -1.8450
 9022SOL     OW38524   4.602   3.043   2.429  0.0096 -0.2496 -0.3884
 9022SOL    HW138525   4.542   3.087   2.369  1.3741  2.4782  0.2724
 9022SOL    HW238526   4.554   2.960   2.434 -2.2937  1.0303 -1.3071
 9023SOL     OW38527   2.075   3.388   1.935  0.2073 -0.2497 -0.3766
 9023SOL    HW138528   2.102   3.443   2.008  0.3772 -1.2705  0.3398
 9023SOL    HW238529   2.029   3.452   1.880  0.4713  1.9101  1.9423
 9024SOL     OW38530   2.434   3.247   4.849 -0.1556  0.1908  0.0078
 9024SOL    HW138531   2.399   3.169   4.892  1.8573 -1.2148 -0.9260
 9024SOL    HW238532   2.512   3.211   4.807  1.3979  2.7106  0.7161
 9025SOL     OW38533   0.528   2.899  13.676 -0.4397  0.1759  0.2003
 9025SOL    HW138534   0.442   2.924  13.641  0.0593  0.8262 -0.5815
 9025SOL    HW238535   0.591   2.918  13.607 -0.4487  0.8590  0.3714
 9026SOL     OW38536   2.184   0.939   6.457  0.6430 -0.1479  0.1188
 9026SOL    HW138537   2.131   1.019   6.445  0.5718 -0.3752 -1.1068
 9026SOL    HW238538   2.204   0.932   6.363 -0.0022  2.0331 -0.2059
 9027SOL     OW38539   2.077   0.862   8.146  0.0839  0.1173 -0.7235
 9027SOL    HW138540   2.146   0.816   8.097 -0.0960 -0.5542 -0.3337
 9027SOL    HW238541   2.121   0.947   8.146 -0.1725  0.2271  2.1486
 9028SOL     OW38542   3.128   3.506   0.243 -0.4285 -0.3374 -0.3164
 9028SOL    HW138543   3.169   3.421   0.260  0.5321  0.3495  0.7881
 9028SOL    HW238544   3.193   3.569   0.272 -0.8334 -0.2370  0.3783
 9029SOL     OW38545   3.388   4.049   1.627 -1.1546 -0.7432  0.3197
 9029SOL    HW138546   3.428   3.964   1.646  1.3756  0.6649  1.2349
 9029SOL    HW238547   3.398   4.087   1.714 -0.1643  1.0230 -0.5658
 9030SOL     OW38548   3.899   4.164  14.143  0.2610 -0.0807  0.1661
 9030SOL    HW138549   3.832   4.159  14.211  0.4827  1.6585  0.5209
 9030SOL    HW238550   3.851   4.128  14.069  0.8590 -1.6276  0.5290
 9031SOL     OW38551   3.017   4.119   2.323 -0.1399  0.0961  0.1130
 9031SOL    HW138552   3.048   4.090   2.238 -0.8195 -0.3102  0.0046
 9031SOL    HW238553   3.053   4.053   2.382  1.9663  0.3848 -0.8625
 9032SOL     OW38554   4.513   4.377   5.079  0.6367 -0.3870 -0.4553
 9032SOL    HW138555   4.556   4.301   5.119  1.0008 -0.0874 -0.2793
 9032SOL    HW238556   4.429   4.339   5.052  0.4564 -0.1072 -0.2915
 9033SOL     OW38557   4.127   2.918   5.431 -0.2721  0.1308 -0.2326
 9033SOL    HW138558   4.130   3.008   5.399  2.2703  0.6837  1.5207
 9033SOL    HW238559   4.039   2.903   5.397  0.0036 -1.1003 -0.3905
 9034SOL     OW38560   2.691   4.396  11.944  0.2361  0.3774 -0.6620
 9034SOL    HW138561   2.667   4.488  11.935  1.1949  0.8822  2.0510
 9034SOL    HW238562   2.639   4.361  11.872  0.4007 -1.3776  0.0649
 9035SOL     OW38563   2.010   2.637  14.461  0.1341  0.2502 -0.2820
 9035SOL    HW138564   1.936   2.678  14.506  0.2624 -0.0807  0.2325
 9035SOL    HW238565   1.980   2.648  14.371 -1.8802  0.4002  0.3956
 9036SOL     OW38566   2.462   0.618   7.168  0.5418  0.4171 -0.2696
 9036SOL    HW138567   2.493   0.537   7.209 -0.2301  1.4554  2.4180
 9036SOL    HW238568   2.452   0.673   7.246  2.5414  0.5590 -0.1159
 9037SOL     OW38569   4.367   0.186   5.261 -0.5326  0.2765 -0.0452
 9037SOL    HW138570   4.397   0.096   5.243 -3.7742 -0.5714 -1.2290
 9037SOL    HW238571   4.364   0.181   5.356  0.3631  0.6620 -0.0023
 9038SOL     OW38572   0.823   1.221   3.402  0.3209 -0.7502 -0.1415
 9038SOL    HW138573   0.760   1.192   3.336 -0.6156  2.7370 -0.7631
 9038SOL    HW238574   0.811   1.156   3.472  2.2355 -1.5885 -0.6011
 9039SOL     OW38575   2.424   2.178  10.379 -0.0333  0.2896 -0.4906
 9039SOL    HW138576   2.434   2.115  10.450 -2.2144 -1.4577 -1.7466
 9039SOL    HW238577   2.329   2.188  10.372 -0.1737 -2.3888 -2.4519
 9040SOL     OW38578   1.730   3.813  13.468  0.0960 -0.2159 -0.4235
 9040SOL    HW138579   1.805   3.766  13.430  0.4895 -0.2909  0.4611
 9040SOL    HW238580   1.682   3.742  13.510  1.9642 -0.5204  1.1739
 9041SOL     OW38581   3.411   4.077   5.228  0.6034 -0.3629  0.5752
 9041SOL    HW138582   3.433   4.051   5.139 -0.3351 -0.8416  0.4858
 9041SOL    HW238583   3.471   4.015   5.270 -0.1511 -1.1299  0.5326
 9042SOL     OW38584   1.229   1.632   5.895 -0.2295  0.4878 -0.1116
 9042SOL    HW138585   1.247   1.543   5.864 -2.7672  0.6083 -1.9185
 9042SOL    HW238586   1.195   1.608   5.981  1.3740 -0.2802  0.3011
 9043SOL     OW38587   0.112   2.085  10.221 -0.5541 -0.1871  0.1598
 9043SOL    HW138588   0.166   2.015  10.256  1.7445 -0.8322 -4.6642
 9043SOL    HW238589   0.074   2.120  10.301 -1.2484  0.8905 -0.6273
 9044SOL     OW38590   1.073   1.035   9.034 -0.1530 -0.3371 -0.0458
 9044SOL    HW138591   1.013   0.979   9.084  0.9792 -0.1293  1.5177
 9044SOL    HW238592   1.153   0.982   9.033  0.1257  0.0554  1.8670
 9045SOL     OW38593   2.895   1.686   7.945 -0.2626  0.0085 -0.5575
 9045SOL    HW138594   2.809   1.720   7.922  0.5580  2.4486 -0.1223
 9045SOL    HW238595   2.922   1.729   8.027 -0.3672 -2.4918  0.7787
 9046SOL     OW38596   2.304   2.004   1.939 -0.3952  0.6143  0.2698
 9046SOL    HW138597   2.251   2.033   2.013 -0.8712  1.5732 -0.4480
 9046SOL    HW238598   2.230   1.962   1.895 -1.9039  4.4112 -0.7720
 9047SOL     OW38599   3.269   0.176   7.460 -0.2159  0.1883  0.3727
 9047SOL    HW138600   3.280   0.204   7.551  0.3755  0.0038  0.3578
 9047SOL    HW238601   3.236   0.087   7.469  0.5823 -0.0302  1.2086
 9048SOL     OW38602   2.799   1.778   2.400  0.8422  0.4604  0.1423
 9048SOL    HW138603   2.715   1.774   2.444  0.6095 -1.1511 -0.4332
 9048SOL    HW238604   2.817   1.871   2.411  2.2882  0.1159  0.7028
 9049SOL     OW38605   0.843   1.517  11.118 -0.6096  0.1021 -0.4668
 9049SOL    HW138606   0.810   1.467  11.192  0.4182 -1.3708 -1.0188
 9049SOL    HW238607   0.767   1.574  11.104 -1.7643 -1.8315 -1.9305
 9050SOL     OW38608   3.197   1.578   2.489 -0.4819  0.3191  0.3036
 9050SOL    HW138609   3.198   1.654   2.547 -0.8798  1.1440 -0.7556
 9050SOL    HW238610   3.111   1.579   2.447 -0.1569  2.2522 -0.3330
 9051SOL     OW38611   1.857   0.021  16.085  0.6698  0.2617 -0.5955
 9051SOL    HW138612   1.782   4.700  16.121  1.4845  0.4506  1.3526
 9051SOL    HW238613   1.858   4.713  15.995 -0.8193  1.0702 -0.9021
 9052SOL     OW38614   2.068   0.675   0.707 -0.4008 -0.6245 -0.1661
 9052SOL    HW138615   2.078   0.710   0.618  1.5186  0.0649  0.3065
 9052SOL    HW238616   2.038   0.753   0.754  1.7673  0.2733 -0.2396
 9053SOL     OW38617   1.808   3.858   4.032 -0.2034 -0.7203 -0.1450
 9053SOL    HW138618   1.770   3.807   3.960 -2.8635  1.4863 -0.3020
 9053SOL    HW238619   1.816   3.941   3.985  1.6043 -0.7827  0.0555
 9054SOL     OW38620   0.543   3.990   9.251 -0.0841 -0.0047 -0.4778
 9054SOL    HW138621   0.528   4.077   9.289  0.3685  0.5139 -1.5013
 9054SOL    HW238622   0.596   3.948   9.319  0.0696 -1.5338 -1.5415
 9055SOL     OW38623   0.066   3.206   1.591  0.3941 -0.3290 -0.5330
 9055SOL    HW138624   0.104   3.187   1.506  1.3724 -0.2539 -0.1069
 9055SOL    HW238625   0.009   3.278   1.565  1.8771  1.4239  1.0237
 9056SOL     OW38626   1.487   4.612   3.075  0.5764 -0.5138 -0.4754
 9056SOL    HW138627   1.473   4.587   3.166  1.7352  0.2255 -0.0979
 9056SOL    HW238628   1.443   4.697   3.073 -0.0330 -0.8398 -1.2977
 9057SOL     OW38629   4.483   3.863   7.047 -0.3286  0.7554 -0.6050
 9057SOL    HW138630   4.490   3.810   6.967 -2.1165 -0.9158  0.3426
 9057SOL    HW238631   4.577   3.867   7.063 -0.8572 -0.0018  2.6670
 9058SOL     OW38632   1.420   0.867  11.791  0.2805  0.3989 -0.1781
 9058SOL    HW138633   1.467   0.812  11.729  2.7006 -0.1430  2.1072
 9058SOL    HW238634   1.396   0.799  11.853 -0.6036 -1.3755 -2.4737
 9059SOL     OW38635   1.242   1.137   1.290 -0.6529 -0.3161 -0.4073
 9059SOL    HW138636   1.300   1.130   1.366  0.5146  0.9479 -1.1929
 9059SOL    HW238637   1.232   1.232   1.297  2.6622  0.0499 -0.5850
 9060SOL     OW38638   0.588   0.869   1.977  0.1942 -0.2708  0.5023
 9060SOL    HW138639   0.680   0.896   1.973  0.4318 -1.0733  0.4994
 9060SOL    HW238640   0.561   0.895   2.065  0.6832  2.2849 -0.1228
 9061SOL     OW38641   0.716   0.837   8.048  0.2195 -0.2425 -0.1422
 9061SOL    HW138642   0.810   0.853   8.056  0.5902 -2.9240  0.6049
 9061SOL    HW238643   0.705   0.754   8.002  0.3623 -0.5492  0.3772
 9062SOL     OW38644   3.687   2.943   2.753  0.4951 -0.3691 -0.0118
 9062SOL    HW138645   3.704   2.857   2.714  0.9927 -0.3266  0.1126
 9062SOL    HW238646   3.604   2.971   2.715  0.8671 -0.4759 -0.8826
 9063SOL     OW38647   1.139   1.312   3.307  0.5275 -0.0547  0.5801
 9063SOL    HW138648   1.051   1.338   3.335  0.6849  0.6586  0.4081
 9063SOL    HW238649   1.186   1.395   3.314 -0.3838  0.5272 -0.3116
 9064SOL     OW38650   0.723   2.395   6.821  0.1619  0.2965 -0.3999
 9064SOL    HW138651   0.794   2.407   6.758  0.1542  0.7951 -0.3199
 9064SOL    HW238652   0.763   2.443   6.893 -1.9072 -1.8931  2.1888
 9065SOL     OW38653   3.167   3.057  12.097  0.4826 -0.0776 -0.4502
 9065SOL    HW138654   3.163   3.112  12.175  2.5792 -0.6376  0.0548
 9065SOL    HW238655   3.090   3.093  12.053  0.5453 -0.3850 -0.8176
 9066SOL     OW38656   3.760   3.465   8.501 -0.2034 -0.1492 -0.6424
 9066SOL    HW138657   3.821   3.450   8.573  1.9017 -0.4233 -2.4963
 9066SOL    HW238658   3.740   3.372   8.489  1.1598 -0.4354 -0.7110
 9067SOL     OW38659   4.028   0.560   2.299  0.1601  0.2981 -0.1135
 9067SOL    HW138660   4.026   0.621   2.225  0.8969 -0.6158 -0.8948
 9067SOL    HW238661   4.117   0.526   2.293  0.1087  0.0621  0.5586
 9068SOL     OW38662   2.051   0.771   5.524  0.3874 -0.5685 -0.1660
 9068SOL    HW138663   2.109   0.711   5.571  0.9887  0.6889  0.7159
 9068SOL    HW238664   2.082   0.857   5.554  0.5878 -0.9167  0.6115
 9069SOL     OW38665   2.982   3.284   6.582  0.3129  0.1833  0.4948
 9069SOL    HW138666   3.036   3.333   6.520  0.7652 -1.5059 -0.4465
 9069SOL    HW238667   3.043   3.219   6.616 -0.1561 -0.3413  0.3398
 9070SOL     OW38668   0.505   2.100   9.272 -0.1060 -0.0152  0.3056
 9070SOL    HW138669   0.481   2.144   9.190 -0.5060  1.3905  1.1798
 9070SOL    HW238670   0.556   2.170   9.312  0.5814 -0.3999  0.1053
 9071SOL     OW38671   4.636   4.086   8.200 -0.3492 -0.2271  0.0259
 9071SOL    HW138672   4.675   4.045   8.123  1.6982  1.5804  0.1258
 9071SOL    HW238673   4.681   4.171   8.198 -0.8887  0.0614  0.1896
 9072SOL     OW38674   1.450   4.699  12.278  0.4138 -0.0990  0.0126
 9072SOL    HW138675   1.525   4.721  12.221  0.4910  0.1401  0.2059
 9072SOL    HW238676   1.492   4.646  12.345 -0.1317  1.5771  1.6761
 9073SOL     OW38677   0.095   3.279  12.155 -0.0997  0.2449 -0.2467
 9073SOL    HW138678   0.148   3.350  12.118 -1.1202  0.3902 -1.4338
 9073SOL    HW238679   0.010   3.294  12.113 -0.3484 -1.1860 -0.2342
 9074SOL     OW38680   4.352   2.612   1.839  0.1886  0.0590  0.1449
 9074SOL    HW138681   4.261   2.584   1.830  0.7184 -1.0950 -1.6310
 9074SOL    HW238682   4.342   2.673   1.912 -3.7003 -0.1905 -0.1534
 9075SOL     OW38683   2.717   4.183   3.755 -0.5975 -1.0071  0.1547
 9075SOL    HW138684   2.655   4.116   3.784 -1.8411 -0.1980 -0.6104
 9075SOL    HW238685   2.802   4.161   3.795  0.3128 -1.9500 -2.3130
 9076SOL     OW38686   4.085   1.270   6.016 -0.0810  0.0560  0.3747
 9076SOL    HW138687   4.167   1.308   6.046  0.8993 -1.7304 -0.0763
 9076SOL    HW238688   4.030   1.348   6.026  1.9864  1.7737 -1.8990
 9077SOL     OW38689   1.599   3.676   1.500  0.6476 -0.0561 -0.3525
 9077SOL    HW138690   1.561   3.679   1.412  1.6499 -2.7612 -0.8514
 9077SOL    HW238691   1.662   3.748   1.493  0.0331  0.2655 -2.4024
 9078SOL     OW38692   0.132   0.649   4.020  0.0949  0.5081  0.0704
 9078SOL    HW138693   0.168   0.728   4.060  1.2495 -1.0841  2.1811
 9078SOL    HW238694   0.203   0.591   4.047 -0.2314  0.6801  1.2884
 9079SOL     OW38695   0.217   2.308  10.094 -0.6278  0.2537 -0.1590
 9079SOL    HW138696   0.168   2.255  10.156 -2.2545  1.4163 -0.4563
 9079SOL    HW238697   0.227   2.247  10.021 -0.2243  2.7078 -2.1635
 9080SOL     OW38698   0.912   4.440   7.514 -0.0652  0.0901  1.0961
 9080SOL    HW138699   0.939   4.513   7.569  4.3413  1.2836 -2.6140
 9080SOL    HW238700   0.836   4.414   7.566  1.5918 -0.5771  3.1733
 9081SOL     OW38701   0.004   2.135   3.223  0.1728  0.3155 -0.3782
 9081SOL    HW138702   4.706   2.053   3.179  0.2958 -1.0277  2.0265
 9081SOL    HW238703   4.663   2.126   3.292  0.0483 -0.3326 -0.5858
 9082SOL     OW38704   0.593   1.239  12.109  0.5198  0.1254  0.5510
 9082SOL    HW138705   0.585   1.276  12.021 -0.4024  1.7403  1.3112
 9082SOL    HW238706   0.507   1.254  12.149  0.6139  2.1418  0.0025
 9083SOL     OW38707   2.604   3.162   3.908 -0.4895 -0.6043  0.2535
 9083SOL    HW138708   2.587   3.107   3.831  1.2722 -1.3118  0.3749
 9083SOL    HW238709   2.638   3.097   3.970  0.4295  1.3989  1.8420
 9084SOL     OW38710   1.761   2.005   3.359 -0.5175 -0.3955 -0.0615
 9084SOL    HW138711   1.850   1.978   3.340  0.4205  1.7080  1.3890
 9084SOL    HW238712   1.782   2.068   3.427  0.6436  1.2436 -1.9358
 9085SOL     OW38713   3.807   1.250   5.618  0.8776 -0.3080  0.3701
 9085SOL    HW138714   3.838   1.211   5.536  0.6735 -1.7128  0.9574
 9085SOL    HW238715   3.822   1.177   5.678  0.5743 -0.0082  0.8076
 9086SOL     OW38716   1.573   0.645  17.359 -0.6156  0.3657  0.2561
 9086SOL    HW138717   1.596   0.577  17.423  1.1956  0.1408 -0.6502
 9086SOL    HW238718   1.624   0.721  17.387  1.7178 -0.7849 -0.8960
 9087SOL     OW38719   4.351   3.743   3.588  0.0340  0.1059  0.6829
 9087SOL    HW138720   4.297   3.672   3.552 -1.6348  1.7729 -0.1083
 9087SOL    HW238721   4.299   3.777   3.661  0.9361  0.0273  1.3572
 9088SOL     OW38722   1.306   1.980   4.890 -0.2669 -0.3658 -0.4899
 9088SOL    HW138723   1.335   1.900   4.934 -2.2637  1.1222  3.5159
 9088SOL    HW238724   1.242   1.940   4.831  0.8715 -0.3804 -1.7086
 9089SOL     OW38725   1.510   0.129   5.395  0.9841  0.0146  0.0638
 9089SOL    HW138726   1.485   0.221   5.398  2.0637  0.3088  0.0423
 9089SOL    HW238727   1.494   0.098   5.484  0.3427 -2.0958 -0.7873
 9090SOL     OW38728   1.336   3.307   3.662 -0.2693 -0.5173 -0.0475
 9090SOL    HW138729   1.260   3.280   3.713  1.2003 -0.3693  2.2376
 9090SOL    HW238730   1.332   3.229   3.607 -0.2744  2.4081 -4.1440
 9091SOL     OW38731   2.657   0.808   9.966  0.3378  0.2061  0.4105
 9091SOL    HW138732   2.655   0.904   9.969 -1.4492  0.1593  0.8187
 9091SOL    HW238733   2.645   0.789  10.059 -1.1820 -3.2996 -0.5440
 9092SOL     OW38734   1.556   4.722   4.947 -0.3473 -0.0125 -0.0096
 9092SOL    HW138735   1.614   0.025   5.018 -0.1692 -1.6031  0.4888
 9092SOL    HW238736   1.627   4.713   4.884  0.9759  2.8428  1.0628
 9093SOL     OW38737   1.048   4.086  13.935 -0.0081  0.1096  0.3229
 9093SOL    HW138738   1.112   4.027  13.896  0.3577  0.1846  0.8051
 9093SOL    HW238739   0.989   4.098  13.860  1.8539 -0.8845 -1.3087
 9094SOL     OW38740   0.836   2.440  11.103 -0.3633  0.0277  0.4361
 9094SOL    HW138741   0.771   2.504  11.073 -1.7366 -0.6936  1.8803
 9094SOL    HW238742   0.799   2.432  11.191 -0.9951 -0.8326  0.1003
 9095SOL     OW38743   4.423   1.055  14.007 -0.2558 -0.8141  0.3307
 9095SOL    HW138744   4.354   1.082  14.068  0.7161  0.2444  0.9644
 9095SOL    HW238745   4.443   0.964  14.028 -2.6559 -1.0541  1.5365
 9096SOL     OW38746   4.202   1.803   8.617 -0.1727 -0.1062 -0.0139
 9096SOL    HW138747   4.166   1.773   8.534 -0.8977  1.2720 -0.2004
 9096SOL    HW238748   4.283   1.848   8.593  0.5336 -0.0406  2.4986
 9097SOL     OW38749   2.169   2.124   1.380  0.1084  0.3617 -0.6435
 9097SOL    HW138750   2.262   2.146   1.389 -0.2494  1.6755 -0.1676
 9097SOL    HW238751   2.174   2.034   1.348 -0.2009 -0.0894  0.5644
 9098SOL     OW38752   3.508   3.642  14.427  0.3956  0.5052 -0.0822
 9098SOL    HW138753   3.438   3.671  14.484 -0.2493 -0.3146 -0.4434
 9098SOL    HW238754   3.583   3.638  14.487  1.5351  1.5289 -1.4197
 9099SOL     OW38755   4.196   1.946   4.056 -0.3537 -0.0116  0.2455
 9099SOL    HW138756   4.266   1.947   4.122 -0.7886  1.0475  0.6971
 9099SOL    HW238757   4.176   2.040   4.064  2.1886  0.5958 -0.5150
 9100SOL     OW38758   2.784   0.719  11.633 -0.0357 -0.3246  0.5169
 9100SOL    HW138759   2.806   0.797  11.581 -0.1695  0.4015  1.5586
 9100SOL    HW238760   2.848   0.736  11.701  0.3944 -0.9200  0.2603
 9101SOL     OW38761   1.780   1.974   4.624 -0.3283  0.0600 -0.3306
 9101SOL    HW138762   1.755   1.972   4.531  2.2937  0.9847 -1.0610
 9101SOL    HW238763   1.702   2.020   4.655 -1.4619 -0.3075 -2.6288
 9102SOL     OW38764   1.397   3.881   1.275  0.0656 -0.2182  0.3308
 9102SOL    HW138765   1.360   3.875   1.363 -1.4269  1.6774 -0.1624
 9102SOL    HW238766   1.356   3.960   1.238 -0.9482 -0.9403 -0.0897
 9103SOL     OW38767   2.346   2.156   4.418  0.8240  0.5199  0.2801
 9103SOL    HW138768   2.265   2.119   4.452  0.8965 -0.0743 -0.1830
 9103SOL    HW238769   2.392   2.072   4.426 -2.1671 -1.3285 -1.8424
 9104SOL     OW38770   2.504   2.004   7.468 -0.4738  0.0774  0.2239
 9104SOL    HW138771   2.441   2.063   7.426  0.3701 -0.1823 -1.4247
 9104SOL    HW238772   2.563   2.065   7.512 -3.6717  3.2912  0.0052
 9105SOL     OW38773   0.692   3.449   0.616  0.1955 -0.6766 -0.2576
 9105SOL    HW138774   0.613   3.477   0.662  1.2651 -0.0334  1.1694
 9105SOL    HW238775   0.716   3.537   0.585  2.0196 -1.5994 -1.4469
 9106SOL     OW38776   4.010   0.473   1.523 -0.4333  0.6874  0.2239
 9106SOL    HW138777   4.101   0.456   1.502 -0.1230  0.7481  1.5719
 9106SOL    HW238778   3.960   0.430   1.453 -2.7514  1.4309  1.3955
 9107SOL     OW38779   0.358   3.897   1.788 -0.0565  0.3284  0.0309
 9107SOL    HW138780   0.385   3.847   1.865 -2.0401 -1.3745 -0.3768
 9107SOL    HW238781   0.445   3.931   1.768  0.8455 -0.7818  2.0175
 9108SOL     OW38782   2.202   1.187   4.155 -0.2728 -0.4545 -0.2304
 9108SOL    HW138783   2.137   1.207   4.087 -0.3065  0.8598  0.1971
 9108SOL    HW238784   2.220   1.094   4.139  0.9437 -0.4407  1.1187
 9109SOL     OW38785   4.639   4.278   4.279 -0.2590  0.1173 -0.0252
 9109SOL    HW138786   4.683   4.207   4.231  0.6514  0.7391 -0.1085
 9109SOL    HW238787   4.549   4.251   4.261 -0.0056 -0.4855 -0.3887
 9110SOL     OW38788   3.832   0.394  14.895 -0.0835  0.3664  0.1183
 9110SOL    HW138789   3.760   0.449  14.865  0.9326  0.9933 -1.1734
 9110SOL    HW238790   3.785   0.338  14.957 -2.2528 -0.2741 -2.0789
 9111SOL     OW38791   0.006   3.257   5.045  0.7698 -0.6162 -0.3925
 9111SOL    HW138792   0.051   3.179   5.012  0.7671 -0.5425 -0.5678
 9111SOL    HW238793   4.643   3.232   5.071  1.6941 -2.5636  0.8523
 9112SOL     OW38794   3.496   0.008   5.384 -0.6739  0.3486 -0.3499
 9112SOL    HW138795   3.551   0.031   5.309  0.0933  0.1631  0.1528
 9112SOL    HW238796   3.452   4.661   5.340 -0.3431 -0.2549  0.3234
 9113SOL     OW38797   3.905   0.330  10.260  0.6233  0.2727  0.2625
 9113SOL    HW138798   3.906   0.394  10.330 -1.4322  2.3320 -1.6021
 9113SOL    HW238799   3.973   0.367  10.204  1.7322 -1.6793  0.3253
 9114SOL     OW38800   0.668   0.613   5.659 -0.0098  0.1112  0.0540
 9114SOL    HW138801   0.753   0.581   5.689 -0.0810  1.2671  1.4939
 9114SOL    HW238802   0.691   0.623   5.567 -0.2734  0.6402  0.0486
 9115SOL     OW38803   3.340   2.311   2.671 -0.0004 -0.8570 -0.1744
 9115SOL    HW138804   3.268   2.255   2.699 -0.8481  1.2935  1.9270
 9115SOL    HW238805   3.346   2.291   2.577 -0.3270 -1.3662 -0.0824
 9116SOL     OW38806   3.524   3.451   2.362  0.6609 -0.6914  0.1616
 9116SOL    HW138807   3.535   3.537   2.402  1.2336  0.1817 -1.9077
 9116SOL    HW238808   3.453   3.472   2.302  0.9166  1.3518  0.5778
 9117SOL     OW38809   2.667   0.680   3.298 -0.1863  0.0943  0.5303
 9117SOL    HW138810   2.584   0.691   3.345  0.2904 -0.7409  1.5310
 9117SOL    HW238811   2.673   0.772   3.271  1.9779  0.0230  0.7805
 9118SOL     OW38812   2.263   0.112   8.146  0.0634  0.1014  0.3718
 9118SOL    HW138813   2.233   0.087   8.234  1.5164 -0.6844  0.6384
 9118SOL    HW238814   2.175   0.131   8.114  0.6609 -0.4621 -1.6121
 9119SOL     OW38815   3.532   4.626   0.866  0.3500 -0.3007  0.9032
 9119SOL    HW138816   3.550   4.649   0.775  3.4194 -0.7452  1.3769
 9119SOL    HW238817   3.440   4.607   0.849  0.6391 -1.0428  0.1807
 9120SOL     OW38818   1.575   0.162   9.583  0.2380 -0.0459 -0.7054
 9120SOL    HW138819   1.657   0.211   9.585  0.6647 -0.7612 -0.3803
 9120SOL    HW238820   1.601   0.076   9.617 -0.1960  0.2779  0.4435
 9121SOL     OW38821   0.527   2.229  14.184 -0.0525  0.2346 -0.1126
 9121SOL    HW138822   0.475   2.149  14.193  0.9606 -0.2989  0.9157
 9121SOL    HW238823   0.459   2.293  14.208 -2.1836 -2.5807  1.4396
 9122SOL     OW38824   3.253   2.435   9.466 -0.0022  0.5033 -0.1458
 9122SOL    HW138825   3.227   2.343   9.473  1.5812  0.0848  0.2977
 9122SOL    HW238826   3.341   2.406   9.439  0.5072  2.6964 -0.8626
 9123SOL     OW38827   1.192   2.018   1.841 -0.8441 -0.2881  0.3418
 9123SOL    HW138828   1.136   2.096   1.839 -1.3790 -0.6740  0.3630
 9123SOL    HW238829   1.220   2.009   1.750 -0.2159 -1.1446  0.6199
 9124SOL     OW38830   4.634   2.544  12.930 -0.0002 -0.1249  0.0718
 9124SOL    HW138831   0.003   2.534  12.920  0.6329  1.4747  4.2029
 9124SOL    HW238832   4.602   2.469  12.880 -1.2652 -0.9037  2.0070
 9125SOL     OW38833   0.386   2.550  11.215  0.2427  0.1623 -0.2992
 9125SOL    HW138834   0.433   2.480  11.171 -0.9287 -0.1423 -1.0656
 9125SOL    HW238835   0.301   2.512  11.192  0.4804  0.1643 -1.1565
 9126SOL     OW38836   3.865   4.210   1.005 -0.9098  0.4082 -0.9585
 9126SOL    HW138837   3.889   4.231   1.095  0.9364  0.9310 -1.5558
 9126SOL    HW238838   3.937   4.150   0.985  0.1171 -0.5030  5.4944
 9127SOL     OW38839   2.116   0.401   8.214  0.5731 -0.1267 -0.0403
 9127SOL    HW138840   2.023   0.379   8.203  1.5597 -3.2687 -1.9886
 9127SOL    HW238841   2.103   0.466   8.283  0.4596 -1.9353  1.6394
 9128SOL     OW38842   4.179   1.093   3.201  0.3884 -0.4588 -0.2187
 9128SOL    HW138843   4.238   1.113   3.129 -0.0043 -1.3816 -0.7988
 9128SOL    HW238844   4.094   1.113   3.163  1.5776  3.9832 -0.4746
 9129SOL     OW38845   3.598   1.441  10.672  0.4266  0.1580  0.3483
 9129SOL    HW138846   3.508   1.408  10.667  0.9575 -1.2603  0.0080
 9129SOL    HW238847   3.656   1.367  10.690  0.5878  0.6093  1.6287
 9130SOL     OW38848   2.710   0.013   9.554 -0.4450 -0.0956 -0.2431
 9130SOL    HW138849   2.706   4.675   9.626  1.8928  1.2869  1.1035
 9130SOL    HW238850   2.721   4.677   9.482  2.5985  1.4736 -1.1123
 9131SOL     OW38851   3.280   0.638   4.135 -0.1542  0.1578  0.2339
 9131SOL    HW138852   3.325   0.655   4.218 -1.5428 -0.3314  1.0971
 9131SOL    HW238853   3.323   0.564   4.093 -2.4677  0.3467 -2.4693
 9132SOL     OW38854   0.970   3.553  13.288 -0.3680 -0.1448  0.1716
 9132SOL    HW138855   1.064   3.562  13.300 -0.2561 -0.2097 -0.6863
 9132SOL    HW238856   0.952   3.460  13.272  2.3696 -0.5394 -0.5294
 9133SOL     OW38857   3.205   0.440   3.120  0.1352  0.0623 -0.2577
 9133SOL    HW138858   3.125   0.473   3.078 -0.3104 -0.3229  0.2954
 9133SOL    HW238859   3.251   0.520   3.143 -0.7997  0.5784 -0.2130
 9134SOL     OW38860   4.004   3.324   3.668 -0.1967 -0.2219 -0.0827
 9134SOL    HW138861   4.085   3.288   3.632 -0.2850  0.8965 -1.4195
 9134SOL    HW238862   3.966   3.354   3.585  1.0336 -0.7961 -0.8603
 9135SOL     OW38863   4.207   3.381   7.665  0.1867  0.2210 -0.2151
 9135SOL    HW138864   4.277   3.424   7.713 -0.8670  1.4279  0.2246
 9135SOL    HW238865   4.248   3.365   7.580 -0.8167 -1.3126 -0.4094
 9136SOL     OW38866   1.216   4.442   6.524 -0.2101 -0.4005 -0.6302
 9136SOL    HW138867   1.211   4.533   6.552  0.1425  0.0305 -1.9630
 9136SOL    HW238868   1.148   4.444   6.457  0.1823  4.0295 -0.9004
 9137SOL     OW38869   0.255   1.687  15.224  0.3983 -0.1091 -0.1877
 9137SOL    HW138870   0.300   1.762  15.262  0.2185  0.3383 -0.8652
 9137SOL    HW238871   0.169   1.720  15.198  0.6647  1.6620  1.2218
 9138SOL     OW38872   4.089   1.211   6.433  0.0854 -0.5335 -0.6019
 9138SOL    HW138873   4.048   1.173   6.355  1.0461 -1.5483 -0.6097
 9138SOL    HW238874   4.015   1.227   6.491 -0.7339  0.3607 -1.9008
 9139SOL     OW38875   0.125   1.790   3.631  0.2292  0.6896  0.0419
 9139SOL    HW138876   0.220   1.780   3.643  0.6456  1.2781 -2.8220
 9139SOL    HW238877   0.097   1.752   3.714  2.4041 -2.8828 -0.8595
 9140SOL     OW38878   4.073   4.549   7.124 -0.0664 -0.2007  0.1810
 9140SOL    HW138879   4.054   4.467   7.170  1.5977  0.0135  1.2712
 9140SOL    HW238880   4.017   4.545   7.047  0.4588  0.4435 -0.2353
 9141SOL     OW38881   2.697   2.321   6.685 -0.1851  0.2110  0.1466
 9141SOL    HW138882   2.665   2.346   6.599  0.1171  0.4973  0.1205
 9141SOL    HW238883   2.664   2.397   6.733  0.3662  0.2777  0.4169
 9142SOL     OW38884   2.421   2.998  11.240  0.0382  0.7565  0.1422
 9142SOL    HW138885   2.362   3.072  11.225 -0.1584  0.2406 -1.6259
 9142SOL    HW238886   2.436   2.962  11.153 -2.2143  2.5999 -1.0211
 9143SOL     OW38887   4.290   3.603   5.538 -0.0040  0.3423 -0.2106
 9143SOL    HW138888   4.344   3.583   5.615  0.5641 -0.2119 -0.7657
 9143SOL    HW238889   4.343   3.661   5.484 -1.7574  1.8417 -0.3149
 9144SOL     OW38890   2.758   3.846   5.551  0.1295 -0.3491  0.1698
 9144SOL    HW138891   2.819   3.877   5.617 -0.3550 -0.9138  0.8879
 9144SOL    HW238892   2.755   3.754   5.580  1.5644 -0.3574  0.2898
 9145SOL     OW38893   3.981   2.570   3.137 -0.5491 -0.4465 -0.4299
 9145SOL    HW138894   4.064   2.608   3.107 -0.0426 -1.6543 -0.5501
 9145SOL    HW238895   4.019   2.484   3.154 -1.4411 -0.4561  1.6092
 9146SOL     OW38896   2.073   0.050  13.930 -0.2079  0.2537  0.2998
 9146SOL    HW138897   2.107   4.713  13.867  1.9015  1.3750  0.3395
 9146SOL    HW238898   2.139   0.118  13.942 -0.4111  0.3138  1.1174
 9147SOL     OW38899   0.435   3.023   1.818 -0.0639 -0.2630 -0.2127
 9147SOL    HW138900   0.394   3.100   1.856 -1.1223 -1.7896  1.7515
 9147SOL    HW238901   0.392   2.955   1.870 -1.1909  1.7862  1.5145
 9148SOL     OW38902   1.381   2.468   7.037 -0.7637 -0.1250 -0.1475
 9148SOL    HW138903   1.441   2.404   6.998 -1.7136 -1.4551  0.5864
 9148SOL    HW238904   1.353   2.419   7.115 -0.7485  0.6026  0.3180
 9149SOL     OW38905   4.639   0.944   8.575  0.1665 -0.1028 -0.0626
 9149SOL    HW138906   4.633   0.848   8.573  0.4414 -0.1549  1.5179
 9149SOL    HW238907   4.574   0.966   8.509 -0.0352 -2.9500 -0.8161
 9150SOL     OW38908   4.224   1.996  10.280 -0.4856 -0.8349  0.1795
 9150SOL    HW138909   4.145   1.987  10.226  0.1747  2.3376 -1.3134
 9150SOL    HW238910   4.216   1.936  10.354 -0.7007  0.8272  1.5066
 9151SOL     OW38911   0.986   0.314  11.499 -0.0534  0.3239 -0.3206
 9151SOL    HW138912   1.061   0.336  11.443 -1.1656  2.9524 -0.7759
 9151SOL    HW238913   0.923   0.326  11.428 -0.0997  1.6643 -0.0499
 9152SOL     OW38914   2.498   2.183  12.399  0.1722 -0.4869  0.2014
 9152SOL    HW138915   2.562   2.112  12.410  2.1534  1.3515  0.5549
 9152SOL    HW238916   2.520   2.202  12.308  0.7270 -0.4936  0.3301
 9153SOL     OW38917   1.603   2.803   4.040 -0.0416  0.1767 -0.7194
 9153SOL    HW138918   1.542   2.836   3.974 -0.8021 -0.4022 -0.3076
 9153SOL    HW238919   1.684   2.812   3.991  1.0972 -0.9778  0.9427
 9154SOL     OW38920   0.795   4.223   8.800 -0.0822 -0.2531  0.1482
 9154SOL    HW138921   0.873   4.201   8.851 -0.9174  1.6571  2.2598
 9154SOL    HW238922   0.734   4.184   8.862 -0.1000 -2.1407 -1.0623
 9155SOL     OW38923   3.212   2.759  10.251  0.1441  0.3827 -0.3823
 9155SOL    HW138924   3.290   2.705  10.237 -1.1383 -1.4412 -0.4992
 9155SOL    HW238925   3.237   2.830  10.309  2.0352  1.0197 -1.9794
 9156SOL     OW38926   4.047   2.137   1.022  0.0738  0.1930 -0.0024
 9156SOL    HW138927   4.060   2.207   1.086  1.2597  1.4266 -1.5899
 9156SOL    HW238928   3.988   2.084   1.076  2.4465 -2.0654  0.3362
 9157SOL     OW38929   1.920   1.328   3.102  0.1372 -0.3917  0.1247
 9157SOL    HW138930   1.988   1.394   3.095 -0.9537  0.5268 -2.1050
 9157SOL    HW238931   1.848   1.382   3.135  0.4073 -0.4889  0.8678
 9158SOL     OW38932   2.736   2.988   2.994  0.1368 -0.0447 -0.2782
 9158SOL    HW138933   2.696   3.002   2.908 -0.4879  0.3208  0.0754
 9158SOL    HW238934   2.675   3.034   3.051  0.8931  1.2737 -0.5429
 9159SOL     OW38935   0.367   1.624  15.816 -0.1059 -0.6708 -0.1959
 9159SOL    HW138936   0.408   1.657  15.896 -0.5234  2.7325 -1.4116
 9159SOL    HW238937   0.324   1.702  15.780  0.9702  0.3270  0.6770
 9160SOL     OW38938   0.682   0.800   3.388  0.2187 -0.1921 -0.4598
 9160SOL    HW138939   0.613   0.850   3.344  0.6774  1.8302  1.1010
 9160SOL    HW238940   0.762   0.853   3.380 -1.2776  2.1596 -0.0053
 9161SOL     OW38941   1.621   0.714   0.800 -0.9904  0.0640 -0.2322
 9161SOL    HW138942   1.526   0.722   0.810 -0.9394 -1.8994  1.8598
 9161SOL    HW238943   1.656   0.797   0.831 -4.0070  1.5143 -0.6784
 9162SOL     OW38944   2.423   3.785   2.231 -0.0435  1.0547 -0.2113
 9162SOL    HW138945   2.352   3.822   2.178 -0.4819  1.0998  0.4076
 9162SOL    HW238946   2.452   3.861   2.281  1.7127  1.3928 -1.7501
 9163SOL     OW38947   0.195   3.669   9.813  0.3351 -0.4435 -0.3626
 9163SOL    HW138948   0.170   3.609   9.884 -0.6769 -0.1583 -0.4712
 9163SOL    HW238949   0.273   3.708   9.852 -0.9706  0.7784  1.0436
 9164SOL     OW38950   4.021   3.909   6.655 -0.9433  0.2723 -0.0666
 9164SOL    HW138951   3.946   3.889   6.712 -0.2800  0.3614  0.8238
 9164SOL    HW238952   4.014   3.840   6.589 -1.3920  0.5018 -0.2649
 9165SOL     OW38953   0.545   3.239   8.277 -0.0000  0.3431  0.0425
 9165SOL    HW138954   0.452   3.237   8.296  0.2446 -4.4706  0.7892
 9165SOL    HW238955   0.573   3.244   8.369  0.2635 -2.1451  0.0776
 9166SOL     OW38956   0.988   3.952   6.245 -0.0531  0.2701 -0.5652
 9166SOL    HW138957   1.062   3.943   6.305  0.2019 -0.2111 -0.9539
 9166SOL    HW238958   0.973   3.857   6.238 -1.8201  0.3926  1.2838
 9167SOL     OW38959   3.633   2.113  16.859  0.3130  0.0538 -0.6154
 9167SOL    HW138960   3.579   2.068  16.794  1.8022 -1.8565 -0.5302
 9167SOL    HW238961   3.676   2.165  16.791 -0.2523  1.5375  0.1579
 9168SOL     OW38962   0.746   3.904  12.650  0.3236  0.3086  0.2131
 9168SOL    HW138963   0.838   3.880  12.665  0.1269 -0.3681  0.3057
 9168SOL    HW238964   0.749   3.954  12.569  1.2883  0.5956  0.4190
 9169SOL     OW38965   2.821   0.847   4.685 -0.4038 -0.6208 -0.0166
 9169SOL    HW138966   2.800   0.877   4.774 -2.7695 -0.8766 -0.4672
 9169SOL    HW238967   2.785   0.922   4.636  2.2156  0.4172 -0.3203
 9170SOL     OW38968   2.549   0.521   3.751 -0.5017 -0.4515  0.7603
 9170SOL    HW138969   2.624   0.534   3.693 -0.9211  0.5887  0.4564
 9170SOL    HW238970   2.564   0.589   3.816 -0.0271 -0.7997  1.0155
 9171SOL     OW38971   3.053   0.498   6.845 -0.1623 -0.3727 -0.1579
 9171SOL    HW138972   3.088   0.540   6.923 -0.3341 -0.8669  0.1835
 9171SOL    HW238973   3.113   0.428   6.817 -0.8471  0.0822 -2.7329
 9172SOL     OW38974   3.968   4.624  12.910 -0.0651  0.1542  0.7446
 9172SOL    HW138975   3.943   4.686  12.842  0.1867  0.0904  0.5947
 9172SOL    HW238976   4.015   4.683  12.969  0.7173  0.1843  0.0743
 9173SOL     OW38977   2.639   2.851   3.980  0.1241  0.2330 -0.2478
 9173SOL    HW138978   2.557   2.804   3.998  0.3428  0.0721  0.3229
 9173SOL    HW238979   2.706   2.784   3.987 -2.0833 -1.8378  1.1755
 9174SOL     OW38980   1.614   0.570   0.550  0.2965  0.0002  0.4231
 9174SOL    HW138981   1.599   0.608   0.636 -1.5901  3.1551 -1.3115
 9174SOL    HW238982   1.710   0.563   0.556  0.2679  0.1009  0.9406
 9175SOL     OW38983   4.274   2.232   8.285 -0.0542  0.2255 -0.4689
 9175SOL    HW138984   4.367   2.209   8.289 -0.7127 -2.1902  1.0448
 9175SOL    HW238985   4.271   2.319   8.323  0.0872 -0.3869  0.9563
 9176SOL     OW38986   0.388   0.174   3.027  0.2252 -0.1953 -0.0340
 9176SOL    HW138987   0.463   0.215   3.071  0.4308  0.6163 -1.1460
 9176SOL    HW238988   0.352   0.117   3.095  1.2483  0.5403  1.1356
 9177SOL     OW38989   2.662   4.650  11.837 -0.2296 -0.2819  0.6034
 9177SOL    HW138990   2.597   4.721  11.843 -0.6870 -0.4968 -1.7637
 9177SOL    HW238991   2.732   4.708  11.806  0.9275 -1.2360  1.4126
 9178SOL     OW38992   3.989   4.216   3.870  0.1063  0.1136 -0.4869
 9178SOL    HW138993   4.079   4.238   3.844 -0.0890 -0.1241 -1.3689
 9178SOL    HW238994   3.981   4.143   3.808 -1.3556  1.5981 -2.0151
 9179SOL     OW38995   4.676   4.120  11.706  0.1558  0.4415 -0.1719
 9179SOL    HW138996   4.583   4.099  11.695 -0.0178  1.6374 -1.0288
 9179SOL    HW238997   4.666   4.209  11.740  0.9114 -0.3758  2.1750
 9180SOL     OW38998   3.906   4.293   7.114  0.6594  0.0558 -0.2670
 9180SOL    HW138999   3.932   4.201   7.112 -1.3260 -0.5432  1.1036
 9180SOL    HW239000   3.846   4.302   7.039  0.1953  1.3324  0.2754
 9181SOL     OW39001   0.468   1.095  11.782  0.0295 -0.2553 -0.0971
 9181SOL    HW139002   0.424   1.177  11.804 -0.5791 -0.3397 -1.0125
 9181SOL    HW239003   0.548   1.089  11.835  0.6945  1.5109 -0.8971
 9182SOL     OW39004   1.186   1.443   7.586 -0.1301 -0.0704  0.0364
 9182SOL    HW139005   1.158   1.520   7.536  1.7032  1.9918  2.1884
 9182SOL    HW239006   1.177   1.377   7.517  0.5086 -0.7389  0.5894
 9183SOL     OW39007   0.964   4.228   5.421 -0.5718 -0.0674 -0.0350
 9183SOL    HW139008   0.968   4.221   5.326 -0.1978  0.9018 -0.0915
 9183SOL    HW239009   0.887   4.281   5.441 -0.6730 -0.1150 -0.2953
 9184SOL     OW39010   4.722   1.220   2.958 -0.0276 -0.1947  0.0477
 9184SOL    HW139011   0.037   1.305   2.977 -2.1559  0.4842  1.5737
 9184SOL    HW239012   4.631   1.246   2.970  0.8139  2.4185  0.8693
 9185SOL     OW39013   1.207   2.753   5.449  0.3742  0.1914  0.0175
 9185SOL    HW139014   1.273   2.699   5.492 -0.2204  0.1302  0.8732
 9185SOL    HW239015   1.258   2.824   5.412  1.5366 -1.0724 -0.8048
 9186SOL     OW39016   4.641   0.118   0.045  0.0174  0.1633 -0.9118
 9186SOL    HW139017   4.703   0.061  17.703  0.7646  0.2838 -0.0581
 9186SOL    HW239018   4.678   0.118   0.134 -1.1547 -0.8246 -0.4295
 9187SOL     OW39019   3.543   1.408   6.966 -0.9845  0.4924 -0.3854
 9187SOL    HW139020   3.507   1.319   6.961  1.3583 -0.4903  0.2949
 9187SOL    HW239021   3.468   1.462   6.943 -0.1302  1.8395  0.0163
 9188SOL     OW39022   3.677   2.835   4.373 -0.1411  0.3001 -0.0253
 9188SOL    HW139023   3.638   2.921   4.357 -0.3734  0.1390 -0.3312
 9188SOL    HW239024   3.764   2.858   4.404  1.5013  0.1055 -4.4346
 9189SOL     OW39025   2.169   3.917  14.837  0.6408  0.4614 -0.5976
 9189SOL    HW139026   2.124   3.867  14.768 -2.6769  2.1522  0.3511
 9189SOL    HW239027   2.098   3.951  14.891  1.5887  2.8854 -0.8963
 9190SOL     OW39028   3.337   0.883   7.958  0.5646 -0.0461 -0.3596
 9190SOL    HW139029   3.347   0.790   7.940  1.8818 -0.2092  1.2190
 9190SOL    HW239030   3.339   0.872   8.053 -1.0663  1.8828 -0.0879
 9191SOL     OW39031   3.407   2.036   2.811 -0.3108  0.1098 -0.2508
 9191SOL    HW139032   3.378   2.066   2.725  1.5015  0.2000 -0.8449
 9191SOL    HW239033   3.330   2.028   2.868 -0.9332  2.5594 -0.7171
 9192SOL     OW39034   0.841   3.826   9.673  0.6410  0.7639  0.1667
 9192SOL    HW139035   0.838   3.916   9.703  1.2585  0.9890 -0.4518
 9192SOL    HW239036   0.827   3.774   9.752 -2.3605  1.0800 -0.1225
 9193SOL     OW39037   1.047   2.695   8.845  0.2885  0.2548 -0.0929
 9193SOL    HW139038   0.984   2.717   8.777 -0.6267 -1.2829  0.2485
 9193SOL    HW239039   1.123   2.681   8.788 -1.4704 -1.5094 -1.9631
 9194SOL     OW39040   3.803   0.521  10.664 -0.1557 -0.2245  0.7591
 9194SOL    HW139041   3.746   0.527  10.587 -0.5912 -1.2444  1.0025
 9194SOL    HW239042   3.888   0.543  10.626 -0.6254 -0.1828 -0.2732
 9195SOL     OW39043   0.126   0.339   4.883  0.4499 -0.3116 -0.0563
 9195SOL    HW139044   0.178   0.326   4.803  1.6453 -0.6108  0.7731
 9195SOL    HW239045   0.105   0.433   4.881 -0.8424 -0.5986  0.3585
 9196SOL     OW39046   3.965   1.932   6.029  0.1910 -0.7619  0.2343
 9196SOL    HW139047   4.048   1.889   6.049  0.7440  0.0995 -0.1981
 9196SOL    HW239048   3.961   1.922   5.933 -1.1634  0.2484  0.1846
 9197SOL     OW39049   3.747   3.772   3.358 -0.8548  0.3100  0.3047
 9197SOL    HW139050   3.674   3.752   3.417 -0.3839 -1.9794  0.0981
 9197SOL    HW239051   3.814   3.806   3.417 -0.7497 -0.5240  0.6680
 9198SOL     OW39052   1.848   0.297   8.206 -0.3016 -0.0324 -0.5777
 9198SOL    HW139053   1.828   0.204   8.203  0.3121 -0.1638 -0.6206
 9198SOL    HW239054   1.758   0.328   8.204  0.2605  1.6714  0.1104
 9199SOL     OW39055   1.916   0.874   8.805 -0.7828  0.0070  0.2833
 9199SOL    HW139056   1.844   0.900   8.863 -1.0629  1.9296 -0.9107
 9199SOL    HW239057   1.961   0.794   8.832 -0.4238 -0.2161 -0.9513
 9200SOL     OW39058   3.508   0.352   8.155 -0.2202 -0.0368 -0.2110
 9200SOL    HW139059   3.599   0.328   8.141 -0.2990 -0.4417 -0.0531
 9200SOL    HW239060   3.468   0.309   8.079 -0.8577  0.9641 -0.4421
 9201SOL     OW39061   0.049   4.363   6.850  0.4555  0.2222 -0.0236
 9201SOL    HW139062   0.004   4.371   6.766  1.8205  0.9145 -0.6939
 9201SOL    HW239063   4.721   4.313   6.912  0.9741  1.1347  1.1642
 9202SOL     OW39064   2.396   3.815   1.365  0.5206  1.1140  0.0831
 9202SOL    HW139065   2.414   3.733   1.410 -2.3162  0.0672 -0.7028
 9202SOL    HW239066   2.477   3.844   1.323  0.9304 -0.2774 -0.0763
 9203SOL     OW39067   3.307   1.672   7.838 -0.0519  0.3449 -0.2892
 9203SOL    HW139068   3.258   1.704   7.914 -0.6928  0.1443 -0.6181
 9203SOL    HW239069   3.398   1.693   7.857 -0.3479  0.7540  0.6736
 9204SOL     OW39070   4.014   3.801   8.484 -0.4145 -0.1249 -0.0332
 9204SOL    HW139071   3.945   3.750   8.525 -0.1779 -0.9343 -0.6382
 9204SOL    HW239072   3.969   3.886   8.486 -1.9207 -0.9392 -0.0107
 9205SOL     OW39073   0.371   3.223   3.326  0.7161 -0.6067  0.3912
 9205SOL    HW139074   0.289   3.181   3.303 -0.0658  0.6778  0.8339
 9205SOL    HW239075   0.339   3.311   3.345  0.0121 -0.4655 -1.4282
 9206SOL     OW39076   4.096   3.248  16.438  0.0401 -0.1736 -0.1798
 9206SOL    HW139077   4.131   3.327  16.397  2.6145 -0.3664  1.6694
 9206SOL    HW239078   4.174   3.193  16.437 -0.1503 -0.4465  0.0745
 9207SOL     OW39079   3.754   1.660   5.017  0.2821 -0.0623 -0.0734
 9207SOL    HW139080   3.806   1.729   4.975  1.0566 -0.3381  0.4254
 9207SOL    HW239081   3.729   1.704   5.099 -0.4592 -0.2710 -0.1901
 9208SOL     OW39082   2.867   3.093   4.869  0.4572  0.4840 -0.0447
 9208SOL    HW139083   2.788   3.146   4.876  0.2355  0.1147  0.2188
 9208SOL    HW239084   2.877   3.063   4.959 -0.5507 -1.1155 -0.4688
 9209SOL     OW39085   3.550   0.562   6.978  0.2869 -0.3860 -0.3459
 9209SOL    HW139086   3.469   0.520   7.005  0.1480  1.8380  2.6593
 9209SOL    HW239087   3.618   0.494   6.973 -1.5863 -2.2653 -0.1060
 9210SOL     OW39088   3.113   4.187   2.656 -0.3029 -0.1414  0.6159
 9210SOL    HW139089   3.027   4.215   2.627 -0.4364  0.7711  1.8814
 9210SOL    HW239090   3.134   4.268   2.703  0.4865  1.8200 -3.1643
 9211SOL     OW39091   0.424   1.381  10.446 -0.3783 -0.1008 -0.0770
 9211SOL    HW139092   0.410   1.473  10.465  0.0159  0.1799 -1.1145
 9211SOL    HW239093   0.334   1.359  10.420 -0.5942  0.1262  0.4876
 9212SOL     OW39094   2.317   4.222   2.523  0.3809  0.3389 -0.2906
 9212SOL    HW139095   2.339   4.160   2.592 -1.1516 -1.5743 -1.5023
 9212SOL    HW239096   2.377   4.196   2.453  0.5367  1.9502 -0.7594
 9213SOL     OW39097   2.572   0.976  12.773 -0.0277 -0.2644 -0.1230
 9213SOL    HW139098   2.664   0.995  12.759  0.1971  0.7111  2.8181
 9213SOL    HW239099   2.580   0.887  12.739  0.7039  0.3355 -1.5004
 9214SOL     OW39100   0.118   4.229  13.991  0.0322 -0.5099  0.0621
 9214SOL    HW139101   0.148   4.274  14.070 -0.8847  0.5609 -0.2154
 9214SOL    HW239102   0.181   4.158  13.975 -0.0636 -1.0064  1.8451
 9215SOL     OW39103   3.615   3.944   6.661  0.5080  0.3443 -0.4080
 9215SOL    HW139104   3.551   3.872   6.656  0.2400  0.8185 -3.4661
 9215SOL    HW239105   3.590   4.005   6.731  1.8330  1.5069 -0.9562
 9216SOL     OW39106   1.052   3.565   5.838 -0.4910  0.2376 -0.3453
 9216SOL    HW139107   1.012   3.624   5.775 -0.7092 -0.3197 -0.7208
 9216SOL    HW239108   1.088   3.629   5.899 -0.4127 -0.0171 -0.1223
 9217SOL     OW39109   4.651   4.192  10.132 -0.2260  0.2379 -0.3311
 9217SOL    HW139110   0.002   4.136  10.147 -0.8215 -0.5289 -0.1321
 9217SOL    HW239111   4.577   4.135  10.113 -3.2478  3.6617  1.1301
 9218SOL     OW39112   3.816   1.337   4.122 -0.3849 -0.5186 -0.1859
 9218SOL    HW139113   3.825   1.269   4.189  2.5428 -1.2290 -1.3160
 9218SOL    HW239114   3.743   1.392   4.152  0.2894  0.8029 -0.9883
 9219SOL     OW39115   0.644   0.589   4.082 -0.2300  0.2913 -0.5571
 9219SOL    HW139116   0.600   0.652   4.026 -1.0514 -0.1445 -0.4122
 9219SOL    HW239117   0.726   0.626   4.112 -1.0111  1.1434  0.5399
 9220SOL     OW39118   0.762   0.466  11.888  0.3197  0.4568  0.2934
 9220SOL    HW139119   0.699   0.534  11.865 -0.2774 -0.2886 -0.2590
 9220SOL    HW239120   0.713   0.385  11.873  0.4320  0.3450  0.5288
 9221SOL     OW39121   0.896   0.247   2.105 -0.3236 -0.4329  0.0045
 9221SOL    HW139122   0.819   0.267   2.052  0.0064  0.6874 -0.0563
 9221SOL    HW239123   0.949   0.321   2.076  1.8390 -2.3500 -0.9964
 9222SOL     OW39124   3.995   2.018  10.123  0.5332  0.1112 -0.3254
 9222SOL    HW139125   3.906   2.009  10.088  1.0206  3.2828 -2.3573
 9222SOL    HW239126   4.031   2.083  10.064  0.2254 -0.3593 -1.0314
 9223SOL     OW39127   1.418   4.137  10.711 -0.0243  0.1565  0.0824
 9223SOL    HW139128   1.344   4.165  10.656  1.7194  0.7163 -1.9583
 9223SOL    HW239129   1.396   4.047  10.737  2.5459 -0.0586  1.5213
 9224SOL     OW39130   3.513   3.805   8.682  0.2841 -0.5062  0.0671
 9224SOL    HW139131   3.521   3.721   8.728  1.3628  0.4184  1.5778
 9224SOL    HW239132   3.604   3.817   8.658  0.0983  1.9364  0.5740
 9225SOL     OW39133   0.147   3.486   2.976  0.0270 -0.3029 -0.1923
 9225SOL    HW139134   0.093   3.452   2.905  0.6206  1.2281 -1.3842
 9225SOL    HW239135   0.227   3.461   2.929  0.8719  1.4172  0.3211
 9226SOL     OW39136   3.290   3.566   7.423 -0.2825  0.0635 -0.2895
 9226SOL    HW139137   3.337   3.484   7.410  0.0480  1.0227 -5.0309
 9226SOL    HW239138   3.324   3.588   7.510 -1.1725 -1.0442  0.3434
 9227SOL     OW39139   1.918   2.760   5.615 -0.3508 -0.0753  0.6164
 9227SOL    HW139140   1.932   2.690   5.552  0.2250 -1.2893  2.0905
 9227SOL    HW239141   1.879   2.701   5.679 -0.8748 -1.3711 -0.9044
 9228SOL     OW39142   3.844   4.395  11.922  0.2116  0.4756  0.3102
 9228SOL    HW139143   3.925   4.346  11.909  0.7534  0.8046  2.4233
 9228SOL    HW239144   3.872   4.485  11.903 -0.3078  0.1228 -2.1068
 9229SOL     OW39145   0.025   4.287   2.376  0.5543  0.5196  0.1413
 9229SOL    HW139146   0.034   4.209   2.431 -1.9742  0.2787  0.2173
 9229SOL    HW239147   4.710   4.343   2.442 -1.1911  0.2422 -0.7079
 9230SOL     OW39148   3.995   0.173  15.740 -0.5840 -0.0229  0.3116
 9230SOL    HW139149   3.976   0.208  15.653  1.6348  0.0831 -0.1355
 9230SOL    HW239150   3.974   0.081  15.727  1.4794 -0.1026 -2.3808
 9231SOL     OW39151   2.314   4.497  17.353  0.1578  0.0503 -0.1208
 9231SOL    HW139152   2.394   4.505  17.405  0.1933  0.3372 -0.2236
 9231SOL    HW239153   2.297   4.590  17.341  0.8561 -0.1759 -2.8663
 9232SOL     OW39154   4.655   1.376  16.913  0.4456 -0.1971 -0.5121
 9232SOL    HW139155   0.013   1.328  16.912  0.7429  0.3181 -0.6408
 9232SOL    HW239156   4.669   1.417  16.828  0.1928 -1.9585 -1.4083
 9233SOL     OW39157   0.815   3.508   7.712  0.6249 -0.2680  0.4504
 9233SOL    HW139158   0.773   3.431   7.673 -1.9267  0.8630  0.9663
 9233SOL    HW239159   0.884   3.464   7.762  2.0242  0.2054 -1.0553
 9234SOL     OW39160   1.745   4.693   7.038 -0.1132  0.4678  0.4252
 9234SOL    HW139161   1.840   4.702   7.029 -0.0735  1.9698  2.4128
 9234SOL    HW239162   1.715   4.722   6.952  2.9405  2.2721 -0.0350
 9235SOL     OW39163   4.130   1.327  11.047  0.0974 -0.1047 -0.3855
 9235SOL    HW139164   4.052   1.356  11.094 -1.0712 -1.8045 -1.2941
 9235SOL    HW239165   4.184   1.401  11.072 -0.4538 -0.2034  1.0742
 9236SOL     OW39166   0.719   1.592   5.883  0.2947 -0.2869  0.3786
 9236SOL    HW139167   0.790   1.642   5.924 -0.1835  0.9894 -0.3616
 9236SOL    HW239168   0.649   1.657   5.882 -0.9982 -1.6629  3.4372
 9237SOL     OW39169   1.197   1.998   8.292 -0.4293 -0.4291  0.2157
 9237SOL    HW139170   1.208   2.093   8.294  0.7904 -0.5981  1.4744
 9237SOL    HW239171   1.273   1.964   8.340 -2.0233 -0.3972  2.7119
 9238SOL     OW39172   2.708   3.470   9.882 -0.0963 -0.2772  1.1098
 9238SOL    HW139173   2.716   3.546   9.940  1.4586  1.0884 -0.9076
 9238SOL    HW239174   2.654   3.418   9.942  2.7594 -0.8923  3.1144
 9239SOL     OW39175   2.259   3.685   1.961 -0.2459  0.5448 -0.5695
 9239SOL    HW139176   2.283   3.625   1.890 -1.5084 -0.2202 -0.3469
 9239SOL    HW239177   2.253   3.765   1.909 -0.6852  0.3193 -0.8624
 9240SOL     OW39178   4.577   0.783   3.613  0.3156  0.7456  0.3575
 9240SOL    HW139179   4.579   0.688   3.604 -0.5671  0.8072 -0.4985
 9240SOL    HW239180   4.662   0.790   3.656  1.1498  1.1748 -1.3585
 9241SOL     OW39181   2.534   3.031   2.803  0.3061  0.3615  0.1745
 9241SOL    HW139182   2.540   2.952   2.749 -1.1157 -0.6239  1.4931
 9241SOL    HW239183   2.456   3.012   2.854  0.9878 -4.2887 -0.4384
 9242SOL     OW39184   2.604   1.789   5.188 -0.3702  0.5986 -0.2132
 9242SOL    HW139185   2.586   1.882   5.199  1.9544  0.5903  3.8227
 9242SOL    HW239186   2.519   1.750   5.209  0.0751  0.4634  1.3199
 9243SOL     OW39187   2.647   0.974   3.253  0.3805 -0.2659  0.1977
 9243SOL    HW139188   2.733   1.014   3.266  0.3113  0.1142 -0.4985
 9243SOL    HW239189   2.597   1.049   3.219  1.0156  0.3860  0.7064
 9244SOL     OW39190   0.637   3.638  17.333  0.2060  0.5799 -0.2749
 9244SOL    HW139191   0.577   3.592  17.275  0.8995  0.6536 -1.0484
 9244SOL    HW239192   0.655   3.567  17.395  0.7053  0.7049 -0.2758
 9245SOL     OW39193   2.226   2.530  14.630  0.4816  0.4285  0.0261
 9245SOL    HW139194   2.297   2.573  14.583  0.3869 -1.7396 -2.0903
 9245SOL    HW239195   2.154   2.584  14.597  0.5662  0.6235  0.1617
 9246SOL     OW39196   2.945   3.986   5.300  0.9485  0.5339 -0.2306
 9246SOL    HW139197   2.889   3.916   5.332  0.7641  0.8428  0.1127
 9246SOL    HW239198   3.006   3.939   5.242 -0.9448 -0.9929 -0.9907
 9247SOL     OW39199   3.604   2.254   3.920  0.0430  0.1088  0.2937
 9247SOL    HW139200   3.667   2.257   3.848 -1.4643  1.9007 -0.9478
 9247SOL    HW239201   3.520   2.260   3.875  0.1970 -0.9969 -0.1252
 9248SOL     OW39202   4.713   4.349  13.791 -0.1087 -0.5545  0.5217
 9248SOL    HW139203   0.039   4.429  13.785  1.7128 -1.7949 -0.3475
 9248SOL    HW239204   0.030   4.305  13.864  1.1747  1.1748  0.8070
 9249SOL     OW39205   3.341   3.599  15.390 -0.6048  0.3293  0.1710
 9249SOL    HW139206   3.278   3.651  15.341  0.5808 -0.0145 -1.7265
 9249SOL    HW239207   3.428   3.618  15.355 -0.5577 -2.0730 -0.9688
 9250SOL     OW39208   0.618   3.215   4.941 -0.4601 -0.0291  0.0051
 9250SOL    HW139209   0.676   3.282   4.906 -1.0704  0.7306  0.4661
 9250SOL    HW239210   0.571   3.191   4.861  0.5028  1.2044 -0.9357
 9251SOL     OW39211   3.925   2.813   3.951  0.5457 -0.1880 -0.6873
 9251SOL    HW139212   4.003   2.760   3.935  0.3297 -0.9911  0.9752
 9251SOL    HW239213   3.918   2.809   4.046 -1.6809  1.0269 -0.7867
 9252SOL     OW39214   1.474   0.501   5.107  0.0398  0.4876  0.6438
 9252SOL    HW139215   1.537   0.476   5.174  1.2306  0.8999 -0.3342
 9252SOL    HW239216   1.455   0.421   5.058  1.0569 -0.0880  1.1905
 9253SOL     OW39217   1.259   0.911  12.166  0.3480 -0.2325 -0.0444
 9253SOL    HW139218   1.313   0.867  12.100  3.9675  1.9284  1.4384
 9253SOL    HW239219   1.311   0.913  12.246  0.2192 -1.4382  0.0670
 9254SOL     OW39220   2.043   4.132   2.163  0.4056  0.2056 -0.5593
 9254SOL    HW139221   2.101   4.187   2.111  0.2572  0.7395 -0.1492
 9254SOL    HW239222   1.954   4.165   2.150  0.5269  0.4543 -0.7386
 9255SOL     OW39223   2.975   3.786   6.087  0.5316 -0.0205 -0.1293
 9255SOL    HW139224   2.958   3.718   6.152  1.0675  0.3537  0.4030
 9255SOL    HW239225   2.925   3.760   6.009  1.2264  0.6917 -0.8095
 9256SOL     OW39226   2.237   0.014   7.460 -0.1726 -0.0408  0.0780
 9256SOL    HW139227   2.147   0.005   7.493 -0.3266  2.6723  0.3857
 9256SOL    HW239228   2.236   0.104   7.427 -1.5615  0.5058  1.5671
 9257SOL     OW39229   3.152   0.206   6.509 -0.2717  0.8343  0.4388
 9257SOL    HW139230   3.158   0.127   6.456  3.0297  0.2402  1.6938
 9257SOL    HW239231   3.238   0.211   6.551  0.1859 -0.1445 -0.3929
 9258SOL     OW39232   3.305   3.039   4.602 -0.0751 -0.5209 -0.3975
 9258SOL    HW139233   3.236   3.069   4.661  2.3846  1.6965  1.3301
 9258SOL    HW239234   3.303   2.946   4.626 -0.2587 -0.3949  0.0824
 9259SOL     OW39235   1.566   2.216  16.064  0.1615  0.3760 -0.4338
 9259SOL    HW139236   1.488   2.210  16.009 -0.6168 -1.8627  0.8767
 9259SOL    HW239237   1.606   2.129  16.071 -1.5192 -0.3448  0.2911
 9260SOL     OW39238   2.062   4.384   3.246  0.6205  0.0440 -0.3578
 9260SOL    HW139239   2.148   4.347   3.230 -0.4547 -2.5819 -0.0309
 9260SOL    HW239240   2.046   4.382   3.341  0.8665 -0.3823 -0.3287
 9261SOL     OW39241   2.753   0.019   8.275  0.8032 -0.0950  0.2303
 9261SOL    HW139242   2.825   4.681   8.269 -0.9529 -1.6741 -3.5848
 9261SOL    HW239243   2.680   4.683   8.271  0.4258  0.2961  1.0190
 9262SOL     OW39244   4.293   1.489   5.278  0.7332  0.2786  0.4290
 9262SOL    HW139245   4.314   1.453   5.364 -1.6165  1.3999  1.4602
 9262SOL    HW239246   4.217   1.435   5.256  0.8835  0.8744 -1.5567
 9263SOL     OW39247   2.620   0.018   4.780 -0.8619  0.2147  0.1095
 9263SOL    HW139248   2.653   0.106   4.798 -1.4087  0.2047  1.1670
 9263SOL    HW239249   2.541   0.008   4.833 -0.0704  0.9388  1.4355
 9264SOL     OW39250   3.173   2.683  15.413 -0.4213  0.0906  0.3071
 9264SOL    HW139251   3.188   2.593  15.386  2.3467  0.7038 -0.2328
 9264SOL    HW239252   3.109   2.715  15.350  1.2347 -1.2287 -2.0539
 9265SOL     OW39253   0.388   1.811   4.016  0.0226  0.1767  0.3462
 9265SOL    HW139254   0.481   1.790   4.023 -0.1213 -0.6523 -0.1814
 9265SOL    HW239255   0.368   1.879   4.080  2.4222  0.7490  0.4935
 9266SOL     OW39256   0.151   1.655  14.253  0.2300 -0.1956  0.0446
 9266SOL    HW139257   0.219   1.594  14.225 -3.5252 -2.2046 -4.5936
 9266SOL    HW239258   0.160   1.655  14.348  2.3457 -1.1910 -0.1621
 9267SOL     OW39259   0.946   1.100   8.018  0.3644  0.2038 -0.0478
 9267SOL    HW139260   0.957   1.030   8.083  3.5224  0.8512  0.1096
 9267SOL    HW239261   1.026   1.151   8.009  0.1474  0.2882 -1.6029
 9268SOL     OW39262   4.040   2.511   4.755 -0.0851 -0.4415  0.4092
 9268SOL    HW139263   4.113   2.558   4.794  0.5558 -1.9927  1.0578
 9268SOL    HW239264   4.011   2.582   4.697  0.9177 -0.1930  0.2207
 9269SOL     OW39265   1.787   0.833  17.421  0.1049  0.2705  0.3853
 9269SOL    HW139266   1.828   0.749  17.440  1.9356  0.7392 -1.4602
 9269SOL    HW239267   1.840   0.857  17.344  0.9617 -2.3755  0.1612
 9270SOL     OW39268   2.850   2.476  10.298 -0.1421 -0.8860 -0.0680
 9270SOL    HW139269   2.873   2.541  10.365 -0.6709 -1.0957  0.3188
 9270SOL    HW239270   2.773   2.432  10.333  0.4118 -0.5576  1.5511
 9271SOL     OW39271   0.336   1.652   1.257  0.3067 -0.2748 -0.0006
 9271SOL    HW139272   0.243   1.671   1.244  0.8162  1.1047 -1.6920
 9271SOL    HW239273   0.346   1.585   1.190  1.3783  1.2960 -1.4173
 9272SOL     OW39274   2.097   0.184  14.469  0.0170 -0.4404  0.6952
 9272SOL    HW139275   2.178   0.221  14.504  0.0102 -0.2024  0.4602
 9272SOL    HW239276   2.060   0.266  14.435  1.3816  0.6059  1.7101
 9273SOL     OW39277   1.599   2.857   4.526  0.2189 -0.6161  0.4873
 9273SOL    HW139278   1.673   2.800   4.548  0.3801 -1.0513 -1.2092
 9273SOL    HW239279   1.621   2.872   4.434 -1.3211 -1.6422 -0.0431
 9274SOL     OW39280   2.034   0.706   7.643 -0.8825  0.6004 -0.1303
 9274SOL    HW139281   2.089   0.779   7.614 -2.7929  1.4231 -1.7328
 9274SOL    HW239282   2.040   0.645   7.569  0.5273  1.3638 -0.6395
 9275SOL     OW39283   4.458   2.809   4.835 -0.2073 -0.7289 -0.0537
 9275SOL    HW139284   4.492   2.730   4.792 -0.5564 -0.8350 -0.1359
 9275SOL    HW239285   4.407   2.848   4.764  0.9618 -1.1614 -1.1238
 9276SOL     OW39286   3.953   4.560   9.657  0.9452  0.4699  0.0672
 9276SOL    HW139287   3.930   4.512   9.737  0.5023  1.3290  0.4511
 9276SOL    HW239288   4.010   4.629   9.690  0.6955  1.0757 -0.7845
 9277SOL     OW39289   1.817   1.969   1.970  0.1400  0.0789  0.2704
 9277SOL    HW139290   1.769   1.887   1.956  0.3600  0.2214 -1.2548
 9277SOL    HW239291   1.756   2.031   1.931  1.5957  1.2328 -0.1741
 9278SOL     OW39292   0.877   3.755   0.712 -0.5750  0.0256  0.2115
 9278SOL    HW139293   0.898   3.844   0.741 -0.3080 -0.0862  0.3673
 9278SOL    HW239294   0.826   3.721   0.786 -1.5852  1.3356  0.0957
 9279SOL     OW39295   0.113   4.489   2.627 -0.3426  0.1033 -0.0430
 9279SOL    HW139296   0.130   4.467   2.719 -0.3531 -1.3916 -0.3977
 9279SOL    HW239297   0.020   4.510   2.613 -0.0722  1.6978  0.6045
 9280SOL     OW39298   3.573   2.832   3.483  0.6805  0.2390 -0.5430
 9280SOL    HW139299   3.612   2.903   3.432  2.1770 -0.8602 -0.9333
 9280SOL    HW239300   3.654   2.782   3.495  0.5693  0.2454  0.2554
 9281SOL     OW39301   2.762   1.963   7.731  0.1093 -0.2064 -0.1106
 9281SOL    HW139302   2.731   1.873   7.719  1.2862 -0.2943 -2.4850
 9281SOL    HW239303   2.853   1.947   7.705 -0.0810  0.8472 -1.4284
 9282SOL     OW39304   4.066   3.670   5.080 -0.4296 -0.4384  0.7800
 9282SOL    HW139305   4.098   3.657   5.169  1.2514  0.3723  0.2974
 9282SOL    HW239306   4.064   3.766   5.076  1.0015 -0.4032  0.8210
 9283SOL     OW39307   0.128   1.528   7.317 -0.7955  0.0508 -0.3247
 9283SOL    HW139308   0.050   1.546   7.265 -1.9244  0.2999  1.4203
 9283SOL    HW239309   0.150   1.612   7.358 -1.0935  0.1095 -0.2850
 9284SOL     OW39310   2.960   4.090   0.777 -0.7053  0.4304  0.1252
 9284SOL    HW139311   3.012   4.010   0.769  0.1036  0.8970  0.6692
 9284SOL    HW239312   2.939   4.102   0.684  2.8570 -1.4140 -0.9253
 9285SOL     OW39313   3.389   4.322   7.107  0.6444  0.1849  0.1266
 9285SOL    HW139314   3.390   4.247   7.047 -0.8773  0.3505 -0.1035
 9285SOL    HW239315   3.432   4.287   7.185  1.6963 -0.6740 -0.8244
 9286SOL     OW39316   4.454   3.809   5.433 -0.4338  0.5032  0.3514
 9286SOL    HW139317   4.440   3.903   5.444  0.9555  0.7186  0.3409
 9286SOL    HW239318   4.547   3.809   5.409 -0.0425 -0.6197  1.8234
 9287SOL     OW39319   2.694   4.722  16.939 -0.2758  0.4487  0.2196
 9287SOL    HW139320   2.641   4.653  16.979  1.1415 -0.6089  0.2636
 9287SOL    HW239321   2.633   0.070  16.946  0.3680  1.0243 -0.1805
 9288SOL     OW39322   1.006   0.648  10.155 -0.9257  0.0890 -0.1537
 9288SOL    HW139323   0.920   0.617  10.128 -0.9373 -1.1741  1.3306
 9288SOL    HW239324   1.038   0.575  10.209 -0.3336 -0.7629 -1.6555
 9289SOL     OW39325   4.091   3.015  17.566 -0.2968  0.0387 -0.2201
 9289SOL    HW139326   4.092   2.920  17.568  0.8233  0.0067 -2.0803
 9289SOL    HW239327   4.050   3.039  17.649 -0.3416 -2.0759  0.3506
 9290SOL     OW39328   2.653   3.210   7.123 -0.0622 -0.0827  0.2268
 9290SOL    HW139329   2.573   3.159   7.136  0.1166 -0.6652 -0.8852
 9290SOL    HW239330   2.635   3.264   7.046  2.9478 -0.1529 -0.5409
 9291SOL     OW39331   0.208   2.429   2.287 -0.1001 -0.3909 -0.2213
 9291SOL    HW139332   0.156   2.355   2.317 -0.4893 -0.2620 -0.5661
 9291SOL    HW239333   0.141   2.493   2.312  0.6652  0.5940 -0.6870
 9292SOL     OW39334   3.824   0.990  12.706 -0.5711 -0.5815 -0.1533
 9292SOL    HW139335   3.771   1.036  12.641  0.7207 -1.0215 -1.5128
 9292SOL    HW239336   3.890   0.943  12.656  1.1560 -0.0557  1.6407
 9293SOL     OW39337   1.684   2.730  15.876  0.1050 -0.3738 -0.2138
 9293SOL    HW139338   1.613   2.732  15.940  1.2438  1.1550  0.9943
 9293SOL    HW239339   1.743   2.795  15.913 -1.2020  0.3731  0.5980
 9294SOL     OW39340   4.169   2.759   8.658  0.1836 -0.4426 -0.1492
 9294SOL    HW139341   4.080   2.769   8.622 -0.1269  0.6418  0.9410
 9294SOL    HW239342   4.206   2.678   8.621  0.7206  0.2748 -1.1659
 9295SOL     OW39343   2.454   1.143   3.166  0.1192  0.2874  0.2263
 9295SOL    HW139344   2.389   1.077   3.140 -0.1479  0.3852  0.6472
 9295SOL    HW239345   2.410   1.173   3.246 -0.6636  0.0843 -0.1343
 9296SOL     OW39346   3.105   2.509   3.607 -0.2361 -0.2891 -0.0938
 9296SOL    HW139347   3.197   2.527   3.628 -0.7606  0.5897  1.4597
 9296SOL    HW239348   3.114   2.492   3.514 -0.9092  1.1298 -0.4235
 9297SOL     OW39349   0.270   1.054   8.805 -0.1748  0.2950 -0.0155
 9297SOL    HW139350   0.324   1.087   8.732  0.7805  0.4424  0.7654
 9297SOL    HW239351   0.332   0.997   8.848 -0.8869  1.0749  2.0340
 9298SOL     OW39352   1.681   0.429   3.446 -0.0822 -0.5665 -0.6482
 9298SOL    HW139353   1.598   0.462   3.479  1.1179  1.5545  0.2526
 9298SOL    HW239354   1.690   0.486   3.370  1.0716  4.3812  3.2220
 9299SOL     OW39355   3.595   1.901   6.480  0.2007 -0.3160  1.0468
 9299SOL    HW139356   3.602   1.840   6.554 -0.8741 -0.5634  0.9441
 9299SOL    HW239357   3.656   1.852   6.425  2.0975  2.3118  0.8198
 9300SOL     OW39358   4.461   3.109   3.786 -0.1967  0.1521 -0.0951
 9300SOL    HW139359   4.475   3.159   3.867  0.5387 -0.3169  0.0720
 9300SOL    HW239360   4.513   3.169   3.733  2.3931 -2.9055 -1.1076
 9301SOL     OW39361   0.140   4.060  10.894 -0.3680  0.1874  0.1002
 9301SOL    HW139362   0.058   4.076  10.941  0.1192  1.7141  0.4224
 9301SOL    HW239363   0.138   3.966  10.912 -0.1766  0.5767  2.1642
 9302SOL     OW39364   0.682   3.887  17.426 -0.7664  0.1317  0.4903
 9302SOL    HW139365   0.654   3.809  17.378  1.8128 -0.7812  0.5113
 9302SOL    HW239366   0.738   3.852  17.495 -0.5996  0.8066  0.6970
 9303SOL     OW39367   1.093   0.785   3.055 -0.0935  0.8719 -0.5624
 9303SOL    HW139368   1.069   0.866   3.101  2.5196 -0.5827  3.3970
 9303SOL    HW239369   1.022   0.730   3.089  0.9970 -0.2264 -0.0574
 9304SOL     OW39370   3.833   0.864   5.148  0.0454 -0.1729 -0.1508
 9304SOL    HW139371   3.753   0.901   5.184  0.1218 -1.4718  1.3552
 9304SOL    HW239372   3.863   0.816   5.226 -1.1755 -0.7450 -0.0416
 9305SOL     OW39373   1.431   2.602   9.506  0.5541 -0.4115 -0.3511
 9305SOL    HW139374   1.487   2.665   9.551 -0.8993  0.8689 -0.3264
 9305SOL    HW239375   1.399   2.663   9.440  0.2659  0.0667  0.2328
 9306SOL     OW39376   0.043   0.761   7.889  0.5746 -0.2012  0.0915
 9306SOL    HW139377   4.688   0.810   7.869 -0.2029 -2.2108 -1.7231
 9306SOL    HW239378   0.087   0.772   7.804  0.5627  1.5124  0.3004
 9307SOL     OW39379   2.026   0.721  17.118  0.5453  0.7905  0.7183
 9307SOL    HW139380   1.991   0.668  17.046 -0.9889  2.6150  0.1073
 9307SOL    HW239381   2.013   0.669  17.197  0.0396  0.4819  0.4353
 9308SOL     OW39382   0.739   3.921  14.771  0.3203  0.1596 -0.2760
 9308SOL    HW139383   0.818   3.882  14.735 -0.3542 -2.4694  1.0620
 9308SOL    HW239384   0.719   3.993  14.710  0.1949 -0.3311 -0.8100
 9309SOL     OW39385   3.809   1.227   6.629 -0.3184  0.1194 -0.1777
 9309SOL    HW139386   3.733   1.170   6.636 -0.0258 -0.3043 -0.3811
 9309SOL    HW239387   3.805   1.266   6.716 -0.3428  1.2712 -0.6965
 9310SOL     OW39388   2.745   0.504   5.738  0.1071 -0.3132 -0.2823
 9310SOL    HW139389   2.768   0.586   5.781  1.3000 -1.7007  1.7273
 9310SOL    HW239390   2.815   0.503   5.673  0.1791 -2.9271 -0.1922
 9311SOL     OW39391   4.169   0.776   7.256  0.1642  0.3491 -0.8012
 9311SOL    HW139392   4.159   0.682   7.275  1.8154  0.3772  0.2721
 9311SOL    HW239393   4.196   0.808   7.342  0.4882 -0.7925 -0.4704
 9312SOL     OW39394   0.783   4.311   3.319  0.0873  0.5813  0.2523
 9312SOL    HW139395   0.761   4.232   3.270 -0.3010  1.3983 -0.8705
 9312SOL    HW239396   0.725   4.383   3.297 -2.0472 -1.2322 -0.0585
 9313SOL     OW39397   2.571   1.840   7.148 -0.1049  0.2042  0.7944
 9313SOL    HW139398   2.601   1.862   7.237  0.1455  0.5067  0.6340
 9313SOL    HW239399   2.564   1.745   7.159 -0.4475  0.1412  0.0350
 9314SOL     OW39400   1.542   1.306   3.023  0.5171  0.0811 -0.0521
 9314SOL    HW139401   1.596   1.361   3.079  2.7720  0.6380 -2.7852
 9314SOL    HW239402   1.471   1.368   3.003  0.5286  0.2678  0.4927
 9315SOL     OW39403   4.512   2.521   8.062  0.9088  0.4286  0.1672
 9315SOL    HW139404   4.540   2.431   8.048  0.0067  0.0576  0.7462
 9315SOL    HW239405   4.419   2.517   8.041  0.6472  1.1706  1.1681
 9316SOL     OW39406   2.971   3.675  17.404 -0.2044 -0.2397  0.3583
 9316SOL    HW139407   2.889   3.695  17.449  0.5520  1.3323  1.0121
 9316SOL    HW239408   2.941   3.607  17.343  0.4508 -1.2032  1.1188
 9317SOL     OW39409   1.468   3.853  13.707 -0.6026 -0.8744  0.0596
 9317SOL    HW139410   1.512   3.784  13.659  0.3974  0.8836 -1.5500
 9317SOL    HW239411   1.474   3.922  13.641  0.1875 -0.7127  0.3017
 9318SOL     OW39412   4.568   1.284  13.963 -0.1460 -0.5481 -0.4167
 9318SOL    HW139413   4.608   1.267  14.048  1.9979 -0.3423 -1.4061
 9318SOL    HW239414   4.519   1.202  13.955  1.7371 -1.8781  1.5963
 9319SOL     OW39415   3.997   3.109   6.398 -0.2751 -0.1603  0.3701
 9319SOL    HW139416   3.961   3.021   6.387  0.8709 -0.6745  0.7431
 9319SOL    HW239417   4.057   3.096   6.472 -0.1357  0.0683  0.2962
 9320SOL     OW39418   2.007   3.861   1.531  0.0285 -0.8560 -0.8783
 9320SOL    HW139419   2.058   3.938   1.507 -0.5788 -0.5682 -1.2456
 9320SOL    HW239420   2.047   3.790   1.481 -1.3689 -2.6369  0.5166
 9321SOL     OW39421   3.206   4.469   3.304  0.0136 -0.0940  0.0300
 9321SOL    HW139422   3.285   4.420   3.327  0.8928  0.8866 -0.9192
 9321SOL    HW239423   3.239   4.556   3.284 -0.9001 -0.3761 -2.7257
 9322SOL     OW39424   3.833   4.500   1.359 -0.8756 -0.0891 -0.6091
 9322SOL    HW139425   3.753   4.456   1.332 -0.2614 -0.4782 -1.7769
 9322SOL    HW239426   3.899   4.432   1.345 -0.5258  0.5060 -1.9399
 9323SOL     OW39427   4.219   4.220   0.117 -0.1225  0.0852  0.0639
 9323SOL    HW139428   4.198   4.189   0.029  1.1948 -1.3237  0.2458
 9323SOL    HW239429   4.189   4.144   0.167  1.0215  0.0469  0.6841
 9324SOL     OW39430   4.067   1.684   5.422  0.3159  0.5424 -0.3062
 9324SOL    HW139431   4.029   1.618   5.364  0.2403 -0.0575  0.4345
 9324SOL    HW239432   4.023   1.668   5.506  1.8363  0.6214  0.4998
 9325SOL     OW39433   1.412   4.302  13.512  0.2001 -0.6420 -0.2087
 9325SOL    HW139434   1.409   4.385  13.559 -0.6355  0.2152 -1.7902
 9325SOL    HW239435   1.458   4.248  13.576  1.1482 -0.4740 -0.7505
 9326SOL     OW39436   4.712   3.104   1.831  0.4902  0.1874  0.8776
 9326SOL    HW139437   4.709   3.119   1.736  0.8453 -1.3122  0.6284
 9326SOL    HW239438   4.703   3.196   1.852  1.7325  0.7631 -1.0820
 9327SOL     OW39439   2.688   3.434  14.839  0.3259 -0.0992  0.1471
 9327SOL    HW139440   2.683   3.340  14.820 -0.5254  0.6482 -3.3510
 9327SOL    HW239441   2.736   3.464  14.762 -1.0523 -1.7643 -1.3592
 9328SOL     OW39442   4.363   1.949   2.595  0.1233  0.1121 -0.2958
 9328SOL    HW139443   4.438   1.932   2.538 -0.4303 -1.5915 -0.5319
 9328SOL    HW239444   4.422   1.937   2.669 -0.1922 -2.1731 -0.4012
 9329SOL     OW39445   3.875   2.648   5.399 -0.2356  0.5019 -0.3231
 9329SOL    HW139446   3.842   2.563   5.369 -2.2535  1.2720 -0.2722
 9329SOL    HW239447   3.864   2.694   5.316  1.6125 -0.0640 -0.8920
 9330SOL     OW39448   1.293   0.734   6.222 -0.1137  0.6877  0.3987
 9330SOL    HW139449   1.361   0.666   6.220 -0.1227  0.7042 -0.4031
 9330SOL    HW239450   1.307   0.776   6.138  0.0259  0.2890  0.2212
 9331SOL     OW39451   0.077   2.972   5.417 -0.5273  0.4524  0.3161
 9331SOL    HW139452   0.074   2.960   5.322 -0.5949 -1.0928  0.5192
 9331SOL    HW239453   4.715   3.008   5.432 -1.3146 -1.4826  0.3155
 9332SOL     OW39454   4.640   1.897   0.397  0.1852 -0.0098 -0.3144
 9332SOL    HW139455   4.606   1.870   0.482  1.2318 -0.3059  0.0084
 9332SOL    HW239456   4.724   1.936   0.422  0.8811 -0.9021 -1.2769
 9333SOL     OW39457   2.594   0.550   4.477  0.2404  0.3421 -0.1946
 9333SOL    HW139458   2.556   0.486   4.537  3.5630 -1.6559 -0.2274
 9333SOL    HW239459   2.523   0.569   4.415 -1.0967 -3.7330  0.1199
 9334SOL     OW39460   4.151   2.428   2.517  0.7147  0.2756  0.6301
 9334SOL    HW139461   4.059   2.435   2.542  1.0140 -1.3760  2.2589
 9334SOL    HW239462   4.153   2.333   2.525 -1.3127  0.2033  0.3465
 9335SOL     OW39463   1.717   2.766  10.186  0.1634  0.6656  0.0665
 9335SOL    HW139464   1.753   2.852  10.208 -1.2834  1.3217 -0.1403
 9335SOL    HW239465   1.661   2.757  10.264 -1.3195 -0.4486 -1.1390
 9336SOL     OW39466   4.567   3.242   4.010  0.0222 -0.6383 -0.0084
 9336SOL    HW139467   4.653   3.282   4.026 -1.0210  1.3446  0.6458
 9336SOL    HW239468   4.508   3.310   4.042  0.7352  0.8332 -1.8127
 9337SOL     OW39469   2.637   1.856  13.072 -0.0262 -0.1878 -0.5688
 9337SOL    HW139470   2.607   1.920  13.136 -1.1346  0.6247 -1.8961
 9337SOL    HW239471   2.567   1.790  13.074 -0.5059  0.3129 -0.8960
 9338SOL     OW39472   3.616   2.829   4.693  0.7863  0.0758  0.0461
 9338SOL    HW139473   3.564   2.754   4.724 -0.9549  0.2040 -2.5967
 9338SOL    HW239474   3.576   2.839   4.607  0.3237  0.4277  0.2970
 9339SOL     OW39475   2.682   0.070   3.630  0.1288 -0.2618  0.3483
 9339SOL    HW139476   2.662   0.109   3.545 -2.1233 -1.0168  0.5451
 9339SOL    HW239477   2.776   0.086   3.638  0.0600 -0.7468  2.3200
 9340SOL     OW39478   2.718   3.275   2.447  0.2935 -0.4687  0.7246
 9340SOL    HW139479   2.641   3.236   2.488 -2.4852  1.6289 -2.5138
 9340SOL    HW239480   2.713   3.229   2.363 -0.7924  2.6295 -0.8876
 9341SOL     OW39481   2.807   2.320   4.448 -0.1985  0.4222 -0.0022
 9341SOL    HW139482   2.807   2.323   4.544 -1.5917 -0.3586  0.0131
 9341SOL    HW239483   2.901   2.304   4.437 -0.5165 -2.6217  1.5619
 9342SOL     OW39484   3.523   2.791   5.316 -0.1298 -0.0953  0.2088
 9342SOL    HW139485   3.470   2.711   5.320  0.1792 -0.2024  1.7725
 9342SOL    HW239486   3.551   2.799   5.407  1.2213  1.2978 -0.3267
 9343SOL     OW39487   3.910   1.216  13.246 -0.1905  0.4770 -0.3156
 9343SOL    HW139488   3.950   1.215  13.159 -1.8890  0.1769 -1.0746
 9343SOL    HW239489   3.833   1.163  13.225 -0.5837  0.8391  0.2229
 9344SOL     OW39490   1.219   4.435  15.161 -0.0922  0.4922 -0.6072
 9344SOL    HW139491   1.151   4.377  15.197  1.7346 -1.1286  0.2926
 9344SOL    HW239492   1.227   4.489  15.240 -0.0670 -0.1750 -0.1436
 9345SOL     OW39493   1.173   4.121   1.855  0.0501 -0.2121 -0.4461
 9345SOL    HW139494   1.085   4.158   1.849 -0.9627 -2.4253  0.6350
 9345SOL    HW239495   1.178   4.120   1.759  0.1200 -0.5971 -0.4377
 9346SOL     OW39496   1.912   1.935  12.449 -0.3242 -0.1329  0.2370
 9346SOL    HW139497   1.882   2.005  12.391  0.8266  1.2026  1.2574
 9346SOL    HW239498   1.930   1.988  12.527 -1.3205  0.0596  0.3378
 9347SOL     OW39499   2.106   3.469   1.053  0.5931 -0.4078 -0.3384
 9347SOL    HW139500   2.165   3.471   1.127  0.3836  2.1616 -0.2614
 9347SOL    HW239501   2.159   3.530   1.002  0.0427  0.2341 -0.1467
 9348SOL     OW39502   4.556   3.606   8.908 -0.0293  0.5108 -0.5902
 9348SOL    HW139503   4.646   3.610   8.940 -0.5673  0.4512  0.8945
 9348SOL    HW239504   4.528   3.694   8.934 -1.1957 -0.6157  1.8900
 9349SOL     OW39505   3.683   2.085   2.842 -0.2169 -0.3336  0.1968
 9349SOL    HW139506   3.735   2.043   2.910 -1.1746  0.4993  1.4388
 9349SOL    HW239507   3.606   2.028   2.840  1.3176 -2.4457  1.0963
 9350SOL     OW39508   2.488   2.026   2.551 -0.3752  0.4783 -0.2899
 9350SOL    HW139509   2.400   1.996   2.530  0.2119 -3.0287  2.3802
 9350SOL    HW239510   2.532   1.941   2.549  0.2975  0.8365 -0.8241
 9351SOL     OW39511   0.768   1.755  13.184  0.2263  0.6429 -0.7379
 9351SOL    HW139512   0.685   1.726  13.222  0.4072 -1.0855 -1.6747
 9351SOL    HW239513   0.735   1.831  13.134  1.5125  1.9478  0.4015
 9352SOL     OW39514   1.600   4.197  11.328 -0.6798 -0.2686  0.4338
 9352SOL    HW139515   1.657   4.272  11.310 -0.5546  0.3115  3.2870
 9352SOL    HW239516   1.525   4.218  11.274 -0.0367  0.5274 -0.1551
 9353SOL     OW39517   1.463   4.472  17.091 -0.1697  0.1633  0.0793
 9353SOL    HW139518   1.369   4.458  17.106 -0.5301  1.4055 -0.9530
 9353SOL    HW239519   1.461   4.529  17.014  0.5691 -0.4557 -0.3965
 9354SOL     OW39520   1.937   4.664   0.948  0.4381 -0.0969  0.5527
 9354SOL    HW139521   1.934   4.684   0.855  2.2619 -0.5888  0.4001
 9354SOL    HW239522   1.884   0.009   0.987 -0.8703 -1.9836  2.1801
 9355SOL     OW39523   1.424   2.399   8.820 -0.2203  0.3019 -0.3460
 9355SOL    HW139524   1.392   2.486   8.796  0.6198  1.3103  2.1138
 9355SOL    HW239525   1.430   2.362   8.733  1.4855 -0.7738  0.2335
 9356SOL     OW39526   2.689   4.447   3.823  0.5054 -0.3141 -0.3649
 9356SOL    HW139527   2.746   4.485   3.755  0.2885  0.8514  0.1150
 9356SOL    HW239528   2.666   4.361   3.787 -3.2539  0.8686 -0.8086
 9357SOL     OW39529   2.061   1.959  10.305  0.0689 -0.3858  0.1857
 9357SOL    HW139530   2.109   2.036  10.335 -0.9760  1.2604 -2.3863
 9357SOL    HW239531   2.005   1.949  10.382  1.0790  0.2132  1.0010
 9358SOL     OW39532   1.047   2.218   2.217 -0.3012  0.2615  0.7360
 9358SOL    HW139533   0.956   2.250   2.220 -0.4479 -0.1691  0.8773
 9358SOL    HW239534   1.039   2.123   2.217  2.5025  0.0430  0.5625
 9359SOL     OW39535   3.512   1.690   1.197 -0.0469 -0.0094  0.6949
 9359SOL    HW139536   3.528   1.621   1.262  3.4345  0.4332  0.3129
 9359SOL    HW239537   3.602   1.724   1.194 -0.7292  2.0488  3.0939
 9360SOL     OW39538   3.727   0.940   8.905 -0.0856 -0.2994 -0.2724
 9360SOL    HW139539   3.721   0.958   8.999  1.7995  0.8851 -0.3772
 9360SOL    HW239540   3.732   0.845   8.902 -1.1701 -0.3635  0.0485
 9361SOL     OW39541   2.719   1.088   4.887  0.3148  0.6988 -0.3694
 9361SOL    HW139542   2.706   1.095   4.982 -0.4483 -3.0236 -0.1872
 9361SOL    HW239543   2.629   1.077   4.855  0.3544 -1.4222  0.2240
 9362SOL     OW39544   3.159   2.382  17.007  0.2105  0.1169  0.5872
 9362SOL    HW139545   3.145   2.457  17.065 -1.4261  0.5137 -0.3092
 9362SOL    HW239546   3.231   2.417  16.956 -0.7552  0.6483 -0.4115
 9363SOL     OW39547   4.121   3.979   5.231 -0.0669  0.3775 -0.0841
 9363SOL    HW139548   4.185   3.998   5.162  2.1322  0.3854  1.9454
 9363SOL    HW239549   4.045   4.029   5.202 -1.9181 -2.7846 -0.7771
 9364SOL     OW39550   0.190   3.447  10.378  0.0893  0.5241 -0.1901
 9364SOL    HW139551   0.201   3.352  10.378 -0.7736  0.4223  0.8800
 9364SOL    HW239552   0.102   3.438  10.416  0.7761 -0.0123  1.2833
 9365SOL     OW39553   1.045   4.289   2.243 -0.4611 -0.1302 -0.3049
 9365SOL    HW139554   1.027   4.299   2.337  3.1538 -2.0957  0.5836
 9365SOL    HW239555   1.110   4.359   2.235 -2.5160  1.5382 -2.4916
 9366SOL     OW39556   2.436   2.385   4.294 -0.4590  0.1249  0.2614
 9366SOL    HW139557   2.399   2.311   4.341 -0.4012 -1.1356 -1.6810
 9366SOL    HW239558   2.475   2.425   4.372 -0.6759  0.5905  0.1374
 9367SOL     OW39559   1.380   3.025   5.930  0.8963  0.2116  0.1447
 9367SOL    HW139560   1.305   2.965   5.930  1.1229 -0.0483  2.2235
 9367SOL    HW239561   1.383   3.041   6.024  0.8222  2.6570 -0.2854
 9368SOL     OW39562   1.174   0.302   9.606 -0.0765  0.0949  0.4558
 9368SOL    HW139563   1.129   0.268   9.528  0.2063  0.0999  0.2893
 9368SOL    HW239564   1.226   0.223   9.616 -1.0477 -1.0776 -3.6144
 9369SOL     OW39565   4.576   4.438   0.453  0.6234 -0.1460  0.2885
 9369SOL    HW139566   4.531   4.391   0.523  0.9745  0.3119  0.8283
 9369SOL    HW239567   4.571   4.365   0.392 -0.6041  0.7942 -0.7397
 9370SOL     OW39568   0.541   0.340   8.531  0.4436  0.0605 -0.0830
 9370SOL    HW139569   0.564   0.433   8.542  1.9527 -0.2114 -0.9216
 9370SOL    HW239570   0.575   0.323   8.443  2.3992  0.7662  0.5458
 9371SOL     OW39571   1.243   1.784   7.171  0.0010  0.2497  0.3322
 9371SOL    HW139572   1.179   1.790   7.100  0.4996  0.0870 -0.1295
 9371SOL    HW239573   1.246   1.875   7.198 -3.5388  0.3089  0.5058
 9372SOL     OW39574   2.417   2.083  13.701 -0.7548  0.4517 -0.5759
 9372SOL    HW139575   2.400   2.036  13.783  2.2812 -0.9202 -0.7056
 9372SOL    HW239576   2.510   2.105  13.705 -0.3089 -1.3785 -0.7382
 9373SOL     OW39577   1.212   2.359   2.696 -0.4361  0.3741  0.3581
 9373SOL    HW139578   1.217   2.346   2.602 -0.3614  2.3765  0.0957
 9373SOL    HW239579   1.192   2.268   2.720 -1.6511  0.4550 -0.3529
 9374SOL     OW39580   0.909   2.555   3.713  0.2286 -0.0956 -0.4191
 9374SOL    HW139581   0.962   2.627   3.747 -0.0933 -1.0370  2.0217
 9374SOL    HW239582   0.975   2.502   3.668 -0.8369  0.0045 -2.1122
 9375SOL     OW39583   3.341   0.957   7.525 -1.0896  0.1278 -0.0073
 9375SOL    HW139584   3.298   0.879   7.559  0.8021 -1.5017 -1.3240
 9375SOL    HW239585   3.419   0.917   7.487 -2.0190 -1.8217  0.1484
 9376SOL     OW39586   1.861   3.800  11.617  0.3347 -0.4254  0.4995
 9376SOL    HW139587   1.828   3.886  11.591 -0.9237 -0.8945  0.5671
 9376SOL    HW239588   1.825   3.752  11.543  1.4469 -0.5579  0.0401
 9377SOL     OW39589   2.590   0.727   4.872 -0.4163 -0.7049 -0.2101
 9377SOL    HW139590   2.663   0.673   4.844  1.0540  2.1420 -1.8791
 9377SOL    HW239591   2.516   0.669   4.855  0.0489 -1.3614  0.0085
 9378SOL     OW39592   2.887   1.406   6.113 -0.1247  0.0107  0.6058
 9378SOL    HW139593   2.848   1.318   6.113 -0.3071  0.0943 -1.4584
 9378SOL    HW239594   2.876   1.444   6.026  1.0278 -0.8191  0.0995
 9379SOL     OW39595   2.937   0.688  14.104 -0.1356 -0.2839 -0.3531
 9379SOL    HW139596   3.006   0.682  14.170  0.5299  1.2491 -0.9108
 9379SOL    HW239597   2.911   0.779  14.092 -1.9815 -1.0115 -1.8503
 9380SOL     OW39598   0.103   1.917   2.703 -0.3677 -0.2874  0.3135
 9380SOL    HW139599   0.185   1.964   2.718 -0.8586 -0.2731  2.9250
 9380SOL    HW239600   0.145   1.847   2.653  0.8997  0.7628 -0.0946
 9381SOL     OW39601   1.636   2.838   6.706  0.0360  0.4813 -0.0889
 9381SOL    HW139602   1.624   2.833   6.801  1.6325 -0.9752  0.0277
 9381SOL    HW239603   1.732   2.842   6.708 -0.0161  0.1814  3.5607
 9382SOL     OW39604   1.891   0.879   4.991  0.6279  0.0697  0.5482
 9382SOL    HW139605   1.916   0.971   4.984  0.1034  0.1173 -0.6027
 9382SOL    HW239606   1.902   0.856   5.083 -0.0012 -2.4729 -0.0066
 9383SOL     OW39607   1.479   0.402  16.968  0.2728 -0.2327  0.7488
 9383SOL    HW139608   1.453   0.344  17.040 -2.2124 -2.6901 -2.1411
 9383SOL    HW239609   1.470   0.489  17.007  0.6478  0.3832 -0.5533
 9384SOL     OW39610   1.108   0.544   5.972 -0.2549  0.1630  0.3504
 9384SOL    HW139611   1.172   0.615   5.980  0.3335 -0.3187 -0.0962
 9384SOL    HW239612   1.160   0.464   5.962 -3.0826 -1.4630 -1.1614
 9385SOL     OW39613   3.959   1.144   5.814 -1.1091 -0.1639  0.1732
 9385SOL    HW139614   3.897   1.141   5.887 -1.8458 -0.9509 -0.4837
 9385SOL    HW239615   4.022   1.203   5.856  0.9053 -1.7949 -0.5501
 9386SOL     OW39616   2.745   0.985   2.146  0.1714  0.3264  0.1947
 9386SOL    HW139617   2.831   1.017   2.173  1.2782 -1.0009 -1.7692
 9386SOL    HW239618   2.684   1.048   2.184 -0.8824  0.5802 -1.9075
 9387SOL     OW39619   2.046   4.018   2.483  0.3245 -0.2801 -0.2383
 9387SOL    HW139620   2.064   4.093   2.540  0.5179  0.6423 -1.5162
 9387SOL    HW239621   2.116   4.031   2.419  0.6682 -2.6731 -0.3560
 9388SOL     OW39622   4.447   1.676   3.895 -0.0191 -0.0539  0.4009
 9388SOL    HW139623   4.381   1.614   3.925 -1.1577  0.6547 -0.5805
 9388SOL    HW239624   4.489   1.623   3.827 -2.8848 -0.8877 -0.7338
 9389SOL     OW39625   1.090   3.446   2.922 -0.2382 -0.0999  0.4385
 9389SOL    HW139626   1.167   3.460   2.867  0.3471 -0.7205  1.0865
 9389SOL    HW239627   1.036   3.397   2.861 -2.3290  1.0250  1.3892
 9390SOL     OW39628   2.562   0.759   3.871 -0.0529 -0.4471 -0.1673
 9390SOL    HW139629   2.603   0.844   3.889  0.6477 -0.5546 -1.2159
 9390SOL    HW239630   2.484   0.793   3.826 -0.4993  1.1788  1.8502
 9391SOL     OW39631   3.510   0.831   4.919 -0.0894 -0.3285 -0.1333
 9391SOL    HW139632   3.471   0.916   4.940 -0.6172 -0.4024 -0.8097
 9391SOL    HW239633   3.435   0.775   4.898 -0.2787 -0.9912  2.3246
 9392SOL     OW39634   3.653   1.994  13.584  0.1328 -0.2173 -0.2526
 9392SOL    HW139635   3.673   2.032  13.670  0.6009  1.6281 -1.1787
 9392SOL    HW239636   3.741   1.979  13.551  0.3733 -0.3395  0.4462
 9393SOL     OW39637   1.453   2.460   4.324  0.1792 -0.4960 -0.1186
 9393SOL    HW139638   1.515   2.474   4.253 -1.6226 -3.2093 -2.1774
 9393SOL    HW239639   1.380   2.521   4.313 -0.9859 -2.1491 -1.5123
 9394SOL     OW39640   4.691   1.574  11.529  0.3475  0.1369 -0.0571
 9394SOL    HW139641   0.013   1.514  11.586  0.4918  0.7212  0.4468
 9394SOL    HW239642   4.718   1.543  11.443  0.7306  0.2690  0.0135
 9395SOL     OW39643   2.656   3.516  15.108  0.3194 -0.5767  0.0976
 9395SOL    HW139644   2.616   3.438  15.147  0.0613 -1.5407 -2.1097
 9395SOL    HW239645   2.664   3.493  15.016 -0.1662  1.2257 -0.4131
 9396SOL     OW39646   3.672   2.250   3.490 -0.3593  0.0473  0.2282
 9396SOL    HW139647   3.681   2.343   3.469 -1.9494 -0.1167 -1.1340
 9396SOL    HW239648   3.747   2.246   3.549  0.0128  3.2283 -0.0622
 9397SOL     OW39649   4.524   4.673   5.807 -0.2204  0.3366 -0.0585
 9397SOL    HW139650   4.595   4.724   5.768  1.7230 -2.4666 -0.2327
 9397SOL    HW239651   4.465   4.656   5.733  0.9119 -0.7978 -0.7119
 9398SOL     OW39652   1.134   3.089   2.882 -0.0979  0.0565  0.2357
 9398SOL    HW139653   1.196   3.113   2.951  0.6737 -0.0948 -0.4171
 9398SOL    HW239654   1.192   3.058   2.813 -1.0677  0.1836 -0.6393
 9399SOL     OW39655   3.638   2.656   4.058 -0.5003 -0.4981 -0.1792
 9399SOL    HW139656   3.546   2.645   4.031 -0.3463 -2.8050  0.2577
 9399SOL    HW239657   3.682   2.689   3.979  2.4515 -1.1365  1.2179
 9400SOL     OW39658   1.110   2.365   6.952 -0.0974  0.1490  0.2790
 9400SOL    HW139659   1.185   2.412   6.989 -0.5877 -0.2024  1.7244
 9400SOL    HW239660   1.146   2.323   6.875  0.5611 -0.5682  0.9841
 9401SOL     OW39661   0.084   1.679   2.453 -0.1155  0.2405  0.4666
 9401SOL    HW139662   0.159   1.708   2.402 -0.4249 -1.5172 -0.9901
 9401SOL    HW239663   0.072   1.585   2.439  0.0333  0.0583  1.5326
 9402SOL     OW39664   0.731   0.920   9.086  0.3859  0.0463 -0.6981
 9402SOL    HW139665   0.746   0.907   9.180  1.6505 -0.5673 -0.9789
 9402SOL    HW239666   0.647   0.964   9.097  0.7302  0.6254 -0.3542
 9403SOL     OW39667   0.409   1.302   5.471  0.0541  0.1965  0.3568
 9403SOL    HW139668   0.486   1.355   5.493 -1.0718  1.5120  1.1671
 9403SOL    HW239669   0.444   1.230   5.419  0.2745  1.3748 -1.1311
 9404SOL     OW39670   0.543   2.812  13.356 -0.4260  0.0412 -0.1219
 9404SOL    HW139671   0.571   2.902  13.372 -1.3287  0.0270  1.5894
 9404SOL    HW239672   0.627   2.768  13.370 -0.0160  0.4718 -1.1952
 9405SOL     OW39673   1.239   4.625  14.013 -0.3550 -0.4561 -0.0874
 9405SOL    HW139674   1.184   4.548  14.029 -0.2670 -0.4151  0.4137
 9405SOL    HW239675   1.325   4.583  14.017  0.4208  0.9900 -1.9656
 9406SOL     OW39676   1.222   1.818   7.638  0.1701  0.0657  0.4421
 9406SOL    HW139677   1.221   1.758   7.564  0.2023  1.7202 -0.8917
 9406SOL    HW239678   1.285   1.777   7.698 -0.3864 -1.0870  0.2346
 9407SOL     OW39679   1.730   3.137   2.856 -0.4771  0.0294 -0.4754
 9407SOL    HW139680   1.774   3.053   2.862  0.0578  0.3307 -0.2060
 9407SOL    HW239681   1.650   3.123   2.804  0.4489 -1.8774 -1.3594
 9408SOL     OW39682   3.886   3.038   1.355 -0.4173  0.3502  0.4278
 9408SOL    HW139683   3.871   3.099   1.427  1.3955  1.4711 -0.1535
 9408SOL    HW239684   3.813   2.978   1.374 -0.8037  0.9194  0.7426
 9409SOL     OW39685   4.128   0.537  15.286 -0.7362  0.3228 -0.8538
 9409SOL    HW139686   4.043   0.500  15.264 -0.8998  0.5098 -0.5250
 9409SOL    HW239687   4.115   0.582  15.369 -3.2638 -0.3983 -0.8767
 9410SOL     OW39688   1.853   3.863   5.022 -1.0242  0.1647  0.6287
 9410SOL    HW139689   1.899   3.879   4.940  0.9259 -1.3831  1.3780
 9410SOL    HW239690   1.765   3.885   4.992 -0.1532  0.9733 -1.3321
 9411SOL     OW39691   3.140   2.394   3.050  0.0439  0.1209 -0.1179
 9411SOL    HW139692   3.150   2.424   3.140  0.5813 -2.0377  0.5319
 9411SOL    HW239693   3.205   2.452   3.009 -0.7206  1.4895  0.6002
 9412SOL     OW39694   3.954   1.923  13.642  0.1024  0.0942  0.1468
 9412SOL    HW139695   3.974   1.839  13.684 -1.4098  0.0058  0.7057
 9412SOL    HW239696   3.985   1.981  13.711  1.3576 -0.1709 -0.2018
 9413SOL     OW39697   2.576   0.897   5.087 -0.0940  0.3468 -0.1375
 9413SOL    HW139698   2.482   0.915   5.079  0.0324  0.1168 -2.2415
 9413SOL    HW239699   2.588   0.835   5.015  1.5309 -0.7571  1.0846
 9414SOL     OW39700   4.486   3.147  15.979 -0.0197  0.5754 -0.2082
 9414SOL    HW139701   4.402   3.173  15.942 -0.2009 -1.4338 -1.2434
 9414SOL    HW239702   4.556   3.174  15.919 -0.6727 -1.2668 -1.8114
 9415SOL     OW39703   2.044   3.662   5.519 -0.0679 -0.0124  0.1608
 9415SOL    HW139704   2.124   3.686   5.471  0.8180  1.2675  2.2784
 9415SOL    HW239705   1.991   3.731   5.482  1.9311  1.6378  0.3646
 9416SOL     OW39706   2.858   4.544   9.946 -0.7964  0.0017  0.0293
 9416SOL    HW139707   2.949   4.517   9.936  0.1075  2.9404  0.4284
 9416SOL    HW239708   2.873   4.632   9.980  0.2225  0.1166 -0.7123
 9417SOL     OW39709   4.578   3.593   3.174  0.8174 -0.3102  0.0600
 9417SOL    HW139710   4.493   3.586   3.131  1.0571 -1.5579 -0.2010
 9417SOL    HW239711   4.636   3.631   3.108  0.9056 -2.2891 -0.9806
 9418SOL     OW39712   3.542   0.503   9.097 -0.7515  0.9862 -0.4797
 9418SOL    HW139713   3.552   0.567   9.167  2.0979  1.6874 -1.5304
 9418SOL    HW239714   3.479   0.447   9.141 -1.1591  1.4378 -0.4893
 9419SOL     OW39715   2.285   2.015   0.437 -0.2878 -0.9759 -0.0307
 9419SOL    HW139716   2.249   2.081   0.378  1.4120 -2.1996 -2.4787
 9419SOL    HW239717   2.352   2.073   0.472 -0.6703  0.0673 -1.0120
 9420SOL     OW39718   0.315   4.725   8.122  0.1308  0.3518 -0.4457
 9420SOL    HW139719   0.359   0.021   8.205 -0.8037 -1.5821  0.5551
 9420SOL    HW239720   0.350   4.637   8.106 -3.1619 -0.7765 -1.3962
 9421SOL     OW39721   0.248   2.677   5.061  0.2415  0.5580  0.0365
 9421SOL    HW139722   0.230   2.767   5.036 -2.0014  0.3858  1.0325
 9421SOL    HW239723   0.198   2.667   5.142 -0.7361  0.9291 -0.5256
 9422SOL     OW39724   2.926   1.245   4.337 -0.8986 -0.5165  0.0846
 9422SOL    HW139725   2.896   1.289   4.257 -0.3827 -0.1092  0.1125
 9422SOL    HW239726   3.019   1.270   4.334 -1.3695  1.4948  2.2924
 9423SOL     OW39727   3.239   4.693   8.198  0.0429  0.2896 -0.0299
 9423SOL    HW139728   3.267   0.014   8.278 -0.3302  0.6588 -0.1170
 9423SOL    HW239729   3.154   0.010   8.185 -0.3503 -0.4480  0.1764
 9424SOL     OW39730   3.673   3.724   7.809 -0.0760  0.0207 -0.1003
 9424SOL    HW139731   3.649   3.774   7.731 -1.9601 -1.2064 -0.3255
 9424SOL    HW239732   3.764   3.706   7.785 -1.0967 -3.2208 -1.5230
 9425SOL     OW39733   2.081   4.008   7.565 -0.1206 -0.3159 -0.0234
 9425SOL    HW139734   2.146   3.948   7.529  0.3782 -1.3435  2.6119
 9425SOL    HW239735   2.024   4.036   7.493  0.0934  1.2279  0.4076
 9426SOL     OW39736   1.366   2.849   0.857 -0.5758 -0.1115  0.7641
 9426SOL    HW139737   1.351   2.913   0.787  0.6966 -0.7382 -0.0841
 9426SOL    HW239738   1.321   2.874   0.938  1.1741  2.8254  0.8598
 9427SOL     OW39739   3.023   2.549  17.354  0.2150 -0.1365  0.2657
 9427SOL    HW139740   3.081   2.473  17.348  0.4845  0.2728 -1.9827
 9427SOL    HW239741   3.058   2.585  17.436 -1.9153  1.4916  0.4645
 9428SOL     OW39742   0.806   0.968   3.091  0.2550 -0.0232 -0.0764
 9428SOL    HW139743   0.795   0.884   3.134  1.3794  0.6016  1.4312
 9428SOL    HW239744   0.815   0.947   2.998 -1.7887  1.1594 -0.5462
 9429SOL     OW39745   2.069   3.639  10.478  0.0752  0.2765 -0.3805
 9429SOL    HW139746   2.101   3.560  10.435  3.1206  0.9629  0.6239
 9429SOL    HW239747   2.021   3.603  10.553 -0.3743  2.7406  0.4989
 9430SOL     OW39748   3.600   3.944   0.257 -0.6274  0.1373 -0.0733
 9430SOL    HW139749   3.626   3.862   0.299  2.4294 -0.3539 -2.9921
 9430SOL    HW239750   3.510   3.958   0.287 -1.3595  0.2974 -2.3375
 9431SOL     OW39751   4.564   0.855   3.940  0.0341 -0.3052 -0.1311
 9431SOL    HW139752   4.540   0.910   3.866  0.1912 -0.3328 -0.2038
 9431SOL    HW239753   4.503   0.903   3.996 -2.0984 -2.3083 -0.7720
 9432SOL     OW39754   1.256   2.021   5.235  0.1158 -0.4382 -0.0345
 9432SOL    HW139755   1.213   1.970   5.167 -3.0327  0.8107  1.0036
 9432SOL    HW239756   1.201   2.021   5.314 -1.9132  0.4297 -1.4687
 9433SOL     OW39757   1.212   0.391   2.833  1.1073  0.3347 -0.0716
 9433SOL    HW139758   1.297   0.369   2.796 -0.1058  1.8355 -3.6805
 9433SOL    HW239759   1.228   0.476   2.876  2.6044 -2.1036  4.2066
 9434SOL     OW39760   2.516   3.081   5.372 -0.1144 -0.0152 -0.2490
 9434SOL    HW139761   2.529   3.174   5.351  0.3391  0.0190  0.1667
 9434SOL    HW239762   2.522   3.041   5.286  2.0015  0.8790 -0.5208
 9435SOL     OW39763   2.730   1.482   4.437 -0.3135 -0.1192 -0.3728
 9435SOL    HW139764   2.799   1.417   4.453  2.4399  3.6205  2.9286
 9435SOL    HW239765   2.773   1.567   4.435 -1.3500  0.4604  2.0420
 9436SOL     OW39766   2.661   2.706   7.713 -0.5873  0.2580  0.0732
 9436SOL    HW139767   2.674   2.800   7.696  0.9947  0.0081 -0.1638
 9436SOL    HW239768   2.680   2.673   7.625  0.7787 -0.3062  0.5730
 9437SOL     OW39769   1.807   2.185   3.592 -0.1303  0.2092  0.2281
 9437SOL    HW139770   1.820   2.187   3.687  0.1174 -0.2671  0.2022
 9437SOL    HW239771   1.717   2.213   3.578 -0.5440 -2.3892 -2.1151
 9438SOL     OW39772   2.146   1.816  16.842 -0.1448  0.0416  0.0992
 9438SOL    HW139773   2.203   1.813  16.765  1.1315  0.9386  1.0048
 9438SOL    HW239774   2.068   1.827  16.788  1.1431  2.0261 -1.3577
 9439SOL     OW39775   2.790   4.251   8.743  0.2511  0.0357 -0.1622
 9439SOL    HW139776   2.879   4.288   8.742  1.2623 -2.3840  1.1085
 9439SOL    HW239777   2.763   4.278   8.655 -1.7112  2.1365  1.0965
 9440SOL     OW39778   3.955   2.100  12.410 -0.1812  0.5263 -0.0640
 9440SOL    HW139779   4.044   2.091  12.444 -0.8905  0.7249  1.8000
 9440SOL    HW239780   3.913   2.104  12.496  0.4556 -1.6261  0.3470
 9441SOL     OW39781   0.895   4.451   9.823 -0.2847  0.2851  0.2708
 9441SOL    HW139782   0.901   4.390   9.749 -4.2997 -0.3777  0.4504
 9441SOL    HW239783   0.967   4.504   9.790 -0.2652  1.1473  1.6724
 9442SOL     OW39784   4.703   4.249   5.266  0.3445  0.4055 -0.2219
 9442SOL    HW139785   0.054   4.267   5.210  0.2744 -1.7171 -0.9823
 9442SOL    HW239786   0.016   4.239   5.354  0.4366 -2.7826 -0.6195
 9443SOL     OW39787   4.491   1.291   8.175  0.1793 -0.1880  0.3856
 9443SOL    HW139788   4.570   1.329   8.213 -0.4149  1.2594  0.1591
 9443SOL    HW239789   4.533   1.239   8.106 -0.0409 -0.0856  0.1756
 9444SOL     OW39790   0.422   3.798   2.028 -0.4868 -0.2508  0.1099
 9444SOL    HW139791   0.426   3.839   2.115  2.3263 -0.0733 -0.0881
 9444SOL    HW239792   0.514   3.812   2.005 -0.7386 -0.8493 -1.2172
 9445SOL     OW39793   1.240   2.012   0.161  0.1722  0.3002 -0.1583
 9445SOL    HW139794   1.171   1.969   0.111  1.0312 -1.2312 -0.0364
 9445SOL    HW239795   1.312   1.969   0.115  1.7870  0.9646  1.7321
 9446SOL     OW39796   1.929   3.512   4.299 -0.0251  0.2495  0.1412
 9446SOL    HW139797   1.874   3.439   4.272  1.0228 -1.0704  1.5693
 9446SOL    HW239798   1.879   3.562   4.364 -4.0759 -1.8902 -1.3575
 9447SOL     OW39799   1.923   3.369   1.255 -0.7006 -0.5494 -0.0241
 9447SOL    HW139800   1.863   3.419   1.199 -0.7256  0.6056  1.0529
 9447SOL    HW239801   2.002   3.367   1.202  0.9146  1.2569  2.3289
 9448SOL     OW39802   4.214   4.716   8.052 -0.6258 -0.0190 -0.2827
 9448SOL    HW139803   4.213   4.724   8.147  0.4092 -1.3633 -0.1595
 9448SOL    HW239804   4.308   4.717   8.033 -0.4027  1.6097  0.9086
 9449SOL     OW39805   0.480   1.279   2.333  0.2470 -0.0030  0.0254
 9449SOL    HW139806   0.570   1.283   2.301 -0.0144 -1.4406 -0.9012
 9449SOL    HW239807   0.450   1.188   2.342  0.0944  0.2489  2.1791
 9450SOL     OW39808   0.764   3.360   1.772  0.1544 -0.3451 -0.3213
 9450SOL    HW139809   0.791   3.449   1.795 -2.6837  0.5225 -0.3738
 9450SOL    HW239810   0.717   3.322   1.846  0.6303  1.4997  0.9412
 9451SOL     OW39811   2.734   3.961   8.748 -0.3414  0.4743  0.1405
 9451SOL    HW139812   2.640   3.943   8.748 -0.1791 -0.3383 -0.6159
 9451SOL    HW239813   2.739   4.057   8.753  0.4924  0.2517  3.8062
 9452SOL     OW39814   0.122   4.040  12.792  0.2237  0.3155 -0.6513
 9452SOL    HW139815   0.197   3.997  12.752  3.0393  0.9159  4.0297
 9452SOL    HW239816   0.133   4.131  12.765  1.2241  0.7283  1.1694
 9453SOL     OW39817   4.166   0.792   9.294  0.7087  0.1270  0.6152
 9453SOL    HW139818   4.173   0.796   9.199 -0.8234 -1.4960  0.4275
 9453SOL    HW239819   4.190   0.882   9.315 -0.0376  0.4047  0.2762
 9454SOL     OW39820   3.549   3.890   0.900 -0.3827  0.6390  0.2954
 9454SOL    HW139821   3.548   3.984   0.881  0.7606  0.1068 -2.5105
 9454SOL    HW239822   3.498   3.854   0.828  0.9423 -0.6141 -0.0227
 9455SOL     OW39823   0.627   1.579   7.830 -0.0564  0.1493  0.0238
 9455SOL    HW139824   0.643   1.632   7.908 -1.1084  1.7442 -0.8540
 9455SOL    HW239825   0.584   1.641   7.771 -0.3089  0.3311  0.4049
 9456SOL     OW39826   1.182   1.909   8.837 -0.0680 -0.1054  0.2637
 9456SOL    HW139827   1.233   1.849   8.892 -0.9688 -2.0769 -1.0260
 9456SOL    HW239828   1.158   1.841   8.774 -0.6628 -0.9183  1.3393
 9457SOL     OW39829   2.448   1.154   7.879 -0.1490  0.4281  0.8151
 9457SOL    HW139830   2.471   1.244   7.857  0.6509  0.5236  2.0546
 9457SOL    HW239831   2.358   1.156   7.847  1.0127  1.5054 -2.3074
 9458SOL     OW39832   3.261   3.165  16.838  0.5135  0.3589 -0.3643
 9458SOL    HW139833   3.297   3.077  16.849  0.8488  0.7127  1.3414
 9458SOL    HW239834   3.283   3.185  16.747 -2.4124  1.3533 -0.8557
 9459SOL     OW39835   2.774   3.378   2.934 -0.2814  0.8762  0.4830
 9459SOL    HW139836   2.774   3.317   2.861 -3.6443  1.3094  0.1025
 9459SOL    HW239837   2.731   3.453   2.891 -0.1567  1.9716  2.2712
 9460SOL     OW39838   0.573   4.202  10.469  0.4916 -0.3923  0.2416
 9460SOL    HW139839   0.535   4.229  10.552 -1.2482 -1.6520 -0.1400
 9460SOL    HW239840   0.517   4.234  10.397  1.8445  0.5072 -0.4226
 9461SOL     OW39841   4.682   0.509   6.051 -0.1105 -0.1138  0.3618
 9461SOL    HW139842   4.617   0.573   6.022  1.4363  1.6464  0.7821
 9461SOL    HW239843   4.711   0.474   5.967 -0.4123  0.4179  0.0361
 9462SOL     OW39844   0.070   1.995   7.759 -0.3625 -0.3899  0.5098
 9462SOL    HW139845   0.153   2.037   7.785 -0.0099 -0.8588  0.1361
 9462SOL    HW239846   0.083   1.927   7.826  3.3132 -1.3339 -1.1473
 9463SOL     OW39847   0.785   1.710  17.380 -0.5737  0.4673  0.7908
 9463SOL    HW139848   0.757   1.789  17.333  0.0670 -0.2399 -0.7812
 9463SOL    HW239849   0.801   1.755  17.463  0.3313  0.1559  0.7889
 9464SOL     OW39850   2.848   4.378  14.929 -0.1604  0.6278 -0.3804
 9464SOL    HW139851   2.790   4.386  14.853  2.5689  1.0469 -2.4366
 9464SOL    HW239852   2.876   4.468  14.950  1.5535 -0.2315  1.0562
 9465SOL     OW39853   3.520   4.721   7.236  0.0952 -0.3859  0.8188
 9465SOL    HW139854   3.528   0.007   7.331  0.0046 -2.4743  1.0875
 9465SOL    HW239855   3.608   0.028   7.216 -0.0218  0.8959  2.3337
 9466SOL     OW39856   0.957   3.243   2.785 -0.0161  0.5420  0.4425
 9466SOL    HW139857   0.973   3.220   2.693 -0.2538  0.6412  0.3770
 9466SOL    HW239858   0.996   3.167   2.829 -1.3510 -1.4924 -1.8712
 9467SOL     OW39859   1.513   0.273  10.931  0.6289 -0.0037  0.0907
 9467SOL    HW139860   1.597   0.229  10.923  0.4099 -0.4629  0.3660
 9467SOL    HW239861   1.516   0.305  11.022 -0.3058 -2.3052  0.9078
 9468SOL     OW39862   3.987   3.851  14.927  0.0222 -0.6947 -0.0526
 9468SOL    HW139863   3.960   3.864  14.836  2.2236  1.5928 -0.3741
 9468SOL    HW239864   3.932   3.910  14.978  0.8701 -2.1805  2.5587
 9469SOL     OW39865   3.449   2.078   4.279  0.1424 -0.0332 -0.7770
 9469SOL    HW139866   3.535   2.104   4.245  0.5955  2.1517  2.0644
 9469SOL    HW239867   3.400   2.156   4.255 -0.6975 -0.2151  0.3782
 9470SOL     OW39868   0.922   0.553   6.728 -0.5104 -0.3503  0.7870
 9470SOL    HW139869   0.902   0.466   6.763 -1.7316 -0.0253  0.8945
 9470SOL    HW239870   1.010   0.567   6.763  0.3840 -0.1236 -1.5250
 9471SOL     OW39871   3.893   0.521   4.683 -0.3283  0.0647 -0.8104
 9471SOL    HW139872   3.849   0.491   4.603 -0.8149  0.0954 -0.5579
 9471SOL    HW239873   3.826   0.581   4.714  0.3791 -0.5395  1.8279
 9472SOL     OW39874   2.986   1.382   8.345  0.1930  0.4613 -0.0974
 9472SOL    HW139875   3.010   1.304   8.395 -0.8831  0.1656 -0.0446
 9472SOL    HW239876   2.901   1.361   8.306  0.8090  0.9189 -1.6823
 9473SOL     OW39877   0.035   3.093   4.672  0.2111  0.2604  0.0382
 9473SOL    HW139878   4.714   3.177   4.665 -1.3223 -0.5036  1.2136
 9473SOL    HW239879   0.044   3.064   4.581 -0.5801  1.8491 -0.5437
 9474SOL     OW39880   1.252   3.534   0.190 -0.6224 -0.3012  0.4366
 9474SOL    HW139881   1.168   3.579   0.201 -0.1257  0.5512  0.7338
 9474SOL    HW239882   1.276   3.518   0.281  0.8904 -0.4033  0.0269
 9475SOL     OW39883   3.431   3.915   7.411 -0.0677  0.2366  0.0186
 9475SOL    HW139884   3.358   3.930   7.471 -0.5847 -0.2637 -0.4869
 9475SOL    HW239885   3.403   3.846   7.351 -0.6974 -0.7013  1.4130
 9476SOL     OW39886   4.333   0.540   1.261  0.0427 -0.1224 -0.6140
 9476SOL    HW139887   4.290   0.625   1.271  0.9691  0.2056  0.5345
 9476SOL    HW239888   4.400   0.543   1.330  0.4040  0.4751 -0.9901
 9477SOL     OW39889   0.313   1.616   2.951  0.5742 -0.3105  0.4270
 9477SOL    HW139890   0.339   1.700   2.989 -0.1287 -0.7334  1.8504
 9477SOL    HW239891   0.326   1.637   2.858 -2.3902 -0.6366 -0.0643
 9478SOL     OW39892   1.537   0.876  12.094 -0.0471 -0.1651  0.0343
 9478SOL    HW139893   1.587   0.825  12.030  2.3939 -0.8212  2.4677
 9478SOL    HW239894   1.515   0.958  12.049  0.1948  0.3304  0.8125
 9479SOL     OW39895   3.734   1.515  14.002  0.2162 -0.8362  0.1636
 9479SOL    HW139896   3.819   1.549  14.028  0.7803 -1.3961 -0.9466
 9479SOL    HW239897   3.693   1.592  13.963 -0.7297  0.1452  3.1475
 9480SOL     OW39898   1.787   2.318   6.720  0.1889 -0.1503 -0.1111
 9480SOL    HW139899   1.857   2.278   6.668  0.8883  1.2090 -0.2150
 9480SOL    HW239900   1.728   2.327   6.645  0.2324 -1.1955 -0.2684
 9481SOL     OW39901   4.033   1.376   1.888  0.2857 -0.0331 -0.3289
 9481SOL    HW139902   3.984   1.341   1.814 -0.6791  1.6004 -0.4664
 9481SOL    HW239903   3.973   1.448   1.906 -0.7367 -0.8635 -0.3689
 9482SOL     OW39904   4.094   0.050   9.722 -0.0148  0.1939  0.5470
 9482SOL    HW139905   4.035   0.072   9.649  1.2090 -0.8654 -0.7606
 9482SOL    HW239906   4.162   0.118   9.726  1.0545 -0.9454  1.5688
 9483SOL     OW39907   2.967   4.511  16.385 -0.0286 -0.6455 -0.5358
 9483SOL    HW139908   3.012   4.510  16.300 -0.3988 -0.9763 -0.7288
 9483SOL    HW239909   3.048   4.514  16.437 -0.4564 -1.9919  0.2015
 9484SOL     OW39910   1.628   0.929   2.628 -0.1175  1.1905  0.4679
 9484SOL    HW139911   1.687   0.906   2.700  1.7743  0.0868 -1.4222
 9484SOL    HW239912   1.692   0.984   2.583 -0.5902 -0.0548 -1.7010
 9485SOL     OW39913   4.280   0.711   1.635 -0.5094  0.8679 -0.3595
 9485SOL    HW139914   4.207   0.670   1.681  1.3281 -0.2382  1.5367
 9485SOL    HW239915   4.316   0.765   1.705 -2.8374  1.2807  0.5016
 9486SOL     OW39916   2.345   0.991   0.022 -0.4728  0.5834 -0.2925
 9486SOL    HW139917   2.367   1.083   0.040 -3.0849  1.4546 -1.5323
 9486SOL    HW239918   2.432   0.951   0.030 -0.9911 -0.2678  0.9383
 9487SOL     OW39919   0.546   3.890   5.404 -0.2378 -0.3339  0.2873
 9487SOL    HW139920   0.516   3.827   5.338 -0.7446  1.0240 -0.7736
 9487SOL    HW239921   0.466   3.900   5.455 -0.2436  2.2814 -0.2538
 9488SOL     OW39922   2.757   3.558  11.497 -0.2044  0.0792 -0.4959
 9488SOL    HW139923   2.678   3.603  11.530 -0.6244 -1.4474  0.5765
 9488SOL    HW239924   2.736   3.477  11.543  0.3743  0.0628 -0.2720
 9489SOL     OW39925   4.057   1.137   7.140  0.1868 -0.0774 -0.1588
 9489SOL    HW139926   3.963   1.142   7.122  0.1493 -2.9057 -0.6931
 9489SOL    HW239927   4.094   1.207   7.086  0.2040 -0.3454 -0.4887
 9490SOL     OW39928   2.431   4.376  11.457  0.1730  0.2700 -1.0334
 9490SOL    HW139929   2.513   4.421  11.478  2.0778 -2.3726 -2.6868
 9490SOL    HW239930   2.462   4.308  11.397  0.7872  1.0865 -1.6332
 9491SOL     OW39931   3.275   1.502   7.648 -0.1887  0.6842 -0.1777
 9491SOL    HW139932   3.357   1.508   7.599 -0.7359  1.2775 -1.0351
 9491SOL    HW239933   3.288   1.564   7.720 -0.6910 -0.0289  0.5298
 9492SOL     OW39934   1.947   3.670  13.477  0.0714  0.5042  0.3229
 9492SOL    HW139935   1.930   3.609  13.549  0.8036 -0.5607 -0.3916
 9492SOL    HW239936   1.957   3.611  13.402  1.5300 -1.9408  2.4356
 9493SOL     OW39937   0.885   2.746  17.270  0.0784  0.1591  0.3088
 9493SOL    HW139938   0.928   2.821  17.311 -0.5173  1.1654 -0.8713
 9493SOL    HW239939   0.812   2.731  17.331 -0.3406  0.8493 -0.0216
 9494SOL     OW39940   2.255   2.940   3.652  0.1890  0.3313  0.1383
 9494SOL    HW139941   2.242   2.849   3.624  0.4260  0.1454  0.6399
 9494SOL    HW239942   2.178   2.982   3.614  0.9783  0.6285 -1.1124
 9495SOL     OW39943   1.143   3.621   0.749  0.1352 -0.2301 -0.3994
 9495SOL    HW139944   1.123   3.613   0.842 -0.7939 -1.2162 -0.6870
 9495SOL    HW239945   1.055   3.640   0.717  0.1248 -0.0643 -0.2728
 9496SOL     OW39946   4.554   3.683  11.214  0.4338 -0.4159 -0.1129
 9496SOL    HW139947   4.610   3.607  11.202  0.1793 -0.9298  1.9964
 9496SOL    HW239948   4.622   3.744  11.244 -0.0402  0.3582 -0.5970
 9497SOL     OW39949   4.540   2.158  16.783 -0.5337 -0.3403 -0.3728
 9497SOL    HW139950   4.561   2.251  16.786  2.2318 -0.9131 -1.3633
 9497SOL    HW239951   4.604   2.131  16.716  0.8915  0.0951  0.8113
 9498SOL     OW39952   3.393   0.724   1.981  0.4454  0.9088 -0.3705
 9498SOL    HW139953   3.386   0.629   1.993  4.4860  0.5602 -0.7000
 9498SOL    HW239954   3.380   0.750   2.072  0.5283  0.8122 -0.3314
 9499SOL     OW39955   3.688   2.147   4.149 -0.1486 -0.4583  0.0345
 9499SOL    HW139956   3.653   2.194   4.073  1.0784  1.7350  0.8045
 9499SOL    HW239957   3.781   2.166   4.140 -0.1450 -1.6065 -2.2432
 9500SOL     OW39958   4.593   0.490   2.253 -0.0846 -0.0235  0.0953
 9500SOL    HW139959   4.558   0.518   2.168 -1.2780  2.5565  1.4504
 9500SOL    HW239960   4.510   0.464   2.293 -0.7922  1.4141 -0.4568
 9501SOL     OW39961   0.450   3.642   5.257 -0.2420 -0.2079  0.5525
 9501SOL    HW139962   0.432   3.645   5.351 -3.3060  1.7743 -0.0781
 9501SOL    HW239963   0.385   3.582   5.220  1.0041 -0.5813 -1.0049
 9502SOL     OW39964   0.297   2.723   6.699 -0.4176  0.5801 -0.2706
 9502SOL    HW139965   0.305   2.728   6.794 -0.6109 -0.9871 -0.1699
 9502SOL    HW239966   0.202   2.728   6.687 -0.4154 -0.0503 -0.5259
 9503SOL     OW39967   1.822   3.860   3.366  0.8008 -0.0914 -0.3236
 9503SOL    HW139968   1.908   3.831   3.396  0.1535 -0.2912  1.3398
 9503SOL    HW239969   1.787   3.884   3.452  1.2339  0.9735 -0.4335
 9504SOL     OW39970   0.820   1.295   9.200 -0.1056  0.0973 -0.1091
 9504SOL    HW139971   0.851   1.215   9.243 -1.0817  1.1147  2.5186
 9504SOL    HW239972   0.782   1.338   9.276 -1.4808 -0.4498 -0.4925
 9505SOL     OW39973   0.252   2.882   5.615 -1.1022 -0.4126  0.1652
 9505SOL    HW139974   0.218   2.922   5.535  2.1567  0.5973 -0.6743
 9505SOL    HW239975   0.275   2.796   5.580  0.8132  1.0047 -2.0608
 9506SOL     OW39976   3.446   3.062  10.566  0.0541 -0.1293 -0.4188
 9506SOL    HW139977   3.466   3.110  10.646  1.5351 -1.1009 -0.2151
 9506SOL    HW239978   3.499   2.984  10.584 -2.7572 -2.2892 -1.4310
 9507SOL     OW39979   1.652   2.873   4.908 -0.4181  0.1242  0.1910
 9507SOL    HW139980   1.636   2.966   4.896 -0.0056  0.1671 -0.0317
 9507SOL    HW239981   1.732   2.864   4.856 -0.3227 -0.7311  0.4825
 9508SOL     OW39982   2.401   0.537   4.838  0.2152 -0.4622  0.1695
 9508SOL    HW139983   2.431   0.479   4.769 -0.0940 -0.1480 -0.2304
 9508SOL    HW239984   2.325   0.485   4.866 -0.9232  2.7700  3.0862
 9509SOL     OW39985   1.979   4.407  14.093 -0.2046  0.0991 -0.2029
 9509SOL    HW139986   1.928   4.327  14.081 -1.9768  1.4989 -2.0286
 9509SOL    HW239987   1.919   4.473  14.058  0.1134  0.3367 -0.2992
 9510SOL     OW39988   1.992   3.836   2.056  0.3280  0.4119 -0.1003
 9510SOL    HW139989   1.940   3.768   2.011 -0.9565  1.3315 -0.0121
 9510SOL    HW239990   1.958   3.914   2.012  0.0277  0.3495  0.0223
 9511SOL     OW39991   3.215   3.254  11.260  0.4201  0.4589  0.3663
 9511SOL    HW139992   3.143   3.200  11.293  1.0871 -0.3251  0.5393
 9511SOL    HW239993   3.212   3.314  11.335 -1.9758 -1.4692  1.7910
 9512SOL     OW39994   2.003   2.689   5.017  0.2968  0.4475 -0.3089
 9512SOL    HW139995   1.996   2.720   4.927 -0.9226 -1.2880 -0.7915
 9512SOL    HW239996   1.958   2.762   5.060 -1.5058 -1.0977  0.4228
 9513SOL     OW39997   2.310   3.392   2.602  0.1049 -0.4709 -0.0230
 9513SOL    HW139998   2.366   3.411   2.527  0.4036 -0.9016  0.0898
 9513SOL    HW239999   2.261   3.474   2.612  0.7068 -0.2321  0.9662
 9514SOL     OW40000   2.549   1.108  17.482 -0.3234 -0.2371  0.1196
 9514SOL    HW140001   2.563   1.030  17.534  0.6831 -0.1517 -0.0189
 9514SOL    HW240002   2.569   1.063  17.400 -1.4692 -1.1720  0.3550
 9515SOL     OW40003   4.312   2.181   3.755  0.0473 -0.1904  0.3477
 9515SOL    HW140004   4.270   2.247   3.810 -1.5512 -0.7648 -0.1841
 9515SOL    HW240005   4.405   2.194   3.771 -0.0417  0.6161  0.2255
 9516SOL     OW40006   2.642   3.831   8.447  0.5746  0.3982 -0.3822
 9516SOL    HW140007   2.608   3.742   8.460  0.8934  0.0759 -1.7398
 9516SOL    HW240008   2.733   3.809   8.426  0.4097 -0.9166  0.2341
 9517SOL     OW40009   0.824   0.271  13.052  0.0813  0.4858 -0.0037
 9517SOL    HW140010   0.853   0.291  13.141 -0.0078  2.1269 -0.3558
 9517SOL    HW240011   0.731   0.256  13.069  0.4513  1.3397  2.8365
 9518SOL     OW40012   4.471   2.953   0.572 -0.3931 -0.0597  0.0228
 9518SOL    HW140013   4.449   3.039   0.607  3.3174  0.5450  0.9347
 9518SOL    HW240014   4.549   2.967   0.517 -0.4904  0.2270 -0.0391
 9519SOL     OW40015   2.458   2.019  12.053 -0.3431 -0.4434  0.1026
 9519SOL    HW140016   2.507   2.096  12.081 -1.5462 -0.8271  3.3061
 9519SOL    HW240017   2.465   1.965  12.132  1.8602 -0.6714 -0.2556
 9520SOL     OW40018   4.613   2.635   4.277 -0.4229  0.2188  0.1329
 9520SOL    HW140019   4.588   2.606   4.189 -2.2902 -0.8943  1.0225
 9520SOL    HW240020   4.538   2.621   4.335  0.0162 -0.5088  0.5290
 9521SOL     OW40021   3.804   1.566  10.815 -0.8245  0.1738 -0.1118
 9521SOL    HW140022   3.865   1.495  10.794  0.0419  1.1430 -0.8508
 9521SOL    HW240023   3.724   1.524  10.784 -1.0454  0.7114 -0.2705
 9522SOL     OW40024   4.486   3.594   4.452 -0.1971  0.0098 -0.2029
 9522SOL    HW140025   4.540   3.531   4.404 -0.2557  1.0243 -1.5848
 9522SOL    HW240026   4.412   3.539   4.478  1.0468 -0.2366  2.8110
 9523SOL     OW40027   0.383   3.498   4.994 -0.1436 -0.0068 -0.1214
 9523SOL    HW140028   0.340   3.526   4.913  1.0776  1.6877 -0.1856
 9523SOL    HW240029   0.472   3.525   4.973  0.5530 -0.3648  2.4087
 9524SOL     OW40030   1.721   2.043  10.223  0.3989 -0.3447 -0.3111
 9524SOL    HW140031   1.780   2.052  10.298  0.4384  1.5976 -0.5755
 9524SOL    HW240032   1.747   2.130  10.195  0.5005 -0.6518 -1.1579
 9525SOL     OW40033   1.043   0.440   3.163  0.0075 -0.8953  0.4089
 9525SOL    HW140034   1.016   0.463   3.074  0.2180 -1.3926  0.2181
 9525SOL    HW240035   0.977   0.488   3.212  1.3742  2.9875 -1.5863
 9526SOL     OW40036   3.987   3.070  10.937  0.3317  0.4671  0.2103
 9526SOL    HW140037   4.068   3.119  10.924 -0.7126  1.9929 -0.4076
 9526SOL    HW240038   4.001   2.985  10.895 -0.1754  0.3957  0.1910
 9527SOL     OW40039   3.656   2.524   3.448  0.0291  1.1714 -0.2689
 9527SOL    HW140040   3.734   2.577   3.429  0.5987  0.3082 -0.3530
 9527SOL    HW240041   3.639   2.516   3.354  1.7576  1.2163 -0.6013
 9528SOL     OW40042   2.603   1.522  13.561  0.3466  0.6109  0.4437
 9528SOL    HW140043   2.511   1.497  13.573  0.2501 -0.2475 -2.1123
 9528SOL    HW240044   2.635   1.453  13.504  0.0609 -0.2840  1.3521
 9529SOL     OW40045   2.232   2.883   7.969  0.5665  0.0775  0.0889
 9529SOL    HW140046   2.163   2.845   8.025 -0.5830 -0.6268 -1.7836
 9529SOL    HW240047   2.184   2.886   7.886  0.7322  0.1811 -0.0026
 9530SOL     OW40048   4.421   0.168   0.345  0.2355  0.3432  0.3759
 9530SOL    HW140049   4.486   0.144   0.412  3.1491  0.4867 -2.4004
 9530SOL    HW240050   4.353   0.107   0.374  0.4968 -0.1302  0.0057
 9531SOL     OW40051   2.107   1.648   6.572  0.4828 -0.5084  0.3655
 9531SOL    HW140052   2.014   1.625   6.580 -0.2441  1.9023 -1.1389
 9531SOL    HW240053   2.124   1.659   6.478 -1.4654 -3.3237 -0.3163
 9532SOL     OW40054   2.844   3.528   2.101 -0.1158  0.0707  0.3789
 9532SOL    HW140055   2.829   3.509   2.008  1.3158 -1.3797  0.4514
 9532SOL    HW240056   2.936   3.504   2.109  0.2050  1.3493  0.6185
 9533SOL     OW40057   2.266   2.851   2.369 -0.4754  0.1505  0.0355
 9533SOL    HW140058   2.186   2.879   2.325  0.4012 -0.0066 -1.6337
 9533SOL    HW240059   2.293   2.934   2.408 -0.4579  0.8954 -1.5793
 9534SOL     OW40060   0.145   2.892   2.379 -0.6042 -0.2256 -0.3896
 9534SOL    HW140061   0.200   2.961   2.343  1.3916 -0.9077  1.3337
 9534SOL    HW240062   0.085   2.946   2.432 -2.5660 -2.5826 -0.2198
 9535SOL     OW40063   2.407   1.892  16.922 -0.0748  0.1608 -0.1590
 9535SOL    HW140064   2.399   1.797  16.923 -0.4622  0.1930  0.2194
 9535SOL    HW240065   2.478   1.903  16.860 -1.0889  1.3957 -1.1098
 9536SOL     OW40066   0.994   3.461   8.896 -0.7733  0.3012  0.5686
 9536SOL    HW140067   0.909   3.472   8.853 -0.4481 -0.7160 -0.3488
 9536SOL    HW240068   0.969   3.384   8.947 -2.0050 -0.8471 -1.7605
 9537SOL     OW40069   2.828   2.759   4.423 -0.3519  0.4807 -0.6117
 9537SOL    HW140070   2.813   2.837   4.476  1.4009  0.2773  0.2076
 9537SOL    HW240071   2.776   2.778   4.345 -0.7496  0.7521 -0.2796
 9538SOL     OW40072   3.934   3.728   4.500  0.3378  0.3732  0.1240
 9538SOL    HW140073   3.995   3.745   4.428  0.1734 -0.8491 -0.3153
 9538SOL    HW240074   3.988   3.671   4.555  0.7924  0.9430  0.2697
 9539SOL     OW40075   1.997   3.619  14.903  0.1799  0.4200  0.4871
 9539SOL    HW140076   2.068   3.633  14.965 -1.0565  0.8294  1.8064
 9539SOL    HW240077   1.928   3.678  14.933 -2.0284 -3.4945  3.0900
 9540SOL     OW40078   4.406   3.465  11.018 -0.4311 -0.3128  0.0553
 9540SOL    HW140079   4.415   3.522  11.095  0.9872  1.4758 -1.4284
 9540SOL    HW240080   4.492   3.476  10.977 -0.1363  0.7371  0.9408
 9541SOL     OW40081   4.420   4.575   4.398 -0.1806  0.0775 -0.3256
 9541SOL    HW140082   4.450   4.538   4.315 -0.9896  1.2333 -1.1153
 9541SOL    HW240083   4.437   4.668   4.381  0.3528 -0.1196 -0.8679
 9542SOL     OW40084   2.518   0.161  11.907  0.2488 -0.2209 -0.1459
 9542SOL    HW140085   2.557   0.230  11.961  0.6113  0.1487 -0.8742
 9542SOL    HW240086   2.437   0.152  11.956  0.3858  2.2120  0.5040
 9543SOL     OW40087   3.582   0.893   5.922 -0.0109 -0.6377  0.7731
 9543SOL    HW140088   3.610   0.801   5.916  1.6948 -0.1874  1.8137
 9543SOL    HW240089   3.563   0.900   6.015 -0.6482  0.5018  0.5489
 9544SOL     OW40090   3.749   0.773  12.834 -0.1393 -0.2452 -0.2605
 9544SOL    HW140091   3.763   0.697  12.778 -2.8967 -0.1857 -1.0418
 9544SOL    HW240092   3.777   0.850  12.785 -1.8439 -0.4535 -1.5836
 9545SOL     OW40093   3.064   4.019   1.223  0.3708 -0.0999  0.0570
 9545SOL    HW140094   3.087   3.951   1.159  1.2769  0.3867 -0.1354
 9545SOL    HW240095   3.060   3.968   1.304 -1.5527  1.4551  0.9379
 9546SOL     OW40096   3.934   2.226  13.727 -0.3971 -0.3685 -0.2673
 9546SOL    HW140097   3.849   2.270  13.736 -0.6676 -1.1849  1.0561
 9546SOL    HW240098   3.956   2.201  13.816  1.5879 -0.1787 -0.7073
 9547SOL     OW40099   3.577   3.120   7.453 -0.2963 -0.4292  0.2463
 9547SOL    HW140100   3.600   3.044   7.399  1.5457 -0.2621  0.7826
 9547SOL    HW240101   3.664   3.144   7.485  0.0114 -3.5684  1.8599
 9548SOL     OW40102   4.297   1.425   3.603  0.2202 -0.7468 -0.1477
 9548SOL    HW140103   4.240   1.358   3.565 -0.0750 -0.8023  0.3978
 9548SOL    HW240104   4.240   1.497   3.632  1.1307  0.4424 -1.2996
 9549SOL     OW40105   0.479   2.892   2.997  0.2597 -0.5576  0.4347
 9549SOL    HW140106   0.521   2.851   3.072  2.4493  0.2934 -0.3363
 9549SOL    HW240107   0.540   2.870   2.926 -0.6863  0.7119 -0.7787
 9550SOL     OW40108   2.226   3.008   4.614  0.1615  0.0972  0.0852
 9550SOL    HW140109   2.140   2.974   4.591 -0.5586  1.3427  0.9272
 9550SOL    HW240110   2.232   3.096   4.577  0.4701 -0.2586 -0.7207
 9551SOL     OW40111   1.453   0.110  17.506  0.4750 -0.0488  0.1142
 9551SOL    HW140112   1.544   0.099  17.532  0.7617 -0.0952 -0.9072
 9551SOL    HW240113   1.437   0.029  17.458 -0.1554  0.5898 -0.7685
 9552SOL     OW40114   1.954   1.413   8.018  0.1474 -0.4019 -0.5897
 9552SOL    HW140115   1.878   1.397   8.074  1.1975  1.0072  1.2545
 9552SOL    HW240116   2.020   1.410   8.087  1.0960 -0.5210 -1.5076
 9553SOL     OW40117   1.478   2.363   3.917  0.2025 -0.2415  0.1593
 9553SOL    HW140118   1.412   2.432   3.905  0.0534 -0.3866  0.1444
 9553SOL    HW240119   1.530   2.408   3.984 -0.3729  0.2056  0.3151
 9554SOL     OW40120   3.046   1.432  12.895  0.5802  0.6697 -0.4813
 9554SOL    HW140121   3.133   1.400  12.919 -0.1908 -0.8948  0.2204
 9554SOL    HW240122   3.019   1.478  12.974 -2.4190 -0.6950 -0.7230
 9555SOL     OW40123   0.252   0.820   7.697 -0.0312  0.5063 -0.1588
 9555SOL    HW140124   0.240   0.819   7.602 -2.5475 -1.8175  0.1766
 9555SOL    HW240125   0.211   0.903   7.721 -0.9103 -0.2094  0.8210
 9556SOL     OW40126   3.501   1.276   8.491 -0.1791  0.1902  0.8026
 9556SOL    HW140127   3.509   1.198   8.436  1.2829  1.3311 -0.6152
 9556SOL    HW240128   3.492   1.241   8.580  1.9902 -1.2059  0.4725
 9557SOL     OW40129   2.299   1.520   3.485 -0.2311 -0.2486  0.3335
 9557SOL    HW140130   2.342   1.574   3.418 -2.5627  2.2512  0.8588
 9557SOL    HW240131   2.222   1.491   3.436 -0.0688 -1.1824  0.6431
 9558SOL     OW40132   0.395   3.998   7.902  0.0730  0.5681  0.1938
 9558SOL    HW140133   0.423   3.935   7.836  0.0451 -1.2003  1.8713
 9558SOL    HW240134   0.364   4.075   7.854 -0.1865 -0.5294 -1.3607
 9559SOL     OW40135   3.570   2.116   6.221 -0.2901 -0.4459  0.1606
 9559SOL    HW140136   3.631   2.190   6.219 -0.0044 -0.6904 -0.0706
 9559SOL    HW240137   3.525   2.138   6.303  0.4192  0.5049  0.2956
 9560SOL     OW40138   2.087   2.226   3.169  0.5942  0.8118 -0.1807
 9560SOL    HW140139   2.176   2.223   3.134  0.8293 -1.2497  0.6152
 9560SOL    HW240140   2.036   2.232   3.089  1.5302 -0.5598 -0.8788
 9561SOL     OW40141   1.536   4.585   5.316  0.4476  0.0557  0.0479
 9561SOL    HW140142   1.603   4.518   5.325  0.9017  0.2935 -1.4518
 9561SOL    HW240143   1.586   4.667   5.324 -0.8361  0.3574  4.5465
 9562SOL     OW40144   4.516   2.163  10.103  0.2042  0.0584 -0.3759
 9562SOL    HW140145   4.589   2.120  10.059 -0.3612 -1.5052  0.2323
 9562SOL    HW240146   4.465   2.177  10.023 -1.2044  2.7108  0.9574
 9563SOL     OW40147   1.219   2.435   9.294  0.7730  0.5069  0.6069
 9563SOL    HW140148   1.170   2.363   9.254  1.1937  0.1407  0.7467
 9563SOL    HW240149   1.210   2.503   9.228  0.4119  0.2757  0.4168
 9564SOL     OW40150   2.980   3.652  15.324 -0.7159  0.1110 -0.1602
 9564SOL    HW140151   2.946   3.584  15.382 -1.2008  0.0194 -0.5566
 9564SOL    HW240152   2.900   3.704  15.313 -1.5406 -1.1225  0.0159
 9565SOL     OW40153   2.450   2.518   4.785  1.0693 -0.1123  0.2161
 9565SOL    HW140154   2.386   2.579   4.822 -0.3643 -2.2771  1.3375
 9565SOL    HW240155   2.520   2.578   4.761  0.2015  0.8011 -0.0165
   4.72546   4.72546  17.70314
